 Entering Gaussian System, Link 0=/apps/software/g16/g16
 Initial command:
 /apps/software/g16/l1.exe "/scratch/Gau-340446.inp" -scrdir="/scratch/"
 Entering Link 1 = /apps/software/g16/l1.exe PID=    340447.
  
 Copyright (c) 1988,1990,1992,1993,1995,1998,2003,2009,2016,
            Gaussian, Inc.  All Rights Reserved.
  
 This is part of the Gaussian(R) 16 program.  It is based on
 the Gaussian(R) 09 system (copyright 2009, Gaussian, Inc.),
 the Gaussian(R) 03 system (copyright 2003, Gaussian, Inc.),
 the Gaussian(R) 98 system (copyright 1998, Gaussian, Inc.),
 the Gaussian(R) 94 system (copyright 1995, Gaussian, Inc.),
 the Gaussian 92(TM) system (copyright 1992, Gaussian, Inc.),
 the Gaussian 90(TM) system (copyright 1990, Gaussian, Inc.),
 the Gaussian 88(TM) system (copyright 1988, Gaussian, Inc.),
 the Gaussian 86(TM) system (copyright 1986, Carnegie Mellon
 University), and the Gaussian 82(TM) system (copyright 1983,
 Carnegie Mellon University). Gaussian is a federally registered
 trademark of Gaussian, Inc.
  
 This software contains proprietary and confidential information,
 including trade secrets, belonging to Gaussian, Inc.
  
 This software is provided under written license and may be
 used, copied, transmitted, or stored only in accord with that
 written license.
  
 The following legend is applicable only to US Government
 contracts under FAR:
  
                    RESTRICTED RIGHTS LEGEND
  
 Use, reproduction and disclosure by the US Government is
 subject to restrictions as set forth in subparagraphs (a)
 and (c) of the Commercial Computer Software - Restricted
 Rights clause in FAR 52.227-19.
  
 Gaussian, Inc.
 340 Quinnipiac St., Bldg. 40, Wallingford CT 06492
  
  
 ---------------------------------------------------------------
 Warning -- This program may not be used in any manner that
 competes with the business of Gaussian, Inc. or will provide
 assistance to any competitor of Gaussian, Inc.  The licensee
 of this program is prohibited from giving any competitor of
 Gaussian, Inc. access to this program.  By using this program,
 the user acknowledges that Gaussian, Inc. is engaged in the
 business of creating and licensing software in the field of
 computational chemistry and represents and warrants to the
 licensee that it is not a competitor of Gaussian, Inc. and that
 it will not use this program in any manner prohibited above.
 ---------------------------------------------------------------
  

 Cite this work as:
 Gaussian 16, Revision A.03,
 M. J. Frisch, G. W. Trucks, H. B. Schlegel, G. E. Scuseria, 
 M. A. Robb, J. R. Cheeseman, G. Scalmani, V. Barone, 
 G. A. Petersson, H. Nakatsuji, X. Li, M. Caricato, A. V. Marenich, 
 J. Bloino, B. G. Janesko, R. Gomperts, B. Mennucci, H. P. Hratchian, 
 J. V. Ortiz, A. F. Izmaylov, J. L. Sonnenberg, D. Williams-Young, 
 F. Ding, F. Lipparini, F. Egidi, J. Goings, B. Peng, A. Petrone, 
 T. Henderson, D. Ranasinghe, V. G. Zakrzewski, J. Gao, N. Rega, 
 G. Zheng, W. Liang, M. Hada, M. Ehara, K. Toyota, R. Fukuda, 
 J. Hasegawa, M. Ishida, T. Nakajima, Y. Honda, O. Kitao, H. Nakai, 
 T. Vreven, K. Throssell, J. A. Montgomery, Jr., J. E. Peralta, 
 F. Ogliaro, M. J. Bearpark, J. J. Heyd, E. N. Brothers, K. N. Kudin, 
 V. N. Staroverov, T. A. Keith, R. Kobayashi, J. Normand, 
 K. Raghavachari, A. P. Rendell, J. C. Burant, S. S. Iyengar, 
 J. Tomasi, M. Cossi, J. M. Millam, M. Klene, C. Adamo, R. Cammi, 
 J. W. Ochterski, R. L. Martin, K. Morokuma, O. Farkas, 
 J. B. Foresman, and D. J. Fox, Gaussian, Inc., Wallingford CT, 2016.
 
 ******************************************
 Gaussian 16:  ES64L-G16RevA.03 25-Dec-2016
                 4-May-2022 
 ******************************************
 %nproc=8
 Will use up to    8 processors via shared memory.
 %mem=20GB
 %chk=27-dicl-dibenzene.chk
 ----------------
 #p B3LYP/cc-pVDZ
 ----------------
 1/38=1,172=1/1;
 2/12=2,17=6,18=5,40=1/2;
 3/5=16,11=2,25=1,30=1,74=-5/1,2,3;
 4//1;
 5/5=2,38=5/2;
 6/7=2,8=2,9=2,10=2,28=1/1;
 99/5=1,9=1/99;
 Leave Link    1 at Wed May  4 12:29:14 2022, MaxMem=  2684354560 cpu:               0.1 elap:               0.0
 (Enter /apps/software/g16/l101.exe)
 ---------------------------------------
 2,7-dicl-dibenzene SP RKS B3LYP cc-pVDZ
 ---------------------------------------
 Symbolic Z-matrix:
 Charge =  0 Multiplicity = 1
 C                    -0.84533   0.95631   0.86696 
 C                     0.46297   0.89055   0.41154 
 C                     1.06498   2.05042  -0.04873 
 C                     0.38682   3.25826  -0.05958 
 C                    -0.92917   3.32496   0.39786 
 C                    -1.53692   2.15807   0.86178 
 H                    -1.33178   0.05786   1.22288 
 H                     1.00912  -0.04138   0.41174 
 H                     0.89341   4.14653  -0.40662 
 H                    -2.5626    2.18503   1.20271 
 C                    -1.66709   4.62323   0.38663 
 C                    -2.42162   5.01473   1.4925 
 C                    -1.61923   5.46623  -0.7239 
 C                    -3.10577   6.21909   1.47479 
 H                    -2.46369   4.39499   2.37582 
 C                    -2.30902   6.66904  -0.72695 
 H                    -1.05556   5.17208  -1.59839 
 C                    -3.05942   7.05752   0.37275 
 H                    -2.26866   7.30949  -1.598 
 H                    -3.60008   7.99262   0.37887 
 Cl                    2.70998   1.99495  -0.61717 
 Cl                   -4.03388   6.68924   2.87111 
 
 ITRead=  0  0  0  0  0  0  0  0  0  0  0  0  0  0  0  0  0  0  0  0
 ITRead=  0  0
 MicOpt= -1 -1 -1 -1 -1 -1 -1 -1 -1 -1 -1 -1 -1 -1 -1 -1 -1 -1 -1 -1
 MicOpt= -1 -1
 NAtoms=     22 NQM=       22 NQMF=       0 NMMI=      0 NMMIF=      0
                NMic=       0 NMicF=      0.
                    Isotopes and Nuclear Properties:
 (Nuclear quadrupole moments (NQMom) in fm**2, nuclear magnetic moments (NMagM)
  in nuclear magnetons)

  Atom         1           2           3           4           5           6           7           8           9          10
 IAtWgt=          12          12          12          12          12          12           1           1           1           1
 AtmWgt=  12.0000000  12.0000000  12.0000000  12.0000000  12.0000000  12.0000000   1.0078250   1.0078250   1.0078250   1.0078250
 NucSpn=           0           0           0           0           0           0           1           1           1           1
 AtZEff=  -0.0000000  -0.0000000  -0.0000000  -0.0000000  -0.0000000  -0.0000000  -0.0000000  -0.0000000  -0.0000000  -0.0000000
 NQMom=    0.0000000   0.0000000   0.0000000   0.0000000   0.0000000   0.0000000   0.0000000   0.0000000   0.0000000   0.0000000
 NMagM=    0.0000000   0.0000000   0.0000000   0.0000000   0.0000000   0.0000000   2.7928460   2.7928460   2.7928460   2.7928460
 AtZNuc=   6.0000000   6.0000000   6.0000000   6.0000000   6.0000000   6.0000000   1.0000000   1.0000000   1.0000000   1.0000000

  Atom        11          12          13          14          15          16          17          18          19          20
 IAtWgt=          12          12          12          12           1          12           1          12           1           1
 AtmWgt=  12.0000000  12.0000000  12.0000000  12.0000000   1.0078250  12.0000000   1.0078250  12.0000000   1.0078250   1.0078250
 NucSpn=           0           0           0           0           1           0           1           0           1           1
 AtZEff=  -0.0000000  -0.0000000  -0.0000000  -0.0000000  -0.0000000  -0.0000000  -0.0000000  -0.0000000  -0.0000000  -0.0000000
 NQMom=    0.0000000   0.0000000   0.0000000   0.0000000   0.0000000   0.0000000   0.0000000   0.0000000   0.0000000   0.0000000
 NMagM=    0.0000000   0.0000000   0.0000000   0.0000000   2.7928460   0.0000000   2.7928460   0.0000000   2.7928460   2.7928460
 AtZNuc=   6.0000000   6.0000000   6.0000000   6.0000000   1.0000000   6.0000000   1.0000000   6.0000000   1.0000000   1.0000000

  Atom        21          22
 IAtWgt=          35          35
 AtmWgt=  34.9688527  34.9688527
 NucSpn=           3           3
 AtZEff=  -0.0000000  -0.0000000
 NQMom=   -8.1650000  -8.1650000
 NMagM=    0.8218740   0.8218740
 AtZNuc=  17.0000000  17.0000000
 Leave Link  101 at Wed May  4 12:29:15 2022, MaxMem=  2684354560 cpu:               0.6 elap:               0.1
 (Enter /apps/software/g16/l202.exe)
                          Input orientation:                          
 ---------------------------------------------------------------------
 Center     Atomic      Atomic             Coordinates (Angstroms)
 Number     Number       Type             X           Y           Z
 ---------------------------------------------------------------------
      1          6           0       -0.845332    0.956312    0.866957
      2          6           0        0.462969    0.890551    0.411537
      3          6           0        1.064982    2.050417   -0.048726
      4          6           0        0.386824    3.258257   -0.059576
      5          6           0       -0.929166    3.324964    0.397861
      6          6           0       -1.536919    2.158069    0.861784
      7          1           0       -1.331778    0.057862    1.222883
      8          1           0        1.009116   -0.041378    0.411742
      9          1           0        0.893409    4.146528   -0.406619
     10          1           0       -2.562605    2.185035    1.202711
     11          6           0       -1.667093    4.623227    0.386628
     12          6           0       -2.421619    5.014734    1.492501
     13          6           0       -1.619232    5.466235   -0.723897
     14          6           0       -3.105772    6.219089    1.474794
     15          1           0       -2.463692    4.394991    2.375818
     16          6           0       -2.309019    6.669044   -0.726948
     17          1           0       -1.055558    5.172084   -1.598386
     18          6           0       -3.059416    7.057516    0.372751
     19          1           0       -2.268658    7.309487   -1.598001
     20          1           0       -3.600078    7.992619    0.378873
     21         17           0        2.709979    1.994952   -0.617168
     22         17           0       -4.033878    6.689235    2.871108
 ---------------------------------------------------------------------
                    Distance matrix (angstroms):
                    1          2          3          4          5
     1  C    0.000000
     2  C    1.386861   0.000000
     3  C    2.384291   1.385479   0.000000
     4  C    2.770492   2.415322   1.385242   0.000000
     5  C    2.416111   2.804389   2.408431   1.394822   0.000000
     6  C    1.386556   2.410161   2.758715   2.400022   1.395074
     7  H    1.081909   2.138404   3.366263   3.852379   3.393629
     8  H    2.154434   1.080171   2.142606   3.390720   3.884507
     9  H    3.850025   3.384677   2.133355   1.079857   2.154979
    10  H    2.138110   3.384633   3.839740   3.382943   2.148335
    11  C    3.788440   4.297750   3.777979   2.506156   1.493368
    12  C    4.398497   5.147641   4.828969   3.658073   2.506186
    13  C    4.844496   5.153800   4.396438   3.056263   2.513876
    14  C    5.759850   6.500749   6.090495   4.828979   3.778009
    15  H    4.089042   4.970396   4.881289   3.917748   2.722506
    16  C    6.108864   6.509305   5.759825   4.398457   3.788411
    17  H    4.888236   4.967619   4.079576   2.848005   2.722651
    18  C    6.509309   7.102123   6.500719   5.147605   4.297736
    19  H    6.961660   7.259668   6.416481   5.082401   4.653399
    20  H    7.572085   8.182224   7.566729   6.204982   5.377837
    21  Cl   3.990192   2.706841   1.741326   2.702573   4.005321
    22  Cl   6.859290   7.739242   7.486150   6.316892   5.203317
                    6          7          8          9         10
     6  C    0.000000
     7  H    2.140875   0.000000
     8  H    3.394466   2.479432   0.000000
     9  H    3.386637   4.931929   4.268683   0.000000
    10  H    1.081198   2.457683   4.282492   4.287357   0.000000
    11  C    2.513906   4.653421   5.377850   2.722620   2.722630
    12  C    3.056310   5.082423   6.205018   3.917888   2.847991
    13  C    3.669485   5.755266   6.207390   2.855811   3.920209
    14  C    4.396472   6.416481   7.566758   4.881462   4.079541
    15  H    2.855701   4.628302   5.966519   4.367358   2.503971
    16  C    4.844492   6.961651   7.572081   4.089163   4.888173
    17  H    3.920259   5.847318   5.956818   2.504106   4.363462
    18  C    5.153808   7.259657   8.182223   4.970523   4.967568
    19  H    5.755267   7.837168   8.295667   4.628432   5.847256
    20  H    6.207399   8.295657   9.262336   5.966645   5.956769
    21  Cl   4.500005   4.844987   2.845738   2.823745   5.581059
    22  Cl   5.550104   7.348000   8.762501   6.441042   5.023546
                   11         12         13         14         15
    11  C    0.000000
    12  C    1.394827   0.000000
    13  C    1.395069   2.400020   0.000000
    14  C    2.408459   1.385226   2.758773   0.000000
    15  H    2.154887   1.079861   3.386577   2.133411   0.000000
    16  C    2.416089   2.770447   1.386567   2.384312   3.849987
    17  H    2.148372   3.382967   1.081196   3.839796   4.287308
    18  C    2.804375   2.415282   2.410175   1.385499   3.384702
    19  H    3.393615   3.852336   2.140886   3.366273   4.931892
    20  H    3.884494   3.390684   3.394477   2.142613   4.268734
    21  Cl   5.203287   6.316888   5.550069   7.486160   6.440886
    22  Cl   4.005334   2.702572   4.500034   1.741297   2.823890
                   16         17         18         19         20
    16  C    0.000000
    17  H    2.138097   0.000000
    18  C    1.386846   3.384624   0.000000
    19  H    1.081910   2.457663   2.138375   0.000000
    20  H    2.154420   4.282471   1.080172   2.479391   0.000000
    21  Cl   6.859267   5.023567   7.739213   7.348003   8.762473
    22  Cl   3.990182   5.581086   2.706843   4.844961   2.845739
                   21         22
    21  Cl   0.000000
    22  Cl   8.926588   0.000000
 Stoichiometry    C12H8Cl2
 Framework group  C1[X(C12H8Cl2)]
 Deg. of freedom    60
 Full point group                 C1      NOp   1
 Largest Abelian subgroup         C1      NOp   1
 Largest concise Abelian subgroup C1      NOp   1
                         Standard orientation:                         
 ---------------------------------------------------------------------
 Center     Atomic      Atomic             Coordinates (Angstroms)
 Number     Number       Type             X           Y           Z
 ---------------------------------------------------------------------
      1          6           0        2.244851    2.071295    0.751392
      2          6           0        3.304207    1.300888    0.295737
      3          6           0        3.045185    0.017738   -0.158120
      4          6           0        1.759769   -0.498571   -0.162997
      5          6           0        0.693974    0.275570    0.295604
      6          6           0        0.952908    1.567889    0.752876
      7          1           0        2.431824    3.072719    1.115696
      8          1           0        4.313802    1.684902    0.291253
      9          1           0        1.591308   -1.495485   -0.542306
     10          1           0        0.143223    2.177007    1.130202
     11          6           0       -0.693966   -0.275587    0.295567
     12          6           0       -1.759785    0.498546   -0.163005
     13          6           0       -0.952881   -1.567887    0.752886
     14          6           0       -3.045206   -0.017708   -0.158130
     15          1           0       -1.591168    1.495446   -0.542292
     16          6           0       -2.244844   -2.071272    0.751396
     17          1           0       -0.143236   -2.177042    1.130233
     18          6           0       -3.304192   -1.300884    0.295735
     19          1           0       -2.431844   -3.072681    1.115730
     20          1           0       -4.313786   -1.684904    0.291264
     21         17           0        4.357579   -0.965630   -0.743634
     22         17           0       -4.357593    0.965627   -0.743627
 ---------------------------------------------------------------------
 Rotational constants (GHZ):           1.2933316           0.2325301           0.2096841
 Leave Link  202 at Wed May  4 12:29:15 2022, MaxMem=  2684354560 cpu:               0.1 elap:               0.0
 (Enter /apps/software/g16/l301.exe)
 Standard basis: CC-pVDZ (5D, 7F)
 Ernie: Thresh=  0.10000D-02 Tol=  0.10000D-05 Strict=F.
 Ernie:  44 primitive shells out of 404 were deleted.
 There are   258 symmetry adapted cartesian basis functions of A   symmetry.
 There are   244 symmetry adapted basis functions of A   symmetry.
   244 basis functions,   594 primitive gaussians,   258 cartesian basis functions
    57 alpha electrons       57 beta electrons
       nuclear repulsion energy       944.8190688836 Hartrees.
 IExCor=  402 DFT=T Ex+Corr=B3LYP ExCW=0 ScaHFX=  0.200000
 ScaDFX=  0.800000  0.720000  1.000000  0.810000 ScalE2=  1.000000  1.000000
 IRadAn=      5 IRanWt=     -1 IRanGd=            0 ICorTp=0 IEmpDi=  4
 NAtoms=   22 NActive=   22 NUniq=   22 SFac= 1.00D+00 NAtFMM=   60 NAOKFM=F Big=F
 Integral buffers will be    131072 words long.
 Raffenetti 2 integral format.
 Two-electron integral symmetry is turned on.
 Leave Link  301 at Wed May  4 12:29:15 2022, MaxMem=  2684354560 cpu:               0.4 elap:               0.1
 (Enter /apps/software/g16/l302.exe)
 NPDir=0 NMtPBC=     1 NCelOv=     1 NCel=       1 NClECP=     1 NCelD=      1
         NCelK=      1 NCelE2=     1 NClLst=     1 CellRange=     0.0.
 One-electron integrals computed using PRISM.
 One-electron integral symmetry used in STVInt
 NBasis=   244 RedAO= T EigKep=  2.96D-04  NBF=   244
 NBsUse=   244 1.00D-06 EigRej= -1.00D+00 NBFU=   244
 Precomputing XC quadrature grid using
 IXCGrd= 4 IRadAn=           5 IRanWt=          -1 IRanGd=           0 AccXCQ= 0.00D+00.
 Generated NRdTot=       0 NPtTot=           0 NUsed=           0 NTot=          32
 NSgBfM=   256   256   256   256   256 MxSgAt=    22 MxSgA2=    22.
 Leave Link  302 at Wed May  4 12:29:15 2022, MaxMem=  2684354560 cpu:               1.5 elap:               0.2
 (Enter /apps/software/g16/l303.exe)
 DipDrv:  MaxL=1.
 Leave Link  303 at Wed May  4 12:29:15 2022, MaxMem=  2684354560 cpu:               0.3 elap:               0.1
 (Enter /apps/software/g16/l401.exe)
 ExpMin= 1.22D-01 ExpMax= 1.28D+05 ExpMxC= 1.24D+03 IAcc=3 IRadAn=         5 AccDes= 0.00D+00
 Harris functional with IExCor=  402 and IRadAn=       5 diagonalized for initial guess.
 HarFok:  IExCor=  402 AccDes= 0.00D+00 IRadAn=         5 IDoV= 1 UseB2=F ITyADJ=14
 ICtDFT=  3500011 ScaDFX=  1.000000  1.000000  1.000000  1.000000
 FoFCou: FMM=F IPFlag=           0 FMFlag=      100000 FMFlg1=           0
         NFxFlg=           0 DoJE=T BraDBF=F KetDBF=T FulRan=T
         wScrn=  0.000000 ICntrl=       500 IOpCl=  0 I1Cent=   200000004 NGrid=           0
         NMat0=    1 NMatS0=      1 NMatT0=    0 NMatD0=    1 NMtDS0=    0 NMtDT0=    0
 Petite list used in FoFCou.
 Harris En= -1382.42024530643    
 JPrj=0 DoOrth=F DoCkMO=F.
 Leave Link  401 at Wed May  4 12:29:16 2022, MaxMem=  2684354560 cpu:               6.3 elap:               0.8
 (Enter /apps/software/g16/l502.exe)
 Integral symmetry usage will be decided dynamically.
 Closed shell SCF:
 Using DIIS extrapolation, IDIIS=  1040.
 NGot=  2684354560 LenX=  2684216654 LenY=  2684149649
 Requested convergence on RMS density matrix=1.00D-08 within 128 cycles.
 Requested convergence on MAX density matrix=1.00D-06.
 Requested convergence on             energy=1.00D-06.
 No special actions if energy rises.
 Fock matrices will be formed incrementally for  20 cycles.
 Integral accuracy reduced to 1.0D-05 until final iterations.

 Cycle   1  Pass 0  IDiag  1:
 FoFJK:  IHMeth= 1 ICntrl=       0 DoSepK=F KAlg= 0 I1Cent=           0 FoldK=F
 IRaf= 890000000 NMat=       1 IRICut=       1 DoRegI=T DoRafI=F ISym2E= 0 IDoP0=0 IntGTp=1.
 FoFCou: FMM=F IPFlag=           0 FMFlag=      100000 FMFlg1=           0
         NFxFlg=           0 DoJE=F BraDBF=F KetDBF=F FulRan=T
         wScrn=  0.000000 ICntrl=         0 IOpCl=  0 I1Cent=           0 NGrid=           0
         NMat0=    1 NMatS0=      1 NMatT0=    0 NMatD0=    1 NMtDS0=    0 NMtDT0=    0
 Symmetry not used in FoFCou.
 E= -1382.23607307949    
 DIIS: error= 3.48D-02 at cycle   1 NSaved=   1.
 NSaved= 1 IEnMin= 1 EnMin= -1382.23607307949     IErMin= 1 ErrMin= 3.48D-02
 ErrMax= 3.48D-02  0.00D+00 EMaxC= 1.00D-01 BMatC= 2.76D-01 BMatP= 2.76D-01
 IDIUse=3 WtCom= 6.52D-01 WtEn= 3.48D-01
 Coeff-Com:  0.100D+01
 Coeff-En:   0.100D+01
 Coeff:      0.100D+01
 Gap=     0.382 Goal=   None    Shift=    0.000
 GapD=    0.382 DampG=1.000 DampE=0.500 DampFc=0.5000 IDamp=-1.
 Damping current iteration by 5.00D-01
 RMSDP=6.39D-03 MaxDP=1.14D-01              OVMax= 2.24D-01

 Cycle   2  Pass 0  IDiag  1:
 RMSU=  3.10D-03    CP:  9.71D-01
 E= -1382.36911598066     Delta-E=       -0.133042901165 Rises=F Damp=T
 DIIS: error= 4.93D-03 at cycle   2 NSaved=   2.
 NSaved= 2 IEnMin= 2 EnMin= -1382.36911598066     IErMin= 2 ErrMin= 4.93D-03
 ErrMax= 4.93D-03  0.00D+00 EMaxC= 1.00D-01 BMatC= 1.75D-02 BMatP= 2.76D-01
 IDIUse=3 WtCom= 9.51D-01 WtEn= 4.93D-02
 Coeff-Com:  0.108D+00 0.892D+00
 Coeff-En:   0.198D+00 0.802D+00
 Coeff:      0.113D+00 0.887D+00
 Gap=     0.293 Goal=   None    Shift=    0.000
 RMSDP=1.88D-03 MaxDP=3.33D-02 DE=-1.33D-01 OVMax= 1.86D-01

 Cycle   3  Pass 0  IDiag  1:
 RMSU=  1.82D-03    CP:  9.57D-01  9.16D-01
 E= -1382.55797206565     Delta-E=       -0.188856084992 Rises=F Damp=F
 DIIS: error= 5.15D-03 at cycle   3 NSaved=   3.
 NSaved= 3 IEnMin= 3 EnMin= -1382.55797206565     IErMin= 2 ErrMin= 4.93D-03
 ErrMax= 5.15D-03  0.00D+00 EMaxC= 1.00D-01 BMatC= 7.12D-03 BMatP= 1.75D-02
 IDIUse=3 WtCom= 9.48D-01 WtEn= 5.15D-02
 Coeff-Com:  0.102D-01 0.364D+00 0.626D+00
 Coeff-En:   0.000D+00 0.000D+00 0.100D+01
 Coeff:      0.970D-02 0.345D+00 0.645D+00
 Gap=     0.202 Goal=   None    Shift=    0.000
 RMSDP=7.13D-04 MaxDP=1.98D-02 DE=-1.89D-01 OVMax= 4.97D-02

 Cycle   4  Pass 0  IDiag  1:
 RMSU=  6.24D-04    CP:  9.58D-01  9.65D-01  8.32D-01
 E= -1382.56029784171     Delta-E=       -0.002325776062 Rises=F Damp=F
 DIIS: error= 4.51D-03 at cycle   4 NSaved=   4.
 NSaved= 4 IEnMin= 4 EnMin= -1382.56029784171     IErMin= 4 ErrMin= 4.51D-03
 ErrMax= 4.51D-03  0.00D+00 EMaxC= 1.00D-01 BMatC= 5.42D-03 BMatP= 7.12D-03
 IDIUse=3 WtCom= 9.55D-01 WtEn= 4.51D-02
 Coeff-Com: -0.959D-02 0.113D+00 0.460D+00 0.437D+00
 Coeff-En:   0.000D+00 0.000D+00 0.434D+00 0.566D+00
 Coeff:     -0.916D-02 0.108D+00 0.459D+00 0.442D+00
 Gap=     0.199 Goal=   None    Shift=    0.000
 RMSDP=3.60D-04 MaxDP=8.73D-03 DE=-2.33D-03 OVMax= 2.59D-02

 Cycle   5  Pass 0  IDiag  1:
 RMSU=  1.48D-04    CP:  9.57D-01  9.63D-01  8.97D-01  5.13D-01
 E= -1382.56626190049     Delta-E=       -0.005964058780 Rises=F Damp=F
 DIIS: error= 6.76D-04 at cycle   5 NSaved=   5.
 NSaved= 5 IEnMin= 5 EnMin= -1382.56626190049     IErMin= 5 ErrMin= 6.76D-04
 ErrMax= 6.76D-04  0.00D+00 EMaxC= 1.00D-01 BMatC= 1.19D-04 BMatP= 5.42D-03
 IDIUse=3 WtCom= 9.93D-01 WtEn= 6.76D-03
 Coeff-Com: -0.409D-02 0.104D-01 0.134D+00 0.192D+00 0.669D+00
 Coeff-En:   0.000D+00 0.000D+00 0.000D+00 0.000D+00 0.100D+01
 Coeff:     -0.407D-02 0.104D-01 0.133D+00 0.190D+00 0.671D+00
 Gap=     0.199 Goal=   None    Shift=    0.000
 RMSDP=7.07D-05 MaxDP=1.58D-03 DE=-5.96D-03 OVMax= 4.46D-03

 Cycle   6  Pass 0  IDiag  1:
 RMSU=  5.44D-05    CP:  9.57D-01  9.64D-01  9.03D-01  5.50D-01  7.55D-01
 E= -1382.56635466141     Delta-E=       -0.000092760921 Rises=F Damp=F
 DIIS: error= 4.63D-04 at cycle   6 NSaved=   6.
 NSaved= 6 IEnMin= 6 EnMin= -1382.56635466141     IErMin= 6 ErrMin= 4.63D-04
 ErrMax= 4.63D-04  0.00D+00 EMaxC= 1.00D-01 BMatC= 3.33D-05 BMatP= 1.19D-04
 IDIUse=3 WtCom= 9.95D-01 WtEn= 4.63D-03
 Coeff-Com: -0.200D-02-0.109D-03 0.592D-01 0.972D-01 0.438D+00 0.408D+00
 Coeff-En:   0.000D+00 0.000D+00 0.000D+00 0.000D+00 0.216D+00 0.784D+00
 Coeff:     -0.199D-02-0.109D-03 0.589D-01 0.968D-01 0.437D+00 0.410D+00
 Gap=     0.199 Goal=   None    Shift=    0.000
 RMSDP=3.08D-05 MaxDP=7.25D-04 DE=-9.28D-05 OVMax= 2.27D-03

 Cycle   7  Pass 0  IDiag  1:
 RMSU=  1.56D-05    CP:  9.57D-01  9.64D-01  9.05D-01  5.54D-01  7.89D-01
                    CP:  5.31D-01
 E= -1382.56639448977     Delta-E=       -0.000039828359 Rises=F Damp=F
 DIIS: error= 5.02D-05 at cycle   7 NSaved=   7.
 NSaved= 7 IEnMin= 7 EnMin= -1382.56639448977     IErMin= 7 ErrMin= 5.02D-05
 ErrMax= 5.02D-05  0.00D+00 EMaxC= 1.00D-01 BMatC= 1.01D-06 BMatP= 3.33D-05
 IDIUse=1 WtCom= 1.00D+00 WtEn= 0.00D+00
 Coeff-Com: -0.365D-03-0.155D-02 0.132D-01 0.237D-01 0.126D+00 0.189D+00
 Coeff-Com:  0.650D+00
 Coeff:     -0.365D-03-0.155D-02 0.132D-01 0.237D-01 0.126D+00 0.189D+00
 Coeff:      0.650D+00
 Gap=     0.199 Goal=   None    Shift=    0.000
 RMSDP=5.29D-06 MaxDP=2.11D-04 DE=-3.98D-05 OVMax= 2.68D-04

 Initial convergence to 1.0D-05 achieved.  Increase integral accuracy.
 Cycle   8  Pass 1  IDiag  1:
 E= -1382.56635630078     Delta-E=        0.000038188989 Rises=F Damp=F
 DIIS: error= 1.27D-04 at cycle   1 NSaved=   1.
 NSaved= 1 IEnMin= 1 EnMin= -1382.56635630078     IErMin= 1 ErrMin= 1.27D-04
 ErrMax= 1.27D-04  0.00D+00 EMaxC= 1.00D-01 BMatC= 1.14D-06 BMatP= 1.14D-06
 IDIUse=3 WtCom= 9.99D-01 WtEn= 1.27D-03
 Coeff-Com:  0.100D+01
 Coeff-En:   0.100D+01
 Coeff:      0.100D+01
 Gap=     0.199 Goal=   None    Shift=    0.000
 RMSDP=5.29D-06 MaxDP=2.11D-04 DE= 3.82D-05 OVMax= 2.43D-04

 Cycle   9  Pass 1  IDiag  1:
 RMSU=  9.90D-05    CP:  1.00D+00
 E= -1382.56635731000     Delta-E=       -0.000001009216 Rises=F Damp=F
 DIIS: error= 1.66D-05 at cycle   2 NSaved=   2.
 NSaved= 2 IEnMin= 2 EnMin= -1382.56635731000     IErMin= 2 ErrMin= 1.66D-05
 ErrMax= 1.66D-05  0.00D+00 EMaxC= 1.00D-01 BMatC= 1.32D-07 BMatP= 1.14D-06
 IDIUse=1 WtCom= 1.00D+00 WtEn= 0.00D+00
 Coeff-Com:  0.149D+00 0.851D+00
 Coeff:      0.149D+00 0.851D+00
 Gap=     0.199 Goal=   None    Shift=    0.000
 RMSDP=3.83D-06 MaxDP=1.29D-04 DE=-1.01D-06 OVMax= 1.81D-04

 Cycle  10  Pass 1  IDiag  1:
 RMSU=  3.64D-06    CP:  1.00D+00  1.01D+00
 E= -1382.56635725398     Delta-E=        0.000000056019 Rises=F Damp=F
 DIIS: error= 2.34D-05 at cycle   3 NSaved=   3.
 NSaved= 3 IEnMin= 2 EnMin= -1382.56635731000     IErMin= 2 ErrMin= 1.66D-05
 ErrMax= 2.34D-05  0.00D+00 EMaxC= 1.00D-01 BMatC= 1.82D-07 BMatP= 1.32D-07
 IDIUse=1 WtCom= 1.00D+00 WtEn= 0.00D+00
 Coeff-Com:  0.252D-02 0.540D+00 0.458D+00
 Coeff:      0.252D-02 0.540D+00 0.458D+00
 Gap=     0.199 Goal=   None    Shift=    0.000
 RMSDP=2.11D-06 MaxDP=8.49D-05 DE= 5.60D-08 OVMax= 1.36D-04

 Cycle  11  Pass 1  IDiag  1:
 RMSU=  7.13D-07    CP:  1.00D+00  1.01D+00  4.56D-01
 E= -1382.56635744024     Delta-E=       -0.000000186262 Rises=F Damp=F
 DIIS: error= 6.85D-06 at cycle   4 NSaved=   4.
 NSaved= 4 IEnMin= 4 EnMin= -1382.56635744024     IErMin= 4 ErrMin= 6.85D-06
 ErrMax= 6.85D-06  0.00D+00 EMaxC= 1.00D-01 BMatC= 8.60D-09 BMatP= 1.32D-07
 IDIUse=1 WtCom= 1.00D+00 WtEn= 0.00D+00
 Coeff-Com: -0.284D-02 0.324D+00 0.298D+00 0.381D+00
 Coeff:     -0.284D-02 0.324D+00 0.298D+00 0.381D+00
 Gap=     0.199 Goal=   None    Shift=    0.000
 RMSDP=4.48D-07 MaxDP=1.01D-05 DE=-1.86D-07 OVMax= 3.08D-05

 Cycle  12  Pass 1  IDiag  1:
 RMSU=  1.93D-07    CP:  1.00D+00  1.01D+00  4.76D-01  4.43D-01
 E= -1382.56635744994     Delta-E=       -0.000000009695 Rises=F Damp=F
 DIIS: error= 7.77D-07 at cycle   5 NSaved=   5.
 NSaved= 5 IEnMin= 5 EnMin= -1382.56635744994     IErMin= 5 ErrMin= 7.77D-07
 ErrMax= 7.77D-07  0.00D+00 EMaxC= 1.00D-01 BMatC= 2.53D-10 BMatP= 8.60D-09
 IDIUse=1 WtCom= 1.00D+00 WtEn= 0.00D+00
 Coeff-Com: -0.186D-02 0.157D+00 0.148D+00 0.221D+00 0.476D+00
 Coeff:     -0.186D-02 0.157D+00 0.148D+00 0.221D+00 0.476D+00
 Gap=     0.199 Goal=   None    Shift=    0.000
 RMSDP=8.20D-08 MaxDP=1.77D-06 DE=-9.70D-09 OVMax= 4.94D-06

 Cycle  13  Pass 1  IDiag  1:
 RMSU=  5.70D-08    CP:  1.00D+00  1.01D+00  4.73D-01  4.61D-01  7.11D-01
 E= -1382.56635745021     Delta-E=       -0.000000000270 Rises=F Damp=F
 DIIS: error= 1.12D-07 at cycle   6 NSaved=   6.
 NSaved= 6 IEnMin= 6 EnMin= -1382.56635745021     IErMin= 6 ErrMin= 1.12D-07
 ErrMax= 1.12D-07  0.00D+00 EMaxC= 1.00D-01 BMatC= 4.35D-12 BMatP= 2.53D-10
 IDIUse=1 WtCom= 1.00D+00 WtEn= 0.00D+00
 Coeff-Com: -0.616D-03 0.495D-01 0.480D-01 0.718D-01 0.177D+00 0.654D+00
 Coeff:     -0.616D-03 0.495D-01 0.480D-01 0.718D-01 0.177D+00 0.654D+00
 Gap=     0.199 Goal=   None    Shift=    0.000
 RMSDP=1.68D-08 MaxDP=5.06D-07 DE=-2.70D-10 OVMax= 1.41D-06

 Cycle  14  Pass 1  IDiag  1:
 RMSU=  1.32D-08    CP:  1.00D+00  1.01D+00  4.75D-01  4.64D-01  7.36D-01
                    CP:  8.96D-01
 E= -1382.56635745021     Delta-E=       -0.000000000006 Rises=F Damp=F
 DIIS: error= 9.26D-08 at cycle   7 NSaved=   7.
 NSaved= 7 IEnMin= 7 EnMin= -1382.56635745021     IErMin= 7 ErrMin= 9.26D-08
 ErrMax= 9.26D-08  0.00D+00 EMaxC= 1.00D-01 BMatC= 2.22D-12 BMatP= 4.35D-12
 IDIUse=1 WtCom= 1.00D+00 WtEn= 0.00D+00
 Coeff-Com: -0.217D-04 0.877D-04 0.123D-02 0.192D-02 0.123D-01 0.427D+00
 Coeff-Com:  0.558D+00
 Coeff:     -0.217D-04 0.877D-04 0.123D-02 0.192D-02 0.123D-01 0.427D+00
 Coeff:      0.558D+00
 Gap=     0.199 Goal=   None    Shift=    0.000
 RMSDP=7.24D-09 MaxDP=2.17D-07 DE=-5.91D-12 OVMax= 5.09D-07

 SCF Done:  E(RB3LYP) =  -1382.56635745     A.U. after   14 cycles
            NFock= 14  Conv=0.72D-08     -V/T= 2.0033
 KE= 1.377974751932D+03 PE=-5.148886178546D+03 EE= 1.443526000281D+03
 Leave Link  502 at Wed May  4 12:29:34 2022, MaxMem=  2684354560 cpu:             147.8 elap:              18.5
 (Enter /apps/software/g16/l601.exe)
 Copying SCF densities to generalized density rwf, IOpCl= 0 IROHF=0.

 **********************************************************************

            Population analysis using the SCF density.

 **********************************************************************

 Orbital symmetries:
       Occupied  (A) (A) (A) (A) (A) (A) (A) (A) (A) (A) (A) (A)
                 (A) (A) (A) (A) (A) (A) (A) (A) (A) (A) (A) (A)
                 (A) (A) (A) (A) (A) (A) (A) (A) (A) (A) (A) (A)
                 (A) (A) (A) (A) (A) (A) (A) (A) (A) (A) (A) (A)
                 (A) (A) (A) (A) (A) (A) (A) (A) (A)
       Virtual   (A) (A) (A) (A) (A) (A) (A) (A) (A) (A) (A) (A)
                 (A) (A) (A) (A) (A) (A) (A) (A) (A) (A) (A) (A)
                 (A) (A) (A) (A) (A) (A) (A) (A) (A) (A) (A) (A)
                 (A) (A) (A) (A) (A) (A) (A) (A) (A) (A) (A) (A)
                 (A) (A) (A) (A) (A) (A) (A) (A) (A) (A) (A) (A)
                 (A) (A) (A) (A) (A) (A) (A) (A) (A) (A) (A) (A)
                 (A) (A) (A) (A) (A) (A) (A) (A) (A) (A) (A) (A)
                 (A) (A) (A) (A) (A) (A) (A) (A) (A) (A) (A) (A)
                 (A) (A) (A) (A) (A) (A) (A) (A) (A) (A) (A) (A)
                 (A) (A) (A) (A) (A) (A) (A) (A) (A) (A) (A) (A)
                 (A) (A) (A) (A) (A) (A) (A) (A) (A) (A) (A) (A)
                 (A) (A) (A) (A) (A) (A) (A) (A) (A) (A) (A) (A)
                 (A) (A) (A) (A) (A) (A) (A) (A) (A) (A) (A) (A)
                 (A) (A) (A) (A) (A) (A) (A) (A) (A) (A) (A) (A)
                 (A) (A) (A) (A) (A) (A) (A) (A) (A) (A) (A) (A)
                 (A) (A) (A) (A) (A) (A) (A)
 The electronic state is 1-A.
 Alpha  occ. eigenvalues -- -101.54729-101.54728 -10.25401 -10.25401 -10.21679
 Alpha  occ. eigenvalues --  -10.21656 -10.20655 -10.20655 -10.20614 -10.20614
 Alpha  occ. eigenvalues --  -10.20592 -10.20591 -10.20214 -10.20214  -9.46585
 Alpha  occ. eigenvalues --   -9.46584  -7.22834  -7.22834  -7.21873  -7.21873
 Alpha  occ. eigenvalues --   -7.21833  -7.21833  -0.90819  -0.90029  -0.85958
 Alpha  occ. eigenvalues --   -0.84050  -0.79271  -0.75954  -0.74350  -0.73760
 Alpha  occ. eigenvalues --   -0.64968  -0.63049  -0.60608  -0.59058  -0.54069
 Alpha  occ. eigenvalues --   -0.51740  -0.49428  -0.48180  -0.47087  -0.45754
 Alpha  occ. eigenvalues --   -0.44174  -0.44091  -0.43670  -0.41017  -0.40214
 Alpha  occ. eigenvalues --   -0.39120  -0.37726  -0.36523  -0.36165  -0.34714
 Alpha  occ. eigenvalues --   -0.33552  -0.31785  -0.31495  -0.28940  -0.26163
 Alpha  occ. eigenvalues --   -0.25688  -0.24547
 Alpha virt. eigenvalues --   -0.04624  -0.02359  -0.02317   0.00290   0.02931
 Alpha virt. eigenvalues --    0.03354   0.07389   0.07779   0.09996   0.10664
 Alpha virt. eigenvalues --    0.11879   0.12374   0.12756   0.13956   0.14840
 Alpha virt. eigenvalues --    0.16250   0.22640   0.23105   0.24398   0.26292
 Alpha virt. eigenvalues --    0.28402   0.28923   0.29399   0.32223   0.33224
 Alpha virt. eigenvalues --    0.36402   0.36946   0.40067   0.40413   0.45158
 Alpha virt. eigenvalues --    0.45275   0.45442   0.45869   0.47028   0.47849
 Alpha virt. eigenvalues --    0.48194   0.48573   0.48822   0.49338   0.50048
 Alpha virt. eigenvalues --    0.50463   0.50628   0.51069   0.51210   0.51313
 Alpha virt. eigenvalues --    0.52729   0.53817   0.53854   0.54406   0.55637
 Alpha virt. eigenvalues --    0.55879   0.58026   0.58967   0.59286   0.60500
 Alpha virt. eigenvalues --    0.60784   0.61717   0.64143   0.64248   0.64351
 Alpha virt. eigenvalues --    0.65140   0.65661   0.67140   0.67276   0.67495
 Alpha virt. eigenvalues --    0.70108   0.71272   0.72107   0.72613   0.73190
 Alpha virt. eigenvalues --    0.73742   0.74591   0.77634   0.78234   0.80421
 Alpha virt. eigenvalues --    0.82839   0.83314   0.86899   0.87568   0.87843
 Alpha virt. eigenvalues --    0.89525   0.91491   0.91684   0.92045   0.93447
 Alpha virt. eigenvalues --    0.94715   0.95127   0.98029   0.98247   1.01278
 Alpha virt. eigenvalues --    1.01402   1.01933   1.02563   1.04129   1.04846
 Alpha virt. eigenvalues --    1.05689   1.06672   1.07080   1.07146   1.09545
 Alpha virt. eigenvalues --    1.11072   1.12006   1.18414   1.20774   1.21215
 Alpha virt. eigenvalues --    1.21972   1.23624   1.23948   1.29186   1.31233
 Alpha virt. eigenvalues --    1.34490   1.38734   1.39416   1.41886   1.45767
 Alpha virt. eigenvalues --    1.45928   1.48555   1.49022   1.50792   1.50805
 Alpha virt. eigenvalues --    1.51496   1.53596   1.53831   1.59425   1.60200
 Alpha virt. eigenvalues --    1.61237   1.62981   1.63128   1.63946   1.64580
 Alpha virt. eigenvalues --    1.65036   1.65641   1.67131   1.67625   1.69109
 Alpha virt. eigenvalues --    1.70203   1.71964   1.73616   1.75849   1.76099
 Alpha virt. eigenvalues --    1.77479   1.79812   1.79924   1.81883   1.82781
 Alpha virt. eigenvalues --    1.84923   1.85938   1.86607   1.86963   1.88391
 Alpha virt. eigenvalues --    1.88488   1.90506   1.91192   1.92072   1.93860
 Alpha virt. eigenvalues --    1.98203   2.00332   2.01824   2.01949   2.07747
 Alpha virt. eigenvalues --    2.10432   2.11607   2.15140   2.20291   2.20612
 Alpha virt. eigenvalues --    2.20941   2.23458   2.34598   2.35596   2.40246
 Alpha virt. eigenvalues --    2.41086   2.41960   2.43979   2.50834   2.53438
 Alpha virt. eigenvalues --    2.55096   2.66012   2.67652   2.68661   2.70448
 Alpha virt. eigenvalues --    2.76064   2.78329   2.79300   2.87531   2.92018
 Alpha virt. eigenvalues --    3.40466   3.52513
          Condensed to atoms (all electrons):
               1          2          3          4          5          6
     1  C    4.734416   0.467083   0.034422  -0.089116   0.036861   0.464576
     2  C    0.467083   4.743176   0.422430   0.023611  -0.086240   0.017797
     3  C    0.034422   0.422430   5.151714   0.387864   0.043117  -0.091019
     4  C   -0.089116   0.023611   0.387864   4.851933   0.448338  -0.003798
     5  C    0.036861  -0.086240   0.043117   0.448338   5.027357   0.461991
     6  C    0.464576   0.017797  -0.091019  -0.003798   0.461991   4.825330
     7  H    0.382678  -0.048128   0.010227   0.000909   0.009222  -0.042832
     8  H   -0.049096   0.392403  -0.055308   0.013040  -0.000952   0.011454
     9  H   -0.001716   0.013342  -0.058213   0.390780  -0.044611   0.014212
    10  H   -0.051542   0.011538  -0.000836   0.014013  -0.044662   0.390486
    11  C    0.009482  -0.000129   0.010661  -0.088714   0.330623  -0.083313
    12  C    0.000223   0.000015  -0.000268   0.004918  -0.088703  -0.010092
    13  C   -0.000227   0.000017   0.000257  -0.010095  -0.083321   0.004897
    14  C   -0.000017   0.000000   0.000007  -0.000268   0.010664   0.000257
    15  H    0.000179  -0.000037  -0.000063   0.000265  -0.021914   0.004989
    16  C    0.000003   0.000001  -0.000017   0.000224   0.009480  -0.000227
    17  H   -0.000049  -0.000036   0.000201   0.005099  -0.021879   0.000167
    18  C    0.000001  -0.000000   0.000000   0.000015  -0.000129   0.000017
    19  H   -0.000000   0.000000  -0.000001   0.000001  -0.000440   0.000004
    20  H    0.000000  -0.000000   0.000000   0.000000   0.000021   0.000001
    21  Cl   0.007198  -0.083164   0.291474  -0.083789   0.007264  -0.000102
    22  Cl  -0.000000   0.000000  -0.000000   0.000001  -0.000166  -0.000022
               7          8          9         10         11         12
     1  C    0.382678  -0.049096  -0.001716  -0.051542   0.009482   0.000223
     2  C   -0.048128   0.392403   0.013342   0.011538  -0.000129   0.000015
     3  C    0.010227  -0.055308  -0.058213  -0.000836   0.010661  -0.000268
     4  C    0.000909   0.013040   0.390780   0.014013  -0.088714   0.004918
     5  C    0.009222  -0.000952  -0.044611  -0.044662   0.330623  -0.088703
     6  C   -0.042832   0.011454   0.014212   0.390486  -0.083313  -0.010092
     7  H    0.744832  -0.016233   0.000078  -0.016209  -0.000440   0.000001
     8  H   -0.016233   0.737359  -0.000230  -0.000225   0.000021   0.000000
     9  H    0.000078  -0.000230   0.742451  -0.000174  -0.021905   0.000266
    10  H   -0.016209  -0.000225  -0.000174   0.752814  -0.021883   0.005100
    11  C   -0.000440   0.000021  -0.021905  -0.021883   5.027329   0.448381
    12  C    0.000001   0.000000   0.000266   0.005100   0.448381   4.851929
    13  C    0.000004   0.000001   0.004985   0.000167   0.461966  -0.003795
    14  C   -0.000001   0.000000  -0.000063   0.000202   0.043119   0.387810
    15  H    0.000032  -0.000001   0.000008   0.001109  -0.044586   0.390779
    16  C   -0.000000   0.000000   0.000179  -0.000049   0.036858  -0.089118
    17  H    0.000000  -0.000001   0.001109  -0.000009  -0.044671   0.014011
    18  C    0.000000  -0.000000  -0.000037  -0.000036  -0.086236   0.023622
    19  H    0.000000  -0.000000   0.000032   0.000000   0.009222   0.000909
    20  H   -0.000000  -0.000000  -0.000001  -0.000001  -0.000952   0.013041
    21  Cl  -0.000221  -0.005128  -0.004965   0.000022  -0.000166   0.000001
    22  Cl  -0.000000  -0.000000   0.000000   0.000008   0.007264  -0.083799
              13         14         15         16         17         18
     1  C   -0.000227  -0.000017   0.000179   0.000003  -0.000049   0.000001
     2  C    0.000017   0.000000  -0.000037   0.000001  -0.000036  -0.000000
     3  C    0.000257   0.000007  -0.000063  -0.000017   0.000201   0.000000
     4  C   -0.010095  -0.000268   0.000265   0.000224   0.005099   0.000015
     5  C   -0.083321   0.010664  -0.021914   0.009480  -0.021879  -0.000129
     6  C    0.004897   0.000257   0.004989  -0.000227   0.000167   0.000017
     7  H    0.000004  -0.000001   0.000032  -0.000000   0.000000   0.000000
     8  H    0.000001   0.000000  -0.000001   0.000000  -0.000001  -0.000000
     9  H    0.004985  -0.000063   0.000008   0.000179   0.001109  -0.000037
    10  H    0.000167   0.000202   0.001109  -0.000049  -0.000009  -0.000036
    11  C    0.461966   0.043119  -0.044586   0.036858  -0.044671  -0.086236
    12  C   -0.003795   0.387810   0.390779  -0.089118   0.014011   0.023622
    13  C    4.825366  -0.091026   0.014216   0.464577   0.390489   0.017797
    14  C   -0.091026   5.151778  -0.058241   0.034423  -0.000836   0.422419
    15  H    0.014216  -0.058241   0.742462  -0.001716  -0.000174   0.013340
    16  C    0.464577   0.034423  -0.001716   4.734400  -0.051533   0.467099
    17  H    0.390489  -0.000836  -0.000174  -0.051533   0.752810   0.011538
    18  C    0.017797   0.422419   0.013340   0.467099   0.011538   4.743163
    19  H   -0.042836   0.010227   0.000078   0.382675  -0.016209  -0.048123
    20  H    0.011455  -0.055313  -0.000230  -0.049094  -0.000225   0.392402
    21  Cl  -0.000022  -0.000000   0.000000  -0.000000   0.000008   0.000000
    22  Cl  -0.000102   0.291489  -0.004965   0.007198   0.000022  -0.083165
              19         20         21         22
     1  C   -0.000000   0.000000   0.007198  -0.000000
     2  C    0.000000  -0.000000  -0.083164   0.000000
     3  C   -0.000001   0.000000   0.291474  -0.000000
     4  C    0.000001   0.000000  -0.083789   0.000001
     5  C   -0.000440   0.000021   0.007264  -0.000166
     6  C    0.000004   0.000001  -0.000102  -0.000022
     7  H    0.000000  -0.000000  -0.000221  -0.000000
     8  H   -0.000000  -0.000000  -0.005128  -0.000000
     9  H    0.000032  -0.000001  -0.004965   0.000000
    10  H    0.000000  -0.000001   0.000022   0.000008
    11  C    0.009222  -0.000952  -0.000166   0.007264
    12  C    0.000909   0.013041   0.000001  -0.083799
    13  C   -0.042836   0.011455  -0.000022  -0.000102
    14  C    0.010227  -0.055313  -0.000000   0.291489
    15  H    0.000078  -0.000230   0.000000  -0.004965
    16  C    0.382675  -0.049094  -0.000000   0.007198
    17  H   -0.016209  -0.000225   0.000008   0.000022
    18  C   -0.048123   0.392402   0.000000  -0.083165
    19  H    0.744838  -0.016235  -0.000000  -0.000221
    20  H   -0.016235   0.737366  -0.000000  -0.005127
    21  Cl  -0.000000  -0.000000  16.957596   0.000000
    22  Cl  -0.000221  -0.005127   0.000000  16.957577
 Mulliken charges:
               1
     1  C    0.054641
     2  C    0.126323
     3  C   -0.146649
     4  C    0.134769
     5  C    0.008080
     6  C    0.035226
     7  H   -0.023921
     8  H   -0.027103
     9  H   -0.035528
    10  H   -0.039834
    11  C    0.008070
    12  C    0.134769
    13  C    0.035230
    14  C   -0.146631
    15  H   -0.035530
    16  C    0.054636
    17  H   -0.039833
    18  C    0.126314
    19  H   -0.023923
    20  H   -0.027106
    21  Cl  -0.086007
    22  Cl  -0.085992
 Sum of Mulliken charges =  -0.00000
 Mulliken charges with hydrogens summed into heavy atoms:
               1
     1  C    0.030720
     2  C    0.099220
     3  C   -0.146649
     4  C    0.099241
     5  C    0.008080
     6  C   -0.004607
    11  C    0.008070
    12  C    0.099238
    13  C   -0.004603
    14  C   -0.146631
    16  C    0.030713
    18  C    0.099208
    21  Cl  -0.086007
    22  Cl  -0.085992
 Electronic spatial extent (au):  <R**2>=           4754.5931
 Charge=             -0.0000 electrons
 Dipole moment (field-independent basis, Debye):
    X=             -0.0001    Y=              0.0001    Z=              1.1071  Tot=              1.1071
 Quadrupole moment (field-independent basis, Debye-Ang):
   XX=            -99.6368   YY=            -85.8151   ZZ=            -96.7822
   XY=              8.0792   XZ=              0.0002   YZ=             -0.0001
 Traceless Quadrupole moment (field-independent basis, Debye-Ang):
   XX=             -5.5588   YY=              8.2630   ZZ=             -2.7042
   XY=              8.0792   XZ=              0.0002   YZ=             -0.0001
 Octapole moment (field-independent basis, Debye-Ang**2):
  XXX=             -0.0050  YYY=              0.0005  ZZZ=            -10.5653  XYY=              0.0008
  XXY=              0.0021  XXZ=              8.4517  XZZ=             -0.0005  YZZ=             -0.0002
  YYZ=              7.7167  XYZ=              7.5231
 Hexadecapole moment (field-independent basis, Debye-Ang**3):
 XXXX=          -5086.2411 YYYY=           -884.1168 ZZZZ=           -305.2387 XXXY=             86.7203
 XXXZ=              0.0056 YYYX=             -2.5274 YYYZ=              0.0000 ZZZX=              0.0003
 ZZZY=             -0.0005 XXYY=           -933.1757 XXZZ=           -914.4637 YYZZ=           -200.0661
 XXYZ=             -0.0004 YYXZ=             -0.0002 ZZXY=            -18.8187
 N-N= 9.448190688836D+02 E-N=-5.148886180829D+03  KE= 1.377974751932D+03
 No NMR shielding tensors so no spin-rotation constants.
 Leave Link  601 at Wed May  4 12:29:34 2022, MaxMem=  2684354560 cpu:               0.8 elap:               0.1
 (Enter /apps/software/g16/l9999.exe)
 1\1\GINC-CNODE10\SP\RB3LYP\CC-pVDZ\C12H8Cl2\LCZ\04-May-2022\0\\#p B3LY
 P/cc-pVDZ\\2,7-dicl-dibenzene SP RKS B3LYP cc-pVDZ\\0,1\C,0,-0.8453319
 599,0.956312048,0.8669568876\C,0,0.4629691795,0.8905513211,0.411537389
 7\C,0,1.0649824911,2.050417466,-0.0487262622\C,0,0.3868237553,3.258257
 4176,-0.0595763031\C,0,-0.9291662948,3.3249644668,0.3978611747\C,0,-1.
 536919046,2.158068853,0.8617835777\H,0,-1.3317777931,0.0578616267,1.22
 28828666\H,0,1.0091164462,-0.0413776448,0.4117421701\H,0,0.8934094364,
 4.1465276898,-0.4066187456\H,0,-2.5626045926,2.1850347173,1.20271069\C
 ,0,-1.6670933138,4.6232273101,0.3866279409\C,0,-2.4216185813,5.0147337
 901,1.4925010278\C,0,-1.6192320163,5.4662347599,-0.7238968576\C,0,-3.1
 057716936,6.219088724,1.4747938948\H,0,-2.4636919409,4.3949907203,2.37
 58176466\C,0,-2.3090194799,6.6690443594,-0.726948004\H,0,-1.055557528,
 5.1720844428,-1.5983861346\C,0,-3.059415906,7.0575161838,0.3727506607\
 H,0,-2.2686584518,7.3094873522,-1.5980007972\H,0,-3.6000780577,7.99261
 92599,0.3788733742\Cl,0,2.7099788263,1.9949516229,-0.6171676213\Cl,0,-
 4.0338782591,6.6892351132,2.8711084643\\Version=ES64L-G16RevA.03\State
 =1-A\HF=-1382.5663575\RMSD=7.235e-09\Dipole=-0.2666796,-0.1542267,-0.3
 079022\Quadrupole=-4.9940156,5.603107,-0.6090914,1.9924276,1.5853272,-
 5.5385209\PG=C01 [X(C12H8Cl2)]\\@


 ... FOR AFTERWARDS A MAN FINDS PLEASURE IN HIS PAINS,
 WHEN HE HAS SUFFERED LONG AND WANDERED FAR.

                                    -- HOMER
 Job cpu time:       0 days  0 hours  2 minutes 38.2 seconds.
 Elapsed time:       0 days  0 hours  0 minutes 20.0 seconds.
 File lengths (MBytes):  RWF=     38 Int=      0 D2E=      0 Chk=      5 Scr=      1
 Normal termination of Gaussian 16 at Wed May  4 12:29:35 2022.

Sender: Unischeduler System <lcz@mgt01>
Subject: Job 127774: <#!/bin/bash
#BSUB -J intel
#BSUB -o 2,7-dicl-dibenzene.out
#BSUB -n 8
#BSUB -q cqueue
#BSUB -R span[hosts=1]
export g16root=/apps/software
source /apps/software/g16/bsd/g16.profile
export GAUSS_SCRDIR=/scratch
/apps/software/g16/g16 < 2,7-dicl-dibenzene.inp > 2,7-dicl-dibenzene.out> Done

Job <#!/bin/bash
#BSUB -J intel
#BSUB -o 2,7-dicl-dibenzene.out
#BSUB -n 8
#BSUB -q cqueue
#BSUB -R span[hosts=1]
export g16root=/apps/software
source /apps/software/g16/bsd/g16.profile
export GAUSS_SCRDIR=/scratch
/apps/software/g16/g16 < 2,7-dicl-dibenzene.inp > 2,7-dicl-dibenzene.out> was submitted from host <mgt01> by user <lcz>.
Job was executed on host(s) <8*cnode10>, in queue <cqueue>, as user <lcz>.
</apps/users/lcz> was used as the home directory.
</apps/users/lcz/task2/section1/isomer1/B3LYP_cc-pVDZ/Gaussian> was used as the working directory.
Started at 2022-05-04 12:29:14
Results reported at 2022-05-04 12:29:35

Your job looked like:

------------------------------------------------------------
# User input
#!/bin/bash
#BSUB -J intel
#BSUB -o 2,7-dicl-dibenzene.out
#BSUB -n 8
#BSUB -q cqueue
#BSUB -R span[hosts=1]
export g16root=/apps/software
source /apps/software/g16/bsd/g16.profile
export GAUSS_SCRDIR=/scratch
/apps/software/g16/g16 < 2,7-dicl-dibenzene.inp > 2,7-dicl-dibenzene.out
------------------------------------------------------------

Successfully completed.

Resource usage summary:

    CPU time   :          129.61 sec.
    Max Memory :               384 MB
    Max Processes  :               5


The output (if any) follows:

