[Molden Format]
[N_ATOMS]
           13
[Atoms]  AU
H     1    1       2.082473       -4.351385        0.000000
H     2    1       5.196379       -1.107575        0.000000
H     3    1       3.676965        3.412670        0.000000
H     4    1      -0.169457        6.092010        0.000000
H     5    1      -3.177743        4.744703        0.000000
C     6    6       3.209307       -0.594886        0.000000
C     7    6       2.374171        1.833288        0.000000
C     8    6      -0.323428        2.163417        0.000000
C     9    6      -1.146628       -2.174397        0.000000
O    10    8      -2.511304       -4.048706        0.000000
N    11    7      -1.977692        0.295025        0.000000
N    12    7       1.513853       -2.520846        0.000000
N    13    7      -1.278834        4.545064        0.000000
[5D7F9G]
[GTO]
    1
    s    3
   0.340613410E+02   0.254393168E-01
   0.512357460E+01   0.190085934E+00
   0.116466260E+01   0.852441139E+00
    s    1
   0.327230410E+00   0.100000000E+01
    s    1
   0.103072410E+00   0.100000000E+01
    p    1
   0.800000000E+00   0.100000000E+01
 
    2
    s    3
   0.340613410E+02   0.254393168E-01
   0.512357460E+01   0.190085934E+00
   0.116466260E+01   0.852441139E+00
    s    1
   0.327230410E+00   0.100000000E+01
    s    1
   0.103072410E+00   0.100000000E+01
    p    1
   0.800000000E+00   0.100000000E+01
 
    3
    s    3
   0.340613410E+02   0.254393168E-01
   0.512357460E+01   0.190085934E+00
   0.116466260E+01   0.852441139E+00
    s    1
   0.327230410E+00   0.100000000E+01
    s    1
   0.103072410E+00   0.100000000E+01
    p    1
   0.800000000E+00   0.100000000E+01
 
    4
    s    3
   0.340613410E+02   0.254393168E-01
   0.512357460E+01   0.190085934E+00
   0.116466260E+01   0.852441139E+00
    s    1
   0.327230410E+00   0.100000000E+01
    s    1
   0.103072410E+00   0.100000000E+01
    p    1
   0.800000000E+00   0.100000000E+01
 
    5
    s    3
   0.340613410E+02   0.254393168E-01
   0.512357460E+01   0.190085934E+00
   0.116466260E+01   0.852441139E+00
    s    1
   0.327230410E+00   0.100000000E+01
    s    1
   0.103072410E+00   0.100000000E+01
    p    1
   0.800000000E+00   0.100000000E+01
 
    6
    s    6
   0.135753497E+05   0.606460100E-03
   0.203523337E+04   0.469789850E-02
   0.463225624E+03   0.243324735E-01
   0.131200196E+03   0.973999560E-01
   0.428530159E+02   0.301955844E+00
   0.155841858E+02   0.662336101E+00
    s    2
   0.620671385E+01   0.655953079E+00
   0.257648965E+01   0.375856339E+00
    s    1
   0.576963394E+00   0.100000000E+01
    s    1
   0.229728314E+00   0.100000000E+01
    s    1
   0.951644400E-01   0.100000000E+01
    p    4
   0.346972322E+02   0.113272290E-01
   0.795826228E+01   0.761696612E-01
   0.237808269E+01   0.301922515E+00
   0.814332082E+00   0.727850277E+00
    p    1
   0.288875473E+00   0.100000000E+01
    p    1
   0.100568237E+00   0.100000000E+01
    d    1
   0.800000000E+00   0.100000000E+01
 
    7
    s    6
   0.135753497E+05   0.606460100E-03
   0.203523337E+04   0.469789850E-02
   0.463225624E+03   0.243324735E-01
   0.131200196E+03   0.973999560E-01
   0.428530159E+02   0.301955844E+00
   0.155841858E+02   0.662336101E+00
    s    2
   0.620671385E+01   0.655953079E+00
   0.257648965E+01   0.375856339E+00
    s    1
   0.576963394E+00   0.100000000E+01
    s    1
   0.229728314E+00   0.100000000E+01
    s    1
   0.951644400E-01   0.100000000E+01
    p    4
   0.346972322E+02   0.113272290E-01
   0.795826228E+01   0.761696612E-01
   0.237808269E+01   0.301922515E+00
   0.814332082E+00   0.727850277E+00
    p    1
   0.288875473E+00   0.100000000E+01
    p    1
   0.100568237E+00   0.100000000E+01
    d    1
   0.800000000E+00   0.100000000E+01
 
    8
    s    6
   0.135753497E+05   0.606460100E-03
   0.203523337E+04   0.469789850E-02
   0.463225624E+03   0.243324735E-01
   0.131200196E+03   0.973999560E-01
   0.428530159E+02   0.301955844E+00
   0.155841858E+02   0.662336101E+00
    s    2
   0.620671385E+01   0.655953079E+00
   0.257648965E+01   0.375856339E+00
    s    1
   0.576963394E+00   0.100000000E+01
    s    1
   0.229728314E+00   0.100000000E+01
    s    1
   0.951644400E-01   0.100000000E+01
    p    4
   0.346972322E+02   0.113272290E-01
   0.795826228E+01   0.761696612E-01
   0.237808269E+01   0.301922515E+00
   0.814332082E+00   0.727850277E+00
    p    1
   0.288875473E+00   0.100000000E+01
    p    1
   0.100568237E+00   0.100000000E+01
    d    1
   0.800000000E+00   0.100000000E+01
 
    9
    s    6
   0.135753497E+05   0.606460100E-03
   0.203523337E+04   0.469789850E-02
   0.463225624E+03   0.243324735E-01
   0.131200196E+03   0.973999560E-01
   0.428530159E+02   0.301955844E+00
   0.155841858E+02   0.662336101E+00
    s    2
   0.620671385E+01   0.655953079E+00
   0.257648965E+01   0.375856339E+00
    s    1
   0.576963394E+00   0.100000000E+01
    s    1
   0.229728314E+00   0.100000000E+01
    s    1
   0.951644400E-01   0.100000000E+01
    p    4
   0.346972322E+02   0.113272290E-01
   0.795826228E+01   0.761696612E-01
   0.237808269E+01   0.301922515E+00
   0.814332082E+00   0.727850277E+00
    p    1
   0.288875473E+00   0.100000000E+01
    p    1
   0.100568237E+00   0.100000000E+01
    d    1
   0.800000000E+00   0.100000000E+01
 
   10
    s    6
   0.270323826E+05   0.572265400E-03
   0.405238714E+04   0.443533330E-02
   0.922327227E+03   0.230201034E-01
   0.261240710E+03   0.928224938E-01
   0.853546414E+02   0.293784997E+00
   0.310350352E+02   0.674016046E+00
    s    2
   0.122608607E+02   0.638399375E+00
   0.499870760E+01   0.395345866E+00
    s    1
   0.117031082E+01   0.100000000E+01
    s    1
   0.464747410E+00   0.100000000E+01
    s    1
   0.185045364E+00   0.100000000E+01
    p    4
   0.632749548E+02   0.120183316E-01
   0.146270494E+02   0.830054304E-01
   0.445012235E+01   0.319917439E+00
   0.152757996E+01   0.707155425E+00
    p    1
   0.529351179E+00   0.100000000E+01
    p    1
   0.174784213E+00   0.100000000E+01
    d    1
   0.120000000E+01   0.100000000E+01
 
   11
    s    6
   0.197308006E+05   0.586264400E-03
   0.295789587E+04   0.454287970E-02
   0.673221336E+03   0.235584125E-01
   0.190682495E+03   0.947091862E-01
   0.622954419E+02   0.297197843E+00
   0.226541612E+02   0.669162480E+00
    s    2
   0.897914774E+01   0.645966837E+00
   0.368630024E+01   0.387005743E+00
    s    1
   0.846600768E+00   0.100000000E+01
    s    1
   0.336471338E+00   0.100000000E+01
    s    1
   0.136476537E+00   0.100000000E+01
    p    4
   0.492003805E+02   0.114488217E-01
   0.113467905E+02   0.784223390E-01
   0.342739724E+01   0.308180948E+00
   0.117855251E+01   0.720271963E+00
    p    1
   0.416422050E+00   0.100000000E+01
    p    1
   0.142608260E+00   0.100000000E+01
    d    1
   0.100000000E+01   0.100000000E+01
 
   12
    s    6
   0.197308006E+05   0.586264400E-03
   0.295789587E+04   0.454287970E-02
   0.673221336E+03   0.235584125E-01
   0.190682495E+03   0.947091862E-01
   0.622954419E+02   0.297197843E+00
   0.226541612E+02   0.669162480E+00
    s    2
   0.897914774E+01   0.645966837E+00
   0.368630024E+01   0.387005743E+00
    s    1
   0.846600768E+00   0.100000000E+01
    s    1
   0.336471338E+00   0.100000000E+01
    s    1
   0.136476537E+00   0.100000000E+01
    p    4
   0.492003805E+02   0.114488217E-01
   0.113467905E+02   0.784223390E-01
   0.342739724E+01   0.308180948E+00
   0.117855251E+01   0.720271963E+00
    p    1
   0.416422050E+00   0.100000000E+01
    p    1
   0.142608260E+00   0.100000000E+01
    d    1
   0.100000000E+01   0.100000000E+01
 
   13
    s    6
   0.197308006E+05   0.586264400E-03
   0.295789587E+04   0.454287970E-02
   0.673221336E+03   0.235584125E-01
   0.190682495E+03   0.947091862E-01
   0.622954419E+02   0.297197843E+00
   0.226541612E+02   0.669162480E+00
    s    2
   0.897914774E+01   0.645966837E+00
   0.368630024E+01   0.387005743E+00
    s    1
   0.846600768E+00   0.100000000E+01
    s    1
   0.336471338E+00   0.100000000E+01
    s    1
   0.136476537E+00   0.100000000E+01
    p    4
   0.492003805E+02   0.114488217E-01
   0.113467905E+02   0.784223390E-01
   0.342739724E+01   0.308180948E+00
   0.117855251E+01   0.720271963E+00
    p    1
   0.416422050E+00   0.100000000E+01
    p    1
   0.142608260E+00   0.100000000E+01
    d    1
   0.100000000E+01   0.100000000E+01
 
[MO]
 Sym= A'  
 Ene=       -20.586191
 Spin= Alpha
 Occup=       2.000000
   1        0.000027959
   2        0.000171741
   3        0.000375961
   4       -0.000034701
   5        0.000030976
   6        0.000000000
   7       -0.000011400
   8        0.000054451
   9        0.000020888
  10       -0.000010893
  11       -0.000015457
  12        0.000000000
  13        0.000010175
  14       -0.000038158
  15       -0.000292196
  16       -0.000000215
  17        0.000002821
  18        0.000000000
  19        0.000016690
  20       -0.000052831
  21       -0.000055025
  22       -0.000000648
  23        0.000005045
  24        0.000000000
  25        0.000001117
  26       -0.000053425
  27        0.000012983
  28       -0.000024964
  29        0.000007401
  30        0.000000000
  31        0.000000454
  32       -0.000003942
  33        0.000122748
  34       -0.000686080
  35        0.000680440
  36       -0.000010624
  37       -0.000006577
  38        0.000000000
  39        0.000241728
  40        0.000125988
  41        0.000000000
  42       -0.000153604
  43        0.000448734
  44        0.000000000
  45        0.000030840
  46        0.000000000
  47        0.000000000
  48       -0.000008331
  49       -0.000029209
  50       -0.000000736
  51        0.000003184
  52       -0.000026256
  53        0.000149440
  54       -0.001435978
  55        0.000004021
  56        0.000012062
  57        0.000000000
  58        0.000041637
  59       -0.000104537
  60        0.000000000
  61        0.000328537
  62        0.000765249
  63        0.000000000
  64        0.000005666
  65        0.000000000
  66        0.000000000
  67       -0.000020451
  68        0.000008852
  69       -0.000000652
  70        0.000002075
  71        0.000057680
  72       -0.000385455
  73        0.000451489
  74       -0.000014811
  75        0.000008663
  76        0.000000000
  77        0.000206861
  78        0.000124487
  79        0.000000000
  80        0.000308877
  81       -0.000289679
  82        0.000000000
  83        0.000023856
  84        0.000000000
  85        0.000000000
  86        0.000035608
  87       -0.000019612
  88       -0.000003047
  89       -0.000080229
  90        0.000534850
  91       -0.000282352
  92       -0.001691565
  93       -0.000217733
  94       -0.000269442
  95        0.000000000
  96       -0.000366795
  97       -0.000746518
  98        0.000000000
  99        0.000800109
 100        0.001532609
 101        0.000000000
 102       -0.000109256
 103        0.000000000
 104        0.000000000
 105       -0.000016152
 106        0.000128441
 107        0.435634100
 108        0.642393999
 109        0.022073861
 110       -0.009629110
 111        0.006201330
 112        0.001118850
 113        0.001495633
 114        0.000000000
 115       -0.000987355
 116       -0.001307555
 117        0.000000000
 118        0.000868649
 119        0.001075787
 120        0.000000000
 121        0.000007628
 122        0.000000000
 123        0.000000000
 124        0.000017062
 125       -0.000052423
 126       -0.000000397
 127        0.000003946
 128       -0.000055183
 129        0.000379237
 130       -0.000337375
 131       -0.000050873
 132       -0.000014762
 133        0.000000000
 134        0.000275940
 135        0.000045885
 136        0.000000000
 137       -0.000173573
 138        0.000380206
 139        0.000000000
 140       -0.000003889
 141        0.000000000
 142        0.000000000
 143        0.000042922
 144       -0.000021213
 145        0.000000912
 146       -0.000001293
 147        0.000052828
 148       -0.000096180
 149        0.000370617
 150       -0.000024593
 151       -0.000046338
 152        0.000000000
 153        0.000167236
 154        0.000282577
 155        0.000000000
 156        0.000148767
 157        0.000494424
 158        0.000000000
 159        0.000017112
 160        0.000000000
 161        0.000000000
 162       -0.000031174
 163       -0.000026690
 164       -0.000000461
 165        0.000003130
 166       -0.000046678
 167        0.000160138
 168        0.000112700
 169        0.000004177
 170        0.000014307
 171        0.000000000
 172       -0.000039203
 173       -0.000072976
 174        0.000000000
 175        0.000021891
 176        0.000090345
 177        0.000000000
 178       -0.000008576
 179        0.000000000
 180        0.000000000
 181       -0.000001572
 182       -0.000001967
 Sym= A'  
 Ene=       -15.599828
 Spin= Alpha
 Occup=       2.000000
   1       -0.000218433
   2       -0.000189675
   3        0.000288229
   4       -0.000021037
   5        0.000059772
   6        0.000000000
   7       -0.000007695
   8        0.000266054
   9        0.000747275
  10       -0.000079418
  11       -0.000020916
  12        0.000000000
  13        0.000004826
  14        0.000028018
  15       -0.000301750
  16       -0.000006955
  17       -0.000019125
  18        0.000000000
  19       -0.000009963
  20        0.000083872
  21        0.000048612
  22       -0.000010824
  23        0.000004368
  24        0.000000000
  25        0.000013883
  26       -0.000107132
  27        0.000084976
  28       -0.000007823
  29        0.000005780
  30        0.000000000
  31       -0.000007710
  32        0.000020532
  33       -0.000325194
  34        0.000070399
  35        0.004935458
  36        0.000151397
  37        0.000177959
  38        0.000000000
  39        0.000022903
  40        0.000129796
  41        0.000000000
  42       -0.002979472
  43       -0.000249834
  44        0.000000000
  45        0.000031194
  46        0.000000000
  47        0.000000000
  48       -0.000029061
  49        0.000015667
  50       -0.000001220
  51        0.000003211
  52       -0.000103450
  53        0.000331423
  54       -0.005677544
  55        0.000028058
  56       -0.000013579
  57        0.000000000
  58       -0.000184744
  59       -0.000107771
  60        0.000000000
  61        0.002153736
  62        0.000889927
  63        0.000000000
  64       -0.000011586
  65        0.000000000
  66        0.000000000
  67       -0.000037763
  68        0.000012029
  69       -0.000000703
  70        0.000003251
  71       -0.000050051
  72       -0.000039852
  73        0.002298819
  74       -0.000011178
  75        0.000027527
  76        0.000000000
  77        0.000011755
  78       -0.000168602
  79        0.000000000
  80        0.002254925
  81        0.000368134
  82        0.000000000
  83       -0.000012456
  84        0.000000000
  85        0.000000000
  86       -0.000013971
  87        0.000001877
  88       -0.000007794
  89        0.000041218
  90       -0.000303615
  91        0.000140406
  92        0.002490496
  93       -0.000254837
  94        0.000025116
  95        0.000000000
  96       -0.000030048
  97        0.000198672
  98        0.000000000
  99        0.001576563
 100        0.000226688
 101        0.000000000
 102        0.000062887
 103        0.000000000
 104        0.000000000
 105       -0.000031986
 106       -0.000028312
 107       -0.000002581
 108       -0.000005812
 109       -0.000026248
 110        0.000081541
 111        0.000323800
 112       -0.000008290
 113        0.000000103
 114        0.000000000
 115        0.000191038
 116        0.000041623
 117        0.000000000
 118       -0.000148063
 119        0.000137726
 120        0.000000000
 121       -0.000020322
 122        0.000000000
 123        0.000000000
 124        0.000013601
 125        0.000032177
 126        0.000279975
 127        0.000383500
 128        0.000051808
 129       -0.000206151
 130        0.000831668
 131       -0.000022873
 132       -0.000003356
 133        0.000000000
 134        0.000139191
 135       -0.000068041
 136        0.000000000
 137       -0.000284386
 138        0.000373453
 139        0.000000000
 140       -0.000015567
 141        0.000000000
 142        0.000000000
 143        0.000010867
 144       -0.000035815
 145       -0.448879245
 146       -0.630029433
 147       -0.021471457
 148        0.010491033
 149       -0.011006955
 150        0.000089013
 151       -0.000180807
 152        0.000000000
 153       -0.000197051
 154        0.000411459
 155        0.000000000
 156        0.000544485
 157       -0.001795448
 158        0.000000000
 159       -0.000025849
 160        0.000000000
 161        0.000000000
 162        0.000051279
 163       -0.000028764
 164       -0.000004022
 165       -0.000004803
 166       -0.000010576
 167        0.000038077
 168        0.000113943
 169       -0.000004972
 170        0.000000606
 171        0.000000000
 172        0.000015450
 173       -0.000021853
 174        0.000000000
 175       -0.000313717
 176       -0.000283124
 177        0.000000000
 178       -0.000005955
 179        0.000000000
 180        0.000000000
 181        0.000004061
 182       -0.000009039
 Sym= A'  
 Ene=       -15.583714
 Spin= Alpha
 Occup=       2.000000
   1        0.000002824
   2       -0.000430670
   3       -0.000389306
   4        0.000039865
   5       -0.000090992
   6        0.000000000
   7       -0.000010441
   8        0.000279162
   9        0.000878660
  10       -0.000047107
  11        0.000012418
  12        0.000000000
  13       -0.000003510
  14       -0.000200512
  15        0.000450082
  16        0.000052838
  17        0.000032760
  18        0.000000000
  19       -0.000020698
  20        0.000027595
  21       -0.000169142
  22        0.000005033
  23        0.000034262
  24        0.000000000
  25        0.000002061
  26       -0.000021262
  27        0.000070566
  28       -0.000014478
  29        0.000012443
  30        0.000000000
  31        0.000001489
  32       -0.000006011
  33        0.000021094
  34        0.000338641
  35        0.000264066
  36        0.000003426
  37        0.000004634
  38        0.000000000
  39       -0.000397480
  40        0.000160013
  41        0.000000000
  42       -0.001864273
  43       -0.000306058
  44        0.000000000
  45       -0.000005358
  46        0.000000000
  47        0.000000000
  48       -0.000023404
  49       -0.000003150
  50        0.000001187
  51       -0.000011358
  52        0.000208564
  53       -0.000785323
  54       -0.000822675
  55       -0.000016384
  56       -0.000057447
  57        0.000000000
  58        0.000243465
  59        0.000627705
  60        0.000000000
  61        0.000873412
  62       -0.001635778
  63        0.000000000
  64        0.000037546
  65        0.000000000
  66        0.000000000
  67       -0.000023699
  68       -0.000034014
  69        0.000010398
  70       -0.000006092
  71        0.000281475
  72        0.000337870
  73       -0.002411030
  74       -0.000162818
  75       -0.000159515
  76        0.000000000
  77       -0.000044217
  78       -0.000679569
  79        0.000000000
  80        0.001956586
  81        0.004495588
  82        0.000000000
  83       -0.000034745
  84        0.000000000
  85        0.000000000
  86       -0.000044168
  87        0.000015836
  88        0.000009944
  89       -0.000025304
  90        0.000221885
  91        0.000457040
  92       -0.001842151
  93       -0.000115568
  94        0.000209609
  95        0.000000000
  96        0.000261170
  97        0.000654675
  98        0.000000000
  99        0.000310737
 100       -0.001209770
 101        0.000000000
 102       -0.000071940
 103        0.000000000
 104        0.000000000
 105       -0.000045853
 106        0.000008067
 107        0.000002041
 108        0.000012171
 109       -0.000044439
 110        0.000172546
 111       -0.000101748
 112       -0.000046418
 113        0.000007766
 114        0.000000000
 115        0.000089588
 116       -0.000034219
 117        0.000000000
 118       -0.000158952
 119        0.000128471
 120        0.000000000
 121        0.000011687
 122        0.000000000
 123        0.000000000
 124        0.000028040
 125       -0.000002656
 126        0.448939450
 127        0.630113226
 128        0.021356925
 129       -0.011422523
 130        0.012411806
 131        0.001543346
 132       -0.000304374
 133        0.000000000
 134       -0.001585537
 135        0.000328825
 136        0.000000000
 137        0.002292833
 138        0.000250779
 139        0.000000000
 140       -0.000035368
 141        0.000000000
 142        0.000000000
 143       -0.000028170
 144        0.000060432
 145        0.000280810
 146        0.000393133
 147        0.000039947
 148        0.000123479
 149       -0.001632227
 150       -0.000022446
 151        0.000042953
 152        0.000000000
 153        0.000173588
 154       -0.000343913
 155        0.000000000
 156        0.000150325
 157       -0.001053061
 158        0.000000000
 159        0.000019511
 160        0.000000000
 161        0.000000000
 162       -0.000039650
 163        0.000038027
 164       -0.000212174
 165       -0.000272005
 166       -0.000189297
 167        0.000674370
 168       -0.002300405
 169       -0.000018126
 170        0.000031783
 171        0.000000000
 172        0.000123028
 173       -0.000034920
 174        0.000000000
 175       -0.000511421
 176        0.000394086
 177        0.000000000
 178       -0.000008266
 179        0.000000000
 180        0.000000000
 181        0.000024771
 182       -0.000000160
 Sym= A'  
 Ene=       -15.560085
 Spin= Alpha
 Occup=       2.000000
   1        0.000008178
   2       -0.000056343
   3       -0.000066679
   4        0.000000974
   5       -0.000011761
   6        0.000000000
   7        0.000012956
   8       -0.000082744
   9       -0.000561162
  10        0.000007956
  11        0.000009163
  12        0.000000000
  13        0.000033350
  14       -0.000099002
  15       -0.000456209
  16        0.000005497
  17        0.000006950
  18        0.000000000
  19        0.000263768
  20       -0.000209832
  21       -0.000537029
  22        0.000052559
  23        0.000086889
  24        0.000000000
  25        0.000241930
  26        0.000004724
  27       -0.000475830
  28       -0.000068141
  29        0.000020837
  30        0.000000000
  31       -0.000000734
  32        0.000002325
  33       -0.000027258
  34        0.000133853
  35       -0.000210404
  36        0.000006356
  37       -0.000005890
  38        0.000000000
  39        0.000028462
  40       -0.000022717
  41        0.000000000
  42        0.001139045
  43       -0.000008125
  44        0.000000000
  45        0.000004873
  46        0.000000000
  47        0.000000000
  48        0.000002734
  49        0.000008629
  50        0.000001491
  51       -0.000005071
  52        0.000099746
  53       -0.000280075
  54        0.002745203
  55       -0.000000022
  56        0.000023404
  57        0.000000000
  58        0.000119986
  59       -0.000170898
  60        0.000000000
  61       -0.001039340
  62        0.001569539
  63        0.000000000
  64        0.000008637
  65        0.000000000
  66        0.000000000
  67       -0.000009173
  68        0.000048590
  69        0.000007183
  70       -0.000019736
  71        0.000286744
  72        0.000108711
  73       -0.004733884
  74       -0.000074753
  75        0.000202990
  76        0.000000000
  77       -0.000164915
  78        0.000445874
  79        0.000000000
  80       -0.000809902
  81       -0.006179631
  82        0.000000000
  83       -0.000039260
  84        0.000000000
  85        0.000000000
  86       -0.000024374
  87       -0.000043342
  88       -0.000000959
  89        0.000003538
  90       -0.000012896
  91        0.000062702
  92       -0.000829741
  93       -0.000003999
  94       -0.000003948
  95        0.000000000
  96        0.000043802
  97       -0.000031983
  98        0.000000000
  99        0.000057026
 100       -0.000551136
 101        0.000000000
 102        0.000012052
 103        0.000000000
 104        0.000000000
 105        0.000013469
 106        0.000001448
 107       -0.000000307
 108        0.000003413
 109       -0.000031479
 110        0.000096748
 111       -0.000163918
 112        0.000001450
 113       -0.000000944
 114        0.000000000
 115        0.000002119
 116        0.000005226
 117        0.000000000
 118       -0.000041696
 119        0.000010917
 120        0.000000000
 121        0.000002558
 122        0.000000000
 123        0.000000000
 124       -0.000001547
 125        0.000003742
 126        0.000211912
 127        0.000316969
 128       -0.000117721
 129        0.000543250
 130       -0.002853030
 131       -0.000020655
 132       -0.000009966
 133        0.000000000
 134        0.000113021
 135       -0.000042867
 136        0.000000000
 137       -0.000858310
 138       -0.000763211
 139        0.000000000
 140        0.000008428
 141        0.000000000
 142        0.000000000
 143        0.000027967
 144       -0.000009411
 145       -0.000003542
 146       -0.000007148
 147        0.000018912
 148       -0.000067530
 149        0.000539209
 150        0.000000360
 151       -0.000000128
 152        0.000000000
 153        0.000012800
 154       -0.000020773
 155        0.000000000
 156        0.000099457
 157        0.000064136
 158        0.000000000
 159        0.000003813
 160        0.000000000
 161        0.000000000
 162       -0.000007031
 163       -0.000002284
 164        0.448867460
 165        0.630031060
 166        0.021458452
 167       -0.010475629
 168        0.012074209
 169        0.000121404
 170       -0.000169678
 171        0.000000000
 172       -0.000266132
 173        0.000553551
 174        0.000000000
 175        0.001293287
 176       -0.001786818
 177        0.000000000
 178        0.000008726
 179        0.000000000
 180        0.000000000
 181        0.000022829
 182        0.000056651
 Sym= A'  
 Ene=       -11.365505
 Spin= Alpha
 Occup=       2.000000
   1        0.000058458
   2       -0.000317336
   3       -0.000092089
   4        0.000000377
   5       -0.000059493
   6        0.000000000
   7       -0.000041632
   8        0.000468123
   9        0.001864118
  10       -0.000067279
  11        0.000010209
  12        0.000000000
  13        0.000037062
  14       -0.000366302
  15       -0.001695877
  16        0.000037050
  17        0.000031368
  18        0.000000000
  19        0.000024372
  20       -0.000185311
  21        0.000065362
  22        0.000007737
  23        0.000026955
  24        0.000000000
  25        0.000002648
  26        0.000031492
  27        0.000096974
  28        0.000002214
  29       -0.000004526
  30        0.000000000
  31        0.000035430
  32        0.000048347
  33        0.000038056
  34       -0.000179943
  35        0.009286213
  36       -0.000008822
  37       -0.000016050
  38        0.000000000
  39       -0.000276443
  40        0.000171336
  41        0.000000000
  42       -0.005168764
  43        0.002547490
  44        0.000000000
  45        0.000029753
  46        0.000000000
  47        0.000000000
  48       -0.000028621
  49        0.000006837
  50        0.000019152
  51        0.000027001
  52       -0.000081198
  53        0.000388925
  54       -0.013464256
  55        0.000005395
  56        0.000000369
  57        0.000000000
  58        0.000031801
  59        0.000156991
  60        0.000000000
  61        0.003766728
  62        0.005317810
  63        0.000000000
  64       -0.000020103
  65        0.000000000
  66        0.000000000
  67        0.000000458
  68        0.000047176
  69        0.000052927
  70        0.000061724
  71        0.000154381
  72       -0.000548955
  73        0.008887899
  74       -0.000007093
  75        0.000007161
  76        0.000000000
  77        0.000035605
  78       -0.000195727
  79        0.000000000
  80        0.002600688
  81       -0.005014085
  82        0.000000000
  83        0.000039521
  84        0.000000000
  85        0.000000000
  86        0.000043959
  87       -0.000007883
  88       -0.467591830
  89       -0.612620348
  90       -0.020047627
  91        0.012429277
  92       -0.004154086
  93       -0.000174791
  94        0.000125681
  95        0.000000000
  96        0.000532553
  97        0.000298380
  98        0.000000000
  99       -0.001658195
 100       -0.002084730
 101        0.000000000
 102        0.000291056
 103        0.000000000
 104        0.000000000
 105        0.000170851
 106       -0.000206063
 107        0.000141446
 108        0.000323657
 109       -0.000455781
 110        0.000392889
 111       -0.002704038
 112       -0.000244316
 113       -0.000324676
 114        0.000000000
 115       -0.000152756
 116       -0.000192073
 117        0.000000000
 118       -0.000476343
 119       -0.000660051
 120        0.000000000
 121        0.000063135
 122        0.000000000
 123        0.000000000
 124        0.000074796
 125       -0.000190191
 126        0.000114425
 127        0.000221162
 128       -0.000351710
 129        0.000113380
 130       -0.003523874
 131       -0.000065344
 132        0.000218609
 133        0.000000000
 134        0.000061617
 135        0.000331419
 136        0.000000000
 137       -0.001301404
 138        0.000572801
 139        0.000000000
 140       -0.000004819
 141        0.000000000
 142        0.000000000
 143        0.000061429
 144        0.000038837
 145        0.000091427
 146        0.000183392
 147       -0.000339964
 148        0.000098786
 149       -0.002907988
 150        0.000244832
 151       -0.000064632
 152        0.000000000
 153        0.000386468
 154        0.000013316
 155        0.000000000
 156        0.001043816
 157       -0.001426662