[Molden Format]
[N_ATOMS]
           19
[Atoms]  AU
Fe    1   26      -0.000272        0.000191       -0.000032
O     2    8       1.773088       -2.836754        1.792887
H     3    1       2.355630       -4.254928        0.768061
O     4    8       0.184755        2.379520        2.951405
H     5    1      -0.505332        2.018231        4.619702
O     6    8      -0.184219       -2.380438       -2.950324
H     7    1       0.507345       -2.021028       -4.618411
O     8    8      -1.772817        2.837516       -1.793184
H     9    1      -2.357245        4.254605       -0.767918
O    10    8      -3.206001       -1.668002        1.161061
H    11    1      -3.060515       -2.980189        2.448680
O    12    8       3.205716        1.667830       -1.161625
H    13    1       3.060058        2.982632       -2.446536
H    14    1      -4.782920       -0.773571        1.482553
H    15    1       1.768941        3.287445        3.210201
H    16    1       4.782019        0.773275       -1.485691
H    17    1       3.009930       -2.601345        3.136299
H    18    1      -1.767283       -3.290197       -3.209416
H    19    1      -3.007735        2.602739       -3.138462
[5D7F9G]
[GTO]
    1
    s    6
   0.609236406E+05   0.175522431E-02
   0.914788940E+04   0.134490232E-01
   0.208135059E+04   0.666788746E-01
   0.587559771E+03   0.231763486E+00
   0.191090440E+03   0.469455503E+00
   0.657327301E+02   0.359682494E+00
    s    3
   0.127258919E+03  -0.107234318E+00
   0.148309130E+02   0.629716163E+00
   0.606533074E+01   0.444723179E+00
    s    3
   0.104499437E+02  -0.216942892E+00
   0.172452280E+01   0.694578674E+00
   0.717721770E+00   0.432983089E+00
    s    1
   0.914498300E-01   0.100000000E+01
    s    1
   0.337066900E-01   0.100000000E+01
    p    5
   0.773437510E+03   0.914405298E-02
   0.182151497E+03   0.678875772E-01
   0.575472728E+02   0.261679789E+00
   0.206149889E+02   0.510880401E+00
   0.763485579E+01   0.332354756E+00
    p    3
   0.387193280E+01   0.331938591E+00
   0.149247241E+01   0.555366656E+00
   0.560612850E+00   0.231060342E+00
    p    1
   0.134915000E+00   0.100000000E+01
    d    4
   0.389681334E+02   0.333359386E-01
   0.108000671E+02   0.177662125E+00
   0.361364580E+01   0.441281782E+00
   0.121299679E+01   0.570892005E+00
    d    1
   0.365243930E+00   0.100000000E+01
    f    1
   0.159800000E+01   0.100000000E+01
 
    2
    s    5
   0.226617678E+04  -0.538935040E-02
   0.340870102E+03  -0.402347214E-01
   0.773631352E+02  -0.180081842E+00
   0.214796449E+02  -0.468288577E+00
   0.665894331E+01  -0.446926172E+00
    s    1
   0.809759760E+00   0.100000000E+01
    s    1
   0.255307720E+00   0.100000000E+01
    p    3
   0.177215043E+02   0.626302488E-01
   0.386355054E+01   0.333311385E+00
   0.104809209E+01   0.741486383E+00
    p    1
   0.276415440E+00   0.100000000E+01
    d    1
   0.120000000E+01   0.100000000E+01
 
    3
    s    3
   0.130107010E+02   0.334854848E-01
   0.196225720E+01   0.234721871E+00
   0.444537960E+00   0.813770285E+00
    s    1
   0.121949620E+00   0.100000000E+01
    p    1
   0.800000000E+00   0.100000000E+01
 
    4
    s    5
   0.226617678E+04  -0.538935040E-02
   0.340870102E+03  -0.402347214E-01
   0.773631352E+02  -0.180081842E+00
   0.214796449E+02  -0.468288577E+00
   0.665894331E+01  -0.446926172E+00
    s    1
   0.809759760E+00   0.100000000E+01
    s    1
   0.255307720E+00   0.100000000E+01
    p    3
   0.177215043E+02   0.626302488E-01
   0.386355054E+01   0.333311385E+00
   0.104809209E+01   0.741486383E+00
    p    1
   0.276415440E+00   0.100000000E+01
    d    1
   0.120000000E+01   0.100000000E+01
 
    5
    s    3
   0.130107010E+02   0.334854848E-01
   0.196225720E+01   0.234721871E+00
   0.444537960E+00   0.813770285E+00
    s    1
   0.121949620E+00   0.100000000E+01
    p    1
   0.800000000E+00   0.100000000E+01
 
    6
    s    5
   0.226617678E+04  -0.538935040E-02
   0.340870102E+03  -0.402347214E-01
   0.773631352E+02  -0.180081842E+00
   0.214796449E+02  -0.468288577E+00
   0.665894331E+01  -0.446926172E+00
    s    1
   0.809759760E+00   0.100000000E+01
    s    1
   0.255307720E+00   0.100000000E+01
    p    3
   0.177215043E+02   0.626302488E-01
   0.386355054E+01   0.333311385E+00
   0.104809209E+01   0.741486383E+00
    p    1
   0.276415440E+00   0.100000000E+01
    d    1
   0.120000000E+01   0.100000000E+01
 
    7
    s    3
   0.130107010E+02   0.334854848E-01
   0.196225720E+01   0.234721871E+00
   0.444537960E+00   0.813770285E+00
    s    1
   0.121949620E+00   0.100000000E+01
    p    1
   0.800000000E+00   0.100000000E+01
 
    8
    s    5
   0.226617678E+04  -0.538935040E-02
   0.340870102E+03  -0.402347214E-01
   0.773631352E+02  -0.180081842E+00
   0.214796449E+02  -0.468288577E+00
   0.665894331E+01  -0.446926172E+00
    s    1
   0.809759760E+00   0.100000000E+01
    s    1
   0.255307720E+00   0.100000000E+01
    p    3
   0.177215043E+02   0.626302488E-01
   0.386355054E+01   0.333311385E+00
   0.104809209E+01   0.741486383E+00
    p    1
   0.276415440E+00   0.100000000E+01
    d    1
   0.120000000E+01   0.100000000E+01
 
    9
    s    3
   0.130107010E+02   0.334854848E-01
   0.196225720E+01   0.234721871E+00
   0.444537960E+00   0.813770285E+00
    s    1
   0.121949620E+00   0.100000000E+01
    p    1
   0.800000000E+00   0.100000000E+01
 
   10
    s    5
   0.226617678E+04  -0.538935040E-02
   0.340870102E+03  -0.402347214E-01
   0.773631352E+02  -0.180081842E+00
   0.214796449E+02  -0.468288577E+00
   0.665894331E+01  -0.446926172E+00
    s    1
   0.809759760E+00   0.100000000E+01
    s    1
   0.255307720E+00   0.100000000E+01
    p    3
   0.177215043E+02   0.626302488E-01
   0.386355054E+01   0.333311385E+00
   0.104809209E+01   0.741486383E+00
    p    1
   0.276415440E+00   0.100000000E+01
    d    1
   0.120000000E+01   0.100000000E+01
 
   11
    s    3
   0.130107010E+02   0.334854848E-01
   0.196225720E+01   0.234721871E+00
   0.444537960E+00   0.813770285E+00
    s    1
   0.121949620E+00   0.100000000E+01
    p    1
   0.800000000E+00   0.100000000E+01
 
   12
    s    5
   0.226617678E+04  -0.538935040E-02
   0.340870102E+03  -0.402347214E-01
   0.773631352E+02  -0.180081842E+00
   0.214796449E+02  -0.468288577E+00
   0.665894331E+01  -0.446926172E+00
    s    1
   0.809759760E+00   0.100000000E+01
    s    1
   0.255307720E+00   0.100000000E+01
    p    3
   0.177215043E+02   0.626302488E-01
   0.386355054E+01   0.333311385E+00
   0.104809209E+01   0.741486383E+00
    p    1
   0.276415440E+00   0.100000000E+01
    d    1
   0.120000000E+01   0.100000000E+01
 
   13
    s    3
   0.130107010E+02   0.334854848E-01
   0.196225720E+01   0.234721871E+00
   0.444537960E+00   0.813770285E+00
    s    1
   0.121949620E+00   0.100000000E+01
    p    1
   0.800000000E+00   0.100000000E+01
 
   14
    s    3
   0.130107010E+02   0.334854848E-01
   0.196225720E+01   0.234721871E+00
   0.444537960E+00   0.813770285E+00
    s    1
   0.121949620E+00   0.100000000E+01
    p    1
   0.800000000E+00   0.100000000E+01
 
   15
    s    3
   0.130107010E+02   0.334854848E-01
   0.196225720E+01   0.234721871E+00
   0.444537960E+00   0.813770285E+00
    s    1
   0.121949620E+00   0.100000000E+01
    p    1
   0.800000000E+00   0.100000000E+01
 
   16
    s    3
   0.130107010E+02   0.334854848E-01
   0.196225720E+01   0.234721871E+00
   0.444537960E+00   0.813770285E+00
    s    1
   0.121949620E+00   0.100000000E+01
    p    1
   0.800000000E+00   0.100000000E+01
 
   17
    s    3
   0.130107010E+02   0.334854848E-01
   0.196225720E+01   0.234721871E+00
   0.444537960E+00   0.813770285E+00
    s    1
   0.121949620E+00   0.100000000E+01
    p    1
   0.800000000E+00   0.100000000E+01
 
   18
    s    3
   0.130107010E+02   0.334854848E-01
   0.196225720E+01   0.234721871E+00
   0.444537960E+00   0.813770285E+00
    s    1
   0.121949620E+00   0.100000000E+01
    p    1
   0.800000000E+00   0.100000000E+01
 
   19
    s    3
   0.130107010E+02   0.334854848E-01
   0.196225720E+01   0.234721871E+00
   0.444537960E+00   0.813770285E+00
    s    1
   0.121949620E+00   0.100000000E+01
    p    1
   0.800000000E+00   0.100000000E+01
 
[MO]
 Sym= A   
 Ene=      -261.568296
 Spin= Alpha
 Occup=       2.000000
   1       -0.995425495
   2       -0.014668119
   3        0.003750085
   4       -0.004918762
   5        0.000486408
   6       -0.000000037
   7        0.000000025
   8       -0.000000011
   9        0.000000138
  10       -0.000000105
  11        0.000000042
  12       -0.000001166
  13        0.000001150
  14       -0.000000273
  15       -0.000018894
  16        0.000000015
  17        0.000000017
  18       -0.000029246
  19        0.000014528
  20        0.000084093
  21       -0.000000078
  22       -0.000000146
  23        0.000130275
  24       -0.000064683
  25       -0.000000017
  26       -0.000000017
  27       -0.000000010
  28       -0.000000016
  29        0.000000008
  30        0.000000011
  31        0.000000002
  32       -0.000040816
  33       -0.000452309
  34        0.001232183
  35        0.000057877
  36       -0.000106520
  37        0.000054123
  38       -0.000322963
  39        0.000615077
  40       -0.000340284
  41        0.000004397
  42        0.000036858
  43       -0.000018144
  44       -0.000016798
  45       -0.000028009
  46       -0.000031476
  47        0.000110305
  48        0.000016108
  49       -0.000041101
  50        0.000044152
  51       -0.000040800
  52       -0.000452117
  53        0.001231416
  54        0.000014383
  55        0.000089605
  56        0.000096827
  57       -0.000054817
  58       -0.000526497
  59       -0.000563552
  60        0.000027723
  61       -0.000016238
  62        0.000037590
  63       -0.000010702
  64        0.000014576
  65       -0.000068185
  66        0.000123680
  67        0.000008035
  68        0.000057293
  69        0.000039900
  70       -0.000040802
  71       -0.000452124
  72        0.001231509
  73       -0.000014324
  74       -0.000089686
  75       -0.000096748
  76        0.000054998
  77        0.000527023
  78        0.000563527
  79        0.000027744
  80       -0.000016277
  81        0.000037600
  82       -0.000010714
  83        0.000014550
  84       -0.000068153
  85        0.000123708
  86       -0.000008097
  87       -0.000057385
  88       -0.000039898
  89       -0.000040786
  90       -0.000451888
  91        0.001230530
  92       -0.000057796
  93        0.000106473
  94       -0.000054099
  95        0.000322581
  96       -0.000614609
  97        0.000339893
  98        0.000004444
  99        0.000036787
 100       -0.000018128
 101       -0.000016805
 102       -0.000028015
 103       -0.000031421
 104        0.000110398
 105       -0.000016019
 106        0.000041032
 107       -0.000044082
 108       -0.000040795
 109       -0.000452039
 110        0.001231202
 111       -0.000105546
 112       -0.000068116
 113        0.000042776
 114        0.000628029
 115        0.000391224
 116       -0.000223733
 117       -0.000032130
 118       -0.000020509
 119       -0.000019502
 120        0.000027446
 121        0.000013504
 122       -0.000031808
 123        0.000110517
 124       -0.000057576
 125       -0.000023851
 126       -0.000000323
 127       -0.000040811
 128       -0.000452158
 129        0.001231411
 130        0.000105551
 131        0.000068159
 132       -0.000042840
 133       -0.000628005
 134       -0.000391737
 135        0.000224218
 136       -0.000032188
 137       -0.000020584
 138       -0.000019410
 139        0.000027419
 140        0.000013476
 141       -0.000031400
 142        0.000110472
 143        0.000057698
 144        0.000023742
 145        0.000000390
 146       -0.000068069
 147        0.000123581
 148       -0.000049380
 149       -0.000047553
 150        0.000015364
 151       -0.000031603
 152        0.000110366
 153       -0.000016620
 154        0.000041276
 155        0.000043696
 156       -0.000068151
 157        0.000123520
 158        0.000049436
 159        0.000047599
 160       -0.000015450
 161       -0.000068349
 162        0.000123714
 163        0.000018018
 164       -0.000063366
 165        0.000024619
 166       -0.000031189
 167        0.000110329
 168        0.000016810
 169       -0.000041263
 170       -0.000043712
 171       -0.000068259
 172        0.000123753
 173       -0.000017943
 174        0.000063336
 175       -0.000024536
 Sym= A   
 Ene=       -32.138125
 Spin= Alpha
 Occup=       2.000000
   1       -0.335303888
   2        1.045125436
   3        0.015515837
   4       -0.007696454
   5        0.001050256
   6       -0.000000258
   7        0.000000730
   8       -0.000000193
   9        0.000000209
  10       -0.000000121
  11        0.000000060
  12       -0.000001814
  13        0.000001581
  14       -0.000000477
  15        0.000161955
  16        0.000000007
  17        0.000000116
  18        0.000251118
  19       -0.000125131
  20        0.000022154
  21       -0.000000857
  22        0.000000121
  23        0.000033360
  24       -0.000016179
  25       -0.000000019
  26       -0.000000019
  27       -0.000000012
  28       -0.000000012
  29        0.000000012
  30        0.000000018
  31        0.000000003
  32       -0.000051734
  33       -0.000631978
  34        0.001854979
  35        0.000065199
  36       -0.000131010
  37        0.000063529
  38       -0.000375094
  39        0.000847288
  40       -0.000414033
  41        0.000004011
  42        0.000055795
  43       -0.000018632
  44       -0.000018096
  45       -0.000035602
  46       -0.000056731
  47        0.000139070
  48        0.000002181
  49       -0.000047531
  50        0.000034047
  51       -0.000051731
  52       -0.000631606
  53        0.001853459
  54        0.000017722
  55        0.000111641
  56        0.000112540
  57       -0.000092167
  58       -0.000737254
  59       -0.000689671
  60        0.000043088
  61       -0.000023025
  62        0.000043721
  63       -0.000013690
  64        0.000023917
  65       -0.000163648
  66        0.000128160
  67       -0.000005159
  68        0.000060480
  69        0.000069838
  70       -0.000051729
  71       -0.000631596
  72        0.001853653
  73       -0.000017662
  74       -0.000111731
  75       -0.000112428
  76        0.000092489
  77        0.000737781
  78        0.000689492
  79        0.000043113
  80       -0.000023102
  81        0.000043748
  82       -0.000013680
  83        0.000023903
  84       -0.000163686
  85        0.000128183
  86        0.000005113
  87       -0.000060615
  88       -0.000069861
  89       -0.000051688
  90       -0.000631335
  91        0.001852526
  92       -0.000065086
  93        0.000130927
  94       -0.000063487
  95        0.000374595
  96       -0.000846518
  97        0.000413364
  98        0.000004105
  99        0.000055708
 100       -0.000018609
 101       -0.000018106
 102       -0.000035614
 103       -0.000056670
 104        0.000139226
 105       -0.000002082
 106        0.000047411
 107       -0.000033929
 108       -0.000051715
 109       -0.000631494
 110        0.001853153
 111       -0.000124763
 112       -0.000086411
 113        0.000049044
 114        0.000789082
 115        0.000572796
 116       -0.000276805
 117       -0.000044496
 118       -0.000032599
 119       -0.000025223
 120        0.000035820
 121        0.000009684
 122       -0.000057177
 123        0.000139429
 124       -0.000045213
 125       -0.000036395
 126       -0.000005702
 127       -0.000051740
 128       -0.000631716
 129        0.001853633
 130        0.000124783
 131        0.000086482
 132       -0.000049139
 133       -0.000789110
 134       -0.000573639
 135        0.000277486
 136       -0.000044579
 137       -0.000032732
 138       -0.000025088
 139        0.000035790
 140        0.000009660
 141       -0.000056543
 142        0.000139356
 143        0.000045393
 144        0.000036257
 145        0.000005843
 146       -0.000163473
 147        0.000128006
 148       -0.000081252
 149       -0.000040163
 150        0.000018550
 151       -0.000056898
 152        0.000139197
 153       -0.000011781
 154        0.000049779
 155        0.000028080
 156       -0.000163658
 157        0.000127914
 158        0.000081359
 159        0.000040232
 160       -0.000018743
 161       -0.000163839
 162        0.000128265
 163        0.000036679
 164       -0.000067846
 165        0.000051339
 166       -0.000056400
 167        0.000139050
 168        0.000011979
 169       -0.000049779
 170       -0.000028116
 171       -0.000163715
 172        0.000128285
 173       -0.000036545
 174        0.000067809
 175       -0.000051264
 Sym= A   
 Ene=       -27.632925
 Spin= Alpha
 Occup=       2.000000
   1       -0.000000089
   2        0.000000324
   3        0.000000745
   4       -0.000002702
   5       -0.000002372
   6        0.835771724
   7       -0.196521730
   8        0.499911820
   9        0.015276550
  10       -0.003592194
  11        0.009135762
  12       -0.006035243
  13        0.001420455
  14       -0.003475363
  15        0.000000071
  16        0.000000005
  17        0.000000094
  18        0.000000043
  19        0.000000009
  20       -0.000000296
  21       -0.000000084
  22       -0.000000374
  23       -0.000000175
  24        0.000000182
  25        0.000079136
  26        0.000051005
  27       -0.000009850
  28        0.000109067
  29       -0.000009636
  30        0.000153772
  31       -0.000129667
  32       -0.000029596
  33       -0.000602176
  34        0.002707849
  35       -0.000085417
  36       -0.000094085
  37       -0.000007451
  38        0.000445154
  39        0.001244004
  40        0.000024190
  41        0.000004736
  42        0.000114169
  43       -0.000021044
  44       -0.000011483
  45        0.000002487
  46       -0.000050770
  47        0.000148113
  48       -0.000177716
  49       -0.000045019
  50       -0.000062183
  51       -0.000008869
  52       -0.000284485
  53        0.001414263
  54       -0.000150224
  55        0.000100579
  56       -0.000045405
  57        0.001160831
  58       -0.000509032
  59        0.000251016
  60       -0.000048592
  61       -0.000043044
  62        0.000042299
  63        0.000005308
  64        0.000010423
  65       -0.000243870
  66        0.000028594
  67       -0.000251408
  68        0.000020778
  69       -0.000018798
  70        0.000008812
  71        0.000283552
  72       -0.001411236
  73       -0.000150310
  74        0.000100477
  75       -0.000045713
  76        0.001161320
  77       -0.000507147
  78        0.000252852
  79        0.000048807
  80        0.000043083
  81       -0.000042238
  82       -0.000005233
  83       -0.000010484
  84        0.000243018
  85       -0.000027674
  86       -0.000251345
  87        0.000020869
  88       -0.000019164
  89        0.000029564
  90        0.000601764
  91       -0.002706446
  92       -0.000085564
  93       -0.000094066
  94       -0.000007457
  95        0.000445742
  96        0.001242884
  97        0.000024794
  98       -0.000005040
  99       -0.000114102
 100        0.000020977
 101        0.000011685
 102       -0.000002415
 103        0.000051428
 104       -0.000147498
 105       -0.000177685
 106       -0.000045142
 107       -0.000062612
 108        0.000020650
 109        0.000316962
 110       -0.001291690
 111       -0.000069732
 112        0.000065314
 113       -0.000119384
 114        0.000244238
 115       -0.001168873
 116        0.001087906
 117        0.000062902
 118        0.000103884
 119       -0.000045399
 120       -0.000038581
 121        0.000046912
 122       -0.000624372
 123        0.000003916
 124       -0.000005088
 125       -0.000092523
 126        0.000118396
 127       -0.000020719
 128       -0.000317454
 129        0.001291949
 130       -0.000069518
 131        0.000065383
 132       -0.000119546
 133        0.000242320
 134       -0.001169729
 135        0.001087947
 136       -0.000062435
 137       -0.000104058
 138        0.000045562
 139        0.000038608
 140       -0.000046690
 141        0.000624343
 142       -0.000002112
 143       -0.000004893
 144       -0.000093255
 145        0.000117984
 146        0.000609666
 147       -0.000267130
 148        0.000092455
 149       -0.000042178
 150       -0.000194124
 151       -0.000675032
 152        0.000151126
 153        0.000121110
 154        0.000152441
 155       -0.000127682
 156       -0.000608427
 157        0.000267553
 158        0.000092093
 159       -0.000041569
 160       -0.000194479
 161       -0.000851821
 162        0.000296515
 163        0.000087887
 164        0.000038217
 165        0.000194971
 166        0.000674804
 167       -0.000149423
 168        0.000120861
 169        0.000152896
 170       -0.000127421
 171        0.000851629
 172       -0.000295766
 173        0.000087363
 174        0.000038043
 175        0.000195284
 Sym= A   
 Ene=       -27.632875
 Spin= Alpha
 Occup=       2.000000
   1        0.000000001
   2        0.000000005
   3        0.000000167
   4       -0.000000884
   5        0.000000788
   6        0.486585722
   7       -0.114656020
   8       -0.858565594
   9        0.008892802
  10       -0.002095459
  11       -0.015693480
  12       -0.003383851
  13        0.000797833
  14        0.006196616
  15       -0.000000053
  16       -0.000000070
  17       -0.000000053
  18        0.000000036
  19       -0.000000031
  20        0.000000331
  21        0.000000379
  22        0.000000017
  23       -0.000000056
  24        0.000000321
  25       -0.000127664
  26        0.000038770
  27        0.000023119
  28       -0.000148559
  29        0.000071274
  30        0.000080793
  31       -0.000098922
  32        0.000006792
  33        0.000018440
  34        0.000072486
  35       -0.000106583
  36        0.000015596
  37        0.000147392
  38        0.000747194
  39       -0.000681294
  40       -0.001116091
  41        0.000049033
  42       -0.000079210
  43        0.000008779
  44       -0.000066005
  45       -0.000007921
  46       -0.000749822
  47        0.000088112
  48       -0.000021478
  49       -0.000154171
  50       -0.000120324
  51        0.000028970
  52        0.000530025
  53       -0.002306787
  54       -0.000088730
  55       -0.000073191
  56        0.000040084
  57        0.000958030
  58        0.001194733
  59       -0.000021552
  60       -0.000119265
  61        0.000050001
  62        0.000007121
  63        0.000055886
  64       -0.000028340
  65        0.000843252
  66       -0.000325368
  67        0.000016700
  68        0.000041424
  69       -0.000200422
  70       -0.000028963
  71       -0.000530074
  72        0.002307626
  73       -0.000088611
  74       -0.000073330
  75        0.000040168
  76        0.000957727
  77        0.001195202
  78       -0.000022753
  79        0.000119214
  80       -0.000050303
  81       -0.000006980
  82       -0.000055633
  83        0.000028279
  84       -0.000843852
  85        0.000324896
  86        0.000017156
  87        0.000040966
  88       -0.000200651
  89       -0.000006809
  90       -0.000018830
  91       -0.000070741
  92       -0.000106635
  93        0.000015664
  94        0.000147372
  95        0.000747430
  96       -0.000681688
  97       -0.001116771
  98       -0.000048836
  99        0.000079601
 100       -0.000008801
 101        0.000065887
 102        0.000008049
 103        0.000750464
 104       -0.000089218
 105       -0.000020984
 106       -0.000153880
 107       -0.000120566
 108        0.000022174
 109        0.000511451
 110       -0.002378198
 111        0.000027477
 112        0.000097248
 113        0.000126424
 114       -0.000376744
 115       -0.000826046
 116       -0.000763039
 117        0.000073415
 118       -0.000003217
 119        0.000019473
 120       -0.000023797
 121        0.000000252
 122        0.000419986
 123       -0.000172866
 124       -0.000127351
 125        0.000184479
 126        0.000058160
 127       -0.000022197
 128       -0.000511726
 129        0.002379115
 130        0.000027559
 131        0.000097183
 132        0.000126354
 133       -0.000376927
 134       -0.000826593
 135       -0.000762312
 136       -0.000073716
 137        0.000002975
 138       -0.000019233
 139        0.000023851
 140       -0.000000333
 141       -0.000418485
 142        0.000172263
 143       -0.000126915
 144        0.000184376
 145        0.000058911
 146        0.000632099
 147       -0.000187034
 148        0.000164949
 149       -0.000094340
 150        0.000148524
 151       -0.000331318
 152       -0.000083562
 153        0.000078464
 154       -0.000013932
 155        0.000125286
 156       -0.000632914
 157        0.000186553
 158        0.000165418
 159       -0.000094540
 160        0.000147892
 161        0.000209947
 162       -0.000137940
 163       -0.000199160
 164        0.000057279
 165        0.000125981
 166        0.000331181
 167        0.000083336
 168        0.000078233
 169       -0.000013810
 170        0.000125462
 171       -0.000211572
 172        0.000138451
 173       -0.000199559
 174        0.000057137
 175        0.000125496
 Sym= A   
 Ene=       -27.614825
 Spin= Alpha
 Occup=       2.000000
   1        0.000000194
   2       -0.000000628
   3       -0.000000295
   4        0.000001333
   5        0.000000039
   6        0.227480070
   7        0.966915754
   8       -0.000202856
   9        0.004293589
  10        0.018250441
  11       -0.000003846
  12       -0.002339232
  13       -0.009946617
  14        0.000001763
  15        0.000000057
  16        0.000000047
  17       -0.000000154
  18        0.000000008
  19       -0.000000018
  20       -0.000000459
  21       -0.000000284
  22        0.000000698
  23       -0.000000223
  24        0.000000118
  25       -0.000058075
  26       -0.000038875
  27       -0.000234262
  28        0.000040875
  29       -0.000019782
  30       -0.000198289
  31       -0.000232321
  32        0.000042917
  33        0.000631144
  34       -0.002480447
  35       -0.000158847
  36       -0.000058252
  37       -0.000065995
  38        0.001514633
  39       -0.000067700
  40        0.001410083
  41       -0.000010970
  42        0.000002779
  43       -0.000035514
  44        0.000004203
  45        0.000138792
  46        0.000519969
  47       -0.000315737
  48       -0.000206135
  49        0.000024256
  50        0.000063598
  51       -0.000042944
  52       -0.000631561
  53        0.002482219
  54       -0.000008255
  55       -0.000093449
  56        0.000155420
  57        0.000527350
  58        0.000160701
  59       -0.001995551
  60        0.000028150
  61        0.000042802
  62        0.000084734
  63        0.000084205
  64        0.000061276
  65        0.000571504
  66        0.000131235
  67        0.000058515
  68        0.000026696
  69       -0.000098191
  70        0.000042938
  71        0.000632028
  72       -0.002485495
  73       -0.000008375
  74       -0.000093190
  75        0.000155354
  76        0.000528829
  77        0.000158989
  78       -0.001995078
  79       -0.000028173
  80       -0.000042821
  81       -0.000084805
  82       -0.000084034
  83       -0.000061545
  84       -0.000570684
  85       -0.000131501
  86        0.000058449
  87        0.000026299
  88       -0.000097985
  89       -0.000042926
  90       -0.000631103
  91        0.002479578
  92       -0.000158856
  93       -0.000058287
  94       -0.000066174
  95        0.001514168
  96       -0.000069030
  97        0.001410947
  98        0.000010840
  99       -0.000002873
 100        0.000035314
 101       -0.000004035
 102       -0.000138894
 103       -0.000519278
 104        0.000316753
 105       -0.000206149
 106        0.000023740
 107        0.000063259
 108        0.000042962
 109        0.000631551
 110       -0.002481181
 111        0.000103322
 112       -0.000119770
 113       -0.000089271
 114       -0.001851198
 115        0.000719074
 116        0.000585386
 117       -0.000044712
 118        0.000040212
 119        0.000119904
 120       -0.000050002
 121       -0.000013036
 122        0.000518074
 123       -0.000316940
 124        0.000041429
 125       -0.000034849
 126       -0.000209812
 127       -0.000042941
 128       -0.000631479
 129        0.002481377
 130        0.000103267
 131       -0.000119761
 132       -0.000089283
 133       -0.001850684
 134        0.000721330
 135        0.000585206
 136        0.000044501
 137       -0.000040048
 138       -0.000120243
 139        0.000049611
 140        0.000012927
 141       -0.000520081
 142        0.000316326
 143        0.000041207
 144       -0.000033872
 145       -0.000210196
 146       -0.000571538
 147       -0.000131427
 148       -0.000098603
 149        0.000063774
 150        0.000004496
 151       -0.000519664
 152        0.000316462
 153        0.000148446
 154       -0.000059219
 155        0.000146442
 156        0.000571946
 157        0.000131165
 158       -0.000098652
 159        0.000063611
 160        0.000005068
 161       -0.000572116
 162       -0.000131094
 163        0.000067140
 164        0.000025004
 165        0.000093190
 166        0.000520636
 167       -0.000315999
 168        0.000148553
 169       -0.000058431
 170        0.000146683
 171        0.000572371
 172        0.000130897
 173        0.000066871
 174        0.000025005
 175        0.000093523
 Sym= A   
 Ene=       -20.906490
 Spin= Alpha
 Occup=       2.000000
   1        0.000065760
   2       -0.000116296
   3        0.001195664
   4       -0.007044935
   5        0.000825782
   6        0.000049791
   7       -0.000037422
   8        0.000033430
   9       -0.000204297
  10        0.000146403
  11       -0.000132589
  12        0.004225820
  13       -0.002560094
  14        0.002381742