
                                        *****************
                                        * O   R   C   A *
                                        *****************

                                            #,                                       
                                            ###                                      
                                            ####                                     
                                            #####                                    
                                            ######                                   
                                           ########,                                 
                                     ,,################,,,,,                         
                               ,,#################################,,                 
                          ,,##########################################,,             
                       ,#########################################, ''#####,          
                    ,#############################################,,   '####,        
                  ,##################################################,,,,####,       
                ,###########''''           ''''###############################       
              ,#####''   ,,,,##########,,,,          '''####'''          '####       
            ,##' ,,,,###########################,,,                        '##       
           ' ,,###''''                  '''############,,,                           
         ,,##''                                '''############,,,,        ,,,,,,###''
      ,#''                                            '''#######################'''  
     '                                                          ''''####''''         
             ,#######,   #######,   ,#######,      ##                                
            ,#'     '#,  ##    ##  ,#'     '#,    #''#        ######   ,####,        
            ##       ##  ##   ,#'  ##            #'  '#       #        #'  '#        
            ##       ##  #######   ##           ,######,      #####,   #    #        
            '#,     ,#'  ##    ##  '#,     ,#' ,#      #,         ##   #,  ,#        
             '#######'   ##     ##  '#######'  #'      '#     #####' # '####'        



                  #######################################################
                  #                        -***-                        #
                  #          Department of theory and spectroscopy      #
                  #    Directorship and core code : Frank Neese         #
                  #        Max Planck Institute fuer Kohlenforschung    #
                  #                Kaiser Wilhelm Platz 1               #
                  #                 D-45470 Muelheim/Ruhr               #
                  #                      Germany                        #
                  #                                                     #
                  #                  All rights reserved                #
                  #                        -***-                        #
                  #######################################################


                         Program Version 5.0.0 -  RELEASE  -
                                (SVN: $Rev: 19529$)
                ($Date: 2021-06-28 11:36:33 +0200 (Mo, 28 Jun 2021) $)


 With contributions from (in alphabetic order):
   Daniel Aravena         : Magnetic Suceptibility
   Michael Atanasov       : Ab Initio Ligand Field Theory (pilot matlab implementation)
   Alexander A. Auer      : GIAO ZORA, VPT2 properties, NMR spectrum
   Ute Becker             : Parallelization
   Giovanni Bistoni       : ED, misc. LED, open-shell LED, HFLD
   Martin Brehm           : Molecular dynamics
   Dmytro Bykov           : SCF Hessian
   Vijay G. Chilkuri      : MRCI spin determinant printing, contributions to CSF-ICE
   Dipayan Datta          : RHF DLPNO-CCSD density
   Achintya Kumar Dutta   : EOM-CC, STEOM-CC
   Dmitry Ganyushin       : Spin-Orbit,Spin-Spin,Magnetic field MRCI
   Miquel Garcia          : C-PCM Hessian, Gaussian charge scheme
   Yang Guo               : DLPNO-NEVPT2, F12-NEVPT2, CIM, IAO-localization
   Andreas Hansen         : Spin unrestricted coupled pair/coupled cluster methods
   Benjamin Helmich-Paris : MC-RPA, TRAH-SCF, COSX integrals
   Lee Huntington         : MR-EOM, pCC
   Robert Izsak           : Overlap fitted RIJCOSX, COSX-SCS-MP3, EOM
   Marcus Kettner         : VPT2
   Christian Kollmar      : KDIIS, OOCD, Brueckner-CCSD(T), CCSD density, CASPT2, CASPT2-K
   Simone Kossmann        : Meta GGA functionals, TD-DFT gradient, OOMP2, MP2 Hessian
   Martin Krupicka        : Initial AUTO-CI
   Lucas Lang             : DCDCAS
   Marvin Lechner         : AUTO-CI (C++ implementation), FIC-MRCC
   Dagmar Lenk            : GEPOL surface, SMD
   Dimitrios Liakos       : Extrapolation schemes; Compound Job, initial MDCI parallelization
   Dimitrios Manganas     : Further ROCIS development; embedding schemes
   Dimitrios Pantazis     : SARC Basis sets
   Anastasios Papadopoulos: AUTO-CI, single reference methods and gradients
   Taras Petrenko         : DFT Hessian,TD-DFT gradient, ASA, ECA, R-Raman, ABS, FL, XAS/XES, NRVS
   Peter Pinski           : DLPNO-MP2, DLPNO-MP2 Gradient
   Christoph Reimann      : Effective Core Potentials
   Marius Retegan         : Local ZFS, SOC
   Christoph Riplinger    : Optimizer, TS searches, QM/MM, DLPNO-CCSD(T), (RO)-DLPNO pert. Triples
   Tobias Risthaus        : Range-separated hybrids, TD-DFT gradient, RPA, STAB
   Michael Roemelt        : Original ROCIS implementation
   Masaaki Saitow         : Open-shell DLPNO-CCSD energy and density
   Barbara Sandhoefer     : DKH picture change effects
   Avijit Sen             : IP-ROCIS
   Kantharuban Sivalingam : CASSCF convergence, NEVPT2, FIC-MRCI
   Bernardo de Souza      : ESD, SOC TD-DFT
   Georgi Stoychev        : AutoAux, RI-MP2 NMR
   Willem Van den Heuvel  : Paramagnetic NMR
   Boris Wezisla          : Elementary symmetry handling
   Frank Wennmohs         : Technical directorship


 We gratefully acknowledge several colleagues who have allowed us to
 interface, adapt or use parts of their codes:
   Stefan Grimme, W. Hujo, H. Kruse, P. Pracht,  : VdW corrections, initial TS optimization,
                  C. Bannwarth, S. Ehlert          DFT functionals, gCP, sTDA/sTD-DF
   Ed Valeev, F. Pavosevic, A. Kumar             : LibInt (2-el integral package), F12 methods
   Garnet Chan, S. Sharma, J. Yang, R. Olivares  : DMRG
   Ulf Ekstrom                                   : XCFun DFT Library
   Mihaly Kallay                                 : mrcc  (arbitrary order and MRCC methods)
   Jiri Pittner, Ondrej Demel                    : Mk-CCSD
   Frank Weinhold                                : gennbo (NPA and NBO analysis)
   Christopher J. Cramer and Donald G. Truhlar   : smd solvation model
   Lars Goerigk                                  : TD-DFT with DH, B97 family of functionals
   V. Asgeirsson, H. Jonsson                     : NEB implementation
   FAccTs GmbH                                   : IRC, NEB, NEB-TS, DLPNO-Multilevel, CI-OPT
                                                   MM, QMMM, 2- and 3-layer-ONIOM, Crystal-QMMM,
                                                   LR-CPCM, SF, NACMEs, symmetry and pop. for TD-DFT,
                                                   nearIR, NL-DFT gradient (VV10), updates on ESD,
                                                   ML-optimized integration grids
   S Lehtola, MJT Oliveira, MAL Marques          : LibXC Library
   Liviu Ungur et al                             : ANISO software


 Your calculation uses the libint2 library for the computation of 2-el integrals
 For citations please refer to: http://libint.valeyev.net

 Your ORCA version has been built with support for libXC version: 5.1.0
 For citations please refer to: https://tddft.org/programs/libxc/

 This ORCA versions uses:
   CBLAS   interface :  Fast vector & matrix operations
   LAPACKE interface :  Fast linear algebra routines
   SCALAPACK package :  Parallel linear algebra routines
   Shared memory     :  Shared parallel matrices
   BLAS/LAPACK       :  OpenBLAS 0.3.15  USE64BITINT DYNAMIC_ARCH NO_AFFINITY SkylakeX SINGLE_THREADED
        Core in use  :  SkylakeX
   Copyright (c) 2011-2014, The OpenBLAS Project


================================================================================

----- Orbital basis set information -----
Your calculation utilizes the basis: TZVP 

================================================================================
                                        WARNINGS
                       Please study these warnings very carefully!
================================================================================


INFO   : the flag for use of the SHARK integral package has been found!

================================================================================
                                       INPUT FILE
================================================================================
NAME = /scratch/cytosine-MRCI-14-10_440/cytosine-MRCI-14-10.inp
|  1> ! TZVP Usesym MOread  
|  2> %moinp	"cytosine-RHF.gbw"
|  3> 
|  4> %pal
|  5> 	nprocs	32
|  6> end
|  7> 
|  8> %scf
|  9>     rotate
| 10>         {20,22} {30,33} {31,38}
| 11>     end
| 12> end
| 13> 
| 14> %casscf
| 15>     nel         14
| 16>     norb        10
| 17>     mult        1,1
| 18>     irrep       0,1
| 19>     Nroots      1,2
| 20>     bweight=    1,2
| 21>     weights[0]= 1
| 22>     weights[1]= 1,1
| 23>     etol    1e-9
| 24>     gtol    1e-5
| 25> end
| 26> 
| 27> %autoCI
| 28>     CItype      FICMRCI
| 29> 	nel	        14
| 30> 	norb        10
| 31> 	irrep       0,1
| 32>     mult        1,1
| 33>     NRoots      1,2
| 34> end
| 35> 
| 36> # cytosine
| 37> 
| 38> *xyz 0 1
| 39>  H 	-2.114860 		-1.429678 		0.000000
| 40>  H 	-0.173973 		-2.806186 		0.000000
| 41>  H 	2.073228 		-1.658021 		0.000000
| 42>  H 	3.175240 		0.564335 		0.000000
| 43>  H 	2.235202 		2.033636 		0.000000
| 44>  C 	-0.060783 		-1.726152 		0.000000
| 45>  C 	1.144884 		-1.099470 		0.000000
| 46>  C 	1.107049 		0.338190 		0.000000
| 47>  C 	-1.227573 		0.430359 		0.000000
| 48>  O 	-2.315109 		0.998271 		0.000000
| 49>  N 	0.000000 		1.058130 		0.000000
| 50>  N 	-1.201178 		-0.989148 		0.000000
| 51>  N 	2.278974 		1.024187 		0.000000
| 52> *
| 53> 
| 54>                          ****END OF INPUT****
================================================================================

------------------------------------------------------------------------------
                            SYMMETRY HANDLING SETUP
------------------------------------------------------------------------------

------------------
SYMMETRY DETECTION
------------------
The point group will now be determined using a tolerance of 1.0000e-04.
Splitting atom subsets according to nuclear charge, mass and basis set.
Splitting atom subsets according to distance from the molecule's center.
Identifying relative distance patterns of the atoms.
Splitting atom subsets according to atoms' relative distance patterns.
Bring atoms of each subset into input order.
The molecule is planar.
There is at least one atom subset not centered around the molecule's center.
The molecule does not have a center of inversion.
Analyzing the first atom subset for its symmetry.
Testing point group C2v.
Test failed.
Testing point group Cs.
Success!
This point group has been found:    Cs
Largest non-degenerate subgroup:    Cs


Mass-centered symmetry-perfected Cartesians (point group Cs):

Atom          Symmetry-perfected Cartesians (x, y, z; au)
  0      -3.909203985688   -2.757038641246    0.000000000000
  1      -0.241459098800   -5.358261782398    0.000000000000
  2       4.005135359074   -3.188544375844    0.000000000000
  3       6.087636235369    1.011099836233    0.000000000000
  4       4.311221859890    3.787676334529    0.000000000000
  5      -0.027560997702   -3.317293307074    0.000000000000
  6       2.250819441005   -2.133035954016    0.000000000000
  7       2.179321652728    0.583747719677    0.000000000000
  8      -2.232474553500    0.757921887715    0.000000000000
  9      -4.287619754280    1.831120035882    0.000000000000
 10       0.087302225896    1.944237152532    0.000000000000
 11      -2.182595232195   -1.924557587470    0.000000000000
 12       4.393938952224    1.880094178369    0.000000000000


-----------------------------------------------
SYMMETRY-PERFECTED CARTESIAN COORDINATES (A.U.)
-----------------------------------------------
Warning (ORCA_SYM): Coordinates were not cleaned so far!

------------------
SYMMETRY REDUCTION
------------------
ORCA supports only abelian point groups.
It is now checked, if the determined point group is supported:
Point Group ( Cs    ) is          ... supported

(Re)building abelian point group:
Creating Character Table          ... done
Making direct product table       ... done
Constructing symmetry operations  ... done
Creating atom transfer table      ... done
Creating asymmetric unit          ... done

---------------------
ASYMMETRIC UNIT IN Cs
---------------------
  #  AT     MASS              COORDS (A.U.)             BAS
   0 H    1.0080  -3.90920399  -2.75703864   0.00000000   0
   1 H    1.0080  -0.24145910  -5.35826178   0.00000000   0
   2 H    1.0080   4.00513536  -3.18854438   0.00000000   0
   3 H    1.0080   6.08763624   1.01109984   0.00000000   0
   4 H    1.0080   4.31122186   3.78767633   0.00000000   0
   5 C   12.0110  -0.02756100  -3.31729331   0.00000000   0
   6 C   12.0110   2.25081944  -2.13303595   0.00000000   0
   7 C   12.0110   2.17932165   0.58374772   0.00000000   0
   8 C   12.0110  -2.23247455   0.75792189   0.00000000   0
   9 O   15.9990  -4.28761975   1.83112004   0.00000000   0
  10 N   14.0070   0.08730223   1.94423715   0.00000000   0
  11 N   14.0070  -2.18259523  -1.92455759   0.00000000   0
  12 N   14.0070   4.39393895   1.88009418   0.00000000   0

----------------------
SYMMETRY ADAPTED BASIS
----------------------
The coefficients for the symmetry adapted linear combinations (SALCS)
of basis functions will now be computed:
Number of basis functions         ...   182
Preparing memory                  ... done
Constructing Gamma(red)           ... done
Reducing Gamma(red)               ... done
Constructing SALCs                ... done
Checking SALC integrity           ... nothing suspicious
Normalizing SALCs                 ... done

Storing the symmetry object:
Symmetry file                     ... /scratch/cytosine-MRCI-14-10_440/cytosine-MRCI-14-10.sym.tmp
Writing symmetry information      ... done

                       ****************************
                       * Single Point Calculation *
                       ****************************

---------------------------------
CARTESIAN COORDINATES (ANGSTROEM)
---------------------------------
  H     -2.068662   -1.458962    0.000000
  H     -0.127775   -2.835470    0.000000
  H      2.119426   -1.687305    0.000000
  H      3.221438    0.535051    0.000000
  H      2.281400    2.004352    0.000000
  C     -0.014585   -1.755436    0.000000
  C      1.191082   -1.128754    0.000000
  C      1.153247    0.308906    0.000000
  C     -1.181375    0.401075    0.000000
  O     -2.268911    0.968987    0.000000
  N      0.046198    1.028846    0.000000
  N     -1.154980   -1.018432    0.000000
  N      2.325172    0.994903    0.000000

----------------------------
CARTESIAN COORDINATES (A.U.)
----------------------------
  NO LB      ZA    FRAG     MASS         X           Y           Z
   0 H     1.0000    0     1.008   -3.909204   -2.757039    0.000000
   1 H     1.0000    0     1.008   -0.241459   -5.358262    0.000000
   2 H     1.0000    0     1.008    4.005135   -3.188544    0.000000
   3 H     1.0000    0     1.008    6.087636    1.011100    0.000000
   4 H     1.0000    0     1.008    4.311222    3.787676    0.000000
   5 C     6.0000    0    12.011   -0.027561   -3.317293    0.000000
   6 C     6.0000    0    12.011    2.250819   -2.133036    0.000000
   7 C     6.0000    0    12.011    2.179322    0.583748    0.000000
   8 C     6.0000    0    12.011   -2.232475    0.757922    0.000000
   9 O     8.0000    0    15.999   -4.287620    1.831120    0.000000
  10 N     7.0000    0    14.007    0.087302    1.944237    0.000000
  11 N     7.0000    0    14.007   -2.182595   -1.924558    0.000000
  12 N     7.0000    0    14.007    4.393939    1.880094    0.000000

--------------------------------
INTERNAL COORDINATES (ANGSTROEM)
--------------------------------
 H      0   0   0     0.000000000000     0.00000000     0.00000000
 H      1   0   0     2.379457211389     0.00000000     0.00000000
 H      2   1   0     2.523528323920   117.59122194     0.00000000
 H      3   2   1     2.480583931029   143.43959300     0.00000000
 H      4   3   2     1.744281190074   121.01377348     0.00000000
 C      2   1   3     1.085949085941    60.63801281     0.00000000
 C      3   2   1     1.083421340909    58.09770518     0.00000000
 C      7   3   2     1.438157767015   122.54130981   180.00000000
 C      1   2   3     2.060828925879    99.84249314     0.00000000
 O      9   1   2     1.226889803951    92.07121211   180.00000000
 N      8   7   3     1.320557114252   124.54440547   180.00000000
 N      1   2   3     1.014337950598    61.08582362     0.00000000
 N      4   3   2     1.007351281659    90.78555319     0.00000000

---------------------------
INTERNAL COORDINATES (A.U.)
---------------------------
 H      0   0   0     0.000000000000     0.00000000     0.00000000
 H      1   0   0     4.496522476910     0.00000000     0.00000000
 H      2   1   0     4.768777423402   117.59122194     0.00000000
 H      3   2   1     4.687624281851   143.43959300     0.00000000
 H      4   3   2     3.296213749790   121.01377348     0.00000000
 C      2   1   3     2.052146367811    60.63801281     0.00000000
 C      3   2   1     2.047369621964    58.09770518     0.00000000
 C      7   3   2     2.717724317030   122.54130981   180.00000000
 C      1   2   3     3.894402278774    99.84249314     0.00000000
 O      9   1   2     2.318485725969    92.07121211   180.00000000
 N      8   7   3     2.495491290137   124.54440547   180.00000000
 N      1   2   3     1.916820933874    61.08582362     0.00000000
 N      4   3   2     1.903618042990    90.78555319     0.00000000

---------------------
BASIS SET INFORMATION
---------------------
There are 4 groups of distinct atoms

 Group   1 Type H   : 5s1p contracted to 3s1p pattern {311/1}
 Group   2 Type C   : 11s6p1d contracted to 5s3p1d pattern {62111/411/1}
 Group   3 Type O   : 11s6p1d contracted to 5s3p1d pattern {62111/411/1}
 Group   4 Type N   : 11s6p1d contracted to 5s3p1d pattern {62111/411/1}

Atom   0H    basis set group =>   1
Atom   1H    basis set group =>   1
Atom   2H    basis set group =>   1
Atom   3H    basis set group =>   1
Atom   4H    basis set group =>   1
Atom   5C    basis set group =>   2
Atom   6C    basis set group =>   2
Atom   7C    basis set group =>   2
Atom   8C    basis set group =>   2
Atom   9O    basis set group =>   3
Atom  10N    basis set group =>   4
Atom  11N    basis set group =>   4
Atom  12N    basis set group =>   4
--------------------------------------------------------------------------
WARNING: There was an error initializing an OpenFabrics device.

  Local host:   cnode12
  Local device: mlx5_0
--------------------------------------------------------------------------
[cnode12:12704] 31 more processes have sent help message help-mpi-btl-openib.txt / error in device init
[cnode12:12704] Set MCA parameter "orte_base_help_aggregate" to 0 to see all help / error messages


           ************************************************************
           *        Program running with 32 parallel MPI-processes    *
           *              working on a common directory               *
           ************************************************************
------------------------------------------------------------------------------
                           ORCA GTO INTEGRAL CALCULATION
------------------------------------------------------------------------------
------------------------------------------------------------------------------
                   ___                                                        
                  /   \      - P O W E R E D   B Y -                         
                 /     \                                                     
                 |  |  |   _    _      __       _____    __    __             
                 |  |  |  | |  | |    /  \     |  _  \  |  |  /  |          
                  \  \/   | |  | |   /    \    | | | |  |  | /  /          
                 / \  \   | |__| |  /  /\  \   | |_| |  |  |/  /          
                |  |  |   |  __  | /  /__\  \  |    /   |      \           
                |  |  |   | |  | | |   __   |  |    \   |  |\   \          
                \     /   | |  | | |  |  |  |  | |\  \  |  | \   \       
                 \___/    |_|  |_| |__|  |__|  |_| \__\ |__|  \__/        
                                                                              
                      - O R C A' S   B I G   F R I E N D -                    
                                      &                                       
                       - I N T E G R A L  F E E D E R -                       
                                                                              
 v1 FN, 2020, v2 2021                                                         
------------------------------------------------------------------------------


Reading SHARK input file /scratch/cytosine-MRCI-14-10_440/cytosine-MRCI-14-10.SHARKINP.tmp ... ok
----------------------
SHARK INTEGRAL PACKAGE
----------------------

Number of atoms                             ...     13
Number of basis functions                   ...    182
Number of shells                            ...     92
Maximum angular momentum                    ...      2
Integral batch strategy                     ... SHARK/LIBINT Hybrid
RI-J (if used) integral strategy            ... SPLIT-RIJ (Revised 2003 algorithm where possible)
Printlevel                                  ...      1
Contraction scheme used                     ... SEGMENTED contraction
Coulomb Range Separation                    ... NOT USED
Exchange Range Separation                   ... NOT USED
Finite Nucleus Model                        ... NOT USED
Auxiliary Coulomb fitting basis             ... NOT available
Auxiliary J/K fitting basis                 ... NOT available
Auxiliary Correlation fitting basis         ... NOT available
Auxiliary 'external' fitting basis          ... NOT available
Integral threshold                          ...     1.000000e-10
Primitive cut-off                           ...     1.000000e-11
Primitive pair pre-selection threshold      ...     1.000000e-11

Calculating pre-screening integrals         ... done (  0.0 sec) Dimension = 92
Organizing shell pair data                  ... done (  0.0 sec)
Shell pair information
Total number of shell pairs                 ...      4278
Shell pairs after pre-screening             ...      3885
Total number of primitive shell pairs       ...     15416
Primitive shell pairs kept                  ...     10134
          la=0 lb=0:   1338 shell pairs
          la=1 lb=0:   1477 shell pairs
          la=1 lb=1:    418 shell pairs
          la=2 lb=0:    398 shell pairs
          la=2 lb=1:    219 shell pairs
          la=2 lb=2:     35 shell pairs

Calculating one electron integrals          ... done (  0.0 sec)
Calculating Nuclear repulsion               ... done (  0.0 sec) ENN=    355.531981958445 Eh

SHARK setup successfully completed in   0.1 seconds

Maximum memory used throughout the entire GTOINT-calculation: 7.6 MB
--------------------------------------------------------------------------
WARNING: There was an error initializing an OpenFabrics device.

  Local host:   cnode12
  Local device: mlx5_0
--------------------------------------------------------------------------


           ************************************************************
           *        Program running with 32 parallel MPI-processes    *
           *              working on a common directory               *
           ************************************************************
-------------------------------------------------------------------------------
                                 ORCA SCF
-------------------------------------------------------------------------------

------------
SCF SETTINGS
------------
Hamiltonian:
 Ab initio Hamiltonian  Method          .... Hartree-Fock(GTOs)


General Settings:
 Integral files         IntName         .... /scratch/cytosine-MRCI-14-10_440/cytosine-MRCI-14-10
 Hartree-Fock type      HFTyp           .... CASSCF
 Total Charge           Charge          ....    0
 Multiplicity           Mult            ....    1
 Number of Electrons    NEL             ....   58
 Basis Dimension        Dim             ....  182
 Nuclear Repulsion      ENuc            ....    355.5319819584 Eh

 Symmetry handling      UseSym         .... ON
 Point group                           .... Cs
 Used point group                      .... Cs
 Number of irreps                      .... 2
   Irrep   A' has  137 symmetry adapted basis functions (ofs=   0)
   Irrep   A" has   45 symmetry adapted basis functions (ofs= 137)


Diagonalization of the overlap matrix:
Smallest eigenvalue                        ... 1.073e-04
Time for diagonalization                   ...    0.004 sec
Threshold for overlap eigenvalues          ... 1.000e-08
Number of eigenvalues below threshold      ... 0
Time for construction of square roots      ...    0.005 sec
Producing symmetrization matrix            ... done (   0.002 sec)
Total time needed                          ...    0.012 sec

---------------------
INITIAL GUESS: MOREAD
---------------------
Guess MOs are being read from file: cytosine-RHF.gbw
Input Geometry matches current geometry (good)
Input basis set matches current basis set (good)
Warning: Geometry matches/Basis set matches and symmetry is to be used
         We proceed in good trust that the input orbitals and irreps are correct
MOs were renormalized
Gram-Schmidt orthogonalization of all MOs with pivot on actives
-----------------
ORBITAL ROTATIONS
-----------------
  Rotation  20(0)   22(0) cos(t)= 0.000000  sin(t)= 1.000000
  Orbital Energies were swapped
  IRREP designations were swapped
  Rotation  30(0)   33(0) cos(t)= 0.000000  sin(t)= 1.000000
  Orbital Energies were swapped
  IRREP designations were swapped
  Rotation  31(0)   38(0) cos(t)= 0.000000  sin(t)= 1.000000
  Orbital Energies were swapped
  IRREP designations were swapped
Irrep occupations for operator 0
    A' -   24
    A" -    5
                      ------------------
                      INITIAL GUESS DONE (   0.0 sec)
                      ------------------


 ... the calculation is a CASSCF calculation -I'm leaving here GOOD LUCK!!!

[cnode12:12979] 31 more processes have sent help message help-mpi-btl-openib.txt / error in device init
[cnode12:12979] Set MCA parameter "orte_base_help_aggregate" to 0 to see all help / error messages
--------------------------------------------------------------------------
WARNING: There was an error initializing an OpenFabrics device.

  Local host:   cnode12
  Local device: mlx5_0
--------------------------------------------------------------------------


           ************************************************************
           *        Program running with 32 parallel MPI-processes    *
           *              working on a common directory               *
           ************************************************************
-------------------------------------------------------------------------------
                              ORCA-CASSCF
-------------------------------------------------------------------------------

Symmetry handling      UseSym     ... ON
Point group                       ... Cs
Used point group                  ... Cs
Number of irreps                  ... 2
   Irrep   A' has  137 SALCs (ofs=   0) #(closed)=  22 #(active)=   2
   Irrep   A" has   45 SALCs (ofs= 137) #(closed)=   0 #(active)=   8
 Symmetries of active orbitals:
   MO =   22  IRREP= 1 (A")
   MO =   23  IRREP= 1 (A")
   MO =   24  IRREP= 1 (A")
   MO =   25  IRREP= 0 (A')
   MO =   26  IRREP= 0 (A')
   MO =   27  IRREP= 1 (A")
   MO =   28  IRREP= 1 (A")
   MO =   29  IRREP= 1 (A")
   MO =   30  IRREP= 1 (A")
   MO =   31  IRREP= 1 (A")

Setting up the integral package       ... done
Building the CAS space                ... done (1618 configurations for Mult=1 Irrep=0)
Building the CAS space                ... done (1232 configurations for Mult=1 Irrep=1)
----------------
GENERAL CI SETUP
----------------

Checking configurations                         ... done
Determining NSOMO,NDOMO and NVMO                ... done
Building up the tree                            ... done
Building N-1 electron tree                      ... done
Building RI configuration space                 ... done
Analyzing the RI configuration space            ... done
Determining NDOMO,NSOMO,NVMO for RI space       ... done
Determination of address arrays                 ... done
Looking for max. no of open shells              ... done
Setting up coupling coefficient container       ... Memory for address arrays  		      ... done
Make address arrays			      ... done
Memory for buffers 			      ... done
Setting up spin-function prototypes	      ... (MAXOPEN=6) 0 2 4 6 8 done
Trivial cases - DOMO's			      ... done (  0.0 MB)
Number of open shells			    ...  0
domo->virtual excitations			... done (  0.0 MB)
domo->somo excitations				... done (  0.0 MB)
somo->virtual excitations			... done (  0.0 MB)
somo->somo excitations				... done (  0.0 MB)
Number of open shells			    ...  2
domo->virtual excitations			... done (  0.0 MB)
domo->somo excitations				... done (  0.0 MB)
somo->virtual excitations			... done (  0.0 MB)
somo->somo excitations				... done (  0.0 MB)
Number of open shells			    ...  4
domo->virtual excitations			... done (  0.0 MB)
domo->somo excitations				... done (  0.0 MB)
somo->virtual excitations			... done (  0.0 MB)
somo->somo excitations				... done (  0.0 MB)
Number of open shells			    ...  6
domo->virtual excitations			... done (  0.0 MB)
domo->somo excitations				... done (  0.0 MB)
somo->virtual excitations			... done (  0.0 MB)
somo->somo excitations				... done (  0.0 MB)
Coupling container construction done
done
Now recording sub-block dimensions              ... done
Memory used for TGeneralCI arrays =     0.8 MB
  Original space  =     0.1
  RI       space  =     0.1
  Address arrays  =     0.5
  Coupling coeffs =     0.1
Multiplicity                          ...       1
# of electrons                        ...      14
# of orbitals                         ...      10
# of roots requested                  ...       1
Configuration space:
# of configurations                   ...    1618
# of CSF's                            ...    2598
# of rejected configurations          ...       0
Min. # of SOMOs                       ...       0
Max. # of SOMOs                       ...       6
Max. # of DOMOs                       ...       7
Max. # of VMOs                        ...       3
RI Configuration space:
# of configurations                   ...    2850
# of CSF's                            ...    4950
# of rejected configurations          ...       0
Min. # of SOMOs                       ...       0
Max. # of SOMOs                       ...       6
Max. # of DOMOs                       ...       7
Max. # of VMOs                        ...       3
(N-1) Electron Configuration space:
# of configurations                   ...    4740
CSF dimensions:
      0 SOMOs give     1 CSFs
      2 SOMOs give     1 CSFs
      4 SOMOs give     2 CSFs
      6 SOMOs give     5 CSFs

----------------
GENERAL CI SETUP
----------------

Checking configurations                         ... done
Determining NSOMO,NDOMO and NVMO                ... done
Building up the tree                            ... done
Building N-1 electron tree                      ... done
Building RI configuration space                 ... done
Analyzing the RI configuration space            ... done
Determining NDOMO,NSOMO,NVMO for RI space       ... done
Determination of address arrays                 ... done
Looking for max. no of open shells              ... done
Setting up coupling coefficient container       ... Memory for address arrays  		      ... done
Make address arrays			      ... done
Memory for buffers 			      ... done
Setting up spin-function prototypes	      ... (MAXOPEN=6) 0 2 4 6 8 done
Trivial cases - DOMO's			      ... done (  0.0 MB)
Number of open shells			    ...  0
domo->virtual excitations			... done (  0.0 MB)
domo->somo excitations				... done (  0.0 MB)
somo->virtual excitations			... done (  0.0 MB)
somo->somo excitations				... done (  0.0 MB)
Number of open shells			    ...  2
domo->virtual excitations			... done (  0.0 MB)
domo->somo excitations				... done (  0.0 MB)
somo->virtual excitations			... done (  0.0 MB)
somo->somo excitations				... done (  0.0 MB)
Number of open shells			    ...  4
domo->virtual excitations			... done (  0.0 MB)
domo->somo excitations				... done (  0.0 MB)
somo->virtual excitations			... done (  0.0 MB)
somo->somo excitations				... done (  0.0 MB)
Number of open shells			    ...  6
domo->virtual excitations			... done (  0.0 MB)
domo->somo excitations				... done (  0.0 MB)
somo->virtual excitations			... done (  0.0 MB)
somo->somo excitations				... done (  0.0 MB)
Coupling container construction done
done
Now recording sub-block dimensions              ... done
Memory used for TGeneralCI arrays =     0.8 MB
  Original space  =     0.1
  RI       space  =     0.1
  Address arrays  =     0.5
  Coupling coeffs =     0.1
Multiplicity                          ...       1
# of electrons                        ...      14
# of orbitals                         ...      10
# of roots requested                  ...       2
Configuration space:
# of configurations                   ...    1232
# of CSF's                            ...    2352
# of rejected configurations          ...       0
Min. # of SOMOs                       ...       2
Max. # of SOMOs                       ...       6
Max. # of DOMOs                       ...       6
Max. # of VMOs                        ...       2
RI Configuration space:
# of configurations                   ...    2850
# of CSF's                            ...    4950
# of rejected configurations          ...       0
Min. # of SOMOs                       ...       0
Max. # of SOMOs                       ...       6
Max. # of DOMOs                       ...       7
Max. # of VMOs                        ...       3
(N-1) Electron Configuration space:
# of configurations                   ...    4740
CSF dimensions:
      2 SOMOs give     1 CSFs
      4 SOMOs give     2 CSFs
      6 SOMOs give     5 CSFs


SYSTEM-SPECIFIC SETTINGS:
Number of active electrons          ...   14
Number of active orbitals           ...   10
Total number of electrons           ...   58
Total number of orbitals            ...  182

Determined orbital ranges:
   Internal       0 -   21 (  22 orbitals)
   Active        22 -   31 (  10 orbitals)
   External      32 -  181 ( 150 orbitals)
Number of rotation parameters      ...   3052

CI-STEP:
CI strategy                         ... General CI
Number of symmetry/multplity blocks ...    2
BLOCK  1 WEIGHT=   0.3333
  Multiplicity                      ...    1
  Irrep                             ...    0 (A')
  #(Configurations)                 ... 1618
  #(CSFs)                           ... 2598
  #(Roots)                          ...    1
    ROOT=0 WEIGHT=    0.333333

BLOCK  2 WEIGHT=   0.6667
  Multiplicity                      ...    1
  Irrep                             ...    1 (A")
  #(Configurations)                 ... 1232
  #(CSFs)                           ... 2352
  #(Roots)                          ...    2
    ROOT=0 WEIGHT=    0.333333
    ROOT=1 WEIGHT=    0.333333

  PrintLevel                        ...    1
  N(GuessMat)                       ...       512
  MaxDim(CI)                        ...        10
  MaxIter(CI)                       ...        64
  Energy Tolerance CI               ...  1.00e-10
  Residual Tolerance CI             ...  1.00e-10
  Shift(CI)                         ...  1.00e-04

INTEGRAL-TRANSFORMATION-STEP:
  Algorithm                         ... EXACT

ORBITAL-IMPROVEMENT-STEP:
  Algorithm                         ... SuperCI(PT)
  Default Parametrization           ... CAYLEY
  Act-Act rotations                 ... depends on algorithm used

  Note: SuperCI(PT) will ignore FreezeIE, FreezeAct and FreezeGrad. In general Default settings are encouraged.
        In conjunction with ShiftUp, ShiftDn or GradScaling the performance of SuperCI(PT) is less optimal.  

  MaxRot                            ... 2.00e-01 
  Max. no of vectors (DIIS)         ... 15
  DThresh (cut-off) metric          ... 1.00e-06
  Switch step at gradient           ...  3.00e-02 
  Switch step at iteration          ...        50   
  Switch step to                    ... SuperCI(PT)    

SCF-SETTINGS:
  Incremental                       ... on
  RIJCOSX approximation             ... off
  RI-JK approximation               ... off
  AO integral handling              ... DIRECT
  Integral Neglect Thresh           ...  1.00e-10
  Primitive cutoff TCut             ...  1.00e-11
  Energy convergence tolerance      ...  1.00e-09
  Orbital gradient convergence      ...  1.00e-05
  Max. number of iterations         ...        75  


FINAL ORBITALS:
  Active   Orbitals                 ... natural 
  Internal Orbitals                 ... canonical 
  External Orbitals                 ... canonical 

------------------
CAS-SCF ITERATIONS
------------------


MACRO-ITERATION   1: 
   --- Inactive Energy E0 = -362.61947029 Eh
CI-ITERATION   0: 
  -392.769476043   0.000601610533 (    0.00)
CI-ITERATION   1: 
  -392.769810101   0.000021790982 (    0.00)
CI-ITERATION   2: 
  -392.769824658   0.000000769089 (    0.00)
CI-ITERATION   3: 
  -392.769825022   0.000000053782 (    0.00)
CI-ITERATION   4: 
  -392.769825044   0.000000006812 (    0.00)
CI-ITERATION   5: 
  -392.769825046   0.000000000472 (    0.00)
CI-ITERATION   6: 
  -392.769825047   0.000000000049 (    0.00)
   CI-PROBLEM SOLVED
   DENSITIES MADE
CI-ITERATION   0: 
  -392.523736065   0.001839453974 (    0.00)
  -392.489684864   0.002035863366
CI-ITERATION   1: 
  -392.524930076   0.000111389515 (    0.00)
  -392.491072717   0.000189384662
CI-ITERATION   2: 
  -392.525003094   0.000007123421 (    0.00)
  -392.491176868   0.000018158670
CI-ITERATION   3: 
  -392.525006820   0.000000597081 (    0.00)
  -392.491186404   0.000001528672
CI-ITERATION   4: 
  -392.525007121   0.000000060110 (    0.00)
  -392.491187161   0.000000143617
CI-ITERATION   5: 
  -392.525007150   0.000000005294 (    0.00)
  -392.491187237   0.000000013186
CI-ITERATION   6: 
  -392.525007153   0.000000000396 (    0.00)
  -392.491187243   0.000000001119
CI-ITERATION   7: 
  -392.525007153   0.000000000037 (    0.00)
  -392.491187244   0.000000000113
CI-ITERATION   8: 
  -392.525007153   0.000000000003 (    0.00)
  -392.491187244   0.000000000010
   CI-PROBLEM SOLVED
   DENSITIES MADE

                 <<<<<<<<<<<<<<<<<<INITIAL CI STATE CHECK>>>>>>>>>>>>>>>>>>

BLOCK  1 MULT= 1 NROOTS= 1  IRREP=A' 
ROOT   0:  E=    -392.7698250467 Eh
      0.95987 [  1617]: 2222222000
      0.00439 [  1613]: 2222220200
      0.00287 [  1610]: 2222220020
      0.00263 [  1419]: 2212221200

BLOCK  2 MULT= 1 NROOTS= 2  IRREP=A" 
ROOT   0:  E=    -392.5250071529 Eh
      0.66376 [  1231]: 2222122100
      0.15930 [  1180]: 2221222100
      0.04627 [  1230]: 2222122010
      0.01699 [  1227]: 2222121110
      0.01581 [  1228]: 2222121200
      0.01118 [  1177]: 2221221200
      0.00983 [  1069]: 2212122200
      0.00698 [  1229]: 2222122001
      0.00657 [  1178]: 2221222001
      0.00649 [  1179]: 2221222010
      0.00445 [  1175]: 2221221101
      0.00392 [  1024]: 2211222200
      0.00335 [  1162]: 2221212101
      0.00298 [  1214]: 2222112110
      0.00293 [  1226]: 2222121101
      0.00256 [  1215]: 2222112200
ROOT   1:  E=    -392.4911872437 Eh  0.920 eV   7422.6 cm**-1
      0.50246 [  1180]: 2221222100
      0.13117 [  1179]: 2221222010
      0.10488 [  1230]: 2222122010
      0.08385 [  1231]: 2222122100
      0.05491 [  1176]: 2221221110
      0.03142 [  1227]: 2222121110
      0.00672 [  1177]: 2221221200
      0.00580 [  1214]: 2222112110
      0.00512 [  1163]: 2221212110
      0.00500 [  1024]: 2211222200
      0.00488 [  1229]: 2222122001
      0.00380 [  1226]: 2222121101
      0.00289 [  1161]: 2221212020
      0.00282 [  1225]: 2222121020
      0.00277 [  1022]: 2211222101

                 <<<<<<<<<<<<<<<<<<INITIAL CI STATE CHECK>>>>>>>>>>>>>>>>>>

   E(CAS)=  -392.595339814 Eh DE=    0.000000e+00
   --- Energy gap subspaces: Ext-Act = -0.103   Act-Int = -0.049
   N(occ)=  1.99412 1.99053 1.97774 1.68362 1.64955 1.97741 1.92574 0.59769 0.17876 0.02484
   ||g|| =     4.732364e-01 Max(G)=    8.272015e-02 Rot=70,24
   --- Orbital Update [SuperCI(PT)]
   --- Canonicalize Internal Space
   --- Canonicalize External Space
   --- SX_PT (Skipped TA=0 IT=0): ||X|| =      1.002155856 Max(X)(42,31) =      0.736603088 
   --- SFit(Active Orbitals)

MACRO-ITERATION   2: 
[cnode12:13211] 31 more processes have sent help message help-mpi-btl-openib.txt / error in device init
[cnode12:13211] Set MCA parameter "orte_base_help_aggregate" to 0 to see all help / error messages
   --- Inactive Energy E0 = -362.65208816 Eh
CI-ITERATION   0: 
  -392.782576394   0.005074048404 (    0.00)
CI-ITERATION   1: 
  -392.785593480   0.000363613162 (    0.00)
CI-ITERATION   2: 
  -392.785836326   0.000024496694 (    0.00)
CI-ITERATION   3: 
  -392.785847341   0.000001799997 (    0.00)
CI-ITERATION   4: 
  -392.785848157   0.000000198252 (    0.00)
CI-ITERATION   5: 
  -392.785848235   0.000000025686 (    0.00)
CI-ITERATION   6: 
  -392.785848244   0.000000002501 (    0.00)
CI-ITERATION   7: 
  -392.785848245   0.000000000365 (    0.00)
CI-ITERATION   8: 
  -392.785848245   0.000000000036 (    0.00)
   CI-PROBLEM SOLVED
   DENSITIES MADE
CI-ITERATION   0: 
  -392.578406916   0.007531796769 (    0.00)
  -392.564677015   0.007408168676
CI-ITERATION   1: 
  -392.583486291   0.000798298495 (    0.00)
  -392.569768826   0.000783489821
CI-ITERATION   2: 
  -392.583996704   0.000081093606 (    0.00)
  -392.570247819   0.000083331315
CI-ITERATION   3: 
  -392.584037011   0.000008132757 (    0.00)
  -392.570289053   0.000009154775
CI-ITERATION   4: 
  -392.584040987   0.000000854304 (    0.00)
  -392.570293405   0.000001077146
CI-ITERATION   5: 
  -392.584041412   0.000000081387 (    0.00)
  -392.570293934   0.000000102443
CI-ITERATION   6: 
  -392.584041452   0.000000007266 (    0.00)
  -392.570293986   0.000000009489
CI-ITERATION   7: 
  -392.584041456   0.000000000826 (    0.00)
  -392.570293991   0.000000001079
CI-ITERATION   8: 
  -392.584041456   0.000000000081 (    0.00)
  -392.570293991   0.000000000121
CI-ITERATION   9: 
  -392.584041456   0.000000000008 (    0.00)
  -392.570293991   0.000000000016
   CI-PROBLEM SOLVED
   DENSITIES MADE
   E(CAS)=  -392.646727897 Eh DE=   -5.138808e-02
   --- Energy gap subspaces: Ext-Act = -0.159   Act-Int = -0.039
   N(occ)=  1.98684 1.98539 1.95971 1.67482 1.65800 1.96040 1.88692 0.61718 0.20802 0.06272
   ||g|| =     1.522156e-01 Max(G)=   -3.938322e-02 Rot=42,31
   --- Orbital Update [SuperCI(PT)]
   --- Canonicalize Internal Space
   --- Canonicalize External Space
   --- SX_PT (Skipped TA=0 IT=0): ||X|| =      0.414634476 Max(X)(42,31) =      0.345383159 
   --- SFit(Active Orbitals)

MACRO-ITERATION   3: 
   --- Inactive Energy E0 = -362.58271579 Eh
CI-ITERATION   0: 
  -392.792815040   0.007979647577 (    0.00)
CI-ITERATION   1: 
  -392.797567348   0.000665283793 (    0.00)
CI-ITERATION   2: 
  -392.798014032   0.000051859212 (    0.00)
CI-ITERATION   3: 
  -392.798036981   0.000004122754 (    0.00)
CI-ITERATION   4: 
  -392.798038878   0.000000473278 (    0.00)
CI-ITERATION   5: 
  -392.798039058   0.000000053035 (    0.00)
CI-ITERATION   6: 
  -392.798039076   0.000000004772 (    0.00)
CI-ITERATION   7: 
  -392.798039078   0.000000000583 (    0.00)
CI-ITERATION   8: 
  -392.798039079   0.000000000085 (    0.00)
   CI-PROBLEM SOLVED
   DENSITIES MADE
CI-ITERATION   0: 
  -392.595800465   0.011237852241 (    0.00)
  -392.581871213   0.011476386357
CI-ITERATION   1: 
  -392.603190984   0.001409099261 (    0.00)
  -392.589557709   0.001538802058
CI-ITERATION   2: 
  -392.604076322   0.000164378835 (    0.00)
  -392.590468993   0.000181846459
CI-ITERATION   3: 
  -392.604153765   0.000017841192 (    0.00)
  -392.590554978   0.000020632007
CI-ITERATION   4: 
  -392.604162235   0.000002253206 (    0.00)
  -392.590564642   0.000002822755
CI-ITERATION   5: 
  -392.604163338   0.000000240010 (    0.00)
  -392.590565968   0.000000305394
CI-ITERATION   6: 
  -392.604163459   0.000000023742 (    0.00)
  -392.590566119   0.000000035726
CI-ITERATION   7: 
  -392.604163472   0.000000003107 (    0.00)
  -392.590566137   0.000000004679
CI-ITERATION   8: 
  -392.604163473   0.000000000342 (    0.00)
  -392.590566140   0.000000000601
CI-ITERATION   9: 
  -392.604163474   0.000000000041 (    0.00)
  -392.590566140   0.000000000088
   CI-PROBLEM SOLVED
   DENSITIES MADE
   E(CAS)=  -392.664256231 Eh DE=   -1.752833e-02
   --- Energy gap subspaces: Ext-Act = -0.178   Act-Int = -0.041
   N(occ)=  1.98194 1.98290 1.95235 1.67507 1.65757 1.95264 1.87575 0.60562 0.23073 0.08544
   ||g|| =     7.411001e-02 Max(G)=   -1.969792e-02 Rot=42,31
   --- Orbital Update [SuperCI(PT)]
   --- Canonicalize Internal Space
   --- Canonicalize External Space
   --- SX_PT (Skipped TA=0 IT=0): ||X|| =      0.131027139 Max(X)(42,31) =      0.111402013 
   --- SFit(Active Orbitals)

MACRO-ITERATION   4: 
   --- Inactive Energy E0 = -362.54058477 Eh
CI-ITERATION   0: 
  -392.791324043   0.008947124440 (    0.00)
CI-ITERATION   1: 
  -392.796769176   0.000768230343 (    0.00)
CI-ITERATION   2: 
  -392.797297776   0.000065567289 (    0.00)
CI-ITERATION   3: 
  -392.797326622   0.000005543734 (    0.00)
CI-ITERATION   4: 
  -392.797329200   0.000000662596 (    0.00)
CI-ITERATION   5: 
  -392.797329445   0.000000073023 (    0.00)
CI-ITERATION   6: 
  -392.797329472   0.000000006806 (    0.00)
CI-ITERATION   7: 
  -392.797329475   0.000000000677 (    0.00)
CI-ITERATION   8: 
  -392.797329475   0.000000000089 (    0.00)
   CI-PROBLEM SOLVED
   DENSITIES MADE
CI-ITERATION   0: 
  -392.598721056   0.012393483740 (    0.00)
  -392.586924490   0.012298842352
CI-ITERATION   1: 
  -392.606897645   0.001676079075 (    0.00)
  -392.595159628   0.001645408397
CI-ITERATION   2: 
  -392.607940862   0.000202406598 (    0.00)
  -392.596158032   0.000196829865
CI-ITERATION   3: 
  -392.608036123   0.000021778140 (    0.00)
  -392.596251306   0.000022358038
CI-ITERATION   4: 
  -392.608046426   0.000002901583 (    0.00)
  -392.596261782   0.000003191815
CI-ITERATION   5: 
  -392.608047823   0.000000319778 (    0.00)
  -392.596263285   0.000000350956
CI-ITERATION   6: 
  -392.608047985   0.000000034341 (    0.00)
  -392.596263462   0.000000041940
CI-ITERATION   7: 
  -392.608048004   0.000000004795 (    0.00)
  -392.596263485   0.000000006257
CI-ITERATION   8: 
  -392.608048007   0.000000000595 (    0.00)
  -392.596263488   0.000000000906
CI-ITERATION   9: 
  -392.608048007   0.000000000084 (    0.00)
  -392.596263489   0.000000000149
CI-ITERATION  10: 
  -392.608048007   0.000000000017 (    0.00)
  -392.596263489   0.000000000031
   CI-PROBLEM SOLVED
   DENSITIES MADE
   E(CAS)=  -392.667213657 Eh DE=   -2.957426e-03
   --- Energy gap subspaces: Ext-Act = -0.172   Act-Int = -0.041
   N(occ)=  1.97989 1.98162 1.94974 1.67488 1.65768 1.94967 1.87261 0.59511 0.24489 0.09391
   ||g|| =     2.830113e-02 Max(G)=    5.053643e-03 Rot=46,29
   --- Orbital Update [SuperCI(PT)]
   --- Canonicalize Internal Space
   --- Canonicalize External Space
   --- SX_PT (Skipped TA=0 IT=0): ||X|| =      0.026154223 Max(X)(44,30) =     -0.010916564 
   --- SFit(Active Orbitals)

MACRO-ITERATION   5: 
   --- Inactive Energy E0 = -362.53226098 Eh
CI-ITERATION   0: 
  -392.791568803   0.008999134479 (    0.00)
CI-ITERATION   1: 
  -392.796986646   0.000803933563 (    0.00)
CI-ITERATION   2: 
  -392.797531147   0.000067772539 (    0.00)
CI-ITERATION   3: 
  -392.797560820   0.000005784064 (    0.00)
CI-ITERATION   4: 
  -392.797563391   0.000000818950 (    0.00)
CI-ITERATION   5: 
  -392.797563673   0.000000104405 (    0.00)
CI-ITERATION   6: 
  -392.797563709   0.000000010825 (    0.00)
CI-ITERATION   7: 
  -392.797563713   0.000000001850 (    0.00)
CI-ITERATION   8: 
  -392.797563714   0.000000000164 (    0.00)
CI-ITERATION   9: 
  -392.797563714   0.000000000018 (    0.00)
   CI-PROBLEM SOLVED
   DENSITIES MADE
CI-ITERATION   0: 
  -392.598566253   0.012628390662 (    0.00)
  -392.587244393   0.012527233709
CI-ITERATION   1: 
  -392.606913855   0.001730126549 (    0.00)
  -392.595656788   0.001673091964
CI-ITERATION   2: 
  -392.607988845   0.000211575873 (    0.00)
  -392.596676772   0.000200585828
CI-ITERATION   3: 
  -392.608088258   0.000022895072 (    0.00)
  -392.596771486   0.000022962459
CI-ITERATION   4: 
  -392.608099065   0.000003055833 (    0.00)
  -392.596782200   0.000003296003
CI-ITERATION   5: 
  -392.608100535   0.000000339655 (    0.00)
  -392.596783751   0.000000363303
CI-ITERATION   6: 
  -392.608100707   0.000000037003 (    0.00)
  -392.596783934   0.000000043432
CI-ITERATION   7: 
  -392.608100728   0.000000005227 (    0.00)
  -392.596783957   0.000000006545
CI-ITERATION   8: 
  -392.608100730   0.000000000663 (    0.00)
  -392.596783960   0.000000000964
CI-ITERATION   9: 
  -392.608100731   0.000000000095 (    0.00)
  -392.596783961   0.000000000160
CI-ITERATION  10: 
  -392.608100731   0.000000000020 (    0.00)
  -392.596783961   0.000000000034
   CI-PROBLEM SOLVED
   DENSITIES MADE
   E(CAS)=  -392.667482802 Eh DE=   -2.691449e-04
   --- Energy gap subspaces: Ext-Act = -0.172   Act-Int = -0.042
   N(occ)=  1.97946 1.98129 1.94918 1.67546 1.65710 1.94923 1.87323 0.58530 0.25397 0.09579
   ||g|| =     1.320193e-02 Max(G)=    2.687330e-03 Rot=46,29
   --- Orbital Update [SuperCI(PT)]
   --- Canonicalize Internal Space
   --- Canonicalize External Space
   --- SX_PT (Skipped TA=0 IT=0): ||X|| =      0.011405050 Max(X)(44,30) =     -0.004732982 
   --- SFit(Active Orbitals)

MACRO-ITERATION   6: 
   --- Inactive Energy E0 = -362.51952147 Eh
CI-ITERATION   0: 
  -392.791083641   0.009087724313 (    0.00)
CI-ITERATION   1: 
  -392.796563796   0.000816529381 (    0.00)
CI-ITERATION   2: 
  -392.797118185   0.000069149541 (    0.00)
CI-ITERATION   3: 
  -392.797148432   0.000005976078 (    0.00)
CI-ITERATION   4: 
  -392.797151089   0.000000846440 (    0.00)
CI-ITERATION   5: 
  -392.797151381   0.000000108943 (    0.00)
CI-ITERATION   6: 
  -392.797151419   0.000000011350 (    0.00)
CI-ITERATION   7: 
  -392.797151423   0.000000001934 (    0.00)
CI-ITERATION   8: 
  -392.797151424   0.000000000173 (    0.00)
CI-ITERATION   9: 
  -392.797151424   0.000000000018 (    0.00)
   CI-PROBLEM SOLVED
   DENSITIES MADE
CI-ITERATION   0: 
  -392.598512488   0.012790833847 (    0.00)
  -392.587474572   0.012889040388
CI-ITERATION   1: 
  -392.606984569   0.001772952744 (    0.00)
  -392.596148330   0.001737197841
CI-ITERATION   2: 
  -392.608083581   0.000218181444 (    0.00)
  -392.597208573   0.000208516043
CI-ITERATION   3: 
  -392.608185938   0.000023758877 (    0.00)
  -392.597306241   0.000024023805
CI-ITERATION   4: 
  -392.608197108   0.000003150145 (    0.00)
  -392.597317463   0.000003438532
CI-ITERATION   5: 
  -392.608198622   0.000000350066 (    0.00)
  -392.597319087   0.000000378443
CI-ITERATION   6: 
  -392.608198799   0.000000036989 (    0.00)
  -392.597319275   0.000000043362
CI-ITERATION   7: 
  -392.608198820   0.000000005071 (    0.00)
  -392.597319298   0.000000006088
CI-ITERATION   8: 
  -392.608198822   0.000000000631 (    0.00)
  -392.597319301   0.000000000818
CI-ITERATION   9: 
  -392.608198823   0.000000000088 (    0.00)
  -392.597319301   0.000000000125
CI-ITERATION  10: 
  -392.608198823   0.000000000019 (    0.00)
  -392.597319301   0.000000000027
   CI-PROBLEM SOLVED
   DENSITIES MADE
   E(CAS)=  -392.667556516 Eh DE=   -7.371408e-05
   --- Energy gap subspaces: Ext-Act = -0.171   Act-Int = -0.042
   N(occ)=  1.97910 1.98101 1.94866 1.67591 1.65663 1.94881 1.87374 0.57727 0.26160 0.09726
   ||g|| =     9.395563e-03 Max(G)=   -1.259777e-03 Rot=56,27
   --- Orbital Update [SuperCI(PT)]
   --- Canonicalize Internal Space
   --- Canonicalize External Space
   --- SX_PT (Skipped TA=0 IT=0): ||X|| =      0.002942160 Max(X)(46,29) =      0.001011132 
   --- SFit(Active Orbitals)

MACRO-ITERATION   7: 
   --- Inactive Energy E0 = -362.52190509 Eh
CI-ITERATION   0: 
  -392.791200555   0.009083012129 (    0.00)
CI-ITERATION   1: 
  -392.796678192   0.000814461976 (    0.00)
CI-ITERATION   2: 
  -392.797231724   0.000069066179 (    0.00)
CI-ITERATION   3: 
  -392.797261988   0.000005979555 (    0.00)
CI-ITERATION   4: 
  -392.797264651   0.000000847723 (    0.00)
CI-ITERATION   5: 
  -392.797264944   0.000000109220 (    0.00)
CI-ITERATION   6: 
  -392.797264981   0.000000011313 (    0.00)
CI-ITERATION   7: 
  -392.797264985   0.000000001932 (    0.00)
CI-ITERATION   8: 
  -392.797264986   0.000000000171 (    0.00)
CI-ITERATION   9: 
  -392.797264986   0.000000000018 (    0.00)
   CI-PROBLEM SOLVED
   DENSITIES MADE
CI-ITERATION   0: 
  -392.598432813   0.012818995903 (    0.00)
  -392.587418705   0.012912512470
CI-ITERATION   1: 
  -392.606925504   0.001781359313 (    0.00)
  -392.596112277   0.001736232034
CI-ITERATION   2: 
  -392.608028357   0.000219777029 (    0.00)
  -392.597173561   0.000208300053
CI-ITERATION   3: 
  -392.608131415   0.000023934165 (    0.00)
  -392.597271052   0.000024049836
CI-ITERATION   4: 
  -392.608142660   0.000003170943 (    0.00)
  -392.597282274   0.000003444670
CI-ITERATION   5: 
  -392.608144184   0.000000353066 (    0.00)
  -392.597283902   0.000000379275
CI-ITERATION   6: 
  -392.608144362   0.000000037372 (    0.00)
  -392.597284090   0.000000043408
CI-ITERATION   7: 
  -392.608144383   0.000000005126 (    0.00)
  -392.597284113   0.000000006094
CI-ITERATION   8: 
  -392.608144386   0.000000000639 (    0.00)
  -392.597284116   0.000000000820
CI-ITERATION   9: 
  -392.608144386   0.000000000089 (    0.00)
  -392.597284116   0.000000000125
CI-ITERATION  10: 
  -392.608144386   0.000000000019 (    0.00)
  -392.597284117   0.000000000027
   CI-PROBLEM SOLVED
   DENSITIES MADE
   E(CAS)=  -392.667564496 Eh DE=   -7.980259e-06
   --- Energy gap subspaces: Ext-Act = -0.171   Act-Int = -0.042
   N(occ)=  1.97905 1.98099 1.94860 1.67616 1.65638 1.94876 1.87412 0.57470 0.26369 0.09756
   ||g|| =     2.849194e-03 Max(G)=    5.511638e-04 Rot=56,27
   --- Orbital Update [SuperCI(PT)]
   --- Canonicalize Internal Space
   --- Canonicalize External Space
   --- SX_PT (Skipped TA=0 IT=0): ||X|| =      0.001233169 Max(X)(70,30) =      0.000479008 
   --- SFit(Active Orbitals)

MACRO-ITERATION   8: 
   --- Inactive Energy E0 = -362.52080638 Eh
CI-ITERATION   0: 
  -392.791217468   0.009079918010 (    0.00)
CI-ITERATION   1: 
  -392.796693969   0.000814296591 (    0.00)
CI-ITERATION   2: 
  -392.797247455   0.000069085925 (    0.00)
CI-ITERATION   3: 
  -392.797277733   0.000005982365 (    0.00)
CI-ITERATION   4: 
  -392.797280398   0.000000847718 (    0.00)
CI-ITERATION   5: 
  -392.797280691   0.000000109263 (    0.00)
CI-ITERATION   6: 
  -392.797280728   0.000000011314 (    0.00)
CI-ITERATION   7: 
  -392.797280732   0.000000001932 (    0.00)
CI-ITERATION   8: 
  -392.797280733   0.000000000171 (    0.00)
CI-ITERATION   9: 
  -392.797280733   0.000000000018 (    0.00)
   CI-PROBLEM SOLVED
   DENSITIES MADE
CI-ITERATION   0: 
  -392.598423606   0.012825844108 (    0.00)
  -392.587401933   0.012917632096
CI-ITERATION   1: 
  -392.606922381   0.001785237834 (    0.00)
  -392.596102051   0.001733055893
CI-ITERATION   2: 
  -392.608026786   0.000220633539 (    0.00)
  -392.597163017   0.000207762896
CI-ITERATION   3: 
  -392.608130229   0.000024019764 (    0.00)
  -392.597260226   0.000024023162
CI-ITERATION   4: 
  -392.608141510   0.000003180515 (    0.00)
  -392.597271434   0.000003441513
CI-ITERATION   5: 
  -392.608143038   0.000000354329 (    0.00)
  -392.597273060   0.000000378673
CI-ITERATION   6: 
  -392.608143217   0.000000037530 (    0.00)
  -392.597273248   0.000000043319
CI-ITERATION   7: 
  -392.608143237   0.000000005144 (    0.00)
  -392.597273271   0.000000006083
CI-ITERATION   8: 
  -392.608143240   0.000000000642 (    0.00)
  -392.597273274   0.000000000818
CI-ITERATION   9: 
  -392.608143240   0.000000000090 (    0.00)
  -392.597273274   0.000000000125
CI-ITERATION  10: 
  -392.608143241   0.000000000019 (    0.00)
  -392.597273274   0.000000000027
   CI-PROBLEM SOLVED
   DENSITIES MADE
   E(CAS)=  -392.667565749 Eh DE=   -1.252980e-06
   --- Energy gap subspaces: Ext-Act = -0.171   Act-Int = -0.042
   N(occ)=  1.97903 1.98098 1.94858 1.67632 1.65623 1.94875 1.87433 0.57331 0.26480 0.09768
   ||g|| =     6.710991e-04 Max(G)=   -9.901394e-05 Rot=181,0
   --- Orbital Update [SuperCI(PT)]
   --- Canonicalize Internal Space
   --- Canonicalize External Space
   --- SX_PT (Skipped TA=0 IT=0): ||X|| =      0.000407347 Max(X)(25,19) =     -0.000177289 
   --- SFit(Active Orbitals)

MACRO-ITERATION   9: 
   --- Inactive Energy E0 = -362.52110597 Eh
CI-ITERATION   0: 
  -392.791214223   0.009080729401 (    0.00)
CI-ITERATION   1: 
  -392.796691485   0.000814406064 (    0.00)
CI-ITERATION   2: 
  -392.797245071   0.000069100494 (    0.00)
CI-ITERATION   3: 
  -392.797275356   0.000005983700 (    0.00)
CI-ITERATION   4: 
  -392.797278022   0.000000847849 (    0.00)
CI-ITERATION   5: 
  -392.797278314   0.000000109292 (    0.00)
CI-ITERATION   6: 
  -392.797278352   0.000000011316 (    0.00)
CI-ITERATION   7: 
  -392.797278356   0.000000001933 (    0.00)
CI-ITERATION   8: 
  -392.797278357   0.000000000171 (    0.00)
CI-ITERATION   9: 
  -392.797278357   0.000000000018 (    0.00)
   CI-PROBLEM SOLVED
   DENSITIES MADE
CI-ITERATION   0: 
  -392.598431191   0.012827414093 (    0.00)
  -392.587393689   0.012918954456
CI-ITERATION   1: 
  -392.606931332   0.001786325402 (    0.00)
  -392.596095564   0.001731972441
CI-ITERATION   2: 
  -392.608036118   0.000220852123 (    0.00)
  -392.597156370   0.000207556040
CI-ITERATION   3: 
  -392.608139663   0.000024038087 (    0.00)
  -392.597253479   0.000024008987
CI-ITERATION   4: 
  -392.608150952   0.000003182539 (    0.00)
  -392.597264680   0.000003439990
CI-ITERATION   5: 
  -392.608152481   0.000000354620 (    0.00)
  -392.597266306   0.000000378421
CI-ITERATION   6: 
  -392.608152660   0.000000037568 (    0.00)
  -392.597266494   0.000000043286
CI-ITERATION   7: 
  -392.608152681   0.000000005148 (    0.00)
  -392.597266516   0.000000006080
CI-ITERATION   8: 
  -392.608152683   0.000000000642 (    0.00)
  -392.597266519   0.000000000817
CI-ITERATION   9: 
  -392.608152684   0.000000000090 (    0.00)
  -392.597266520   0.000000000124
CI-ITERATION  10: 
  -392.608152684   0.000000000019 (    0.00)
  -392.597266520   0.000000000027
   CI-PROBLEM SOLVED
   DENSITIES MADE
   E(CAS)=  -392.667565853 Eh DE=   -1.041816e-07
   --- Energy gap subspaces: Ext-Act = -0.171   Act-Int = -0.042
   N(occ)=  1.97902 1.98098 1.94858 1.67637 1.65617 1.94874 1.87438 0.57299 0.26506 0.09771
   ||g|| =     2.559140e-04 Max(G)=    4.776284e-05 Rot=25,20
   --- Orbital Update [SuperCI(PT)]
   --- Canonicalize Internal Space
   --- Canonicalize External Space
   --- SX_PT (Skipped TA=0 IT=0): ||X|| =      0.000177085 Max(X)(25,19) =     -0.000093002 
Warning: badly conditioned DIIS matrix, 1 vectors out of 9 destroyed
   --- SFit(Active Orbitals)

MACRO-ITERATION  10: 
   --- Inactive Energy E0 = -362.52104225 Eh
CI-ITERATION   0: 
  -392.791216171   0.009080524574 (    0.00)
CI-ITERATION   1: 
  -392.796693327   0.000814383986 (    0.00)
CI-ITERATION   2: 
  -392.797246898   0.000069098486 (    0.00)
CI-ITERATION   3: 
  -392.797277182   0.000005983489 (    0.00)
CI-ITERATION   4: 
  -392.797279848   0.000000847781 (    0.00)
CI-ITERATION   5: 
  -392.797280141   0.000000109287 (    0.00)
CI-ITERATION   6: 
  -392.797280178   0.000000011315 (    0.00)
CI-ITERATION   7: 
  -392.797280182   0.000000001933 (    0.00)
CI-ITERATION   8: 
  -392.797280183   0.000000000171 (    0.00)
CI-ITERATION   9: 
  -392.797280183   0.000000000018 (    0.00)
   CI-PROBLEM SOLVED
   DENSITIES MADE
CI-ITERATION   0: 
  -392.598435361   0.012827080233 (    0.00)
  -392.587387973   0.012918947888
CI-ITERATION   1: 
  -392.606935243   0.001786324846 (    0.00)
  -392.596089885   0.001731989163
CI-ITERATION   2: 
  -392.608040012   0.000220850931 (    0.00)
  -392.597150708   0.000207556511
CI-ITERATION   3: 
  -392.608143558   0.000024037538 (    0.00)
  -392.597247820   0.000024009399
CI-ITERATION   4: 
  -392.608154847   0.000003182525 (    0.00)
  -392.597259021   0.000003440140
CI-ITERATION   5: 
  -392.608156375   0.000000354619 (    0.00)
  -392.597260647   0.000000378437
CI-ITERATION   6: 
  -392.608156554   0.000000037566 (    0.00)
  -392.597260835   0.000000043288
CI-ITERATION   7: 
  -392.608156575   0.000000005148 (    0.00)
  -392.597260858   0.000000006081
CI-ITERATION   8: 
  -392.608156578   0.000000000642 (    0.00)
  -392.597260861   0.000000000817
CI-ITERATION   9: 
  -392.608156578   0.000000000090 (    0.00)
  -392.597260861   0.000000000124
CI-ITERATION  10: 
  -392.608156578   0.000000000019 (    0.00)
  -392.597260861   0.000000000027
   CI-PROBLEM SOLVED
   DENSITIES MADE
   E(CAS)=  -392.667565874 Eh DE=   -2.071965e-08
   --- Energy gap subspaces: Ext-Act = -0.171   Act-Int = -0.042
   N(occ)=  1.97902 1.98098 1.94858 1.67638 1.65616 1.94875 1.87438 0.57300 0.26505 0.09771
   ||g|| =     6.522921e-05 Max(G)=    2.654495e-05 Rot=25,20
   --- Orbital Update [SuperCI(PT)]
   --- Canonicalize Internal Space
   --- Canonicalize External Space
   --- SX_PT (Skipped TA=0 IT=0): ||X|| =      0.000092061 Max(X)(25,19) =     -0.000046140 
Warning: badly conditioned DIIS matrix, 1 vectors out of 9 destroyed
Warning: badly conditioned DIIS matrix, 1 vectors out of 8 destroyed
   --- SFit(Active Orbitals)

MACRO-ITERATION  11: 
   --- Inactive Energy E0 = -362.52106055 Eh
CI-ITERATION   0: 
  -392.791215371   0.009080622327 (    0.00)
CI-ITERATION   1: 
  -392.796692585   0.000814393007 (    0.00)
CI-ITERATION   2: 
  -392.797246162   0.000069099295 (    0.00)
CI-ITERATION   3: 
  -392.797276447   0.000005983597 (    0.00)
CI-ITERATION   4: 
  -392.797279113   0.000000847808 (    0.00)
CI-ITERATION   5: 
  -392.797279405   0.000000109289 (    0.00)
CI-ITERATION   6: 
  -392.797279443   0.000000011315 (    0.00)
CI-ITERATION   7: 
  -392.797279447   0.000000001933 (    0.00)
CI-ITERATION   8: 
  -392.797279448   0.000000000171 (    0.00)
CI-ITERATION   9: 
  -392.797279448   0.000000000018 (    0.00)
   CI-PROBLEM SOLVED
   DENSITIES MADE
CI-ITERATION   0: 
  -392.598438079   0.012827110961 (    0.00)
  -392.587385902   0.012919102657
CI-ITERATION   1: 
  -392.606937937   0.001786348155 (    0.00)
  -392.596087906   0.001732021268
CI-ITERATION   2: 
  -392.608042716   0.000220852587 (    0.00)
  -392.597148755   0.000207558380
CI-ITERATION   3: 
  -392.608146263   0.000024037441 (    0.00)
  -392.597245868   0.000024009805
CI-ITERATION   4: 
  -392.608157552   0.000003182522 (    0.00)
  -392.597257069   0.000003440256
CI-ITERATION   5: 
  -392.608159080   0.000000354618 (    0.00)
  -392.597258695   0.000000378448
CI-ITERATION   6: 
  -392.608159259   0.000000037566 (    0.00)
  -392.597258883   0.000000043290
CI-ITERATION   7: 
  -392.608159280   0.000000005148 (    0.00)
  -392.597258905   0.000000006081
CI-ITERATION   8: 
  -392.608159282   0.000000000642 (    0.00)
  -392.597258909   0.000000000818
CI-ITERATION   9: 
  -392.608159283   0.000000000090 (    0.00)
  -392.597258909   0.000000000124
CI-ITERATION  10: 
  -392.608159283   0.000000000019 (    0.00)
  -392.597258909   0.000000000027
   CI-PROBLEM SOLVED
   DENSITIES MADE
   E(CAS)=  -392.667565880 Eh DE=   -5.663310e-09
   --- Energy gap subspaces: Ext-Act = -0.171   Act-Int = -0.042
   N(occ)=  1.97902 1.98098 1.94858 1.67638 1.65616 1.94875 1.87437 0.57302 0.26504 0.09771
   ||g|| =     5.493194e-05 Max(G)=    9.606225e-06 Rot=26,20
   --- Orbital Update [SuperCI(PT)]
   --- Canonicalize Internal Space
   --- Canonicalize External Space
   --- SX_PT (Skipped TA=0 IT=0): ||X|| =      0.000040204 Max(X)(25,17) =      0.000016009 
   --- SFit(Active Orbitals)

MACRO-ITERATION  12: 
   --- Inactive Energy E0 = -362.52105749 Eh
CI-ITERATION   0: 
  -392.791215248   0.009080596834 (    0.00)
CI-ITERATION   1: 
  -392.796692432   0.000814388134 (    0.00)
CI-ITERATION   2: 
  -392.797246004   0.000069098196 (    0.00)
CI-ITERATION   3: 
  -392.797276288   0.000005983462 (    0.00)
CI-ITERATION   4: 
  -392.797278954   0.000000847797 (    0.00)
CI-ITERATION   5: 
  -392.797279246   0.000000109288 (    0.00)
CI-ITERATION   6: 
  -392.797279284   0.000000011315 (    0.00)
CI-ITERATION   7: 
  -392.797279288   0.000000001933 (    0.00)
CI-ITERATION   8: 
  -392.797279289   0.000000000171 (    0.00)
CI-ITERATION   9: 
  -392.797279289   0.000000000018 (    0.00)
   CI-PROBLEM SOLVED
   DENSITIES MADE
CI-ITERATION   0: 
  -392.598438890   0.012827005055 (    0.00)
  -392.587385458   0.012919056322
CI-ITERATION   1: 
  -392.606938647   0.001786292757 (    0.00)
  -392.596087386   0.001732083315
CI-ITERATION   2: 
  -392.608043402   0.000220840254 (    0.00)
  -392.597148246   0.000207568681
CI-ITERATION   3: 
  -392.608146943   0.000024036286 (    0.00)
  -392.597245364   0.000024010455
CI-ITERATION   4: 
  -392.608158231   0.000003182394 (    0.00)
  -392.597256566   0.000003440339
CI-ITERATION   5: 
  -392.608159760   0.000000354605 (    0.00)
  -392.597258192   0.000000378465
CI-ITERATION   6: 
  -392.608159939   0.000000037564 (    0.00)
  -392.597258380   0.000000043293
CI-ITERATION   7: 
  -392.608159959   0.000000005148 (    0.00)
  -392.597258402   0.000000006082
CI-ITERATION   8: 
  -392.608159962   0.000000000642 (    0.00)
  -392.597258406   0.000000000818
CI-ITERATION   9: 
  -392.608159963   0.000000000090 (    0.00)
  -392.597258406   0.000000000124
CI-ITERATION  10: 
  -392.608159963   0.000000000019 (    0.00)
  -392.597258406   0.000000000027
   CI-PROBLEM SOLVED
   DENSITIES MADE
   E(CAS)=  -392.667565886 Eh DE=   -5.938318e-09
   --- Energy gap subspaces: Ext-Act = -0.171   Act-Int = -0.042
   N(occ)=  1.97902 1.98098 1.94858 1.67638 1.65616 1.94875 1.87437 0.57303 0.26502 0.09771
   ||g|| =     2.184146e-05 Max(G)=    3.078776e-06 Rot=26,20
   --- Orbital Update [SuperCI(PT)]
   --- Canonicalize Internal Space
   --- Canonicalize External Space
   --- SX_PT (Skipped TA=0 IT=0): ||X|| =      0.000011332 Max(X)(26,19) =     -0.000004870 
   --- SFit(Active Orbitals)

MACRO-ITERATION  13: 
   --- Inactive Energy E0 = -362.52105810 Eh
CI-ITERATION   0: 
  -392.791215366   0.009080572677 (    0.00)
CI-ITERATION   1: 
  -392.796692532   0.000814385424 (    0.00)
CI-ITERATION   2: 
  -392.797246102   0.000069098069 (    0.00)
CI-ITERATION   3: 
  -392.797276386   0.000005983467 (    0.00)
CI-ITERATION   4: 
  -392.797279052   0.000000847802 (    0.00)
CI-ITERATION   5: 
  -392.797279345   0.000000109287 (    0.00)
CI-ITERATION   6: 
  -392.797279382   0.000000011315 (    0.00)
CI-ITERATION   7: 
  -392.797279386   0.000000001933 (    0.00)
CI-ITERATION   8: 
  -392.797279387   0.000000000171 (    0.00)
CI-ITERATION   9: 
  -392.797279387   0.000000000018 (    0.00)
   CI-PROBLEM SOLVED
   DENSITIES MADE
CI-ITERATION   0: 
  -392.598438814   0.012826988593 (    0.00)
  -392.587385458   0.012919043122
CI-ITERATION   1: 
  -392.606938559   0.001786285961 (    0.00)
  -392.596087372   0.001732090572
CI-ITERATION   2: 
  -392.608043312   0.000220839339 (    0.00)
  -392.597148234   0.000207570585
CI-ITERATION   3: 
  -392.608146852   0.000024036229 (    0.00)
  -392.597245353   0.000024010643
CI-ITERATION   4: 
  -392.608158141   0.000003182379 (    0.00)
  -392.597256555   0.000003440360
CI-ITERATION   5: 
  -392.608159669   0.000000354601 (    0.00)
  -392.597258181   0.000000378468
CI-ITERATION   6: 
  -392.608159848   0.000000037564 (    0.00)
  -392.597258369   0.000000043293
CI-ITERATION   7: 
  -392.608159869   0.000000005148 (    0.00)
  -392.597258392   0.000000006082
CI-ITERATION   8: 
  -392.608159872   0.000000000642 (    0.00)
  -392.597258395   0.000000000818
CI-ITERATION   9: 
  -392.608159872   0.000000000090 (    0.00)
  -392.597258395   0.000000000125
CI-ITERATION  10: 
  -392.608159872   0.000000000019 (    0.00)
  -392.597258395   0.000000000027
   CI-PROBLEM SOLVED
   DENSITIES MADE
   E(CAS)=  -392.667565885 Eh DE=    9.840733e-10
   --- Energy gap subspaces: Ext-Act = -0.171   Act-Int = -0.042
   N(occ)=  1.97902 1.98098 1.94858 1.67638 1.65616 1.94875 1.87437 0.57304 0.26502 0.09771
   ||g|| =     1.048249e-05 Max(G)=    1.331991e-06 Rot=179,1
                     ---- THE CAS-SCF ENERGY   HAS CONVERGED ----
                            --- FINALIZING ORBITALS ---
                    ---- DOING ONE FINAL ITERATION FOR PRINTING ----
   --- Forming Natural Orbitals
   --- Canonicalize Internal Space
   --- Canonicalize External Space

MACRO-ITERATION  14: 
   --- Inactive Energy E0 = -362.52105810 Eh
   --- All densities will be recomputed
CI-ITERATION   0: 
  -392.791565344   0.008445419295 (    0.00)
CI-ITERATION   1: 
  -392.796809270   0.000645240515 (    0.00)
CI-ITERATION   2: 
  -392.797255593   0.000044702174 (    0.00)
CI-ITERATION   3: 
  -392.797276996   0.000004517574 (    0.00)
CI-ITERATION   4: 
  -392.797279129   0.000000565528 (    0.00)
CI-ITERATION   5: 
  -392.797279357   0.000000052652 (    0.00)
CI-ITERATION   6: 
  -392.797279380   0.000000004980 (    0.00)
CI-ITERATION   7: 
  -392.797279383   0.000000000721 (    0.00)
CI-ITERATION   8: 
  -392.797279383   0.000000000084 (    0.00)
   CI-PROBLEM SOLVED
   DENSITIES MADE
CI-ITERATION   0: 
  -392.600371564   0.010067755743 (    0.00)
  -392.587801349   0.012070582393
CI-ITERATION   1: 
  -392.607174904   0.001400481086 (    0.00)
  -392.596102137   0.001575233424
CI-ITERATION   2: 
  -392.608064816   0.000174230837 (    0.00)
  -392.597164583   0.000159327099
CI-ITERATION   3: 
  -392.608148275   0.000019387284 (    0.00)
  -392.597247954   0.000016606350
CI-ITERATION   4: 
  -392.608158415   0.000002358436 (    0.00)
  -392.597257050   0.000002310850
CI-ITERATION   5: 
  -392.608159719   0.000000247170 (    0.00)
  -392.597258238   0.000000241920
CI-ITERATION   6: 
  -392.608159848   0.000000032035 (    0.00)
  -392.597258369   0.000000034103
CI-ITERATION   7: 
  -392.608159865   0.000000003904 (    0.00)
  -392.597258388   0.000000005014
CI-ITERATION   8: 
  -392.608159867   0.000000000497 (    0.00)
  -392.597258390   0.000000000661
CI-ITERATION   9: 
  -392.608159868   0.000000000061 (    0.00)
  -392.597258391   0.000000000081
   CI-PROBLEM SOLVED
   DENSITIES MADE
   E(CAS)=  -392.667565880 Eh DE=    4.370918e-09
   --- Energy gap subspaces: Ext-Act = -0.210   Act-Int = 0.031
   N(occ)=  0.06741 0.16937 0.68832 1.65608 1.67646 1.86363 1.93169 1.95589 1.99310 1.99804
   ||g|| =     9.037754e-06 Max(G)=    1.746488e-06 Rot=128,30
--------------
CASSCF RESULTS
--------------

Final CASSCF energy       : -392.667565880 Eh  -10685.0277 eV

----------------
ORBITAL ENERGIES
----------------

  NO   OCC          E(Eh)            E(eV)    Irrep 
   0   2.0000     -20.586192      -560.1788    1-A'
   1   2.0000     -15.599830      -424.4929    2-A'
   2   2.0000     -15.583715      -424.0544    3-A'
   3   2.0000     -15.560085      -423.4114    4-A'
   4   2.0000     -11.365504      -309.2711    5-A'
   5   2.0000     -11.291638      -307.2611    6-A'
   6   2.0000     -11.267477      -306.6036    7-A'
   7   2.0000     -11.229938      -305.5822    8-A'
   8   2.0000      -1.426763       -38.8242    9-A'
   9   2.0000      -1.295037       -35.2397   10-A'
  10   2.0000      -1.241293       -33.7773   11-A'
  11   2.0000      -1.162542       -31.6344   12-A'
  12   2.0000      -1.041399       -28.3379   13-A'
  13   2.0000      -0.879657       -23.9367   14-A'
  14   2.0000      -0.872010       -23.7286   15-A'
  15   2.0000      -0.745451       -20.2848   16-A'
  16   2.0000      -0.737197       -20.0602   17-A'
  17   2.0000      -0.709599       -19.3092   18-A'
  18   2.0000      -0.656546       -17.8655   19-A'
  19   2.0000      -0.649855       -17.6835   20-A'
  20   2.0000      -0.591547       -16.0968   21-A'
  21   2.0000      -0.573359       -15.6019   22-A'
  22   0.0674       0.344918         9.3857    1-A"
  23   0.1694       0.182740         4.9726    2-A"
  24   0.6883       0.038890         1.0583    3-A"
  25   1.6561      -0.395283       -10.7562   23-A'
  26   1.6765      -0.418885       -11.3984   24-A'
  27   1.8636      -0.369404       -10.0520    4-A"
  28   1.9317      -0.435688       -11.8557    5-A"
  29   1.9559      -0.540954       -14.7201    6-A"
  30   1.9931      -0.542345       -14.7580    7-A"
  31   1.9980      -0.479137       -13.0380    8-A"
  32   0.0000       0.134891         3.6706   25-A'
  33   0.0000       0.144512         3.9324   26-A'
  34   0.0000       0.172669         4.6986   27-A'
  35   0.0000       0.194707         5.2983   28-A'
  36   0.0000       0.209861         5.7106   29-A'
  37   0.0000       0.223485         6.0813   30-A'
  38   0.0000       0.265136         7.2147   31-A'
  39   0.0000       0.303903         8.2696   32-A'
  40   0.0000       0.314707         8.5636    9-A"
  41   0.0000       0.316966         8.6251   33-A'
  42   0.0000       0.340864         9.2754   34-A'
  43   0.0000       0.370840        10.0911   10-A"
  44   0.0000       0.372502        10.1363   35-A'
  45   0.0000       0.379205        10.3187   36-A'
  46   0.0000       0.390008        10.6126   11-A"
  47   0.0000       0.427208        11.6249   37-A'
  48   0.0000       0.435558        11.8521   38-A'
  49   0.0000       0.451450        12.2846   12-A"
  50   0.0000       0.476368        12.9626   39-A'
  51   0.0000       0.503739        13.7074   40-A'
  52   0.0000       0.527042        14.3415   41-A'
  53   0.0000       0.536695        14.6042   42-A'
  54   0.0000       0.545624        14.8472   43-A'
  55   0.0000       0.560238        15.2449   44-A'
  56   0.0000       0.564960        15.3733   13-A"
  57   0.0000       0.573811        15.6142   45-A'
  58   0.0000       0.586330        15.9548   14-A"
  59   0.0000       0.602312        16.3897   46-A'
  60   0.0000       0.610196        16.6043   47-A'
  61   0.0000       0.628050        17.0901   48-A'
  62   0.0000       0.655585        17.8394   49-A'
  63   0.0000       0.677270        18.4295   50-A'
  64   0.0000       0.684160        18.6169   51-A'
  65   0.0000       0.691159        18.8074   15-A"
  66   0.0000       0.707786        19.2598   52-A'
  67   0.0000       0.727420        19.7941   53-A'
  68   0.0000       0.734514        19.9871   16-A"
  69   0.0000       0.757540        20.6137   54-A'
  70   0.0000       0.783460        21.3190   55-A'
  71   0.0000       0.816102        22.2073   56-A'
  72   0.0000       0.830246        22.5921   57-A'
  73   0.0000       0.863791        23.5049   58-A'
  74   0.0000       0.879796        23.9405   59-A'
  75   0.0000       0.894436        24.3388   60-A'
  76   0.0000       0.920405        25.0455   61-A'
  77   0.0000       0.950181        25.8557   62-A'
  78   0.0000       0.980847        26.6902   63-A'
  79   0.0000       1.004000        27.3202   64-A'
  80   0.0000       1.062521        28.9127   65-A'
  81   0.0000       1.070228        29.1224   66-A'
  82   0.0000       1.453926        39.5633   17-A"
  83   0.0000       1.495007        40.6812   18-A"
  84   0.0000       1.502127        40.8749   67-A'
  85   0.0000       1.548286        42.1310   19-A"
  86   0.0000       1.557524        42.3824   68-A'
  87   0.0000       1.558857        42.4187   20-A"
  88   0.0000       1.589464        43.2515   21-A"
  89   0.0000       1.603482        43.6330   69-A'
  90   0.0000       1.641333        44.6629   70-A'
  91   0.0000       1.653852        45.0036   22-A"
  92   0.0000       1.721716        46.8503   23-A"
  93   0.0000       1.731391        47.1135   71-A'
  94   0.0000       1.738274        47.3008   72-A'
  95   0.0000       1.742601        47.4186   24-A"
  96   0.0000       1.745143        47.4877   25-A"
  97   0.0000       1.768862        48.1332   73-A'
  98   0.0000       1.806536        49.1583   74-A'
  99   0.0000       1.809542        49.2401   26-A"
 100   0.0000       1.815765        49.4095   75-A'
 101   0.0000       1.841245        50.1028   27-A"
 102   0.0000       1.857803        50.5534   76-A'
 103   0.0000       1.886591        51.3368   77-A'
 104   0.0000       1.925397        52.3927   78-A'
 105   0.0000       1.951560        53.1046   79-A'
 106   0.0000       1.974620        53.7321   80-A'
 107   0.0000       2.035288        55.3830   28-A"
 108   0.0000       2.038444        55.4689   81-A'
 109   0.0000       2.049605        55.7726   29-A"
 110   0.0000       2.089052        56.8460   82-A'
 111   0.0000       2.143160        58.3183   83-A'
 112   0.0000       2.173191        59.1355   84-A'
 113   0.0000       2.201334        59.9013   30-A"
 114   0.0000       2.272424        61.8358   85-A'
 115   0.0000       2.280992        62.0690   31-A"
 116   0.0000       2.313928        62.9652   86-A'
 117   0.0000       2.318283        63.0837   87-A'
 118   0.0000       2.366604        64.3986   88-A'
 119   0.0000       2.400423        65.3188   89-A'
 120   0.0000       2.464765        67.0697   90-A'
 121   0.0000       2.494407        67.8763   91-A'
 122   0.0000       2.523824        68.6768   32-A"
 123   0.0000       2.540446        69.1290   92-A'
 124   0.0000       2.572334        69.9968   33-A"
 125   0.0000       2.591406        70.5158   93-A'
 126   0.0000       2.593541        70.5738   34-A"
 127   0.0000       2.618746        71.2597   94-A'
 128   0.0000       2.661646        72.4271   35-A"
 129   0.0000       2.662082        72.4389   95-A'
 130   0.0000       2.700617        73.4875   96-A'
 131   0.0000       2.707246        73.6679   36-A"
 132   0.0000       2.734583        74.4118   97-A'
 133   0.0000       2.739455        74.5444   98-A'
 134   0.0000       2.773076        75.4592   99-A'
 135   0.0000       2.802068        76.2481   37-A"
 136   0.0000       2.823809        76.8398  100-A'
 137   0.0000       2.872639        78.1685  101-A'
 138   0.0000       2.894059        78.7514   38-A"
 139   0.0000       2.898787        78.8800  102-A'
[...]

   --- Proceeding with FIC-NEVPT2 

     Class V0_IJAB      ... 
 NSkipped =   0, NCSFs ijab =2362500  ... in        0.0 sec

     Class VM1_ITAB     ... 
 NSkipped =   0, NCSFs itab =3150000  ... in        0.1 sec

     Class VM2_tuab     ... 
 NSkipped =   0, NCSFs tuab =2250000  ... in        0.6 sec

     Class VM1_TUVA     ... 
tuva Nmu = 989 nact = 10 next = 150
 NSkipped =  11, NCSFs tuva =148350  ... in        0.9 sec

     Class V1_IJTA      ... 
Emu[AUTOCI_IJTA](0) = -0.04736023884474 
 NSkipped =   0, NCSFs ijta =294000  ... in        0.0 sec

     Class V0_ITUA/ITAU ... 
itua Nmu = 199 ndouble = 14 next = 150
Emu[AUTOCI_ITAU/...](0) = -0.17638715006535 
Emu[AUTOCI_ITAU/...](1) = -0.04391176761509 
Emu[AUTOCI_ITAU/...](2) = -0.00507120858955 
Emu[AUTOCI_ITAU/...](3) = -0.00000000000927 
 NSkipped =   1, NCSFs itua/itau =417900  ... in        0.5 sec

     Class V2_IJTU      ... 
 NSkipped =   2, NCSFs ijtu = 10290  ... in        0.1 sec

     Class V1_ITUV      ... 
ituv Nmu = 891 ndouble = 14 nact = 10
Emu[AUTOCI_ITUV](0) = -0.07856987284313 
 NSkipped = 109, NCSFs ituv = 12474  ... in        2.9 sec

   --- Reading DC1-DC4 to internal storage

------------------------------ FIC-NEVPT2 Summary -----------------------------
      Class       IJAB: dE=     -0.458519356
      Class       ITAB: dE=     -0.363474112
      Class       TUAB: dE=     -0.111069160
      Class       IJTA: dE=     -0.027027957
      Class       ITUA: dE=     -0.156854693
      Class       ITAU: dE=      0.000000000
      Class       TUVA: dE=     -0.053266280
      Class       IJTU: dE=     -0.001627415
      Class       ITUV: dE=     -0.003689419
      Class          o: dE=      0.000000000

MULT=  1 ROOT=  0   ECAS=   -392.608159866  EC=     -1.175528393
Number of amplitudes to optimize: 8645515
Precomputing constant intermediates... Done. (  1922.7 s)

--------------------------------- CI Iterations -------------------------------

 It.       E(tot)           EC     Delta EC     MaxSigma    Time
   1 -393.78368826  -1.17552839  -0.00000000   0.03438736  1939.9
   2 -393.37618034  -0.76802047   0.40750792   0.03705566  1924.4
   3 -393.70343518  -1.09527532  -0.32725485   0.05390114  1932.9
   4 -393.44175655  -0.83359668   0.26167863   0.08575955  1923.6
   5 -393.55714416  -0.94898429  -0.11538761   0.02766252  1944.6
   6 -393.56385244  -0.95569257  -0.00670828   0.02356929  1920.3
   7 -393.56531974  -0.95715988  -0.00146730   0.00373578  1914.9
   8 -393.56632288  -0.95816301  -0.00100313   0.00130264  1907.2
   9 -393.56674540  -0.95858554  -0.00042253   0.00080471  1885.4
  10 -393.56671915  -0.95855929   0.00002625   0.00068411  1895.8
  11 -393.56673354  -0.95857368  -0.00001439   0.00032265  1897.0
  12 -393.56670080  -0.95854093   0.00003274   0.00018412  1919.2
  13 -393.56669013  -0.95853027   0.00001067   0.00003727  1893.8
  14 -393.56669689  -0.95853702  -0.00000675   0.00004932  1921.1
  15 -393.56669890  -0.95853903  -0.00000201   0.00002246  1901.6
  16 -393.56669816  -0.95853829   0.00000074   0.00000757  1898.2
  17 -393.56669750  -0.95853764   0.00000065   0.00000405  1929.7
  18 -393.56669733  -0.95853747   0.00000017   0.00000336  1910.0
  19 -393.56669743  -0.95853757  -0.00000010   0.00000280  1920.8
  20 -393.56669752  -0.95853766  -0.00000009   0.00000083  1879.5

-------------------- Calculation CONVERGED in 20 iterations -------------------

------------------- Largest amplitudes (non-orthogonal basis) -----------------
   8625249       TUVA( 6):   31 ->   56     31 ->   31 :   0.02668445
   8629288       IJTU( 7):   14 ->   30     14 ->   30 :   0.02186899
   8628933       IJTU( 7):   14 ->   25     11 ->   25 :   0.02097501
   8629277       IJTU( 7):   14 ->   29     14 ->   29 :  -0.02030948
   8628934       IJTU( 7):   14 ->   25     11 ->   26 :  -0.02016865
   8608768       TUVA( 6):   30 ->   58     30 ->   30 :  -0.01862211
   8629233       IJTU( 7):   14 ->   25     14 ->   25 :  -0.01808628
   8632688       IJTU( 7):   18 ->   30     14 ->   30 :  -0.01771307
   8628944       IJTU( 7):   14 ->   26     11 ->   26 :   0.01711280
   8631677       IJTU( 7):   17 ->   29     14 ->   29 :   0.01709136
   8628544       IJTU( 7):   13 ->   26     13 ->   26 :  -0.01705830
   8628943       IJTU( 7):   14 ->   26     11 ->   25 :  -0.01693760
   7743624       TUAB( 2):   31 ->   56     31 ->   56 :  -0.01665643
   8628588       IJTU( 7):   13 ->   30     13 ->   30 :  -0.01661363
   8636944       IJTU( 7):   21 ->   26     21 ->   26 :  -0.01650174
   8526444       TUVA( 6):   25 ->   76     25 ->   26 :  -0.01649439
   8630788       IJTU( 7):   16 ->   30     14 ->   30 :   0.01592908
   8627444       IJTU( 7):   11 ->   26     11 ->   26 :  -0.01570936
   8629988       IJTU( 7):   15 ->   30     14 ->   30 :  -0.01547832
   8636277       IJTU( 7):   21 ->   29     14 ->   29 :   0.01546249
Cleanup of constant intermediates... Done. (  1886.4 s)

----------------------------------- CI Energy ---------------------------------
WRef(C0)                                   ...   0.90536802
E(0)                                       ... -392.60815987
E(CORR)                                    ...  -0.95853766
ETOT                                       ... -393.56669752

Davidson Correction                        ...  -0.17283272
ETOT(Davidson Corrected)                   ... -393.73953024
Trace of DC1:    58.00000000
 Timing (Orthogonalization) per iter =    0.2 sec  total =    5.0 
 Timing (Vectorization)     per cnt  =    0.0 sec  total =    8.2 


-------------------------------- Entering solver ------------------------------
  Memory needed   ...  56.25 MB

   --- Computing DC1-DC4 

     D1, D2 Build      ... done in        0.0 sec
     D3 Build          ... CI space truncated: 1232 -> 1231 CFGs 
                       ... RI space truncated: 2850 -> 2850 CFGs 
                       ... 
                       ... correcting norm (1.000000e+00) 
                       ... done in        0.5 sec
     D4 Build          ... CI space truncated: 1232 -> 1231 CFGs 
                       ... RI space truncated: 2850 -> 2850 CFGs 
                       ... 
                       ... correcting norm (1.000000e+00) 
                       ... data streamed 0.75 GB
                       ... density       37.0 sec
                       ... done in       37.8 sec
   --- Computing active Fock 

   --- Proceeding with FIC-NEVPT2 

     Class V0_IJAB      ... 
 NSkipped =   0, NCSFs ijab =2362500  ... in        0.0 sec

     Class VM1_ITAB     ... 
 NSkipped =   0, NCSFs itab =3150000  ... in        0.1 sec

     Class VM2_tuab     ... 
 NSkipped =   0, NCSFs tuab =2250000  ... in        0.6 sec

     Class VM1_TUVA     ... 
tuva Nmu = 989 nact = 10 next = 150
 NSkipped =  11, NCSFs tuva =148350  ... in        0.9 sec

     Class V1_IJTA      ... 
Emu[AUTOCI_IJTA](0) = -0.05263024652612 
 NSkipped =   0, NCSFs ijta =294000  ... in        0.0 sec

     Class V0_ITUA/ITAU ... 
itua Nmu = 199 ndouble = 14 next = 150
Emu[AUTOCI_ITAU/...](0) = -0.18789276706665 
Emu[AUTOCI_ITAU/...](1) = -0.05446259577241 
Emu[AUTOCI_ITAU/...](2) = -0.01561986782741 
Emu[AUTOCI_ITAU/...](3) = -0.01011365912085 
Emu[AUTOCI_ITAU/...](4) = -0.00509878877147 
Emu[AUTOCI_ITAU/...](5) = -0.00000000000547 
 NSkipped =   1, NCSFs itua/itau =417900  ... in        0.5 sec

     Class V2_IJTU      ... 
 NSkipped =   2, NCSFs ijtu = 10290  ... in        0.1 sec

     Class V1_ITUV      ... 
ituv Nmu = 895 ndouble = 14 nact = 10
Emu[AUTOCI_ITUV](0) = -0.08946365580183 
 NSkipped = 105, NCSFs ituv = 12530  ... in        2.9 sec

   --- Reading DC1-DC4 to internal storage

------------------------------ FIC-NEVPT2 Summary -----------------------------
      Class       IJAB: dE=     -0.458628803
      Class       ITAB: dE=     -0.365370100
      Class       TUAB: dE=     -0.111155957
      Class       IJTA: dE=     -0.025245095
      Class       ITUA: dE=     -0.155091410
      Class       ITAU: dE=      0.000000000
      Class       TUVA: dE=     -0.053296520
      Class       IJTU: dE=     -0.001624416
      Class       ITUV: dE=     -0.003429387
      Class          o: dE=      0.000000000

MULT=  1 ROOT=  1   ECAS=   -392.597258389  EC=     -1.173841689
Number of amplitudes to optimize: 8645571
Precomputing constant intermediates... Done. (  1928.4 s)

--------------------------------- CI Iterations -------------------------------

 It.       E(tot)           EC     Delta EC     MaxSigma    Time
   1 -393.77110008  -1.17384169  -0.00000000   0.02840687  1936.6
   2 -393.36525842  -0.76800003   0.40584166   0.03489409  1896.1
   3 -393.69212347  -1.09486508  -0.32686505   0.04679416  1934.9
   4 -393.42843424  -0.83117585   0.26368923   0.06985232  1922.2
   5 -393.54454336  -0.94728497  -0.11610912   0.04657671  1944.1
   6 -393.55182406  -0.95456568  -0.00728071   0.03748865  1897.7
   7 -393.55360049  -0.95634210  -0.00177643   0.00349049  1928.5
   8 -393.55466087  -0.95740248  -0.00106038   0.00127417  1948.7
   9 -393.55515750  -0.95789911  -0.00049663   0.00082939  1966.9
  10 -393.55512232  -0.95786393   0.00003519   0.00070666  1915.2
  11 -393.55513882  -0.95788043  -0.00001651   0.00022759  1901.8
  12 -393.55509801  -0.95783962   0.00004081   0.00022637  1910.2
  13 -393.55508805  -0.95782966   0.00000997   0.00005806  1896.3
  14 -393.55509620  -0.95783781  -0.00000815   0.00002568  1909.0
  15 -393.55509848  -0.95784009  -0.00000228   0.00001293  1909.8
  16 -393.55509767  -0.95783928   0.00000081   0.00000917  1903.0
  17 -393.55509681  -0.95783842   0.00000086   0.00000371  1891.4
  18 -393.55509677  -0.95783838   0.00000005   0.00000244  1922.9
  19 -393.55509687  -0.95783848  -0.00000010   0.00000330  1904.2
  20 -393.55509695  -0.95783856  -0.00000008   0.00000073  1927.1

-------------------- Calculation CONVERGED in 20 iterations -------------------

------------------- Largest amplitudes (non-orthogonal basis) -----------------
   8625249       TUVA( 6):   31 ->   56     31 ->   31 :   0.02674524
   8628934       IJTU( 7):   14 ->   25     11 ->   26 :  -0.02641273
   8628943       IJTU( 7):   14 ->   26     11 ->   25 :  -0.02423761
   8632688       IJTU( 7):   18 ->   30     14 ->   30 :  -0.02024496
   8628944       IJTU( 7):   14 ->   26     11 ->   26 :   0.01895512
   8628933       IJTU( 7):   14 ->   25     11 ->   25 :   0.01891480
   8608768       TUVA( 6):   30 ->   58     30 ->   30 :  -0.01871991
   8629234       IJTU( 7):   14 ->   25     14 ->   26 :   0.01836276
   8629243       IJTU( 7):   14 ->   26     14 ->   25 :   0.01836220
   8636943       IJTU( 7):   21 ->   26     21 ->   25 :   0.01813518
   8636934       IJTU( 7):   21 ->   25     21 ->   26 :   0.01813441
   8636944       IJTU( 7):   21 ->   26     21 ->   26 :  -0.01766291
   8630788       IJTU( 7):   16 ->   30     14 ->   30 :   0.01757388
   8526444       TUVA( 6):   25 ->   76     25 ->   26 :  -0.01719772
   8631677       IJTU( 7):   17 ->   29     14 ->   29 :   0.01695843
   8635588       IJTU( 7):   20 ->   30     20 ->   30 :  -0.01688913
   8631634       IJTU( 7):   17 ->   25     14 ->   26 :  -0.01679948
   8634634       IJTU( 7):   20 ->   25     11 ->   26 :   0.01674798
   7743624       TUAB( 2):   31 ->   56     31 ->   56 :  -0.01668007
   8631643       IJTU( 7):   17 ->   26     14 ->   25 :  -0.01657870
Cleanup of constant intermediates... Done. (  1947.7 s)

----------------------------------- CI Energy ---------------------------------
WRef(C0)                                   ...   0.90544116
E(0)                                       ... -392.59725839
E(CORR)                                    ...  -0.95783856
ETOT                                       ... -393.55509695

Davidson Correction                        ...  -0.17257982
ETOT(Davidson Corrected)                   ... -393.72767677
Trace of DC1:    58.00000000
 Timing (Orthogonalization) per iter =    0.3 sec  total =    5.3 
 Timing (Vectorization)     per cnt  =    0.0 sec  total =    8.6 

 ----------------------------------------
 Summary for Mult=1  Irrep= A"                   
 ----------------------------------------
 Root W(CAS)     E(MRCI)     E(CAS)     Delta-E     Davidson 
   0   0.905   -393.566697522   -392.608159866     -0.958537656     -0.172832717 
   1   0.905   -393.555096945   -392.597258389     -0.957838556     -0.172579821 

Average Energy for Mult=1 Irrep= A":    -393.560897233492

 ----------------------------------------
 Summary of multireference corrections 
 ----------------------------------------
 Irrep Mult Root W(CAS)     E(MRCI)     E(CAS)     Delta-E     Davidson 
  A'   1   0 0.905   -393.759480009   -392.797279380     -0.962200629     -0.173408651 
  A"   1   0 0.905   -393.566697522   -392.608159866     -0.958537656     -0.172832717 
  A"   1   1 0.905   -393.555096945   -392.597258389     -0.957838556     -0.172579821 

------------------------------
FIC-MRCI TRANSITION ENERGIES
------------------------------

LOWEST ROOT (ROOT 0, MULT 1, IRREP  A') =   -393.759480009 Eh -10714.740 eV

STATE   ROOT MULT IRREP DE/a.u.    DE/eV    DE/cm**-1
   1:    0    1   A"   0.192782     5.246  42310.9
   2:    1    1   A"   0.204383     5.562  44856.9


-------------------------   --------------------
FINAL SINGLE POINT ENERGY      -393.759480008783
-------------------------   --------------------


                            ***************************************
                            *     ORCA property calculations      *
                            ***************************************

                                    ---------------------
                                    Active property flags
                                    ---------------------
   (+) Dipole Moment


------------------------------------------------------------------------------
                       ORCA ELECTRIC PROPERTIES CALCULATION
------------------------------------------------------------------------------

Dipole Moment Calculation                       ... on
Quadrupole Moment Calculation                   ... off
Polarizability Calculation                      ... off
GBWName                                         ... /scratch/cytosine-MRCI-14-10_440/cytosine-MRCI-14-10.gbw
Electron density file                           ... /scratch/cytosine-MRCI-14-10_440/cytosine-MRCI-14-10.scfp
The origin for moment calculation is the CENTER OF MASS  = ( 0.000000,  0.000000  0.000000)

-------------
DIPOLE MOMENT
-------------
                                X             Y             Z
Electronic contribution:     -4.09558       2.07533       0.00000
Nuclear contribution   :      5.06353      -3.20965       0.00000
                        -----------------------------------------
Total Dipole Moment    :      0.96795      -1.13432       0.00000
                        -----------------------------------------
Magnitude (a.u.)       :      1.49118
Magnitude (Debye)      :      3.79027



--------------------
Rotational spectrum 
--------------------
 
Rotational constants in cm-1:     0.128680     0.067098     0.044102 
Rotational constants in MHz :  3857.734772  2011.552363  1322.142761 

 Dipole components along the rotational axes: 
x,y,z [a.u.] :    -0.936760    -1.160209     0.000000 
x,y,z [Debye]:    -2.381054    -2.949017     0.000000 

 
--------------------------------------------------------------------------
WARNING: There was an error initializing an OpenFabrics device.

  Local host:   cnode12
  Local device: mlx5_0
--------------------------------------------------------------------------
[cnode12:264594] 31 more processes have sent help message help-mpi-btl-openib.txt / error in device init
[cnode12:264594] Set MCA parameter "orte_base_help_aggregate" to 0 to see all help / error messages

Timings for individual modules:

Sum of individual times         ...   117151.102 sec (=1952.518 min)
GTO integral calculation        ...       18.945 sec (=   0.316 min)   0.0 %
SCF iterations                  ...        1.289 sec (=   0.021 min)   0.0 %
CASSCF iterations               ...       22.140 sec (=   0.369 min)   0.0 %
AUTOCI module                   ...   117108.728 sec (=1951.812 min) 100.0 %
                             ****ORCA TERMINATED NORMALLY****
TOTAL RUN TIME: 1 days 8 hours 32 minutes 32 seconds 205 msec

Sender: Unischeduler System <lcz@mgt01>
Subject: Job 131903: <#!/bin/bash
#BSUB -J intel
#BSUB -o cytosine-MRCI-14-10.out
#BSUB -n 32
#BSUB -q cqueue
export LD_LIBRARY_PATH=/apps/software/openmpi-4.1.1/lib:/apps/software/orca_5_0_0:$LD_LIBRARY_PATH
export PATH=/apps/software/openmpi-4.1.1/bin:/apps/software/orca_5_0_0:$PATH
mkdir /scratch/cytosine-MRCI-14-10_440
scp $USER@mgt01:/apps/users/lcz/exe11/task3/ORCA/cytosine-MRCI-14-10.inp /scratch/cytosine-MRCI-14-10_440
scp $USER@mgt01:/apps/users/lcz/exe11/task3/ORCA/cytosine-RHF.gbw /scratch/cytosine-MRCI-14-10_440
/apps/software/orca_5_0_0/orca /scratch/cytosine-MRCI-14-10_440/cytosine-MRCI-14-10.inp >& cytosine-MRCI-14-10.out
scp /scratch/cytosine-MRCI-14-10_440/*.gbw $USER@mgt01:/apps/users/lcz/exe11/task3/ORCA
scp /scratch/cytosine-MRCI-14-10_440/*.xyz $USER@mgt01:/apps/users/lcz/exe11/task3/ORCA
scp /scratch/cytosine-MRCI-14-10_440/*.trj $USER@mgt01:/apps/users/lcz/exe11/task3/ORCA> Exited

Job <#!/bin/bash
#BSUB -J intel
#BSUB -o cytosine-MRCI-14-10.out
#BSUB -n 32
#BSUB -q cqueue
export LD_LIBRARY_PATH=/apps/software/openmpi-4.1.1/lib:/apps/software/orca_5_0_0:$LD_LIBRARY_PATH
export PATH=/apps/software/openmpi-4.1.1/bin:/apps/software/orca_5_0_0:$PATH
mkdir /scratch/cytosine-MRCI-14-10_440
scp $USER@mgt01:/apps/users/lcz/exe11/task3/ORCA/cytosine-MRCI-14-10.inp /scratch/cytosine-MRCI-14-10_440
scp $USER@mgt01:/apps/users/lcz/exe11/task3/ORCA/cytosine-RHF.gbw /scratch/cytosine-MRCI-14-10_440
/apps/software/orca_5_0_0/orca /scratch/cytosine-MRCI-14-10_440/cytosine-MRCI-14-10.inp >& cytosine-MRCI-14-10.out
scp /scratch/cytosine-MRCI-14-10_440/*.gbw $USER@mgt01:/apps/users/lcz/exe11/task3/ORCA
scp /scratch/cytosine-MRCI-14-10_440/*.xyz $USER@mgt01:/apps/users/lcz/exe11/task3/ORCA
scp /scratch/cytosine-MRCI-14-10_440/*.trj $USER@mgt01:/apps/users/lcz/exe11/task3/ORCA> was submitted from host <mgt01> by user <lcz>.
Job was executed on host(s) <18*cnode12 14*cnode05>, in queue <cqueue>, as user <lcz>.
</apps/users/lcz> was used as the home directory.
</apps/users/lcz/exe11/task3/ORCA> was used as the working directory.
Started at 2022-05-13 21:49:27
Results reported at 2022-05-15 06:22:09

Your job looked like:

------------------------------------------------------------
# User input
#!/bin/bash
#BSUB -J intel
#BSUB -o cytosine-MRCI-14-10.out
#BSUB -n 32
#BSUB -q cqueue
export LD_LIBRARY_PATH=/apps/software/openmpi-4.1.1/lib:/apps/software/orca_5_0_0:$LD_LIBRARY_PATH
export PATH=/apps/software/openmpi-4.1.1/bin:/apps/software/orca_5_0_0:$PATH
mkdir /scratch/cytosine-MRCI-14-10_440
scp $USER@mgt01:/apps/users/lcz/exe11/task3/ORCA/cytosine-MRCI-14-10.inp /scratch/cytosine-MRCI-14-10_440
scp $USER@mgt01:/apps/users/lcz/exe11/task3/ORCA/cytosine-RHF.gbw /scratch/cytosine-MRCI-14-10_440
/apps/software/orca_5_0_0/orca /scratch/cytosine-MRCI-14-10_440/cytosine-MRCI-14-10.inp >& cytosine-MRCI-14-10.out
scp /scratch/cytosine-MRCI-14-10_440/*.gbw $USER@mgt01:/apps/users/lcz/exe11/task3/ORCA
scp /scratch/cytosine-MRCI-14-10_440/*.xyz $USER@mgt01:/apps/users/lcz/exe11/task3/ORCA
scp /scratch/cytosine-MRCI-14-10_440/*.trj $USER@mgt01:/apps/users/lcz/exe11/task3/ORCA
------------------------------------------------------------

Exited with exit code 1.

Resource usage summary:

    CPU time   :       118177.09 sec.
    Max Memory :             34244 MB
    Max Processes  :              38


The output (if any) follows:

/scratch/cytosine-MRCI-14-10_440/*.xyz: No such file or directory
/scratch/cytosine-MRCI-14-10_440/*.trj: No such file or directory
