
                                        *****************
                                        * O   R   C   A *
                                        *****************

                                            #,                                       
                                            ###                                      
                                            ####                                     
                                            #####                                    
                                            ######                                   
                                           ########,                                 
                                     ,,################,,,,,                         
                               ,,#################################,,                 
                          ,,##########################################,,             
                       ,#########################################, ''#####,          
                    ,#############################################,,   '####,        
                  ,##################################################,,,,####,       
                ,###########''''           ''''###############################       
              ,#####''   ,,,,##########,,,,          '''####'''          '####       
            ,##' ,,,,###########################,,,                        '##       
           ' ,,###''''                  '''############,,,                           
         ,,##''                                '''############,,,,        ,,,,,,###''
      ,#''                                            '''#######################'''  
     '                                                          ''''####''''         
             ,#######,   #######,   ,#######,      ##                                
            ,#'     '#,  ##    ##  ,#'     '#,    #''#        ######   ,####,        
            ##       ##  ##   ,#'  ##            #'  '#       #        #'  '#        
            ##       ##  #######   ##           ,######,      #####,   #    #        
            '#,     ,#'  ##    ##  '#,     ,#' ,#      #,         ##   #,  ,#        
             '#######'   ##     ##  '#######'  #'      '#     #####' # '####'        



                  #######################################################
                  #                        -***-                        #
                  #          Department of theory and spectroscopy      #
                  #    Directorship and core code : Frank Neese         #
                  #        Max Planck Institute fuer Kohlenforschung    #
                  #                Kaiser Wilhelm Platz 1               #
                  #                 D-45470 Muelheim/Ruhr               #
                  #                      Germany                        #
                  #                                                     #
                  #                  All rights reserved                #
                  #                        -***-                        #
                  #######################################################


                         Program Version 5.0.0 -  RELEASE  -
                                (SVN: $Rev: 19529$)
                ($Date: 2021-06-28 11:36:33 +0200 (Mo, 28 Jun 2021) $)


 With contributions from (in alphabetic order):
   Daniel Aravena         : Magnetic Suceptibility
   Michael Atanasov       : Ab Initio Ligand Field Theory (pilot matlab implementation)
   Alexander A. Auer      : GIAO ZORA, VPT2 properties, NMR spectrum
   Ute Becker             : Parallelization
   Giovanni Bistoni       : ED, misc. LED, open-shell LED, HFLD
   Martin Brehm           : Molecular dynamics
   Dmytro Bykov           : SCF Hessian
   Vijay G. Chilkuri      : MRCI spin determinant printing, contributions to CSF-ICE
   Dipayan Datta          : RHF DLPNO-CCSD density
   Achintya Kumar Dutta   : EOM-CC, STEOM-CC
   Dmitry Ganyushin       : Spin-Orbit,Spin-Spin,Magnetic field MRCI
   Miquel Garcia          : C-PCM Hessian, Gaussian charge scheme
   Yang Guo               : DLPNO-NEVPT2, F12-NEVPT2, CIM, IAO-localization
   Andreas Hansen         : Spin unrestricted coupled pair/coupled cluster methods
   Benjamin Helmich-Paris : MC-RPA, TRAH-SCF, COSX integrals
   Lee Huntington         : MR-EOM, pCC
   Robert Izsak           : Overlap fitted RIJCOSX, COSX-SCS-MP3, EOM
   Marcus Kettner         : VPT2
   Christian Kollmar      : KDIIS, OOCD, Brueckner-CCSD(T), CCSD density, CASPT2, CASPT2-K
   Simone Kossmann        : Meta GGA functionals, TD-DFT gradient, OOMP2, MP2 Hessian
   Martin Krupicka        : Initial AUTO-CI
   Lucas Lang             : DCDCAS
   Marvin Lechner         : AUTO-CI (C++ implementation), FIC-MRCC
   Dagmar Lenk            : GEPOL surface, SMD
   Dimitrios Liakos       : Extrapolation schemes; Compound Job, initial MDCI parallelization
   Dimitrios Manganas     : Further ROCIS development; embedding schemes
   Dimitrios Pantazis     : SARC Basis sets
   Anastasios Papadopoulos: AUTO-CI, single reference methods and gradients
   Taras Petrenko         : DFT Hessian,TD-DFT gradient, ASA, ECA, R-Raman, ABS, FL, XAS/XES, NRVS
   Peter Pinski           : DLPNO-MP2, DLPNO-MP2 Gradient
   Christoph Reimann      : Effective Core Potentials
   Marius Retegan         : Local ZFS, SOC
   Christoph Riplinger    : Optimizer, TS searches, QM/MM, DLPNO-CCSD(T), (RO)-DLPNO pert. Triples
   Tobias Risthaus        : Range-separated hybrids, TD-DFT gradient, RPA, STAB
   Michael Roemelt        : Original ROCIS implementation
   Masaaki Saitow         : Open-shell DLPNO-CCSD energy and density
   Barbara Sandhoefer     : DKH picture change effects
   Avijit Sen             : IP-ROCIS
   Kantharuban Sivalingam : CASSCF convergence, NEVPT2, FIC-MRCI
   Bernardo de Souza      : ESD, SOC TD-DFT
   Georgi Stoychev        : AutoAux, RI-MP2 NMR
   Willem Van den Heuvel  : Paramagnetic NMR
   Boris Wezisla          : Elementary symmetry handling
   Frank Wennmohs         : Technical directorship


 We gratefully acknowledge several colleagues who have allowed us to
 interface, adapt or use parts of their codes:
   Stefan Grimme, W. Hujo, H. Kruse, P. Pracht,  : VdW corrections, initial TS optimization,
                  C. Bannwarth, S. Ehlert          DFT functionals, gCP, sTDA/sTD-DF
   Ed Valeev, F. Pavosevic, A. Kumar             : LibInt (2-el integral package), F12 methods
   Garnet Chan, S. Sharma, J. Yang, R. Olivares  : DMRG
   Ulf Ekstrom                                   : XCFun DFT Library
   Mihaly Kallay                                 : mrcc  (arbitrary order and MRCC methods)
   Jiri Pittner, Ondrej Demel                    : Mk-CCSD
   Frank Weinhold                                : gennbo (NPA and NBO analysis)
   Christopher J. Cramer and Donald G. Truhlar   : smd solvation model
   Lars Goerigk                                  : TD-DFT with DH, B97 family of functionals
   V. Asgeirsson, H. Jonsson                     : NEB implementation
   FAccTs GmbH                                   : IRC, NEB, NEB-TS, DLPNO-Multilevel, CI-OPT
                                                   MM, QMMM, 2- and 3-layer-ONIOM, Crystal-QMMM,
                                                   LR-CPCM, SF, NACMEs, symmetry and pop. for TD-DFT,
                                                   nearIR, NL-DFT gradient (VV10), updates on ESD,
                                                   ML-optimized integration grids
   S Lehtola, MJT Oliveira, MAL Marques          : LibXC Library
   Liviu Ungur et al                             : ANISO software


 Your calculation uses the libint2 library for the computation of 2-el integrals
 For citations please refer to: http://libint.valeyev.net

 Your ORCA version has been built with support for libXC version: 5.1.0
 For citations please refer to: https://tddft.org/programs/libxc/

 This ORCA versions uses:
   CBLAS   interface :  Fast vector & matrix operations
   LAPACKE interface :  Fast linear algebra routines
   SCALAPACK package :  Parallel linear algebra routines
   Shared memory     :  Shared parallel matrices
   BLAS/LAPACK       :  OpenBLAS 0.3.15  USE64BITINT DYNAMIC_ARCH NO_AFFINITY SkylakeX SINGLE_THREADED
        Core in use  :  SkylakeX
   Copyright (c) 2011-2014, The OpenBLAS Project


================================================================================

----- Orbital basis set information -----
Your calculation utilizes the basis: cc-pVTZ 
       H, B-Ne : Obtained from the ccRepo (grant-hill.group.shef.ac.uk/ccrepo) Feb. 2017
                 T. H. Dunning, Jr., J. Chem. Phys. 90, 1007 (1989)
            He : Obtained from the ccRepo (grant-hill.group.shef.ac.uk/ccrepo) Feb. 2017
                 D. E. Woon, T. H. Dunning, Jr., J. Chem. Phys. 100, 2975 (1994)
  Li-Be, Na-Mg : Obtained from the ccRepo (grant-hill.group.shef.ac.uk/ccrepo) Feb. 2017
                 B. P. Prascher, D. E. Woon, K. A. Peterson, T. H. Dunning, Jr., A. K. Wilson, Theor. Chem. Acc. 128, 69 (2011)
         Al-Ar : Obtained from the ccRepo (grant-hill.group.shef.ac.uk/ccrepo) Feb. 2017
                 D. E. Woon, T. H. Dunning, Jr., J. Chem. Phys. 98, 1358 (1993)
            Ca : Obtained from the Peterson Research Group Website (tyr0.chem.wsu.edu/~kipeters) Feb. 2017
                 J. Koput, K. A. Peterson, J. Phys. Chem. 106, 9595 (2002)
         Sc-Zn : Obtained from the ccRepo (grant-hill.group.shef.ac.uk/ccrepo) Feb. 2017
                 N. B. Balabanov, K. A. Peterson, J. Chem. Phys. 123, 064107 (2005)
                 N. B. Balabanov, K. A. Peterson, J. Chem. Phys. 125, 074110 (2006)
         Ga-Kr : Obtained from the ccRepo (grant-hill.group.shef.ac.uk/ccrepo) Feb. 2017
                 A. K. Wilson, D. E. Woon, K. A. Peterson, T. H. Dunning, Jr., J. Chem. Phys. 110, 7667 (1999)
             Y : Obtained from the ccRepo (grant-hill.group.shef.ac.uk/ccrepo) Feb. 2017
                 K. A. Peterson, D. Figgen, M. Dolg, H. Stoll, J. Chem. Phys. 126, 124101 (2007)
        Ag, Au : Obtained from the Peterson Research Group Website (tyr0.chem.wsu.edu/~kipeters) Feb. 2017
                 K. A. Peterson, C. Puzzarini, Theor. Chem. Acc. 114, 283 (2005)

----- AuxJK basis set information -----
Your calculation utilizes the auxiliary basis: cc-pVTZ/JK 
  H, B-F, Al-Cl, Ga-Br : Obtained from the TURBOMOLE 7.0 basis set library

================================================================================
                                        WARNINGS
                       Please study these warnings very carefully!
================================================================================

NOTE: TrafoStep RI is set, but the respective /C basis is not set.
       ===>  Using /JK basis instead!

INFO   : the flag for use of the SHARK integral package has been found!

================================================================================
                                       INPUT FILE
================================================================================
NAME = trans-1,3-bivinyl-cas44.inp
|  1> ! cc-pvtz RIJK cc-pvtz/JK pal8 UseSym
|  2> ! MOread
|  3> 
|  4> %moinp "trans-1,3-bivinyl-rhf.gbw"
|  5> 
|  6> %scf
|  7>     rotate {16,19,90}  end
|  8> end
|  9> 
| 10> %casscf
| 11>     nel     4
| 12>     norb    4
| 13>     irrep   0
| 14>     mult    1
| 15>     nroots  1
| 16> end
| 17> 
| 18> *xyz 0 1
| 19>  C   -6.64118154871840     -1.62152199820221     -0.00000009697356
| 20>  H   -6.14278421708044     -2.59598105665497     -0.00000014220472
| 21>  H   -7.73333554424968     -1.61977238029341     -0.00000042278070
| 22>  C   -5.93549956067656     -0.47904328673011      0.00000030766916
| 23>  H   -6.46384951769643      0.48219250457623      0.00000027918139
| 24>  C   -4.47901443536966     -0.41544209462766      0.00000033271928
| 25>  H   -3.95066484182954     -1.37667808135024      0.00000039582290
| 26>  C   -3.77333222954333      0.72703646535930     -0.00000006376917
| 27>  H   -4.27172926240940      1.70149564387711     -0.00000005020219
| 28>  H   -2.68117824242655      0.72528655404596     -0.00000053946240
| 29> *
| 30> 
| 31> 
| 32>                          ****END OF INPUT****
================================================================================

------------------------------------------------------------------------------
                            SYMMETRY HANDLING SETUP
------------------------------------------------------------------------------

------------------
SYMMETRY DETECTION
------------------
The point group will now be determined using a tolerance of 1.0000e-04.
Splitting atom subsets according to nuclear charge, mass and basis set.
Splitting atom subsets according to distance from the molecule's center.
Identifying relative distance patterns of the atoms.
Splitting atom subsets according to atoms' relative distance patterns.
Bring atoms of each subset into input order.
The molecule is planar.
The molecule has a center of inversion.
Analyzing the first atom subset for its symmetry.
The subset is a centered atom pair.
Testing point group C2h.
Success!
This point group has been found:    C2h
Largest non-degenerate subgroup:    C2h


Symmetry-perfected Cartesians (point group C2h):

Atom          Symmetry-perfected Cartesians (x, y, z; au)
  0      -2.709724903297   -2.219066152817   -0.000000000000
  1      -1.767890722922   -4.060527015457   -0.000000000000
  2      -4.773596842968   -2.215759576903    0.000000000000
  3      -1.376179002480   -0.060094417432    0.000000000000
  4      -2.374615380678    1.756378162901    0.000000000000
  5       1.376179002480    0.060094417432    0.000000000000
  6       2.374615380678   -1.756378162901    0.000000000000
  7       2.709724903297    2.219066152817   -0.000000000000
  8       1.767890722922    4.060527015457   -0.000000000000
  9       4.773596842968    2.215759576903    0.000000000000


-----------------------------------------------
SYMMETRY-PERFECTED CARTESIAN COORDINATES (A.U.)
-----------------------------------------------
Warning (ORCA_SYM): Coordinates were not cleaned so far!

------------------
SYMMETRY REDUCTION
------------------
ORCA supports only abelian point groups.
It is now checked, if the determined point group is supported:
Point Group ( C2h   ) is          ... supported

(Re)building abelian point group:
Creating Character Table          ... done
Making direct product table       ... done
Constructing symmetry operations  ... done
Creating atom transfer table      ... done
Creating asymmetric unit          ... done

----------------------
ASYMMETRIC UNIT IN C2h
----------------------
  #  AT     MASS              COORDS (A.U.)             BAS
   0 C   12.0110  -2.70972490  -2.21906615  -0.00000000   0
   1 H    1.0080  -1.76789072  -4.06052702  -0.00000000   0
   2 H    1.0080  -4.77359684  -2.21575958   0.00000000   0
   3 C   12.0110  -1.37617900  -0.06009442   0.00000000   0
   4 H    1.0080  -2.37461538   1.75637816   0.00000000   0

----------------------
SYMMETRY ADAPTED BASIS
----------------------
The coefficients for the symmetry adapted linear combinations (SALCS)
of basis functions will now be computed:
Number of basis functions         ...   204
Preparing memory                  ... done
Constructing Gamma(red)           ... done
Reducing Gamma(red)               ... done
Constructing SALCs                ... done
Checking SALC integrity           ... nothing suspicious
Normalizing SALCs                 ... done

Storing the symmetry object:
Symmetry file                     ... trans-1,3-bivinyl-cas44.sym.tmp
Writing symmetry information      ... done

                       ****************************
                       * Single Point Calculation *
                       ****************************

---------------------------------
CARTESIAN COORDINATES (ANGSTROEM)
---------------------------------
  C     -1.433925   -1.174279   -0.000000
  H     -0.935527   -2.148738   -0.000000
  H     -2.526079   -1.172529    0.000000
  C     -0.728243   -0.031801    0.000000
  H     -1.256592    0.929435    0.000000
  C      0.728243    0.031801    0.000000
  H      1.256592   -0.929435    0.000000
  C      1.433925    1.174279   -0.000000
  H      0.935527    2.148738   -0.000000
  H      2.526079    1.172529    0.000000

----------------------------
CARTESIAN COORDINATES (A.U.)
----------------------------
  NO LB      ZA    FRAG     MASS         X           Y           Z
   0 C     6.0000    0    12.011   -2.709725   -2.219066   -0.000000
   1 H     1.0000    0     1.008   -1.767891   -4.060527   -0.000000
   2 H     1.0000    0     1.008   -4.773597   -2.215760    0.000000
   3 C     6.0000    0    12.011   -1.376179   -0.060094    0.000000
   4 H     1.0000    0     1.008   -2.374615    1.756378    0.000000
   5 C     6.0000    0    12.011    1.376179    0.060094    0.000000
   6 H     1.0000    0     1.008    2.374615   -1.756378    0.000000
   7 C     6.0000    0    12.011    2.709725    2.219066   -0.000000
   8 H     1.0000    0     1.008    1.767891    4.060527   -0.000000
   9 H     1.0000    0     1.008    4.773597    2.215760    0.000000

--------------------------------
INTERNAL COORDINATES (ANGSTROEM)
--------------------------------
 C      0   0   0     0.000000000000     0.00000000     0.00000000
 H      1   0   0     1.094518321813     0.00000000     0.00000000
 H      1   2   0     1.092155396964   117.17973790     0.00000000
 C      1   2   3     1.342849460816   121.20940807   180.00000148
 H      4   1   2     1.096871881111   119.50165669   179.99999609
 C      4   1   2     1.457873119266   124.20302112     0.00000000
 H      6   4   1     1.096871877279   116.29530063     0.00000000
 C      6   4   1     1.342849446383   124.20303242   179.99995867
 H      8   6   4     1.094518292660   121.20941355     0.00000000
 H      8   6   4     1.092155389020   121.61084994   180.00003158

---------------------------
INTERNAL COORDINATES (A.U.)
---------------------------
 C      0   0   0     0.000000000000     0.00000000     0.00000000
 H      1   0   0     2.068339876786     0.00000000     0.00000000
 H      1   2   0     2.063874595946   117.17973790     0.00000000
 C      1   2   3     2.537617720026   121.20940807   180.00000148
 H      4   1   2     2.072787459298   119.50165669   179.99999609
 C      4   1   2     2.754980933417   124.20302112     0.00000000
 H      6   4   1     2.072787452057   116.29530063     0.00000000
 C      6   4   1     2.537617692751   124.20303242   179.99995867
 H      8   6   4     2.068339821694   121.20941355     0.00000000
 H      8   6   4     2.063874580934   121.61084994   180.00003158

---------------------
BASIS SET INFORMATION
---------------------
There are 2 groups of distinct atoms

 Group   1 Type C   : 18s5p2d1f contracted to 4s3p2d1f pattern {8811/311/11/1}
 Group   2 Type H   : 5s2p1d contracted to 3s2p1d pattern {311/11/1}

Atom   0C    basis set group =>   1
Atom   1H    basis set group =>   2
Atom   2H    basis set group =>   2
Atom   3C    basis set group =>   1
Atom   4H    basis set group =>   2
Atom   5C    basis set group =>   1
Atom   6H    basis set group =>   2
Atom   7C    basis set group =>   1
Atom   8H    basis set group =>   2
Atom   9H    basis set group =>   2
---------------------------------
AUXILIARY/C BASIS SET INFORMATION
---------------------------------
There are 2 groups of distinct atoms

 Group   1 Type C   : 10s7p5d2f1g contracted to 10s7p5d2f1g pattern {1111111111/1111111/11111/11/1}
 Group   2 Type H   : 4s3p2d1f contracted to 4s3p2d1f pattern {1111/111/11/1}

Atom   0C    basis set group =>   1
Atom   1H    basis set group =>   2
Atom   2H    basis set group =>   2
Atom   3C    basis set group =>   1
Atom   4H    basis set group =>   2
Atom   5C    basis set group =>   1
Atom   6H    basis set group =>   2
Atom   7C    basis set group =>   1
Atom   8H    basis set group =>   2
Atom   9H    basis set group =>   2
----------------------------------
AUXILIARY/JK BASIS SET INFORMATION
----------------------------------
There are 2 groups of distinct atoms

 Group   1 Type C   : 10s7p5d2f1g contracted to 10s7p5d2f1g pattern {1111111111/1111111/11111/11/1}
 Group   2 Type H   : 4s3p2d1f contracted to 4s3p2d1f pattern {1111/111/11/1}

Atom   0C    basis set group =>   1
Atom   1H    basis set group =>   2
Atom   2H    basis set group =>   2
Atom   3C    basis set group =>   1
Atom   4H    basis set group =>   2
Atom   5C    basis set group =>   1
Atom   6H    basis set group =>   2
Atom   7C    basis set group =>   1
Atom   8H    basis set group =>   2
Atom   9H    basis set group =>   2
--------------------------------------------------------------------------
WARNING: There was an error initializing an OpenFabrics device.

  Local host:   cnode14
  Local device: mlx5_0
--------------------------------------------------------------------------


           ************************************************************
           *        Program running with 8 parallel MPI-processes     *
           *              working on a common directory               *
           ************************************************************
------------------------------------------------------------------------------
                           ORCA GTO INTEGRAL CALCULATION
                           -- RI-GTO INTEGRALS CHOSEN --
------------------------------------------------------------------------------
------------------------------------------------------------------------------
                   ___                                                        
                  /   \      - P O W E R E D   B Y -                         
                 /     \                                                     
                 |  |  |   _    _      __       _____    __    __             
                 |  |  |  | |  | |    /  \     |  _  \  |  |  /  |          
                  \  \/   | |  | |   /    \    | | | |  |  | /  /          
                 / \  \   | |__| |  /  /\  \   | |_| |  |  |/  /          
                |  |  |   |  __  | /  /__\  \  |    /   |      \           
                |  |  |   | |  | | |   __   |  |    \   |  |\   \          
                \     /   | |  | | |  |  |  |  | |\  \  |  | \   \       
                 \___/    |_|  |_| |__|  |__|  |_| \__\ |__|  \__/        
                                                                              
                      - O R C A' S   B I G   F R I E N D -                    
                                      &                                       
                       - I N T E G R A L  F E E D E R -                       
                                                                              
 v1 FN, 2020, v2 2021                                                         
------------------------------------------------------------------------------


Reading SHARK input file trans-1,3-bivinyl-cas44.SHARKINP.tmp ... ok
----------------------
SHARK INTEGRAL PACKAGE
----------------------

Number of atoms                             ...     10
Number of basis functions                   ...    204
Number of shells                            ...     76
Maximum angular momentum                    ...      3
Integral batch strategy                     ... SHARK/LIBINT Hybrid
RI-J (if used) integral strategy            ... SPLIT-RIJ (Revised 2003 algorithm where possible)
Printlevel                                  ...      1
Contraction scheme used                     ... SEGMENTED contraction
Coulomb Range Separation                    ... NOT USED
Exchange Range Separation                   ... NOT USED
Finite Nucleus Model                        ... NOT USED
Auxiliary Coulomb fitting basis             ... NOT available
Auxiliary J/K fitting basis                 ... AVAILABLE
   # of basis functions in Aux-JK           ...    496
   # of shells in Aux-JK                    ...    160
   Maximum angular momentum in Aux-JK       ...      4
Auxiliary Correlation fitting basis         ... AVAILABLE
   # of basis functions in Aux-C            ...    496
   # of shells in Aux-C                     ...    160
   Maximum angular momentum in Aux-C        ...      4
Auxiliary 'external' fitting basis          ... NOT available
Integral threshold                          ...     1.000000e-10
Primitive cut-off                           ...     1.000000e-11
Primitive pair pre-selection threshold      ...     1.000000e-11

Calculating pre-screening integrals         ... done (  0.1 sec) Dimension = 76
Organizing shell pair data                  ... done (  0.0 sec)
Shell pair information
Total number of shell pairs                 ...      2926
Shell pairs after pre-screening             ...      2821
Total number of primitive shell pairs       ...     11882
Primitive shell pairs kept                  ...      8996
          la=0 lb=0:    581 shell pairs
          la=1 lb=0:    790 shell pairs
          la=1 lb=1:    287 shell pairs
          la=2 lb=0:    458 shell pairs
          la=2 lb=1:    314 shell pairs
          la=2 lb=2:     99 shell pairs
          la=3 lb=0:    134 shell pairs
          la=3 lb=1:     94 shell pairs
          la=3 lb=2:     54 shell pairs
          la=3 lb=3:     10 shell pairs

Calculating one electron integrals          ... done (  0.0 sec)
Calculating RI/JK V-Matrix + Cholesky decomp... done (  0.0 sec)
Calculating RI/C V-Matrix + Cholesky decomp.... done (  0.0 sec)
Calculating Nuclear repulsion               ... done (  0.0 sec) ENN=    103.335139128354 Eh

SHARK setup successfully completed in   0.2 seconds

Maximum memory used throughout the entire GTOINT-calculation: 17.5 MB
[cnode14:35679] 7 more processes have sent help message help-mpi-btl-openib.txt / error in device init
[cnode14:35679] Set MCA parameter "orte_base_help_aggregate" to 0 to see all help / error messages
--------------------------------------------------------------------------
WARNING: There was an error initializing an OpenFabrics device.

  Local host:   cnode14
  Local device: mlx5_0
--------------------------------------------------------------------------


           ************************************************************
           *        Program running with 8 parallel MPI-processes     *
           *              working on a common directory               *
           ************************************************************
-------------------------------------------------------------------------------
                                 ORCA SCF
-------------------------------------------------------------------------------

------------
SCF SETTINGS
------------
Hamiltonian:
 Ab initio Hamiltonian  Method          .... Hartree-Fock(GTOs)
 RI-approximation to the Coulomb term is turned on
   Number of AuxJK basis functions      .... 496
   RI-JK (J+K treated both via RI)      .... on


General Settings:
 Integral files         IntName         .... trans-1,3-bivinyl-cas44
 Hartree-Fock type      HFTyp           .... CASSCF
 Total Charge           Charge          ....    0
 Multiplicity           Mult            ....    1
 Number of Electrons    NEL             ....   30
 Basis Dimension        Dim             ....  204
 Nuclear Repulsion      ENuc            ....    103.3351391284 Eh

 Symmetry handling      UseSym         .... ON
 Point group                           .... C2h
 Used point group                      .... C2h
 Number of irreps                      .... 4
   Irrep   Ag has   70 symmetry adapted basis functions (ofs=   0)
   Irrep   Bg has   32 symmetry adapted basis functions (ofs=  70)
   Irrep   Au has   32 symmetry adapted basis functions (ofs= 102)
   Irrep   Bu has   70 symmetry adapted basis functions (ofs= 134)


Diagonalization of the overlap matrix:
Smallest eigenvalue                        ... 3.214e-04
Time for diagonalization                   ...    0.004 sec
Threshold for overlap eigenvalues          ... 1.000e-08
Number of eigenvalues below threshold      ... 0
Time for construction of square roots      ...    0.005 sec
Producing symmetrization matrix            ... done (   0.003 sec)
Total time needed                          ...    0.012 sec

---------------------
INITIAL GUESS: MOREAD
---------------------
Guess MOs are being read from file: trans-1,3-bivinyl-rhf.gbw
Input Geometry matches current geometry (good)
Input basis set matches current basis set (good)
Warning: Geometry matches/Basis set matches and symmetry is to be used
         We proceed in good trust that the input orbitals and irreps are correct
MOs were renormalized
Gram-Schmidt orthogonalization of all MOs with pivot on actives
-----------------
ORBITAL ROTATIONS
-----------------
  Rotation  16(0)   19(0) cos(t)= 0.000000  sin(t)= 1.000000
  Orbital Energies were swapped
  IRREP designations were swapped
Irrep occupations for operator 0
    Ag -    7
    Bg -    1
    Au -    1
    Bu -    6
                      ------------------
                      INITIAL GUESS DONE (   0.1 sec)
                      ------------------


 ... the calculation is a CASSCF calculation -I'm leaving here GOOD LUCK!!!

[cnode14:35740] 7 more processes have sent help message help-mpi-btl-openib.txt / error in device init
[cnode14:35740] Set MCA parameter "orte_base_help_aggregate" to 0 to see all help / error messages
--------------------------------------------------------------------------
WARNING: There was an error initializing an OpenFabrics device.

  Local host:   cnode14
  Local device: mlx5_0
--------------------------------------------------------------------------


           ************************************************************
           *        Program running with 8 parallel MPI-processes     *
           *              working on a common directory               *
           ************************************************************
-------------------------------------------------------------------------------
                              ORCA-CASSCF
-------------------------------------------------------------------------------

Symmetry handling      UseSym     ... ON
Point group                       ... C2h
Used point group                  ... C2h
Number of irreps                  ... 4
   Irrep   Ag has   70 SALCs (ofs=   0) #(closed)=   7 #(active)=   0
   Irrep   Bg has   32 SALCs (ofs=  70) #(closed)=   0 #(active)=   2
   Irrep   Au has   32 SALCs (ofs= 102) #(closed)=   0 #(active)=   2
   Irrep   Bu has   70 SALCs (ofs= 134) #(closed)=   6 #(active)=   0
 Symmetries of active orbitals:
   MO =   13  IRREP= 2 (Au)
   MO =   14  IRREP= 1 (Bg)
   MO =   15  IRREP= 2 (Au)
   MO =   16  IRREP= 1 (Bg)

Setting up the integral package       ... done
Setting up the integral package (RI)  ... done
Building the CAS space                ... done (11 configurations for Mult=1 Irrep=0)

SYSTEM-SPECIFIC SETTINGS:
Number of active electrons          ...    4
Number of active orbitals           ...    4
Total number of electrons           ...   30
Total number of orbitals            ...  204
Total number aux. functions         ...  496

Determined orbital ranges:
   Internal       0 -   12 (  13 orbitals)
   Active        13 -   16 (   4 orbitals)
   External      17 -  203 ( 187 orbitals)
Number of rotation parameters      ...    945

CI-STEP:
CI strategy                         ... General CI
Number of symmetry/multplity blocks ...    1
BLOCK  1 WEIGHT=   1.0000
  Multiplicity                      ...    1
  Irrep                             ...    0 (Ag)
  #(Configurations)                 ...   11
  #(CSFs)                           ...   12
  #(Roots)                          ...    1
    ROOT=0 WEIGHT=    1.000000

  PrintLevel                        ...    1
  N(GuessMat)                       ...       512
  MaxDim(CI)                        ...        10
  MaxIter(CI)                       ...        64
  Energy Tolerance CI               ...  1.00e-08
  Residual Tolerance CI             ...  1.00e-08
  Shift(CI)                         ...  1.00e-04

INTEGRAL-TRANSFORMATION-STEP:
  Algorithm                         ... RI-MO

ORBITAL-IMPROVEMENT-STEP:
  Algorithm                         ... SuperCI(PT)
  Default Parametrization           ... CAYLEY
  Act-Act rotations                 ... depends on algorithm used

  Note: SuperCI(PT) will ignore FreezeIE, FreezeAct and FreezeGrad. In general Default settings are encouraged.
        In conjunction with ShiftUp, ShiftDn or GradScaling the performance of SuperCI(PT) is less optimal.  

  MaxRot                            ... 2.00e-01 
  Max. no of vectors (DIIS)         ... 15
  DThresh (cut-off) metric          ... 1.00e-06
  Switch step at gradient           ...  3.00e-02 
  Switch step at iteration          ...        50   
  Switch step to                    ... SuperCI(PT)    

SCF-SETTINGS:
  Incremental                       ... off
  RIJCOSX approximation             ... off
  RI-JK approximation               ... on
  AO integral handling              ... DIRECT
  Integral Neglect Thresh           ...  1.00e-10
  Primitive cutoff TCut             ...  1.00e-11
  Energy convergence tolerance      ...  1.00e-07
  Orbital gradient convergence      ...  1.00e-03
  Max. number of iterations         ...        75  


FINAL ORBITALS:
  Active   Orbitals                 ... natural 
  Internal Orbitals                 ... canonical 
  External Orbitals                 ... canonical 

------------------
CAS-SCF ITERATIONS
------------------


MACRO-ITERATION   1: 
   --- Inactive Energy E0 = -151.72864512 Eh
CI-ITERATION   0: 
  -155.003754111   0.000000000000 (    0.00)
   CI-PROBLEM SOLVED
   DENSITIES MADE

                 <<<<<<<<<<<<<<<<<<INITIAL CI STATE CHECK>>>>>>>>>>>>>>>>>>

BLOCK  1 MULT= 1 NROOTS= 1  IRREP=Ag 
ROOT   0:  E=    -155.0037541112 Eh
      0.94887 [     0]: 2200
      0.02325 [     2]: 2020
      0.01775 [     5]: 1111
      0.00460 [     7]: 0220
      0.00288 [     8]: 0202

                 <<<<<<<<<<<<<<<<<<INITIAL CI STATE CHECK>>>>>>>>>>>>>>>>>>

   E(CAS)=  -155.003754111 Eh DE=    0.000000e+00
   --- Energy gap subspaces: Ext-Act = -0.046   Act-Int = 0.054
   N(occ)=  1.96633 1.93059 0.07441 0.02867
   ||g|| =     8.375344e-02 Max(G)=    3.986312e-02 Rot=33,15
   --- Orbital Update [SuperCI(PT)]
   --- Canonicalize Internal Space
   --- Canonicalize External Space
   --- SX_PT (Skipped TA=0 IT=0): ||X|| =      0.560045279 Max(X)(32,16) =      0.484287820 
   --- SFit(Active Orbitals)

MACRO-ITERATION   2: 
   --- Inactive Energy E0 = -151.73435198 Eh
CI-ITERATION   0: 
  -155.021376242   0.000000000000 (    0.00)
   CI-PROBLEM SOLVED
   DENSITIES MADE
   E(CAS)=  -155.021376242 Eh DE=   -1.762213e-02
   --- Energy gap subspaces: Ext-Act = -0.073   Act-Int = 0.058
   N(occ)=  1.94192 1.89390 0.11133 0.05286
   ||g|| =     7.003139e-02 Max(G)=   -3.668041e-02 Rot=32,16
   --- Orbital Update [SuperCI(PT)]
   --- Canonicalize Internal Space
   --- Canonicalize External Space
   --- SX_PT (Skipped TA=0 IT=0): ||X|| =      0.288260886 Max(X)(32,16) =      0.275161450 
   --- SFit(Active Orbitals)

MACRO-ITERATION   3: 
   --- Inactive Energy E0 = -151.72556803 Eh
CI-ITERATION   0: 
  -155.029303334   0.000000000000 (    0.00)
   CI-PROBLEM SOLVED
   DENSITIES MADE
   E(CAS)=  -155.029303334 Eh DE=   -7.927092e-03
   --- Energy gap subspaces: Ext-Act = -0.134   Act-Int = 0.059
   N(occ)=  1.93412 1.88675 0.11749 0.06163
   ||g|| =     3.456277e-02 Max(G)=    1.595619e-02 Rot=30,14
   --- Orbital Update [SuperCI(PT)]
   --- Canonicalize Internal Space
   --- Canonicalize External Space
   --- SX_PT (Skipped TA=0 IT=0): ||X|| =      0.069581543 Max(X)(32,16) =     -0.051665722 
   --- SFit(Active Orbitals)

MACRO-ITERATION   4: 
   --- Inactive Energy E0 = -151.71545821 Eh
CI-ITERATION   0: 
  -155.030016828   0.000000000000 (    0.00)
   CI-PROBLEM SOLVED
   DENSITIES MADE
   E(CAS)=  -155.030016828 Eh DE=   -7.134937e-04
   --- Energy gap subspaces: Ext-Act = -0.168   Act-Int = 0.057
   N(occ)=  1.93507 1.88736 0.11745 0.06011
   ||g|| =     8.701726e-03 Max(G)=    3.311867e-03 Rot=30,14
   --- Orbital Update [SuperCI(PT)]
   --- Canonicalize Internal Space
   --- Canonicalize External Space
   --- SX_PT (Skipped TA=0 IT=0): ||X|| =      0.015242728 Max(X)(30,16) =     -0.012552964 
   --- SFit(Active Orbitals)

MACRO-ITERATION   5: 
   --- Inactive Energy E0 = -151.71413567 Eh
CI-ITERATION   0: 
  -155.030045216   0.000000000000 (    0.00)
   CI-PROBLEM SOLVED
   DENSITIES MADE
   E(CAS)=  -155.030045216 Eh DE=   -2.838813e-05
   --- Energy gap subspaces: Ext-Act = -0.162   Act-Int = 0.057
   N(occ)=  1.93466 1.88704 0.11764 0.06066
   ||g|| =     4.038909e-03 Max(G)=    1.998834e-03 Rot=30,14
   --- Orbital Update [SuperCI(PT)]
   --- Canonicalize Internal Space
   --- Canonicalize External Space
   --- SX_PT (Skipped TA=0 IT=0): ||X|| =      0.005038711 Max(X)(30,16) =      0.003983837 
   --- SFit(Active Orbitals)

MACRO-ITERATION   6: 
[cnode14:35801] 7 more processes have sent help message help-mpi-btl-openib.txt / error in device init
[cnode14:35801] Set MCA parameter "orte_base_help_aggregate" to 0 to see all help / error messages
   --- Inactive Energy E0 = -151.71276215 Eh
CI-ITERATION   0: 
  -155.030051203   0.000000000000 (    0.00)
   CI-PROBLEM SOLVED
   DENSITIES MADE
   E(CAS)=  -155.030051203 Eh DE=   -5.987813e-06
   --- Energy gap subspaces: Ext-Act = -0.164   Act-Int = 0.057
   N(occ)=  1.93471 1.88705 0.11768 0.06057
   ||g|| =     4.001605e-04 Max(G)=    1.014970e-04 Rot=30,14
                     ---- THE CAS-SCF GRADIENT HAS CONVERGED ----
                            --- FINALIZING ORBITALS ---
                    ---- DOING ONE FINAL ITERATION FOR PRINTING ----
   --- Forming Natural Orbitals
   --- Canonicalize Internal Space
   --- Canonicalize External Space

MACRO-ITERATION   7: 
   --- Inactive Energy E0 = -151.71276215 Eh
   --- All densities will be recomputed
CI-ITERATION   0: 
  -155.030051203   0.000000000000 (    0.00)
   CI-PROBLEM SOLVED
   DENSITIES MADE
   E(CAS)=  -155.030051203 Eh DE=    5.928769e-10
   --- Energy gap subspaces: Ext-Act = -0.168   Act-Int = 0.057
   N(occ)=  0.11767 0.06047 1.93472 1.88714
   ||g|| =     3.489495e-04 Max(G)=   -9.420679e-05 Rot=26,15
--------------
CASSCF RESULTS
--------------

Final CASSCF energy       : -155.030051203 Eh   -4218.5822 eV

----------------
ORBITAL ENERGIES
----------------

  NO   OCC          E(Eh)            E(eV)    Irrep 
   0   2.0000     -11.228194      -305.5347    1-Ag
   1   2.0000     -11.227371      -305.5123    1-Bu
   2   2.0000     -11.219750      -305.3049    2-Ag
   3   2.0000     -11.219740      -305.3047    2-Bu
   4   2.0000      -1.082607       -29.4592    3-Ag
   5   2.0000      -0.991475       -26.9794    3-Bu
   6   2.0000      -0.818681       -22.2774    4-Ag
   7   2.0000      -0.745039       -20.2735    4-Bu
   8   2.0000      -0.635892       -17.3035    5-Bu
   9   2.0000      -0.626114       -17.0374    5-Ag
  10   2.0000      -0.550116       -14.9694    6-Ag
  11   2.0000      -0.536354       -14.5949    6-Bu
  12   2.0000      -0.486387       -13.2353    7-Ag
  13   0.1177       0.148343         4.0366    1-Au
  14   0.0605       0.328483         8.9385    1-Bg
  15   1.9347      -0.429203       -11.6792    2-Au
  16   1.8871      -0.306307        -8.3350    2-Bg
  17   0.0000       0.160258         4.3608    8-Ag
  18   0.0000       0.164578         4.4784    7-Bu
  19   0.0000       0.171921         4.6782    8-Bu
  20   0.0000       0.215346         5.8599    9-Ag
  21   0.0000       0.225335         6.1317   10-Ag
  22   0.0000       0.247828         6.7437    9-Bu
  23   0.0000       0.311406         8.4738   10-Bu
  24   0.0000       0.355565         9.6754   11-Ag
  25   0.0000       0.426832        11.6147   12-Ag
  26   0.0000       0.431070        11.7300    3-Au
  27   0.0000       0.448146        12.1947    3-Bg
  28   0.0000       0.458633        12.4800   13-Ag
  29   0.0000       0.467044        12.7089   11-Bu
  30   0.0000       0.475143        12.9293   12-Bu
  31   0.0000       0.494621        13.4593    4-Bg
  32   0.0000       0.508870        13.8471   13-Bu
  33   0.0000       0.537496        14.6260    4-Au
  34   0.0000       0.581296        15.8179   14-Bu
  35   0.0000       0.587444        15.9852   14-Ag
  36   0.0000       0.608657        16.5624   15-Bu
  37   0.0000       0.628235        17.0951   15-Ag
  38   0.0000       0.643873        17.5207   16-Ag
  39   0.0000       0.660788        17.9810   16-Bu
  40   0.0000       0.673831        18.3359   17-Ag
  41   0.0000       0.685022        18.6404   17-Bu
  42   0.0000       0.705593        19.2002    5-Au
  43   0.0000       0.755501        20.5582    5-Bg
  44   0.0000       0.773675        21.0528   18-Bu
  45   0.0000       0.818088        22.2613   19-Bu
  46   0.0000       0.828846        22.5541    6-Bg
  47   0.0000       0.835883        22.7455   18-Ag
  48   0.0000       0.866489        23.5784   19-Ag
  49   0.0000       0.874859        23.8061    6-Au
  50   0.0000       0.900350        24.4998   20-Bu
  51   0.0000       0.907693        24.6996   20-Ag
  52   0.0000       0.949222        25.8297    7-Au
  53   0.0000       1.064695        28.9718   21-Bu
  54   0.0000       1.082685        29.4614   22-Bu
  55   0.0000       1.092991        29.7418   21-Ag
  56   0.0000       1.096219        29.8296   22-Ag
  57   0.0000       1.134284        30.8654   23-Ag
  58   0.0000       1.137930        30.9646    7-Bg
  59   0.0000       1.191756        32.4293    8-Au
  60   0.0000       1.202866        32.7317    8-Bg
  61   0.0000       1.237140        33.6643    9-Bg
  62   0.0000       1.242158        33.8008    9-Au
  63   0.0000       1.309080        35.6219   24-Ag
  64   0.0000       1.335256        36.3342   23-Bu
  65   0.0000       1.343554        36.5600   24-Bu
  66   0.0000       1.373400        37.3721   25-Ag
  67   0.0000       1.407339        38.2957   10-Bg
  68   0.0000       1.418404        38.5967   25-Bu
  69   0.0000       1.425103        38.7790   26-Bu
  70   0.0000       1.477998        40.2184   10-Au
  71   0.0000       1.497584        40.7513   26-Ag
  72   0.0000       1.541989        41.9597   27-Bu
  73   0.0000       1.573622        42.8204   27-Ag
  74   0.0000       1.618899        44.0525   28-Bu
  75   0.0000       1.633586        44.4521   28-Ag
  76   0.0000       1.655504        45.0485   11-Au
  77   0.0000       1.680945        45.7408   29-Ag
  78   0.0000       1.700127        46.2628   11-Bg
  79   0.0000       1.709671        46.5225   30-Ag
  80   0.0000       1.725713        46.9590   29-Bu
  81   0.0000       1.767836        48.1052   30-Bu
  82   0.0000       1.886990        51.3476   31-Bu
  83   0.0000       1.970273        53.6139   31-Ag
  84   0.0000       1.978081        53.8263   32-Bu
  85   0.0000       2.243677        61.0535   32-Ag
  86   0.0000       2.347422        63.8766   12-Au
  87   0.0000       2.358003        64.1645   33-Ag
  88   0.0000       2.423674        65.9515   12-Bg
  89   0.0000       2.472126        67.2700   33-Bu
  90   0.0000       2.547881        69.3314   34-Ag
  91   0.0000       2.562722        69.7352   13-Au
  92   0.0000       2.601919        70.8018   34-Bu
  93   0.0000       2.607916        70.9650   13-Bg
  94   0.0000       2.651973        72.1639   35-Bu
  95   0.0000       2.732199        74.3469   14-Bg
  96   0.0000       2.749812        74.8262   14-Au
  97   0.0000       2.752407        74.8968   35-Ag
  98   0.0000       2.776999        75.5660   36-Ag
  99   0.0000       2.835074        77.1463   36-Bu
 100   0.0000       2.866892        78.0121   37-Ag
 101   0.0000       2.937428        79.9315   37-Bu
 102   0.0000       2.975481        80.9670   38-Ag
 103   0.0000       2.986227        81.2594   15-Au
 104   0.0000       3.041448        82.7620   39-Ag
 105   0.0000       3.048768        82.9612   16-Au
 106   0.0000       3.050567        83.0101   15-Bg
 107   0.0000       3.091745        84.1307   16-Bg
 108   0.0000       3.095022        84.2198   38-Bu
 109   0.0000       3.128793        85.1388   39-Bu
 110   0.0000       3.138678        85.4078   17-Au
 111   0.0000       3.185123        86.6716   17-Bg
 112   0.0000       3.192510        86.8726   18-Au
 113   0.0000       3.199003        87.0493   40-Ag
 114   0.0000       3.210787        87.3700   40-Bu
 115   0.0000       3.239926        88.1629   41-Ag
 116   0.0000       3.259168        88.6865   18-Bg
 117   0.0000       3.305102        89.9364   41-Bu
 118   0.0000       3.320661        90.3598   19-Au
 119   0.0000       3.332257        90.6753   42-Bu
 120   0.0000       3.359890        91.4273   42-Ag
 121   0.0000       3.372012        91.7571   19-Bg
 122   0.0000       3.390460        92.2591   43-Ag
 123   0.0000       3.424124        93.1751   43-Bu
 124   0.0000       3.429781        93.3291   44-Bu
 125   0.0000       3.455972        94.0418   20-Au
 126   0.0000       3.481486        94.7361   44-Ag
 127   0.0000       3.491294        95.0029   20-Bg
 128   0.0000       3.514763        95.6416   45-Bu
 129   0.0000       3.533728        96.1576   45-Ag
 130   0.0000       3.592527        97.7576   21-Au
 131   0.0000       3.616510        98.4102   21-Bg
 132   0.0000       3.626362        98.6783   22-Au
 133   0.0000       3.664731        99.7224   46-Bu
 134   0.0000       3.698690       100.6465   46-Ag
 135   0.0000       3.767593       102.5214   22-Bg
 136   0.0000       3.775161       102.7273   47-Ag
 137   0.0000       3.794147       103.2440   47-Bu
 138   0.0000       3.814511       103.7981   48-Ag
 139   0.0000       3.858728       105.0013   48-Bu
 140   0.0000       3.868102       105.2564   49-Ag
 141   0.0000       3.904711       106.2526   23-Bg
 142   0.0000       3.911502       106.4374   23-Au
 143   0.0000       3.976610       108.2091   49-Bu
 144   0.0000       4.024448       109.5108   50-Ag
 145   0.0000       4.049852       110.2021   24-Au
 146   0.0000       4.054799       110.3367   50-Bu
 147   0.0000       4.094108       111.4064   51-Ag
 148   0.0000       4.095653       111.4484   24-Bg
 149   0.0000       4.131527       112.4246   51-Bu
 150   0.0000       4.148109       112.8758   25-Au
 151   0.0000       4.149695       112.9189   52-Ag
 152   0.0000       4.189566       114.0039   52-Bu
 153   0.0000       4.207630       114.4954   25-Bg
 154   0.0000       4.272031       116.2479   26-Bg
 155   0.0000       4.273571       116.2898   53-Bu
 156   0.0000       4.308734       117.2466   54-Bu
 157   0.0000       4.318253       117.5056   26-Au
 158   0.0000       4.339162       118.0746   53-Ag
 159   0.0000       4.342767       118.1727   27-Au
 160   0.0000       4.394979       119.5935   27-Bg
 161   0.0000       4.403036       119.8127   54-Ag
 162   0.0000       4.455491       121.2401   55-Ag
 163   0.0000       4.493873       122.2845   28-Au
 164   0.0000       4.540747       123.5600   55-Bu
 165   0.0000       4.580209       124.6338   56-Ag
 166   0.0000       4.684041       127.4592   56-Bu
 167   0.0000       4.685484       127.4985   28-Bg
 168   0.0000       4.713750       128.2677   57-Bu
 169   0.0000       4.776914       129.9864   57-Ag
 170   0.0000       4.809836       130.8823   29-Au
 171   0.0000       4.863986       132.3558   29-Bg
 172   0.0000       4.864875       132.3800   58-Ag
 173   0.0000       4.915014       133.7443   58-Bu
 174   0.0000       4.958988       134.9409   30-Au
 175   0.0000       4.970242       135.2472   59-Ag
 176   0.0000       5.027622       136.8086   59-Bu
 177   0.0000       5.096865       138.6927   30-Bg
 178   0.0000       5.145422       140.0141   60-Ag
 179   0.0000       5.173446       140.7766   60-Bu
 180   0.0000       5.260678       143.1503   61-Ag
 181   0.0000       5.282970       143.7569   31-Au
 182   0.0000       5.290416       143.9595   61-Bu
 183   0.0000       5.313348       144.5835   31-Bg
 184   0.0000       5.403186       147.0282   62-Ag
 185   0.0000       5.433641       147.8569   63-Ag
 186   0.0000       5.461739       148.6215   32-Bg
 187   0.0000       5.490838       149.4133   32-Au
 188   0.0000       5.497067       149.5828   62-Bu
 189   0.0000       5.690956       154.8588   63-Bu
 190   0.0000       5.767702       156.9471   64-Ag
 191   0.0000       5.795102       157.6927   64-Bu
 192   0.0000       5.823754       158.4724   65-Ag
 193   0.0000       5.914222       160.9342   65-Bu
 194   0.0000       6.253680       170.1713   66-Bu
 195   0.0000       6.299236       171.4109   66-Ag
 196   0.0000       6.354276       172.9086   67-Bu
 197   0.0000       6.463682       175.8857   67-Ag
 198   0.0000       6.481256       176.3639   68-Bu
 199   0.0000       6.939608       188.8363   68-Ag
 200   0.0000      11.879482       323.2571   69-Ag
 201   0.0000      11.907171       324.0106   69-Bu
 202   0.0000      14.362126       390.8133   70-Ag
 203   0.0000      15.024978       408.8504   70-Bu


---------------------------------------------
CAS-SCF STATES FOR BLOCK  1 MULT= 1 IRREP= Ag NROOTS= 1
---------------------------------------------

ROOT   0:  E=    -155.0300512029 Eh
      0.91248 [    10]: 0022
      0.03571 [     5]: 1111
      0.03220 [     2]: 2020
      0.00718 [     3]: 2002
      0.00600 [     8]: 0202
      0.00477 [     7]: 0220


--------------
DENSITY MATRIX
--------------

                  0          1          2          3    
      0       0.117670   0.000000  -0.000000   0.000000
      1       0.000000   0.060472   0.000000   0.000000
      2      -0.000000   0.000000   1.934716   0.000000
      3       0.000000   0.000000   0.000000   1.887143
Trace of the electron density:  4.000000

-----------------
ENERGY COMPONENTS
-----------------

One electron energy          :   -412.306817613 Eh      -11219.4389 eV
Two electron energy          :    153.941627282 Eh        4188.9646 eV
Nuclear repulsion energy     :    103.335139128 Eh        2811.8921 eV
                               ----------------
                                 -155.030051203

Kinetic energy               :    154.793720812 Eh        4212.1513 eV
Potential energy             :   -309.823772015 Eh       -8430.7334 eV
Virial ratio                 :     -2.001526744 
                               ----------------
                                 -155.030051203

Core energy                  :   -151.712762152 Eh    -4128.3141 eV


----------------------------
LOEWDIN ORBITAL-COMPOSITIONS
----------------------------

                      0         1         2         3         4         5   
                 -11.22819 -11.22737 -11.21975 -11.21974  -1.08261  -0.99148
                   2.00000   2.00000   2.00000   2.00000   2.00000   2.00000
                  --------  --------  --------  --------  --------  --------
 0 C  s               0.5       0.6      47.6      47.4       9.9      16.7
 0 C  px              0.1       0.0       0.0       0.0       1.6       0.3
 0 C  py              0.2       0.2       0.0       0.0       2.4       1.3
 0 C  dz2             0.1       0.1       0.0       0.0       0.3       0.3
 0 C  dxy             0.3       0.2       0.0       0.0       0.5       0.1
 0 C  f+3             0.1       0.1       0.0       0.0       0.1       0.1
 1 H  s               0.0       0.0       0.1       0.1       2.2       3.8
 1 H  px              0.0       0.0       0.1       0.1       0.0       0.1
 1 H  py              0.0       0.0       0.3       0.3       0.5       0.8
 2 H  s               0.0       0.0       0.1       0.1       1.9       4.2
 2 H  px              0.0       0.0       0.3       0.3       0.4       1.0
 3 C  s              47.6      47.6       0.5       0.6      21.4       7.1
 3 C  px              0.2       0.2       0.1       0.1       1.1       6.5
 3 C  py              0.0       0.0       0.2       0.2       0.6       4.5
 3 C  dz2             0.1       0.1       0.1       0.1       0.7       0.1
 3 C  dx2y2           0.2       0.2       0.1       0.0       0.2       0.7
 3 C  dxy             0.0       0.0       0.3       0.2       0.3       0.1
 3 C  f+3             0.0       0.0       0.1       0.1       0.2       0.0
 4 H  s               0.2       0.1       0.0       0.0       4.5       1.3
 4 H  px              0.1       0.1       0.0       0.0       0.3       0.0
 4 H  py              0.3       0.3       0.0       0.0       0.8       0.5
 5 C  s              47.6      47.6       0.5       0.6      21.4       7.1
 5 C  px              0.2       0.2       0.1       0.1       1.1       6.5
 5 C  py              0.0       0.0       0.2       0.2       0.6       4.5
 5 C  dz2             0.1       0.1       0.1       0.1       0.7       0.1
 5 C  dx2y2           0.2       0.2       0.1       0.0       0.2       0.7
 5 C  dxy             0.0       0.0       0.3       0.2       0.3       0.1
 5 C  f+3             0.0       0.0       0.1       0.1       0.2       0.0
 6 H  s               0.2       0.1       0.0       0.0       4.5       1.3
 6 H  px              0.1       0.1       0.0       0.0       0.3       0.0
 6 H  py              0.3       0.3       0.0       0.0       0.8       0.5
 7 C  s               0.5       0.6      47.6      47.4       9.9      16.7
 7 C  px              0.1       0.0       0.0       0.0       1.6       0.3
 7 C  py              0.2       0.2       0.0       0.0       2.4       1.3
 7 C  dz2             0.1       0.1       0.0       0.0       0.3       0.3
 7 C  dxy             0.3       0.2       0.0       0.0       0.5       0.1
 7 C  f+3             0.1       0.1       0.0       0.0       0.1       0.1
 8 H  s               0.0       0.0       0.1       0.1       2.2       3.8
 8 H  px              0.0       0.0       0.1       0.1       0.0       0.1
 8 H  py              0.0       0.0       0.3       0.3       0.5       0.8
 9 H  s               0.0       0.0       0.1       0.1       1.9       4.2
 9 H  px              0.0       0.0       0.3       0.3       0.4       1.0

                      6         7         8         9        10        11   
                  -0.81868  -0.74504  -0.63589  -0.62611  -0.55012  -0.53635
                   2.00000   2.00000   2.00000   2.00000   2.00000   2.00000
                  --------  --------  --------  --------  --------  --------
 0 C  s              10.5       2.0       0.6       0.1       0.4       0.0
 0 C  px              2.5       0.0      16.2       6.3      10.0       7.6
 0 C  py              2.3       8.3       4.5      12.1       7.2      10.5
 0 C  dz2             0.0       0.0       0.0       0.0       0.2       0.0
 0 C  dx2y2           0.0       0.6       0.2       0.0       0.4       2.1
 0 C  dxy             0.6       0.2       0.4       0.1       0.2       0.7
 0 C  f-3             0.0       0.1       0.0       0.1       0.0       0.0
 1 H  s               5.2       5.7       0.4       9.0       0.7      11.2
 1 H  px              0.4       0.2       0.7       0.0       0.4       0.0
 1 H  py              0.5       0.3       0.1       0.3       0.2       0.1
 1 H  dx2y2           0.0       0.0       0.1       0.0       0.1       0.0
 2 H  s               7.3       0.9      10.8       2.0       5.9       5.1
 2 H  px              1.1       0.1       0.3       0.1       0.1       0.1
 2 H  py              0.0       0.2       0.2       0.5       0.3       0.4
 2 H  dxy             0.0       0.1       0.0       0.1       0.1       0.1
 3 C  s               4.1       5.4       0.7       0.1       0.2       0.3
 3 C  px              7.6       4.0       0.3      13.8       3.3       0.0
 3 C  py              3.5       8.7      11.0       0.8      12.8       4.8
 3 C  dz2             0.0       0.0       0.1       0.0       0.0       0.0
 3 C  dx2y2           0.6       0.2       0.2       0.1       0.3       1.9
 3 C  dxy             1.2       0.0       0.4       0.1       2.1       0.4
 3 C  f-3             0.0       0.0       0.0       0.2       0.2       0.3
 4 H  s               1.7      11.4       2.2       3.3       4.5       4.0
 4 H  px              0.5       0.2       0.1       0.2       0.4       0.1
 4 H  py              0.1       0.8       0.0       0.4       0.1       0.0
 4 H  dx2y2           0.0       0.0       0.0       0.1       0.0       0.0
 5 C  s               4.1       5.4       0.7       0.1       0.2       0.3
 5 C  px              7.6       4.0       0.3      13.8       3.3       0.0
 5 C  py              3.5       8.7      11.0       0.8      12.8       4.8
 5 C  dz2             0.0       0.0       0.1       0.0       0.0       0.0
 5 C  dx2y2           0.6       0.2       0.2       0.1       0.3       1.9
 5 C  dxy             1.2       0.0       0.4       0.1       2.1       0.4
 5 C  f-3             0.0       0.0       0.0       0.2       0.2       0.3
 6 H  s               1.7      11.4       2.2       3.3       4.5       4.0
 6 H  px              0.5       0.2       0.1       0.2       0.4       0.1
 6 H  py              0.1       0.8       0.0       0.4       0.1       0.0
 6 H  dx2y2           0.0       0.0       0.0       0.1       0.0       0.0
 7 C  s              10.5       2.0       0.6       0.1       0.4       0.0
 7 C  px              2.5       0.0      16.2       6.3      10.0       7.6
 7 C  py              2.3       8.3       4.5      12.1       7.2      10.5
 7 C  dz2             0.0       0.0       0.0       0.0       0.2       0.0
 7 C  dx2y2           0.0       0.6       0.2       0.0       0.4       2.1
 7 C  dxy             0.6       0.2       0.4       0.1       0.2       0.7
 7 C  f-3             0.0       0.1       0.0       0.1       0.0       0.0
 8 H  s               5.2       5.7       0.4       9.0       0.7      11.2
 8 H  px              0.4       0.2       0.7       0.0       0.4       0.0
 8 H  py              0.5       0.3       0.1       0.3       0.2       0.1
 8 H  dx2y2           0.0       0.0       0.1       0.0       0.1       0.0
 9 H  s               7.3       0.9      10.8       2.0       5.9       5.1
 9 H  px              1.1       0.1       0.3       0.1       0.1       0.1
 9 H  py              0.0       0.2       0.2       0.5       0.3       0.4
 9 H  dxy             0.0       0.1       0.0       0.1       0.1       0.1

                     12        13        14        15        16        17   
                  -0.48639   0.14834   0.32848  -0.42920  -0.30631   0.16026
                   2.00000   0.11767   0.06047   1.93472   1.88714   0.00000
                  --------  --------  --------  --------  --------  --------
 0 C  s               0.0       0.0       0.0       0.0       0.0       2.2
 0 C  pz              0.0      23.6      13.3      16.1      27.2       0.0
 0 C  px              5.1       0.0       0.0       0.0       0.0       0.7
 0 C  py              1.7       0.0       0.0       0.0       0.0       0.6
 0 C  dxz             0.0       0.6       0.8       0.4       0.2       0.0
 0 C  dyz             0.0       1.3       2.4       0.9       0.5       0.0
 0 C  dx2y2           3.1       0.0       0.0       0.0       0.0       0.5
 0 C  dxy             1.1       0.0       0.0       0.0       0.0       0.1
 0 C  f0              0.0       0.4       0.6       0.0       0.0       0.0
 0 C  f-2             0.0       0.2       0.3       0.1       0.1       0.0
 0 C  f-3             0.2       0.0       0.0       0.0       0.0       0.0
 1 H  s               4.6       0.0       0.0       0.0       0.0       8.9
 1 H  pz              0.0       1.6       0.9       0.7       1.4       0.0
 1 H  px              0.1       0.0       0.0       0.0       0.0       1.5
 1 H  py              0.0       0.0       0.0       0.0       0.0       0.9
 1 H  dyz             0.0       0.3       0.2       0.1       0.2       0.0
 2 H  s               4.5       0.0       0.0       0.0       0.0      11.2
 2 H  pz              0.0       1.7       0.9       0.7       1.5       0.0
 2 H  px              0.1       0.0       0.0       0.0       0.0       2.9
 2 H  py              0.0       0.0       0.0       0.0       0.0       0.3
 2 H  dxz             0.0       0.4       0.3       0.1       0.3       0.0
 3 C  s               0.2       0.0       0.0       0.0       0.0       0.7
 3 C  pz              0.0      13.1      24.4      28.4      13.2       0.0
 3 C  px             11.8       0.0       0.0       0.0       0.0       0.4
 3 C  py              3.4       0.0       0.0       0.0       0.0       1.1
 3 C  dxz             0.0       2.9       0.7       0.3       2.8       0.0
 3 C  dyz             0.0       2.0       1.0       0.4       1.5       0.0
 3 C  dx2y2           2.4       0.0       0.0       0.0       0.0       0.0
 3 C  dxy             2.2       0.0       0.0       0.0       0.0       0.0
 3 C  f0              0.0       0.2       1.2       0.1       0.0       0.0
 3 C  f+2             0.0       0.4       0.1       0.0       0.2       0.0
 3 C  f-2             0.0       0.3       0.2       0.1       0.1       0.0
 4 H  s               9.1       0.0       0.0       0.0       0.0      15.5
 4 H  pz              0.0       0.8       1.8       1.2       0.7       0.0
 4 H  px              0.2       0.0       0.0       0.0       0.0       0.5
 4 H  py              0.1       0.0       0.0       0.0       0.0       1.7
 4 H  dxz             0.0       0.1       0.1       0.1       0.0       0.0
 4 H  dyz             0.0       0.2       0.4       0.2       0.1       0.0
 5 C  s               0.2       0.0       0.0       0.0       0.0       0.7
 5 C  pz              0.0      13.1      24.4      28.4      13.2       0.0
 5 C  px             11.8       0.0       0.0       0.0       0.0       0.4
 5 C  py              3.4       0.0       0.0       0.0       0.0       1.1
 5 C  dxz             0.0       2.9       0.7       0.3       2.8       0.0
 5 C  dyz             0.0       2.0       1.0       0.4       1.5       0.0
 5 C  dx2y2           2.4       0.0       0.0       0.0       0.0       0.0
 5 C  dxy             2.2       0.0       0.0       0.0       0.0       0.0
 5 C  f0              0.0       0.2       1.2       0.1       0.0       0.0
 5 C  f+2             0.0       0.4       0.1       0.0       0.2       0.0
 5 C  f-2             0.0       0.3       0.2       0.1       0.1       0.0
 6 H  s               9.1       0.0       0.0       0.0       0.0      15.5
 6 H  pz              0.0       0.8       1.8       1.2       0.7       0.0
 6 H  px              0.2       0.0       0.0       0.0       0.0       0.5
 6 H  py              0.1       0.0       0.0       0.0       0.0       1.7
 6 H  dxz             0.0       0.1       0.1       0.1       0.0       0.0
 6 H  dyz             0.0       0.2       0.4       0.2       0.1       0.0
 7 C  s               0.0       0.0       0.0       0.0       0.0       2.2
 7 C  pz              0.0      23.6      13.3      16.1      27.2       0.0
 7 C  px              5.1       0.0       0.0       0.0       0.0       0.7
 7 C  py              1.7       0.0       0.0       0.0       0.0       0.6
 7 C  dxz             0.0       0.6       0.8       0.4       0.2       0.0
 7 C  dyz             0.0       1.3       2.4       0.9       0.5       0.0
 7 C  dx2y2           3.1       0.0       0.0       0.0       0.0       0.5
 7 C  dxy             1.1       0.0       0.0       0.0       0.0       0.1
 7 C  f0              0.0       0.4       0.6       0.0       0.0       0.0
 7 C  f-2             0.0       0.2       0.3       0.1       0.1       0.0
 7 C  f-3             0.2       0.0       0.0       0.0       0.0       0.0
 8 H  s               4.6       0.0       0.0       0.0       0.0       8.9
 8 H  pz              0.0       1.6       0.9       0.7       1.4       0.0
 8 H  px              0.1       0.0       0.0       0.0       0.0       1.5
 8 H  py              0.0       0.0       0.0       0.0       0.0       0.9
 8 H  dyz             0.0       0.3       0.2       0.1       0.2       0.0
 9 H  s               4.5       0.0       0.0       0.0       0.0      11.2
 9 H  pz              0.0       1.7       0.9       0.7       1.5       0.0
 9 H  px              0.1       0.0       0.0       0.0       0.0       2.9
 9 H  py              0.0       0.0       0.0       0.0       0.0       0.3
 9 H  dxz             0.0       0.4       0.3       0.1       0.3       0.0

                     18        19        20        21        22        23   
                   0.16458   0.17192   0.21535   0.22534   0.24783   0.31141
                   0.00000   0.00000   0.00000   0.00000   0.00000   0.00000
                  --------  --------  --------  --------  --------  --------
 0 C  s               0.4       2.6       0.1       0.8       0.0       0.2
 0 C  px              0.8       1.3       3.5       0.6       1.1       4.4
 0 C  py              1.5       0.1       0.4       4.1       0.4      15.3
 0 C  dz2             0.1       0.4       0.1       0.4       0.0       0.0
 0 C  dx2y2           0.5       0.2       0.1       1.1       0.0       0.0
 0 C  dxy             0.1       0.1       0.0       0.0       0.2       5.1
 1 H  s              16.3       6.2       8.7      16.8      11.2       2.6
 1 H  px              0.8       1.2       0.1       0.0       0.0       3.4
 1 H  py              2.9       1.0       1.0       5.5       2.7       0.4
 2 H  s               0.3      25.1      24.7       0.6      10.0       0.1
 2 H  px              0.0       5.5       3.8       0.1       2.2       0.0
 2 H  py              0.1       0.1       0.3       0.0       0.8       5.0
 3 C  s               0.5       0.2       0.4       1.1       0.9       2.9
 3 C  px              0.6       0.3       0.1       0.6       0.5       3.0
 3 C  py              1.5       0.2       0.1       0.4       0.6       1.9
 3 C  dz2             0.2       0.0       0.0       0.3       0.5       1.1
 3 C  dx2y2           0.3       0.0       0.4       0.8       1.6       0.9
 3 C  dxy             0.6       1.2       0.3       0.0       0.0       0.0
 4 H  s              17.7       2.7       5.0      13.1      13.1       0.8
 4 H  px              0.8       1.3       0.0       0.6       2.4       1.8
 4 H  py              3.9       0.1       0.8       3.1       1.4       0.8
 5 C  s               0.5       0.2       0.4       1.1       0.9       2.9
 5 C  px              0.6       0.3       0.1       0.6       0.5       3.0
 5 C  py              1.5       0.2       0.1       0.4       0.6       1.9
 5 C  dz2             0.2       0.0       0.0       0.3       0.5       1.1
 5 C  dx2y2           0.3       0.0       0.4       0.8       1.6       0.9
 5 C  dxy             0.6       1.2       0.3       0.0       0.0       0.0
 6 H  s              17.7       2.7       5.0      13.1      13.1       0.8
 6 H  px              0.8       1.3       0.0       0.6       2.4       1.8
 6 H  py              3.9       0.1       0.8       3.1       1.4       0.8
 7 C  s               0.4       2.6       0.1       0.8       0.0       0.2
 7 C  px              0.8       1.3       3.5       0.6       1.1       4.4
 7 C  py              1.5       0.1       0.4       4.1       0.4      15.3
 7 C  dz2             0.1       0.4       0.1       0.4       0.0       0.0
 7 C  dx2y2           0.5       0.2       0.1       1.1       0.0       0.0
 7 C  dxy             0.1       0.1       0.0       0.0       0.2       5.1
 8 H  s              16.3       6.2       8.7      16.8      11.2       2.6
 8 H  px              0.8       1.2       0.1       0.0       0.0       3.4
 8 H  py              2.9       1.0       1.0       5.5       2.7       0.4
 9 H  s               0.3      25.1      24.7       0.6      10.0       0.1
 9 H  px              0.0       5.5       3.8       0.1       2.2       0.0
 9 H  py              0.1       0.1       0.3       0.0       0.8       5.0

                     24        25        26        27        28        29   
                   0.35557   0.42683   0.43107   0.44815   0.45863   0.46704
                   0.00000   0.00000   0.00000   0.00000   0.00000   0.00000
                  --------  --------  --------  --------  --------  --------
 0 C  s               0.6       0.1       0.0       0.0       6.1       0.6
 0 C  pz              0.0       0.0      25.2      36.9       0.0       0.0
 0 C  px              7.7       0.5       0.0       0.0       1.3       2.0
 0 C  py              6.8      12.3       0.0       0.0       1.0       0.6
 0 C  dz2             0.0       0.0       0.0       0.0       7.9       1.8
 0 C  dxz             0.0       0.0       0.2       0.1       0.0       0.0
 0 C  dyz             0.0       0.0       0.9       1.2       0.0       0.0
 0 C  dx2y2           2.1       1.7       0.0       0.0       0.1       5.9
 0 C  dxy             3.3       3.1       0.0       0.0       0.0       1.1
 0 C  f-1             0.0       0.2       0.0       0.0       0.0       0.0
 0 C  f-2             0.0       0.0       0.1       0.0       0.0       0.0
 0 C  f+3             0.0       0.0       0.0       0.0       0.3       0.0
 1 H  s               1.0       4.3       0.0       0.0       2.0       1.3
 1 H  pz              0.0       0.0       0.1       1.2       0.0       0.0
 1 H  px              7.5       0.0       0.0       0.0       0.2       1.0
 1 H  py              0.1       1.3       0.0       0.0       0.3       0.4
 1 H  dyz             0.0       0.0       0.1       0.2       0.0       0.0
 2 H  s               2.8       0.9       0.0       0.0       2.0       8.3
 2 H  pz              0.0       0.0       0.1       0.1       0.0       0.0
 2 H  px              1.2       0.1       0.0       0.0       0.4       1.3
 2 H  py              3.0       4.8       0.0       0.0       0.2       0.8
 2 H  dxz             0.0       0.0       0.2       0.3       0.0       0.0
 3 C  s               1.5       0.1       0.0       0.0       8.8       0.6
 3 C  pz              0.0       0.0      21.2       5.9       0.0       0.0
 3 C  px              2.4       8.0       0.0       0.0       2.2       0.9
 3 C  py              0.9       0.7       0.0       0.0       1.2       3.2
 3 C  dz2             0.6       0.4       0.0       0.0      12.6       0.1
 3 C  dxz             0.0       0.0       0.1       0.7       0.0       0.0
 3 C  dyz             0.0       0.0       0.9       0.8       0.0       0.0
 3 C  dx2y2           0.8       4.3       0.0       0.0       0.0       1.3
 3 C  dxy             0.0       0.0       0.0       0.0       0.1       9.3
 3 C  f0              0.0       0.0       0.2       0.1       0.0       0.0
 3 C  f-1             0.0       0.0       0.0       0.0       0.0       0.1
 3 C  f-2             0.0       0.0       0.2       0.1       0.0       0.0
 3 C  f+3             0.0       0.0       0.0       0.0       0.4       0.0
 4 H  s               4.0       1.9       0.0       0.0       2.4       7.0
 4 H  pz              0.0       0.0       0.2       2.0       0.0       0.0
 4 H  px              3.1       1.2       0.0       0.0       0.2       1.5
 4 H  py              0.3       3.6       0.0       0.0       0.3       0.6
 4 H  dyz             0.0       0.0       0.1       0.1       0.0       0.0
 4 H  dxy             0.1       0.0       0.0       0.0       0.0       0.0
 5 C  s               1.5       0.1       0.0       0.0       8.8       0.6
 5 C  pz              0.0       0.0      21.2       5.9       0.0       0.0
 5 C  px              2.4       8.0       0.0       0.0       2.2       0.9
 5 C  py              0.9       0.7       0.0       0.0       1.2       3.2
 5 C  dz2             0.6       0.4       0.0       0.0      12.6       0.1
 5 C  dxz             0.0       0.0       0.1       0.7       0.0       0.0
 5 C  dyz             0.0       0.0       0.9       0.8       0.0       0.0
 5 C  dx2y2           0.8       4.3       0.0       0.0       0.0       1.3
 5 C  dxy             0.0       0.0       0.0       0.0       0.1       9.3
 5 C  f0              0.0       0.0       0.2       0.1       0.0       0.0
 5 C  f-1             0.0       0.0       0.0       0.0       0.0       0.1
 5 C  f-2             0.0       0.0       0.2       0.1       0.0       0.0
 5 C  f+3             0.0       0.0       0.0       0.0       0.4       0.0
 6 H  s               4.0       1.9       0.0       0.0       2.4       7.0
 6 H  pz              0.0       0.0       0.2       2.0       0.0       0.0
 6 H  px              3.1       1.2       0.0       0.0       0.2       1.5
 6 H  py              0.3       3.6       0.0       0.0       0.3       0.6
 6 H  dyz             0.0       0.0       0.1       0.1       0.0       0.0
 6 H  dxy             0.1       0.0       0.0       0.0       0.0       0.0
 7 C  s               0.6       0.1       0.0       0.0       6.1       0.6
 7 C  pz              0.0       0.0      25.2      36.9       0.0       0.0
 7 C  px              7.7       0.5       0.0       0.0       1.3       2.0
 7 C  py              6.8      12.3       0.0       0.0       1.0       0.6
 7 C  dz2             0.0       0.0       0.0       0.0       7.9       1.8
 7 C  dxz             0.0       0.0       0.2       0.1       0.0       0.0
 7 C  dyz             0.0       0.0       0.9       1.2       0.0       0.0
 7 C  dx2y2           2.1       1.7       0.0       0.0       0.1       5.9
 7 C  dxy             3.3       3.1       0.0       0.0       0.0       1.1
 7 C  f-1             0.0       0.2       0.0       0.0       0.0       0.0
 7 C  f-2             0.0       0.0       0.1       0.0       0.0       0.0
 7 C  f+3             0.0       0.0       0.0       0.0       0.3       0.0
 8 H  s               1.0       4.3       0.0       0.0       2.0       1.3
 8 H  pz              0.0       0.0       0.1       1.2       0.0       0.0
 8 H  px              7.5       0.0       0.0       0.0       0.2       1.0
 8 H  py              0.1       1.3       0.0       0.0       0.3       0.4
 8 H  dyz             0.0       0.0       0.1       0.2       0.0       0.0
 9 H  s               2.8       0.9       0.0       0.0       2.0       8.3
 9 H  pz              0.0       0.0       0.1       0.1       0.0       0.0
 9 H  px              1.2       0.1       0.0       0.0       0.4       1.3
 9 H  py              3.0       4.8       0.0       0.0       0.2       0.8
 9 H  dxz             0.0       0.0       0.2       0.3       0.0       0.0

                     30        31        32        33        34        35   
                   0.47514   0.49462   0.50887   0.53750   0.58130   0.58744
                   0.00000   0.00000   0.00000   0.00000   0.00000   0.00000
                  --------  --------  --------  --------  --------  --------
 0 C  s               2.4       0.0       7.9       0.0       0.3       7.2
 0 C  pz              0.0       9.0       0.0      19.7       0.0       0.0
 0 C  px              1.2       0.0       0.3       0.0       7.3       4.5
 0 C  py              5.6       0.0       2.0       0.0       5.9       0.3
 0 C  dz2             0.0       0.0      15.2       0.0       1.2       5.8
 0 C  dxz             0.0       2.9       0.0       0.8       0.0       0.0
 0 C  dyz             0.0       0.1       0.0       0.4       0.0       0.0
 0 C  dx2y2           2.2       0.0       1.0       0.0       0.2       1.0
 0 C  dxy             0.1       0.0       0.3       0.0       0.3       0.0
 0 C  f0              0.0       0.1       0.0       0.0       0.0       0.0
 0 C  f+1             0.0       0.0       0.0       0.0       0.1       0.1
 0 C  f-1             0.0       0.0       0.0       0.0       0.1       0.0
 0 C  f-2             0.0       0.1       0.0       0.1       0.0       0.0
 0 C  f+3             0.2       0.0       0.4       0.0       0.0       0.5
 0 C  f-3             0.1       0.0       0.0       0.0       0.2       0.1
 1 H  s               2.2       0.0       7.0       0.0       0.6       4.9
 1 H  pz              0.0       0.4       0.0       0.5       0.0       0.0
 1 H  px              0.8       0.0       0.1       0.0       0.8       0.1
 1 H  py              0.1       0.0       1.2       0.0       0.1       1.1
 1 H  dz2             0.0       0.0       0.0       0.0       0.2       0.0
 1 H  dyz             0.0       0.1       0.0       0.1       0.0       0.0
 1 H  dx2y2           0.2       0.0       0.0       0.0       0.0       0.1
 1 H  dxy             0.1       0.0       0.0       0.0       0.0       0.0
 2 H  s               2.3       0.0       1.1       0.0       1.2       1.9
 2 H  pz              0.0       0.5       0.0       1.7       0.0       0.0
 2 H  px              1.1       0.0       0.1       0.0       0.3       0.2
 2 H  py              1.4       0.0       0.0       0.0       0.0       0.9
 2 H  dz2             0.0       0.0       0.1       0.0       0.0       0.1
 2 H  dxz             0.0       0.0       0.0       0.2       0.0       0.0
 2 H  dx2y2           0.1       0.0       0.0       0.0       0.1       0.0
 2 H  dxy             0.0       0.0       0.0       0.0       0.1       0.0
 3 C  s               0.6       0.0       0.6       0.0       3.4       0.4
 3 C  pz              0.0      28.7       0.0      24.9       0.0       0.0
 3 C  px              8.5       0.0       3.6       0.0       9.9       7.5
 3 C  py              5.7       0.0       2.7       0.0       9.2       0.3
 3 C  dz2             0.1       0.0       4.1       0.0       2.1       5.9
 3 C  dxz             0.0       0.3       0.0       0.5       0.0       0.0
 3 C  dyz             0.0       4.5       0.0       0.0       0.0       0.0
 3 C  dx2y2           4.0       0.0       0.7       0.0       0.1       0.3
 3 C  dxy             2.5       0.0       0.0       0.0       2.0       0.4
 3 C  f+1             0.1       0.0       0.0       0.0       0.1       0.2
 3 C  f-1             0.1       0.0       0.0       0.0       0.2       0.1
 3 C  f+2             0.0       0.1       0.0       0.2       0.0       0.0
 3 C  f+3             0.0       0.0       0.2       0.0       0.0       0.1
 4 H  s               0.5       0.0       0.5       0.0       3.1       4.4
 4 H  pz              0.0       2.9       0.0       0.6       0.0       0.0
 4 H  px              5.5       0.0       0.8       0.0       0.3       0.1
 4 H  py              2.4       0.0       0.1       0.0       0.3       1.2
 4 H  dz2             0.0       0.0       0.0       0.0       0.2       0.0
 4 H  dyz             0.0       0.2       0.0       0.1       0.0       0.0
 4 H  dx2y2           0.0       0.0       0.1       0.0       0.1       0.2
 4 H  dxy             0.0       0.0       0.1       0.0       0.2       0.1
 5 C  s               0.6       0.0       0.6       0.0       3.4       0.4
 5 C  pz              0.0      28.7       0.0      24.9       0.0       0.0
 5 C  px              8.5       0.0       3.6       0.0       9.9       7.5
 5 C  py              5.7       0.0       2.7       0.0       9.2       0.3
 5 C  dz2             0.1       0.0       4.1       0.0       2.1       5.9
 5 C  dxz             0.0       0.3       0.0       0.5       0.0       0.0
 5 C  dyz             0.0       4.5       0.0       0.0       0.0       0.0
 5 C  dx2y2           4.0       0.0       0.7       0.0       0.1       0.3
 5 C  dxy             2.5       0.0       0.0       0.0       2.0       0.4
 5 C  f+1             0.1       0.0       0.0       0.0       0.1       0.2
 5 C  f-1             0.1       0.0       0.0       0.0       0.2       0.1
[...]


----------------------------
LOEWDIN REDUCED ACTIVE MOs  
----------------------------

                     12        13        14        15        16        17   
                  -0.48639   0.14834   0.32848  -0.42920  -0.30631   0.16026
                   2.00000   0.11767   0.06047   1.93472   1.88714   0.00000
                  --------  --------  --------  --------  --------  --------
 0 C  pz              0.0      23.6      13.3      16.1      27.2       0.0
 0 C  px              5.1       0.0       0.0       0.0       0.0       0.7
 1 H  s               4.6       0.0       0.0       0.0       0.0       8.9
 2 H  s               4.5       0.0       0.0       0.0       0.0      11.2
 3 C  pz              0.0      13.1      24.4      28.4      13.2       0.0
 3 C  px             11.8       0.0       0.0       0.0       0.0       0.4
 4 H  s               9.1       0.0       0.0       0.0       0.0      15.5
 5 C  pz              0.0      13.1      24.4      28.4      13.2       0.0
 5 C  px             11.8       0.0       0.0       0.0       0.0       0.4
 6 H  s               9.1       0.0       0.0       0.0       0.0      15.5
 7 C  pz              0.0      23.6      13.3      16.1      27.2       0.0
 7 C  px              5.1       0.0       0.0       0.0       0.0       0.7
 8 H  s               4.6       0.0       0.0       0.0       0.0       8.9
 9 H  s               4.5       0.0       0.0       0.0       0.0      11.2

------------------------------------------------------------------------------
                           ORCA POPULATION ANALYSIS
------------------------------------------------------------------------------
Input electron density              ... trans-1,3-bivinyl-cas44.scfp
BaseName (.gbw .S,...)              ... trans-1,3-bivinyl-cas44

                    ********************************
                    * MULLIKEN POPULATION ANALYSIS *
                    ********************************

-----------------------
MULLIKEN ATOMIC CHARGES
-----------------------
   0 C :   -0.315646
   1 H :    0.125626
   2 H :    0.132087
   3 C :   -0.080570
   4 H :    0.138504
   5 C :   -0.080570
   6 H :    0.138504
   7 C :   -0.315646
   8 H :    0.125626
   9 H :    0.132087
Sum of atomic charges:   -0.0000000

--------------------------------
MULLIKEN REDUCED ORBITAL CHARGES
--------------------------------
  0 C s       :     3.326731  s :     3.326731
      pz      :     0.983729  p :     2.908304
      px      :     0.988236
      py      :     0.936339
      dz2     :     0.007497  d :     0.074144
      dxz     :     0.004432
      dyz     :     0.011196
      dx2y2   :     0.034235
      dxy     :     0.016784
      f0      :     0.000882  f :     0.006467
      f+1     :     0.000645
      f-1     :     0.000568
      f+2     :     0.000148
      f-2     :     0.000690
      f+3     :     0.002201
      f-3     :     0.001334
  1 H s       :     0.846411  s :     0.846411
      pz      :     0.009546  p :     0.025763
      px      :     0.008286
      py      :     0.007931
      dz2     :     0.000187  d :     0.002200
      dxz     :     0.000079
      dyz     :     0.000589
      dx2y2   :     0.000623
      dxy     :     0.000722
  2 H s       :     0.839931  s :     0.839931
      pz      :     0.009741  p :     0.025871
      px      :     0.009797
      py      :     0.006333
      dz2     :     0.000167  d :     0.002111
      dxz     :     0.000653
      dyz     :     0.000011
      dx2y2   :     0.000554
      dxy     :     0.000727
  3 C s       :     3.210285  s :     3.210285
      pz      :     0.936748  p :     2.773860
      px      :     0.884557
      py      :     0.952554
      dz2     :     0.005066  d :     0.087502
      dxz     :     0.015987
      dyz     :     0.012911
      dx2y2   :     0.030744
      dxy     :     0.022793
      f0      :     0.001303  f :     0.008924
      f+1     :     0.000890
      f-1     :     0.000701
      f+2     :     0.000557
      f-2     :     0.000643
      f+3     :     0.002508
      f-3     :     0.002322
  4 H s       :     0.834916  s :     0.834916
      pz      :     0.009526  p :     0.024274
      px      :     0.009034
      py      :     0.005715
      dz2     :     0.000194  d :     0.002306
      dxz     :     0.000099
      dyz     :     0.000529
      dx2y2   :     0.000759
      dxy     :     0.000725
  5 C s       :     3.210285  s :     3.210285
      pz      :     0.936748  p :     2.773860
      px      :     0.884557
      py      :     0.952554
      dz2     :     0.005066  d :     0.087502
      dxz     :     0.015987
      dyz     :     0.012911
      dx2y2   :     0.030744
      dxy     :     0.022793
      f0      :     0.001303  f :     0.008924
      f+1     :     0.000890
      f-1     :     0.000701
      f+2     :     0.000557
      f-2     :     0.000643
      f+3     :     0.002508
      f-3     :     0.002322
  6 H s       :     0.834916  s :     0.834916
      pz      :     0.009526  p :     0.024274
      px      :     0.009034
      py      :     0.005715
      dz2     :     0.000194  d :     0.002306
      dxz     :     0.000099
      dyz     :     0.000529
      dx2y2   :     0.000759
      dxy     :     0.000725
  7 C s       :     3.326731  s :     3.326731
      pz      :     0.983729  p :     2.908304
      px      :     0.988236
      py      :     0.936339
      dz2     :     0.007497  d :     0.074144
      dxz     :     0.004432
      dyz     :     0.011196
      dx2y2   :     0.034235
      dxy     :     0.016784
      f0      :     0.000882  f :     0.006467
      f+1     :     0.000645
      f-1     :     0.000568
      f+2     :     0.000148
      f-2     :     0.000690
      f+3     :     0.002201
      f-3     :     0.001334
  8 H s       :     0.846411  s :     0.846411
      pz      :     0.009546  p :     0.025763
      px      :     0.008286
      py      :     0.007931
      dz2     :     0.000187  d :     0.002200
      dxz     :     0.000079
      dyz     :     0.000589
      dx2y2   :     0.000623
      dxy     :     0.000722
  9 H s       :     0.839931  s :     0.839931
      pz      :     0.009741  p :     0.025871
      px      :     0.009797
      py      :     0.006333
      dz2     :     0.000167  d :     0.002111
      dxz     :     0.000653
      dyz     :     0.000011
      dx2y2   :     0.000554
      dxy     :     0.000727


                     *******************************
                     * LOEWDIN POPULATION ANALYSIS *
                     *******************************

----------------------
LOEWDIN ATOMIC CHARGES
----------------------
   0 C :    0.096948
   1 H :   -0.040065
   2 H :   -0.039813
   3 C :    0.004896
   4 H :   -0.021966
   5 C :    0.004896
   6 H :   -0.021966
   7 C :    0.096948
   8 H :   -0.040065
   9 H :   -0.039813

-------------------------------
LOEWDIN REDUCED ORBITAL CHARGES
-------------------------------
  0 C s       :     2.729487  s :     2.729487
      pz      :     0.859298  p :     2.864907
      px      :     0.991375
      py      :     1.014234
      dz2     :     0.019258  d :     0.280794
      dxz     :     0.012274
      dyz     :     0.031321
      dx2y2   :     0.131083
      dxy     :     0.086858
      f0      :     0.001621  f :     0.027864
      f+1     :     0.002385
      f-1     :     0.002780
      f+2     :     0.000980
      f-2     :     0.004139
      f+3     :     0.007337
      f-3     :     0.008622
  1 H s       :     0.860652  s :     0.860652
      pz      :     0.042339  p :     0.152783
      px      :     0.044006
      py      :     0.066438
      dz2     :     0.002292  d :     0.026629
      dxz     :     0.001460
      dyz     :     0.006918
      dx2y2   :     0.008264
      dxy     :     0.007694
  2 H s       :     0.859164  s :     0.859164
      pz      :     0.043173  p :     0.154019
      px      :     0.077559
      py      :     0.033286
      dz2     :     0.002306  d :     0.026630
      dxz     :     0.008385
      dyz     :     0.000021
      dx2y2   :     0.007414
      dxy     :     0.008504
  3 C s       :     2.713414  s :     2.713414
      pz      :     0.828013  p :     2.820499
      px      :     0.980285
      py      :     1.012201
      dz2     :     0.026584  d :     0.419648
      dxz     :     0.063552
      dyz     :     0.038356
      dx2y2   :     0.145230
      dxy     :     0.145925
      f0      :     0.003147  f :     0.041543
      f+1     :     0.003211
      f-1     :     0.003048
      f+2     :     0.004671
      f-2     :     0.003927
      f+3     :     0.008767
      f-3     :     0.014772
  4 H s       :     0.847959  s :     0.847959
      pz      :     0.038436  p :     0.147237
      px      :     0.042554
      py      :     0.066247
      dz2     :     0.002311  d :     0.026769
      dxz     :     0.001568
      dyz     :     0.006399
      dx2y2   :     0.008273
      dxy     :     0.008218
  5 C s       :     2.713414  s :     2.713414
      pz      :     0.828013  p :     2.820499
      px      :     0.980285
      py      :     1.012201
      dz2     :     0.026584  d :     0.419648
      dxz     :     0.063552
      dyz     :     0.038356
      dx2y2   :     0.145230
      dxy     :     0.145925
      f0      :     0.003147  f :     0.041543
      f+1     :     0.003211
      f-1     :     0.003048
      f+2     :     0.004671
      f-2     :     0.003927
      f+3     :     0.008767
      f-3     :     0.014772
  6 H s       :     0.847959  s :     0.847959
      pz      :     0.038436  p :     0.147237
      px      :     0.042554
      py      :     0.066247
      dz2     :     0.002311  d :     0.026769
      dxz     :     0.001568
      dyz     :     0.006399
      dx2y2   :     0.008273
      dxy     :     0.008218
  7 C s       :     2.729487  s :     2.729487
      pz      :     0.859298  p :     2.864907
      px      :     0.991375
      py      :     1.014234
      dz2     :     0.019258  d :     0.280794
      dxz     :     0.012274
      dyz     :     0.031321
      dx2y2   :     0.131083
      dxy     :     0.086858
      f0      :     0.001621  f :     0.027864
      f+1     :     0.002385
      f-1     :     0.002780
      f+2     :     0.000980
      f-2     :     0.004139
      f+3     :     0.007337
      f-3     :     0.008622
  8 H s       :     0.860652  s :     0.860652
      pz      :     0.042339  p :     0.152783
      px      :     0.044006
      py      :     0.066438
      dz2     :     0.002292  d :     0.026629
      dxz     :     0.001460
      dyz     :     0.006918
      dx2y2   :     0.008264
      dxy     :     0.007694
  9 H s       :     0.859164  s :     0.859164
      pz      :     0.043173  p :     0.154019
      px      :     0.077559
      py      :     0.033286
      dz2     :     0.002306  d :     0.026630
      dxz     :     0.008385
      dyz     :     0.000021
      dx2y2   :     0.007414
      dxy     :     0.008504


                      *****************************
                      * MAYER POPULATION ANALYSIS *
                      *****************************

  NA   - Mulliken gross atomic population
  ZA   - Total nuclear charge
  QA   - Mulliken gross atomic charge
  VA   - Mayer's total valence
  BVA  - Mayer's bonded valence
  FA   - Mayer's free valence

  ATOM       NA         ZA         QA         VA         BVA        FA
  0 C      6.3156     6.0000    -0.3156     3.8521     3.6718     0.1803
  1 H      0.8744     1.0000     0.1256     0.9825     0.9808     0.0018
  2 H      0.8679     1.0000     0.1321     0.9799     0.9781     0.0019
  3 C      6.0806     6.0000    -0.0806     3.7758     3.6222     0.1536
  4 H      0.8615     1.0000     0.1385     0.9811     0.9795     0.0016
  5 C      6.0806     6.0000    -0.0806     3.7758     3.6222     0.1536
  6 H      0.8615     1.0000     0.1385     0.9811     0.9795     0.0016
  7 C      6.3156     6.0000    -0.3156     3.8521     3.6718     0.1803
  8 H      0.8744     1.0000     0.1256     0.9825     0.9808     0.0018
  9 H      0.8679     1.0000     0.1321     0.9799     0.9781     0.0019

  Mayer bond orders larger than 0.100000
B(  0-C ,  1-H ) :   0.9733 B(  0-C ,  2-H ) :   0.9822 B(  0-C ,  3-C ) :   1.6728 
B(  3-C ,  4-H ) :   0.9615 B(  3-C ,  5-C ) :   1.0157 B(  5-C ,  6-H ) :   0.9615 
B(  5-C ,  7-C ) :   1.6728 B(  7-C ,  8-H ) :   0.9733 B(  7-C ,  9-H ) :   0.9822 



-------------------------------------------------------------
 Forming the transition density       ... done in 0.001013 sec
-------------------------------------------------------------



==========================================
CASSCF UV, CD spectra and dipole moments
==========================================
-------------------
ABSORPTION SPECTRUM
-------------------

Center of mass           = (  0.0000, -0.0000,  0.0000)
Nuclear contribution to the dipole moment =     0.000000,    0.000000,   -0.000000 au

Calculating the Dipole integrals                  ... done
Transforming integrals                            ... done
Calculating the Linear Momentum integrals         ... done
Transforming integrals                            ... done
Calculating the Angular Momentum integrals        ... done
Transforming integrals                            ... done

------------------------------------------------------------------------------
                                 DIPOLE MOMENTS
------------------------------------------------------------------------------
  Root  Block           TX        TY        TZ           |T|
                      (Debye)   (Debye)   (Debye)      (Debye)
------------------------------------------------------------------------------
    0    0            0.00000   0.00000   0.00000      0.00000

--------------
CASSCF TIMINGS
--------------

Total time                       ...        3.2 sec
Sum of individual times          ...        2.3 sec ( 72.0%)

Calculation of AO operators
   F(Core) operator              ...        0.7 sec ( 23.6%)
   G(Act) operator               ...        0.8 sec ( 24.5%)
   J(AO) operators               ...        0.0 sec (  0.0%)
Calculation of MO transformed quantities
   J(MO) operators               ...        0.6 sec ( 17.9%)
   (pq|rs) integrals             ...        0.0 sec (  0.0%)
   AO->MO one electron integrals ...        0.0 sec (  0.3%)
Configuration interaction steps
   CI-setup phase                ...        0.0 sec (  0.0%)
   CI-solution phase             ...        0.1 sec (  3.1%)
   Generation of densities       ...        0.0 sec (  0.1%)
Orbital improvement steps
   Orbital gradient              ...        0.0 sec (  0.5%)
   O(1) converger                ...        0.1 sec (  1.9%)
Properties                       ...        0.0 sec (  0.0%)
   SOC integral calculation      ...        0.0 sec (  0.0%)
   SSC RMEs (incl. integrals)    ...        0.0 sec (  0.0%)
   SOC RMEs                      ...        0.0 sec (  0.0%)

Maximum memory used throughout the entire CASSCF-calculation: 155.6 MB

-------------------------   --------------------
FINAL SINGLE POINT ENERGY      -155.030051202870
-------------------------   --------------------


                            ***************************************
                            *     ORCA property calculations      *
                            ***************************************

                                    ---------------------
                                    Active property flags
                                    ---------------------
   (+) Dipole Moment


------------------------------------------------------------------------------
                       ORCA ELECTRIC PROPERTIES CALCULATION
------------------------------------------------------------------------------

Dipole Moment Calculation                       ... on
Quadrupole Moment Calculation                   ... off
Polarizability Calculation                      ... off
GBWName                                         ... trans-1,3-bivinyl-cas44.gbw
Electron density file                           ... trans-1,3-bivinyl-cas44.scfp
The origin for moment calculation is the CENTER OF MASS  = ( 0.000000, -0.000000  0.000000)

-------------
DIPOLE MOMENT
-------------
                                X             Y             Z
Electronic contribution:     -0.00000      -0.00000       0.00000
Nuclear contribution   :      0.00000       0.00000      -0.00000
                        -----------------------------------------
Total Dipole Moment    :     -0.00000      -0.00000       0.00000
                        -----------------------------------------
Magnitude (a.u.)       :      0.00000
Magnitude (Debye)      :      0.00000



--------------------
Rotational spectrum 
--------------------
 
Rotational constants in cm-1:     1.397081     0.146782     0.132827 
Rotational constants in MHz : 41883.422262  4400.413202  3982.046052 

 Dipole components along the rotational axes: 
x,y,z [a.u.] :     0.000000    -0.000000     0.000000 
x,y,z [Debye]:     0.000000    -0.000000     0.000000 

 
--------------------------------------------------------------------------
WARNING: There was an error initializing an OpenFabrics device.

  Local host:   cnode14
  Local device: mlx5_0
--------------------------------------------------------------------------
[cnode14:35888] 7 more processes have sent help message help-mpi-btl-openib.txt / error in device init
[cnode14:35888] Set MCA parameter "orte_base_help_aggregate" to 0 to see all help / error messages

Timings for individual modules:

Sum of individual times         ...        7.818 sec (=   0.130 min)
GTO integral calculation        ...        0.577 sec (=   0.010 min)   7.4 %
SCF iterations                  ...        0.491 sec (=   0.008 min)   6.3 %
CASSCF iterations               ...        6.750 sec (=   0.113 min)  86.3 %
                             ****ORCA TERMINATED NORMALLY****
TOTAL RUN TIME: 0 days 0 hours 0 minutes 8 seconds 325 msec

Sender: Unischeduler System <lcz@mgt01>
Subject: Job 123774: <#!/bin/bash
#BSUB -J intel
#BSUB -o trans-1,3-bivinyl-cas44.out
#BSUB -n 8
#BSUB -q cqueue
#BSUB -R span[hosts=1]
export LD_LIBRARY_PATH=/apps/software/openmpi-4.1.1/lib:/apps/software/orca_5_0_0:$LD_LIBRARY_PATH
export PATH=/apps/software/openmpi-4.1.1/bin:/apps/software/orca_5_0_0:$PATH
/apps/software/orca_5_0_0/orca trans-1,3-bivinyl-cas44.inp >& trans-1,3-bivinyl-cas44.out> Done

Job <#!/bin/bash
#BSUB -J intel
#BSUB -o trans-1,3-bivinyl-cas44.out
#BSUB -n 8
#BSUB -q cqueue
#BSUB -R span[hosts=1]
export LD_LIBRARY_PATH=/apps/software/openmpi-4.1.1/lib:/apps/software/orca_5_0_0:$LD_LIBRARY_PATH
export PATH=/apps/software/openmpi-4.1.1/bin:/apps/software/orca_5_0_0:$PATH
/apps/software/orca_5_0_0/orca trans-1,3-bivinyl-cas44.inp >& trans-1,3-bivinyl-cas44.out> was submitted from host <mgt01> by user <lcz>.
Job was executed on host(s) <8*cnode14>, in queue <cqueue>, as user <lcz>.
</apps/users/lcz> was used as the home directory.
</apps/users/lcz/exe9/task4/orca/bivinyl> was used as the working directory.
Started at 2022-04-24 17:01:30
Results reported at 2022-04-24 17:01:39

Your job looked like:

------------------------------------------------------------
# User input
#!/bin/bash
#BSUB -J intel
#BSUB -o trans-1,3-bivinyl-cas44.out
#BSUB -n 8
#BSUB -q cqueue
#BSUB -R span[hosts=1]
export LD_LIBRARY_PATH=/apps/software/openmpi-4.1.1/lib:/apps/software/orca_5_0_0:$LD_LIBRARY_PATH
export PATH=/apps/software/openmpi-4.1.1/bin:/apps/software/orca_5_0_0:$PATH
/apps/software/orca_5_0_0/orca trans-1,3-bivinyl-cas44.inp >& trans-1,3-bivinyl-cas44.out
------------------------------------------------------------

Successfully completed.

Resource usage summary:

    CPU time   :           35.02 sec.
    Max Memory :              1913 MB
    Max Processes  :              13


The output (if any) follows:

