[Molden Format]
[N_ATOMS]
           10
[Atoms]  AU
C     1    6     -12.550014       -3.064232       -0.000000
H     2    1     -11.608180       -4.905693       -0.000000
H     3    1     -14.613886       -3.060926       -0.000001
C     4    6     -11.216469       -0.905261        0.000001
H     5    1     -12.214905        0.911212        0.000001
C     6    6      -8.464111       -0.785072        0.000001
H     7    1      -7.465675       -2.601545        0.000001
C     8    6      -7.130564        1.373900       -0.000000
H     9    1      -8.072398        3.215361       -0.000000
H    10    1      -5.066693        1.370593       -0.000001
[5D7F9G]
[GTO]
    1
    s    8
   0.666500000E+04   0.691583963E-03
   0.100000000E+04   0.532579615E-02
   0.228000000E+03   0.270607210E-01
   0.647100000E+02   0.101656846E+00
   0.210600000E+02   0.274574824E+00
   0.749500000E+01   0.448294319E+00
   0.279700000E+01   0.284902611E+00
   0.521500000E+00   0.151948592E-01
    s    8
   0.666500000E+04  -0.293269653E-03
   0.100000000E+04  -0.231803547E-02
   0.228000000E+03  -0.114997860E-01
   0.647100000E+02  -0.468267270E-01
   0.210600000E+02  -0.128466169E+00
   0.749500000E+01  -0.301266272E+00
   0.279700000E+01  -0.255630702E+00
   0.521500000E+00   0.109379336E+01
    s    1
   0.159600000E+00   0.100000000E+01
    p    3
   0.943900000E+01   0.569792516E-01
   0.200200000E+01   0.313207212E+00
   0.545600000E+00   0.760376742E+00
    p    1
   0.151700000E+00   0.100000000E+01
    d    1
   0.550000000E+00   0.100000000E+01
 
    2
    s    3
   0.130100000E+02   0.334987264E-01
   0.196200000E+01   0.234800801E+00
   0.444600000E+00   0.813682958E+00
    s    1
   0.122000000E+00   0.100000000E+01
    p    1
   0.727000000E+00   0.100000000E+01
 
    3
    s    3
   0.130100000E+02   0.334987264E-01
   0.196200000E+01   0.234800801E+00
   0.444600000E+00   0.813682958E+00
    s    1
   0.122000000E+00   0.100000000E+01
    p    1
   0.727000000E+00   0.100000000E+01
 
    4
    s    8
   0.666500000E+04   0.691583963E-03
   0.100000000E+04   0.532579615E-02
   0.228000000E+03   0.270607210E-01
   0.647100000E+02   0.101656846E+00
   0.210600000E+02   0.274574824E+00
   0.749500000E+01   0.448294319E+00
   0.279700000E+01   0.284902611E+00
   0.521500000E+00   0.151948592E-01
    s    8
   0.666500000E+04  -0.293269653E-03
   0.100000000E+04  -0.231803547E-02
   0.228000000E+03  -0.114997860E-01
   0.647100000E+02  -0.468267270E-01
   0.210600000E+02  -0.128466169E+00
   0.749500000E+01  -0.301266272E+00
   0.279700000E+01  -0.255630702E+00
   0.521500000E+00   0.109379336E+01
    s    1
   0.159600000E+00   0.100000000E+01
    p    3
   0.943900000E+01   0.569792516E-01
   0.200200000E+01   0.313207212E+00
   0.545600000E+00   0.760376742E+00
    p    1
   0.151700000E+00   0.100000000E+01
    d    1
   0.550000000E+00   0.100000000E+01
 
    5
    s    3
   0.130100000E+02   0.334987264E-01
   0.196200000E+01   0.234800801E+00
   0.444600000E+00   0.813682958E+00
    s    1
   0.122000000E+00   0.100000000E+01
    p    1
   0.727000000E+00   0.100000000E+01
 
    6
    s    8
   0.666500000E+04   0.691583963E-03
   0.100000000E+04   0.532579615E-02
   0.228000000E+03   0.270607210E-01
   0.647100000E+02   0.101656846E+00
   0.210600000E+02   0.274574824E+00
   0.749500000E+01   0.448294319E+00
   0.279700000E+01   0.284902611E+00
   0.521500000E+00   0.151948592E-01
    s    8
   0.666500000E+04  -0.293269653E-03
   0.100000000E+04  -0.231803547E-02
   0.228000000E+03  -0.114997860E-01
   0.647100000E+02  -0.468267270E-01
   0.210600000E+02  -0.128466169E+00
   0.749500000E+01  -0.301266272E+00
   0.279700000E+01  -0.255630702E+00
   0.521500000E+00   0.109379336E+01
    s    1
   0.159600000E+00   0.100000000E+01
    p    3
   0.943900000E+01   0.569792516E-01
   0.200200000E+01   0.313207212E+00
   0.545600000E+00   0.760376742E+00
    p    1
   0.151700000E+00   0.100000000E+01
    d    1
   0.550000000E+00   0.100000000E+01
 
    7
    s    3
   0.130100000E+02   0.334987264E-01
   0.196200000E+01   0.234800801E+00
   0.444600000E+00   0.813682958E+00
    s    1
   0.122000000E+00   0.100000000E+01
    p    1
   0.727000000E+00   0.100000000E+01
 
    8
    s    8
   0.666500000E+04   0.691583963E-03
   0.100000000E+04   0.532579615E-02
   0.228000000E+03   0.270607210E-01
   0.647100000E+02   0.101656846E+00
   0.210600000E+02   0.274574824E+00
   0.749500000E+01   0.448294319E+00
   0.279700000E+01   0.284902611E+00
   0.521500000E+00   0.151948592E-01
    s    8
   0.666500000E+04  -0.293269653E-03
   0.100000000E+04  -0.231803547E-02
   0.228000000E+03  -0.114997860E-01
   0.647100000E+02  -0.468267270E-01
   0.210600000E+02  -0.128466169E+00
   0.749500000E+01  -0.301266272E+00
   0.279700000E+01  -0.255630702E+00
   0.521500000E+00   0.109379336E+01
    s    1
   0.159600000E+00   0.100000000E+01
    p    3
   0.943900000E+01   0.569792516E-01
   0.200200000E+01   0.313207212E+00
   0.545600000E+00   0.760376742E+00
    p    1
   0.151700000E+00   0.100000000E+01
    d    1
   0.550000000E+00   0.100000000E+01
 
    9
    s    3
   0.130100000E+02   0.334987264E-01
   0.196200000E+01   0.234800801E+00
   0.444600000E+00   0.813682958E+00
    s    1
   0.122000000E+00   0.100000000E+01
    p    1
   0.727000000E+00   0.100000000E+01
 
   10
    s    3
   0.130100000E+02   0.334987264E-01
   0.196200000E+01   0.234800801E+00
   0.444600000E+00   0.813682958E+00
    s    1
   0.122000000E+00   0.100000000E+01
    p    1
   0.727000000E+00   0.100000000E+01
 
[MO]
 Sym= A   
 Ene=       -11.232032
 Spin= Alpha
 Occup=       2.000000
   1        0.090674759
   2       -0.000064563
   3        0.002052150
   4       -0.000072940
   5       -0.000076765
   6        0.000000004
   7        0.000921798
   8        0.000953235
   9        0.000000021
  10        0.000067375
  11        0.000000042
  12        0.000000066
  13        0.000039976
  14        0.000014267
  15       -0.000087715
  16        0.000134862
  17       -0.000020967
  18        0.000033663
  19        0.000000013
  20       -0.000037200
  21        0.000402141
  22        0.000016990
  23        0.000017474
  24        0.000000014
  25        0.702567780
  26        0.002929406
  27       -0.005458841
  28       -0.000014691
  29        0.000077440
  30       -0.000000013
  31        0.000478556
  32        0.001456192
  33       -0.000000022
  34       -0.000141652
  35        0.000000022
  36        0.000000043
  37       -0.000252279
  38        0.000189243
  39       -0.000254799
  40        0.000643382
  41       -0.000197184
  42        0.000186076
  43       -0.000000005
  44        0.702567403
  45        0.002929404
  46       -0.005458837
  47        0.000014691
  48       -0.000077440
  49       -0.000000013
  50       -0.000478558
  51       -0.001456192
  52       -0.000000023
  53       -0.000141651
  54       -0.000000014
  55       -0.000000042
  56       -0.000252279
  57        0.000189243
  58       -0.000254799
  59        0.000643382
  60        0.000197184
  61       -0.000186076
  62       -0.000000006
  63        0.090674699
  64       -0.000064563
  65        0.002052150
  66        0.000072940
  67        0.000076765
  68        0.000000004
  69       -0.000921797
  70       -0.000953234
  71        0.000000021
  72        0.000067374
  73       -0.000000042
  74       -0.000000063
  75        0.000039976
  76        0.000014267
  77       -0.000087715
  78        0.000134862
  79        0.000020967
  80       -0.000033663
  81        0.000000012
  82       -0.000037200
  83        0.000402141
  84       -0.000016990
  85       -0.000017474
  86        0.000000014
 Sym= A   
 Ene=       -11.231250
 Spin= Alpha
 Occup=       2.000000
   1        0.106093142
   2        0.000237570
   3        0.000044670
   4       -0.000024175
   5       -0.000051552
   6        0.000000004
   7        0.000526013
   8        0.000163069
   9        0.000000021
  10        0.000265879
  11        0.000000039
  12        0.000000066
  13        0.000015644
  14        0.000056285
  15        0.000068170
  16        0.000149756
  17        0.000012265
  18        0.000106250
  19        0.000000013
  20        0.000103053
  21        0.000274584
  22        0.000055777
  23        0.000043306
  24        0.000000013
  25        0.700663945
  26        0.003190678
  27       -0.007353208
  28        0.000087483
  29        0.000104544
  30       -0.000000008
  31       -0.001769936
  32        0.000147659
  33       -0.000000035
  34       -0.000614646
  35        0.000000028
  36        0.000000036
  37        0.000076116
  38        0.000009287
  39       -0.000264260
  40        0.000632304
  41       -0.000193582
  42        0.000402768
  43       -0.000000001
  44       -0.700664324
  45       -0.003190680
  46        0.007353211
  47        0.000087483
  48        0.000104544
  49        0.000000008
  50       -0.001769936
  51        0.000147660
  52        0.000000035
  53        0.000614646
  54        0.000000031
  55        0.000000035
  56       -0.000076116
  57       -0.000009288
  58        0.000264260
  59       -0.000632305
  60       -0.000193582
  61        0.000402768
  62       -0.000000000
  63       -0.106093184
  64       -0.000237569
  65       -0.000044671
  66       -0.000024175
  67       -0.000051553
  68       -0.000000005
  69        0.000526014
  70        0.000163070
  71       -0.000000022
  72       -0.000265879
  73        0.000000038
  74        0.000000066
  75       -0.000015644
  76       -0.000056285
  77       -0.000068170
  78       -0.000149756
  79        0.000012265
  80        0.000106250
  81       -0.000000013
  82       -0.000103053
  83       -0.000274584
  84        0.000055777
  85        0.000043306
  86       -0.000000012
 Sym= A   
 Ene=       -11.225984
 Spin= Alpha
 Occup=       2.000000
   1        0.702696767
   2        0.002947028
   3       -0.005179167
   4       -0.000065568
   5       -0.000127064
   6        0.000000012
   7       -0.000248846
   8       -0.000236310
   9        0.000000018
  10       -0.000528589
  11        0.000000016
  12        0.000000020
  13        0.000053592
  14        0.000057207
  15       -0.000227933
  16        0.000890718
  17        0.000209330
  18       -0.000334954
  19       -0.000000000
  20       -0.000330254
  21        0.000825820
  22       -0.000429000
  23        0.000049940
  24        0.000000001
  25       -0.091368069
  26       -0.000692917
  27        0.001848726
  28        0.000090568
  29        0.000026237
  30       -0.000000005
  31       -0.000206916
  32       -0.000383892
  33       -0.000000015
  34        0.000209375
  35        0.000000020
  36        0.000000060
  37        0.000095709
  38        0.000128601
  39        0.000115849
  40       -0.000061530
  41        0.000036680
  42       -0.000197603
  43       -0.000000015
  44       -0.091361563
  45       -0.000692877
  46        0.001848635
  47       -0.000090566
  48       -0.000026234
  49       -0.000000004
  50        0.000206847
  51        0.000383835
  52       -0.000000014
  53        0.000209347
  54       -0.000000020
  55       -0.000000059
  56        0.000095712
  57        0.000128602
  58        0.000115837
  59       -0.000061533
  60       -0.000036673
  61        0.000197593
  62       -0.000000014
  63        0.702654049
  64        0.002946841
  65       -0.005178810
  66        0.000065565
  67        0.000127059
  68        0.000000012
  69        0.000248825
  70        0.000236269
  71        0.000000018
  72       -0.000528556
  73       -0.000000015
  74       -0.000000020
  75        0.000053594
  76        0.000057204
  77       -0.000227916
  78        0.000890674
  79       -0.000209316
  80        0.000334932
  81       -0.000000000
  82       -0.000330237
  83        0.000825774
  84        0.000428975
  85       -0.000049938
  86        0.000000001
 Sym= A   
 Ene=       -11.225966
 Spin= Alpha
 Occup=       2.000000
   1       -0.700576782
   2       -0.003065011
   3        0.005853921
   4        0.000045235
   5        0.000077309
   6       -0.000000011
   7        0.000350216
   8        0.000670966
   9       -0.000000013
  10        0.000546290
  11       -0.000000009
  12       -0.000000020
  13        0.000025633
  14       -0.000036276
  15        0.000280982
  16       -0.000727483
  17       -0.000235858
  18        0.000357044
  19       -0.000000001
  20        0.000267053
  21       -0.000759355
  22        0.000423241
  23       -0.000044545
  24        0.000000001
  25        0.106580327
  26        0.000644597
  27       -0.001484269
  28       -0.000035298
  29       -0.000057514
  30       -0.000000002
  31        0.001136559
  32        0.000926117
  33        0.000000002
  34       -0.000453805
  35       -0.000000048
  36       -0.000000046
  37        0.000058715
  38        0.000018999
  39       -0.000192679
  40       -0.000044182
  41       -0.000116021
  42        0.000169074
  43        0.000000008
  44       -0.106585895
  45       -0.000644640
  46        0.001484382
  47       -0.000035304
  48       -0.000057516
  49        0.000000003
  50        0.001136571
  51        0.000926141
  52       -0.000000001
  53        0.000453818
  54       -0.000000047
  55       -0.000000045
  56       -0.000058710
  57       -0.000018991
  58        0.000192686
  59        0.000044179
  60       -0.000116023
  61        0.000169086
  62       -0.000000008
  63        0.700619628
  64        0.003065191
  65       -0.005854237
  66        0.000045239
  67        0.000077317
  68        0.000000011
  69        0.000350231
  70        0.000670981
  71        0.000000013
  72       -0.000546323
  73       -0.000000009
  74       -0.000000019
  75       -0.000025630
  76        0.000036279
  77       -0.000280996
  78        0.000727537
  79       -0.000235871
  80        0.000357064
  81        0.000000001
  82       -0.000267073
  83        0.000759406
  84        0.000423267
  85       -0.000044548
  86       -0.000000001
 Sym= A   
 Ene=        -1.083099
 Spin= Alpha
 Occup=       2.000000
   1        0.012863545
   2       -0.169039126
   3       -0.063189283
   4       -0.049166221
   5       -0.065264942
   6        0.000000033
   7        0.005919734
   8       -0.003765104
   9       -0.000000250
  10        0.004047954
  11       -0.000000486
  12       -0.000000550
  13        0.002085856
  14       -0.012355372
  15       -0.062010027
  16       -0.005692844
  17        0.003857067
  18       -0.010351565
  19       -0.000000047
  20       -0.052589287
  21        0.000489982
  22       -0.009274051
  23       -0.002141218
  24       -0.000000121
  25        0.019257452
  26       -0.256291663
  27       -0.182068474
  28       -0.035509855
  29        0.043357528
  30        0.000000100
  31       -0.007154079
  32        0.054505727
  33        0.000000322
  34        0.013224726
  35       -0.000000277
  36       -0.000000587
  37       -0.007839832
  38       -0.012659051
  39       -0.092827055
  40       -0.016436194
  41       -0.007713343
  42        0.012403593
  43        0.000000084
  44        0.019257452
  45       -0.256291664
  46       -0.182068459
  47        0.035509849
  48       -0.043357506
  49        0.000000054
  50        0.007154047
  51       -0.054505730
  52        0.000000322
  53        0.013224726
  54        0.000000151
  55        0.000000569
  56       -0.007839837
  57       -0.012659053
  58       -0.092827070
  59       -0.016436192
  60        0.007713339
  61       -0.012403597
  62        0.000000099
  63        0.012863544
  64       -0.169039113
  65       -0.063189258
  66        0.049166226
  67        0.065264928
  68       -0.000000027
  69       -0.005919739
  70        0.003765099
  71       -0.000000304
  72        0.004047952
  73        0.000000491
  74        0.000000525
  75        0.002085851
  76       -0.012355372
  77       -0.062010022
  78       -0.005692843
  79       -0.003857065
  80        0.010351565
  81       -0.000000040
  82       -0.052589288
  83        0.000489983
  84        0.009274051
  85        0.002141216
  86       -0.000000130
 Sym= A   
 Ene=        -0.991854
 Spin= Alpha
 Occup=       2.000000
   1        0.017477471
   2       -0.244133996
   3       -0.148721300
   4       -0.037688445
   5       -0.069092855
   6        0.000000049
   7        0.005089613
   8       -0.012496207
   9       -0.000000296
  10        0.005324337
  11       -0.000000497
  12       -0.000000717
  13        0.007582635
  14       -0.008816590
  15       -0.096240607
  16       -0.010676541
  17        0.005292496
  18       -0.013721409
  19       -0.000000082
  20       -0.099628188
  21       -0.004312760
  22       -0.016152164
  23       -0.001090285
  24       -0.000000125
  25        0.013188162
  26       -0.162237469
  27       -0.149519017
  28        0.100611420
  29        0.100650372
  30        0.000000099
  31        0.004408743
  32        0.032852981
  33        0.000000484
  34        0.005460668
  35       -0.000000571
  36       -0.000000684
  37        0.011823018
  38       -0.009004543
  39       -0.057167630
  40       -0.009794354
  41       -0.001786042
  42        0.008855645
  43        0.000000054
  44       -0.013188162
  45        0.162237472
  46        0.149519034
  47        0.100611447
  48        0.100650375
  49        0.000000003
  50        0.004408760
  51        0.032852992
  52       -0.000000426
  53       -0.005460667
  54       -0.000000563
  55       -0.000000700
  56       -0.011823014
  57        0.009004548
  58        0.057167612
  59        0.009794353
  60       -0.001786038
  61        0.008855644
  62       -0.000000058
  63       -0.017477473
  64        0.244134026
  65        0.148721301
  66       -0.037688461
  67       -0.069092851
  68        0.000000035
  69        0.005089612
  70       -0.012496200
  71        0.000000355
  72       -0.005324337
  73       -0.000000583
  74       -0.000000709
  75       -0.007582631
  76        0.008816594
  77        0.096240624
  78        0.010676541
  79        0.005292492
  80       -0.013721413
  81        0.000000067
  82        0.099628204
  83        0.004312761
  84       -0.016152166
  85       -0.001090281
  86        0.000000159
 Sym= A   
 Ene=        -0.818176
 Spin= Alpha
 Occup=       2.000000
   1       -0.013972779
   2        0.210452257
   3        0.166848134
   4       -0.061593663
   5       -0.053175283
   6       -0.000000100
   7       -0.010130094
   8       -0.026353981
   9        0.000000075
  10       -0.002326219
  11        0.000000160
  12        0.000000125
  13       -0.000060495
  14       -0.005716904
  15        0.131936272
  16        0.021378839
  17       -0.008998428
  18        0.013844774
  19        0.000000006
  20        0.162331694
  21        0.031950637
  22        0.018945131
  23       -0.001934661
  24        0.000000054
  25        0.005443349
  26       -0.145793763
  27       -0.101880574
  28       -0.155318047
  29       -0.093462811
  30       -0.000000093
  31       -0.055648061
  32       -0.026748538
  33       -0.000000109
  34        0.004610872
  35        0.000000061
  36        0.000000258
  37       -0.015771688
  38        0.012079854
  39       -0.084642570
  40       -0.015954194
  41       -0.007990764
  42        0.006639235
  43       -0.000000043
  44        0.005443351
  45       -0.145793805
  46       -0.101880582
  47        0.155318035
  48        0.093462821
  49       -0.000000084
  50        0.055648044
  51        0.026748540
  52       -0.000000099
  53        0.004610871
  54       -0.000000173
  55       -0.000000268
  56       -0.015771681
  57        0.012079855
  58       -0.084642636
  59       -0.015954201
  60        0.007990765
  61       -0.006639246
  62       -0.000000029
  63       -0.013972779
  64        0.210452245
  65        0.166848116
  66        0.061593666
  67        0.053175296
  68       -0.000000054
  69        0.010130099
  70        0.026353988
  71        0.000000119
  72       -0.002326219
  73       -0.000000314
  74       -0.000000146
  75       -0.000060495
  76       -0.005716906
  77        0.131936294
  78        0.021378842
  79        0.008998424
  80       -0.013844778
  81       -0.000000012
  82        0.162331681
  83        0.031950634
  84       -0.018945129
  85        0.001934667
  86        0.000000103
 Sym= A   
 Ene=        -0.743892
 Spin= Alpha
 Occup=       2.000000
   1        0.004601406
   2       -0.096783383
   3       -0.058756086
   4       -0.000266367
   5        0.145411460
   6        0.000000015
   7        0.005020477
   8        0.061124957
   9        0.000000037
  10       -0.000648899
  11       -0.000000109
  12        0.000000263
  13       -0.008890132
  14        0.006575334
  15       -0.153306281
  16       -0.033049083
  17        0.008093722
  18       -0.012689556
  19        0.000000074
  20       -0.061051038
  21       -0.015831998
  22       -0.006975208
  23        0.002707377
  24       -0.000000041
  25       -0.006971051
  26        0.168941530
  27        0.118284222
  28       -0.106177697
  29        0.133060788
  30        0.000000035
  31       -0.023033816
  32        0.060280948
  33       -0.000000028
  34        0.001124999
  35        0.000000224
  36        0.000000018
  37       -0.006521710
  38       -0.000048162
  39        0.222664657
  40        0.049452433
  41        0.009894150
  42       -0.019733424
  43        0.000000038
  44        0.006971050
  45       -0.168941480
  46       -0.118284183
  47       -0.106177656
  48        0.133060787
  49       -0.000000086
  50       -0.023033814
  51        0.060280941
  52       -0.000000006
  53       -0.001124998
  54        0.000000193
  55        0.000000080
  56        0.006521717
  57        0.000048161
  58       -0.222664611
  59       -0.049452425
  60        0.009894142
  61       -0.019733422
  62       -0.000000014
  63       -0.004601403
  64        0.096783352
  65        0.058756058
  66       -0.000266340
  67        0.145411420
  68       -0.000000021
  69        0.005020497
  70        0.061124935
  71       -0.000000031
  72        0.000648900
  73       -0.000000126
  74        0.000000306
  75        0.008890126
  76       -0.006575335
  77        0.153306241
  78        0.033049075
  79        0.008093717
  80       -0.012689555
  81       -0.000000089
  82        0.061051011
  83        0.015831990
  84       -0.006975205
  85        0.002707378
  86        0.000000042
 Sym= A   
 Ene=        -0.634114
 Spin= Alpha
 Occup=       2.000000
   1        0.004078559
   2       -0.032305144
   3       -0.048280356
   4        0.245446296
   5        0.144410079
   6        0.000000071
   7        0.086811222
   8        0.057044346
   9        0.000000272
  10       -0.000676939
  11        0.000000248
  12        0.000000651
  13       -0.009935238
  14        0.012475793
  15       -0.037776664
  16       -0.008910712
  17        0.008419124
  18       -0.000159909
  19        0.000000090
  20       -0.222627872
  21       -0.071952433
  22       -0.016013449
  23        0.003596034
  24        0.000000033
  25       -0.002015840
  26        0.066129691
  27        0.062208064
  28       -0.022602470
  29       -0.220429049
  30       -0.000000004
  31        0.023070429
  32       -0.076244942
  33       -0.000000334
  34        0.000684204
  35        0.000000421
  36        0.000000676
  37       -0.008659011
  38       -0.002737844
  39       -0.101472127
  40       -0.023956779
  41       -0.006167538
  42        0.004045126
  43       -0.000000084
  44        0.002015845
  45       -0.066129740
  46       -0.062208119
  47       -0.022602842
  48       -0.220429049
  49       -0.000000075
  50        0.023070296
  51       -0.076244936
  52        0.000000282
  53       -0.000684209
  54        0.000000409
  55        0.000000588
  56        0.008659011
  57        0.002737836
  58        0.101471988
  59        0.023956740
  60       -0.006167535
  61        0.004045114
  62        0.000000061
  63       -0.004078563
  64        0.032305156
  65        0.048280392
  66        0.245446180
  67        0.144410361
  68       -0.000000134
  69        0.086811177
  70        0.057044449
  71       -0.000000266
  72        0.000676939
  73        0.000000103
  74        0.000000615
  75        0.009935237
  76       -0.012475811
  77        0.037776986
  78        0.008910810
  79        0.008419136
  80       -0.000159931
  81       -0.000000105
  82        0.222627760
  83        0.071952400
  84       -0.016013440
  85        0.003596047
  86        0.000000007
 Sym= A   
 Ene=        -0.624506
 Spin= Alpha
 Occup=       2.000000
   1        0.001336851
   2       -0.012491540
   3       -0.025217491
   4       -0.138934844
   5        0.207944391
   6       -0.000000034
   7       -0.046729465
   8        0.075626409
   9        0.000000084
  10       -0.000384090
  11        0.000000108
  12        0.000000339
  13       -0.002663362
  14        0.005836742
  15       -0.210309195
  16       -0.066047632
  17        0.006771746
  18       -0.013579297
  19        0.000000060
  20        0.103311713
  21        0.034463386
  22        0.007228420
  23        0.004812196
  24        0.000000021
  25       -0.003285465
  26        0.011980924
  27        0.020237098
  28       -0.242998346
  29        0.038786902
  30       -0.000000036
  31       -0.094477522
  32        0.017979649
  33       -0.000000158
  34        0.002346644
  35        0.000000238
  36        0.000000117
  37       -0.003374519
  38        0.000873636
  39        0.129176567
  40        0.036208720
  41        0.001963961
  42       -0.011207686
  43        0.000000031
  44       -0.003285460
  45        0.011980861
  46        0.020237009
  47        0.242998329
  48       -0.038787227
  49       -0.000000001
  50        0.094477595
  51       -0.017979764
  52       -0.000000142
  53        0.002346645
  54       -0.000000276
  55       -0.000000197
  56       -0.003374504
  57        0.000873643
  58        0.129176688
  59        0.036208741
  60       -0.001963963
  61        0.011207692
  62        0.000000018
  63        0.001336848
  64       -0.012491499
  65       -0.025217444
  66        0.138935186
  67       -0.207944318
  68       -0.000000018
  69        0.046729583
  70       -0.075626355
  71        0.000000098
  72       -0.000384089
  73       -0.000000171
  74       -0.000000411
  75       -0.002663342
  76        0.005836730
  77       -0.210309239
  78       -0.066047660
  79       -0.006771732
  80        0.013579305
  81        0.000000070
  82        0.103312069
  83        0.034463505
  84       -0.007228446
  85       -0.004812192
  86        0.000000043
 Sym= A   
 Ene=        -0.548022
 Spin= Alpha
 Occup=       2.000000
   1       -0.000092118
   2       -0.043041223
   3       -0.036790034
   4       -0.220282302
   5       -0.199920360
   6        0.000000067
   7       -0.092115346
   8       -0.079087718
   9       -0.000000330
  10       -0.000879675
  11       -0.000000283
  12       -0.000000742
  13        0.008552492
  14       -0.013431289
  15        0.045600655
  16        0.023853607
  17       -0.006676752
  18       -0.002435421
  19       -0.000000102
  20        0.170505913
  21        0.070355993
  22        0.010086294
  23       -0.005319421
  24       -0.000000041
  25       -0.001643643
  26       -0.005692472
  27        0.026341416
  28        0.142507910
  29        0.263605538
  30        0.000000042
  31        0.050463227
  32        0.087452994
  33        0.000000341
  34       -0.002044529
  35       -0.000000276
  36       -0.000000918
  37        0.012511806
  38       -0.025662125
  39        0.147899114
  40        0.071000269
  41        0.011124576
  42       -0.003088023
  43        0.000000154
  44       -0.001643644
  45       -0.005692445
  46        0.026341453
  47       -0.142507948
  48       -0.263605541
  49       -0.000000032
  50       -0.050463220
  51       -0.087452970
  52        0.000000253
  53       -0.002044527
  54        0.000000351
  55        0.000000799
  56        0.012511785
  57       -0.025662130
  58        0.147899184
  59        0.071000297
  60       -0.011124578
  61        0.003088032
  62        0.000000120
  63       -0.000092115
  64       -0.043041214
  65       -0.036790060
  66        0.220282206
  67        0.199920391
  68       -0.000000038
  69        0.092115321
  70        0.079087739
  71       -0.000000346
  72       -0.000879674
  73        0.000000190
  74        0.000000776
  75        0.008552474
  76       -0.013431297
  77        0.045600788
  78        0.023853662
  79        0.006676755
  80        0.002435411
  81       -0.000000129
  82        0.170505783
  83        0.070355932
  84       -0.010086285
  85        0.005319427
  86       -0.000000019
 Sym= A   
 Ene=        -0.534546
 Spin= Alpha
 Occup=       2.000000
   1       -0.001200153
   2       -0.012535123
   3       -0.005656514
   4        0.170048455
   5       -0.220163378
   6        0.000000027
   7        0.066112383
   8       -0.089092087
   9       -0.000000056
  10        0.000077828
  11       -0.000000490
  12       -0.000000210
  13       -0.016353408
  14       -0.014566898
  15        0.246269021
  16        0.110365535
  17       -0.004366864
  18        0.013550970
  19        0.000000018
  20       -0.169716500
  21       -0.076608500
  22       -0.009656797
  23       -0.006720912
  24       -0.000000114
  25       -0.003606836
  26        0.031847348
  27        0.076371355
  28        0.005057883
  29        0.155354887
  30        0.000000017
  31        0.014582077
  32        0.057209718
  33        0.000000087
  34        0.000179006
  35       -0.000000405
  36       -0.000000174