[Molden Format]
[N_ATOMS]
           10
[Atoms]  AU
C     1    6     -12.550014       -3.064232       -0.000000
H     2    1     -11.608180       -4.905693       -0.000000
H     3    1     -14.613886       -3.060926       -0.000001
C     4    6     -11.216469       -0.905261        0.000001
H     5    1     -12.214905        0.911212        0.000001
C     6    6      -8.464111       -0.785072        0.000001
H     7    1      -7.465675       -2.601545        0.000001
C     8    6      -7.130564        1.373900       -0.000000
H     9    1      -8.072398        3.215361       -0.000000
H    10    1      -5.066693        1.370593       -0.000001
[5D7F9G]
[GTO]
    1
    s    8
   0.666500000E+04   0.691583963E-03
   0.100000000E+04   0.532579615E-02
   0.228000000E+03   0.270607210E-01
   0.647100000E+02   0.101656846E+00
   0.210600000E+02   0.274574824E+00
   0.749500000E+01   0.448294319E+00
   0.279700000E+01   0.284902611E+00
   0.521500000E+00   0.151948592E-01
    s    8
   0.666500000E+04  -0.293269653E-03
   0.100000000E+04  -0.231803547E-02
   0.228000000E+03  -0.114997860E-01
   0.647100000E+02  -0.468267270E-01
   0.210600000E+02  -0.128466169E+00
   0.749500000E+01  -0.301266272E+00
   0.279700000E+01  -0.255630702E+00
   0.521500000E+00   0.109379336E+01
    s    1
   0.159600000E+00   0.100000000E+01
    p    3
   0.943900000E+01   0.569792516E-01
   0.200200000E+01   0.313207212E+00
   0.545600000E+00   0.760376742E+00
    p    1
   0.151700000E+00   0.100000000E+01
    d    1
   0.550000000E+00   0.100000000E+01
 
    2
    s    3
   0.130100000E+02   0.334987264E-01
   0.196200000E+01   0.234800801E+00
   0.444600000E+00   0.813682958E+00
    s    1
   0.122000000E+00   0.100000000E+01
    p    1
   0.727000000E+00   0.100000000E+01
 
    3
    s    3
   0.130100000E+02   0.334987264E-01
   0.196200000E+01   0.234800801E+00
   0.444600000E+00   0.813682958E+00
    s    1
   0.122000000E+00   0.100000000E+01
    p    1
   0.727000000E+00   0.100000000E+01
 
    4
    s    8
   0.666500000E+04   0.691583963E-03
   0.100000000E+04   0.532579615E-02
   0.228000000E+03   0.270607210E-01
   0.647100000E+02   0.101656846E+00
   0.210600000E+02   0.274574824E+00
   0.749500000E+01   0.448294319E+00
   0.279700000E+01   0.284902611E+00
   0.521500000E+00   0.151948592E-01
    s    8
   0.666500000E+04  -0.293269653E-03
   0.100000000E+04  -0.231803547E-02
   0.228000000E+03  -0.114997860E-01
   0.647100000E+02  -0.468267270E-01
   0.210600000E+02  -0.128466169E+00
   0.749500000E+01  -0.301266272E+00
   0.279700000E+01  -0.255630702E+00
   0.521500000E+00   0.109379336E+01
    s    1
   0.159600000E+00   0.100000000E+01
    p    3
   0.943900000E+01   0.569792516E-01
   0.200200000E+01   0.313207212E+00
   0.545600000E+00   0.760376742E+00
    p    1
   0.151700000E+00   0.100000000E+01
    d    1
   0.550000000E+00   0.100000000E+01
 
    5
    s    3
   0.130100000E+02   0.334987264E-01
   0.196200000E+01   0.234800801E+00
   0.444600000E+00   0.813682958E+00
    s    1
   0.122000000E+00   0.100000000E+01
    p    1
   0.727000000E+00   0.100000000E+01
 
    6
    s    8
   0.666500000E+04   0.691583963E-03
   0.100000000E+04   0.532579615E-02
   0.228000000E+03   0.270607210E-01
   0.647100000E+02   0.101656846E+00
   0.210600000E+02   0.274574824E+00
   0.749500000E+01   0.448294319E+00
   0.279700000E+01   0.284902611E+00
   0.521500000E+00   0.151948592E-01
    s    8
   0.666500000E+04  -0.293269653E-03
   0.100000000E+04  -0.231803547E-02
   0.228000000E+03  -0.114997860E-01
   0.647100000E+02  -0.468267270E-01
   0.210600000E+02  -0.128466169E+00
   0.749500000E+01  -0.301266272E+00
   0.279700000E+01  -0.255630702E+00
   0.521500000E+00   0.109379336E+01
    s    1
   0.159600000E+00   0.100000000E+01
    p    3
   0.943900000E+01   0.569792516E-01
   0.200200000E+01   0.313207212E+00
   0.545600000E+00   0.760376742E+00
    p    1
   0.151700000E+00   0.100000000E+01
    d    1
   0.550000000E+00   0.100000000E+01
 
    7
    s    3
   0.130100000E+02   0.334987264E-01
   0.196200000E+01   0.234800801E+00
   0.444600000E+00   0.813682958E+00
    s    1
   0.122000000E+00   0.100000000E+01
    p    1
   0.727000000E+00   0.100000000E+01
 
    8
    s    8
   0.666500000E+04   0.691583963E-03
   0.100000000E+04   0.532579615E-02
   0.228000000E+03   0.270607210E-01
   0.647100000E+02   0.101656846E+00
   0.210600000E+02   0.274574824E+00
   0.749500000E+01   0.448294319E+00
   0.279700000E+01   0.284902611E+00
   0.521500000E+00   0.151948592E-01
    s    8
   0.666500000E+04  -0.293269653E-03
   0.100000000E+04  -0.231803547E-02
   0.228000000E+03  -0.114997860E-01
   0.647100000E+02  -0.468267270E-01
   0.210600000E+02  -0.128466169E+00
   0.749500000E+01  -0.301266272E+00
   0.279700000E+01  -0.255630702E+00
   0.521500000E+00   0.109379336E+01
    s    1
   0.159600000E+00   0.100000000E+01
    p    3
   0.943900000E+01   0.569792516E-01
   0.200200000E+01   0.313207212E+00
   0.545600000E+00   0.760376742E+00
    p    1
   0.151700000E+00   0.100000000E+01
    d    1
   0.550000000E+00   0.100000000E+01
 
    9
    s    3
   0.130100000E+02   0.334987264E-01
   0.196200000E+01   0.234800801E+00
   0.444600000E+00   0.813682958E+00
    s    1
   0.122000000E+00   0.100000000E+01
    p    1
   0.727000000E+00   0.100000000E+01
 
   10
    s    3
   0.130100000E+02   0.334987264E-01
   0.196200000E+01   0.234800801E+00
   0.444600000E+00   0.813682958E+00
    s    1
   0.122000000E+00   0.100000000E+01
    p    1
   0.727000000E+00   0.100000000E+01
 
[MO]
 Sym= A   
 Ene=         0.000000
 Spin= Alpha
 Occup=       0.000000
   1        0.077460749
   2       -0.000125559
   3        0.002076864
   4       -0.000065127
   5       -0.000061063
   6        0.000000004
   7        0.000929384
   8        0.000934758
   9        0.000000021
  10        0.000072665
  11        0.000000042
  12        0.000000065
  13        0.000028006
  14        0.000033299
  15       -0.000080982
  16        0.000113320
  17       -0.000023257
  18        0.000043097
  19        0.000000013
  20       -0.000020272
  21        0.000387790
  22        0.000027513
  23        0.000019476
  24        0.000000014
  25        0.704112643
  26        0.002805023
  27       -0.005393673
  28        0.000020322
  29        0.000106663
  30       -0.000000013
  31        0.000440717
  32        0.001366260
  33       -0.000000021
  34       -0.000161395
  35        0.000000022
  36        0.000000042
  37       -0.000246169
  38        0.000182309
  39       -0.000240968
  40        0.000653654
  41       -0.000188268
  42        0.000183497
  43       -0.000000005
  44        0.704112981
  45        0.002805025
  46       -0.005393675
  47       -0.000020322
  48       -0.000106663
  49       -0.000000013
  50       -0.000440717
  51       -0.001366260
  52       -0.000000022
  53       -0.000161395
  54       -0.000000013
  55       -0.000000041
  56       -0.000246169
  57        0.000182309
  58       -0.000240968
  59        0.000653654
  60        0.000188268
  61       -0.000183497
  62       -0.000000006
  63        0.077460770
  64       -0.000125559
  65        0.002076864
  66        0.000065127
  67        0.000061063
  68        0.000000004
  69       -0.000929384
  70       -0.000934758
  71        0.000000020
  72        0.000072665
  73       -0.000000041
  74       -0.000000062
  75        0.000028006
  76        0.000033299
  77       -0.000080982
  78        0.000113320
  79        0.000023257
  80       -0.000043097
  81        0.000000012
  82       -0.000020272
  83        0.000387790
  84       -0.000027513
  85       -0.000019476
  86        0.000000014
 Sym= A   
 Ene=         0.000000
 Spin= Alpha
 Occup=       0.000000
   1        0.088647095
   2        0.000150275
   3        0.000183389
   4       -0.000015047
   5       -0.000039187
   6        0.000000004
   7        0.000510781
   8        0.000201693
   9        0.000000021
  10        0.000274513
  11        0.000000039
  12        0.000000065
  13        0.000003756
  14        0.000072933
  15        0.000082527
  16        0.000142994
  17        0.000007967
  18        0.000117371
  19        0.000000013
  20        0.000112982
  21        0.000246420
  22        0.000069914
  23        0.000044788
  24        0.000000013
  25        0.703045095
  26        0.003060246
  27       -0.007185717
  28        0.000124434
  29        0.000131109
  30       -0.000000008
  31       -0.001649159
  32        0.000143999
  33       -0.000000034
  34       -0.000647295
  35        0.000000027
  36        0.000000034
  37        0.000085927
  38        0.000007732
  39       -0.000263379
  40        0.000639746
  41       -0.000192876
  42        0.000397487
  43       -0.000000000
  44       -0.703044762
  45       -0.003060245
  46        0.007185714
  47        0.000124434
  48        0.000131109
  49        0.000000009
  50       -0.001649159
  51        0.000143998
  52        0.000000035
  53        0.000647295
  54        0.000000030
  55        0.000000034
  56       -0.000085927
  57       -0.000007733
  58        0.000263379
  59       -0.000639746
  60       -0.000192876
  61        0.000397487
  62       -0.000000000
  63       -0.088647031
  64       -0.000150275
  65       -0.000183388
  66       -0.000015047
  67       -0.000039187
  68       -0.000000004
  69        0.000510780
  70        0.000201692
  71       -0.000000022
  72       -0.000274513
  73        0.000000038
  74        0.000000065
  75       -0.000003756
  76       -0.000072933
  77       -0.000082527
  78       -0.000142994
  79        0.000007967
  80        0.000117371
  81       -0.000000013
  82       -0.000112982
  83       -0.000246420
  84        0.000069914
  85        0.000044788
  86       -0.000000012
 Sym= A   
 Ene=         0.000000
 Spin= Alpha
 Occup=       0.000000
   1        0.704268846
   2        0.002806990
   3       -0.005132383
   4       -0.000086299
   5       -0.000158991
   6        0.000000013
   7       -0.000226734
   8       -0.000224186
   9        0.000000018
  10       -0.000540462
  11        0.000000016
  12        0.000000021
  13        0.000060466
  14        0.000049781
  15       -0.000225922
  16        0.000885118
  17        0.000202755
  18       -0.000327624
  19       -0.000000000
  20       -0.000324602
  21        0.000828023
  22       -0.000420711
  23        0.000048724
  24        0.000000001
  25       -0.078158021
  26       -0.000615672
  27        0.001768847
  28        0.000079674
  29        0.000012068
  30       -0.000000005
  31       -0.000216313
  32       -0.000413207
  33       -0.000000015
  34        0.000205903
  35        0.000000021
  36        0.000000061
  37        0.000082497
  38        0.000157665
  39        0.000122849
  40       -0.000039203
  41        0.000032924
  42       -0.000195373
  43       -0.000000015
  44       -0.078142793
  45       -0.000615577
  46        0.001768611
  47       -0.000079671
  48       -0.000012060
  49       -0.000000005
  50        0.000216124
  51        0.000413049
  52       -0.000000015
  53        0.000205829
  54       -0.000000021
  55       -0.000000060
  56        0.000082508
  57        0.000157665
  58        0.000122817
  59       -0.000039215
  60       -0.000032906
  61        0.000195346
  62       -0.000000014
  63        0.704148976
  64        0.002806491
  65       -0.005131395
  66        0.000086288
  67        0.000158972
  68        0.000000013
  69        0.000226675
  70        0.000224078
  71        0.000000018
  72       -0.000540368
  73       -0.000000016
  74       -0.000000021
  75        0.000060470
  76        0.000049776
  77       -0.000225876
  78        0.000884993
  79       -0.000202715
  80        0.000327565
  81       -0.000000000
  82       -0.000324558
  83        0.000827895
  84        0.000420641
  85       -0.000048716
  86        0.000000002
 Sym= A   
 Ene=         0.000000
 Spin= Alpha
 Occup=       0.000000
   1       -0.702912104
   2       -0.002930475
   3        0.005791936
   4        0.000062909
   5        0.000108409
   6       -0.000000012
   7        0.000345604
   8        0.000637894
   9       -0.000000014
  10        0.000551906
  11       -0.000000010
  12       -0.000000021
  13        0.000024854
  14       -0.000028665
  15        0.000273622
  16       -0.000735417
  17       -0.000231012
  18        0.000348417
  19       -0.000000001
  20        0.000260674
  21       -0.000755156
  22        0.000411727
  23       -0.000043328
  24        0.000000000
  25        0.089135322
  26        0.000554010
  27       -0.001383819
  28       -0.000022973
  29       -0.000041879
  30       -0.000000002
  31        0.001107615
  32        0.000928258
  33        0.000000002
  34       -0.000431022
  35       -0.000000048
  36       -0.000000047
  37        0.000066205
  38        0.000003799
  39       -0.000184524
  40       -0.000069807
  41       -0.000106276
  42        0.000158509
  43        0.000000008
  44       -0.089148627
  45       -0.000554115
  46        0.001384121
  47       -0.000022987
  48       -0.000041881
  49        0.000000002
  50        0.001107652
  51        0.000928329
  52       -0.000000002
  53        0.000431057
  54       -0.000000047
  55       -0.000000046
  56       -0.000066191
  57       -0.000003773
  58        0.000184545
  59        0.000069801
  60       -0.000106282
  61        0.000158542
  62       -0.000000008
  63        0.703032190
  64        0.002930954
  65       -0.005792812
  66        0.000062924
  67        0.000108436
  68        0.000000012
  69        0.000345642
  70        0.000637933
  71        0.000000014
  72       -0.000551998
  73       -0.000000010
  74       -0.000000021
  75       -0.000024844
  76        0.000028673
  77       -0.000273661
  78        0.000735568
  79       -0.000231047
  80        0.000348473
  81        0.000000001
  82       -0.000260729
  83        0.000755297
  84        0.000411799
  85       -0.000043336
  86       -0.000000000
 Sym= A   
 Ene=         0.000000
 Spin= Alpha
 Occup=       0.000000
   1       -0.012713142
   2        0.168688614
   3        0.062256561
   4        0.049074943
   5        0.064938687
   6        0.000000050
   7       -0.006051097
   8        0.003528234
   9        0.000000311
  10       -0.003854736
  11        0.000000489
  12        0.000000554
  13       -0.002065168
  14        0.012396730
  15        0.061677783
  16        0.005521215
  17       -0.003907701
  18        0.010351250
  19        0.000000049
  20        0.052220439
  21       -0.000639150
  22        0.009286197
  23        0.002111258
  24        0.000000124
  25       -0.018881537
  26        0.257566591
  27        0.182151134
  28        0.036923893
  29       -0.042703070
  30        0.000000009
  31        0.007180935
  32       -0.055284162
  33       -0.000000247
  34       -0.013271718
  35        0.000000275
  36        0.000000578
  37        0.008023752
  38        0.012669125
  39        0.092817262
  40        0.016439302
  41        0.007834398
  42       -0.012421135
  43       -0.000000081
  44       -0.018881537
  45        0.257566591
  46        0.182151118
  47       -0.036923887
  48        0.042703047
  49       -0.000000004
  50       -0.007180903
  51        0.055284166
  52       -0.000000295
  53       -0.013271718
  54       -0.000000153
  55       -0.000000564
  56        0.008023756
  57        0.012669127
  58        0.092817277
  59        0.016439300
  60       -0.007834393
  61        0.012421139
  62       -0.000000097
  63       -0.012713141
  64        0.168688601
  65        0.062256537
  66       -0.049074948
  67       -0.064938673
  68        0.000000038
  69        0.006051102
  70       -0.003528229
  71        0.000000305
  72       -0.003854734
  73       -0.000000491
  74       -0.000000525
  75       -0.002065162
  76        0.012396731
  77        0.061677778
  78        0.005521213
  79        0.003907698
  80       -0.010351251
  81        0.000000040
  82        0.052220440
  83       -0.000639151
  84       -0.009286198
  85       -0.002111255
  86        0.000000130
 Sym= A   
 Ene=         0.000000
 Spin= Alpha
 Occup=       0.000000
   1       -0.017246397
   2        0.244587904
   3        0.148600435
   4        0.037505812
   5        0.068725135
   6        0.000000039
   7       -0.005258020
   8        0.012618520
   9        0.000000363
  10       -0.005252346
  11        0.000000500
  12        0.000000722
  13       -0.007624007
  14        0.008856199
  15        0.096072364
  16        0.010579810
  17       -0.005361405
  18        0.013745990
  19        0.000000085
  20        0.099366981
  21        0.004003696
  22        0.016215238
  23        0.001026087
  24        0.000000128
  25       -0.013098782
  26        0.162611689
  27        0.150740126
  28       -0.100788344
  29       -0.100702721
  30        0.000000004
  31       -0.003317769
  32       -0.032940599
  33       -0.000000410
  34       -0.005251764
  35        0.000000567
  36        0.000000676
  37       -0.011909894
  38        0.008917759
  39        0.057136461
  40        0.009852778
  41        0.001826911
  42       -0.008888679
  43       -0.000000050
  44        0.013098783
  45       -0.162611693
  46       -0.150740143
  47       -0.100788371
  48       -0.100702724
  49        0.000000001
  50       -0.003317786
  51       -0.032940611
  52        0.000000420
  53        0.005251763
  54        0.000000557
  55        0.000000697
  56        0.011909891
  57       -0.008917764
  58       -0.057136443
  59       -0.009852778
  60        0.001826907
  61       -0.008888678
  62        0.000000058
  63        0.017246399
  64       -0.244587934
  65       -0.148600437
  66        0.037505827
  67        0.068725130
  68       -0.000000040
  69       -0.005258020
  70        0.012618513
  71       -0.000000365
  72        0.005252346
  73        0.000000582
  74        0.000000708
  75        0.007624004
  76       -0.008856204
  77       -0.096072381
  78       -0.010579809
  79       -0.005361401
  80        0.013745994
  81       -0.000000067
  82       -0.099366998
  83       -0.004003697
  84        0.016215241
  85        0.001026083
  86       -0.000000160
 Sym= A   
 Ene=         0.000000
 Spin= Alpha
 Occup=       0.000000
   1       -0.013509846
   2        0.212073674
   3        0.165602846
   4       -0.061721883
   5       -0.053150703
   6       -0.000000126
   7       -0.010370277
   8       -0.026611159
   9        0.000000060
  10       -0.002666734
  11        0.000000158
  12        0.000000125
  13       -0.000182424
  14       -0.005549674
  15        0.131684649
  16        0.020736122
  17       -0.009013584
  18        0.013873650
  19        0.000000006
  20        0.161949616
  21        0.031028424
  22        0.018989660
  23       -0.001977027
  24        0.000000054
  25        0.004815919
  26       -0.146148028
  27       -0.099409689
  28       -0.157240566
  29       -0.094431011
  30       -0.000000139
  31       -0.055710695
  32       -0.027410535
  33       -0.000000142
  34        0.005000415
  35        0.000000061
  36        0.000000264
  37       -0.015949276
  38        0.011930842
  39       -0.083899615
  40       -0.015155285
  41       -0.008016905
  42        0.006578448
  43       -0.000000045
  44        0.004815921
  45       -0.146148071
  46       -0.099409696
  47        0.157240553
  48        0.094431021
  49       -0.000000152
  50        0.055710678
  51        0.027410537
  52       -0.000000148
  53        0.005000413
  54       -0.000000176
  55       -0.000000277
  56       -0.015949269
  57        0.011930843
  58       -0.083899681
  59       -0.015155292
  60        0.008016906
  61       -0.006578459
  62       -0.000000031
  63       -0.013509847
  64        0.212073662
  65        0.165602827
  66        0.061721886
  67        0.053150716
  68       -0.000000114
  69        0.010370282
  70        0.026611167
  71        0.000000074
  72       -0.002666734
  73       -0.000000312
  74       -0.000000144
  75       -0.000182424
  76       -0.005549676
  77        0.131684670
  78        0.020736125
  79        0.009013581
  80       -0.013873654
  81       -0.000000013
  82        0.161949602
  83        0.031028422
  84       -0.018989658
  85        0.001977032
  86        0.000000102
 Sym= A   
 Ene=         0.000000
 Spin= Alpha
 Occup=       0.000000
   1       -0.004258284
   2        0.097657390
   3        0.057635531
   4        0.000186529
   5       -0.145882928
   6       -0.000000053
   7       -0.005207200
   8       -0.061431750
   9       -0.000000070
  10        0.000337060
  11        0.000000109
  12       -0.000000266
  13        0.008783896
  14       -0.006465069
  15        0.152771553
  16        0.032037062
  17       -0.008114986
  18        0.012657945
  19       -0.000000075
  20        0.061032908
  21        0.015453830
  22        0.006985950
  23       -0.002699927
  24        0.000000041
  25        0.006489495
  26       -0.170116782
  27       -0.117671221
  28        0.106531131
  29       -0.134888798
  30       -0.000000077
  31        0.021783909
  32       -0.060697050
  33       -0.000000011
  34       -0.000875382
  35       -0.000000221
  36       -0.000000012
  37        0.006857718
  38        0.000049962
  39       -0.222742163
  40       -0.048404569
  41       -0.009950722
  42        0.019745573
  43       -0.000000039
  44       -0.006489493
  45        0.170116730
  46        0.117671183
  47        0.106531092
  48       -0.134888798
  49        0.000000105
  50        0.021783907
  51       -0.060697044
  52        0.000000029
  53        0.000875382
  54       -0.000000189
  55       -0.000000076
  56       -0.006857725
  57       -0.000049961
  58        0.222742119
  59        0.048404561
  60       -0.009950714
  61        0.019745570
  62        0.000000015
  63        0.004258281
  64       -0.097657359
  65       -0.057635503
  66        0.000186503
  67       -0.145882889
  68        0.000000049
  69       -0.005207219
  70       -0.061431728
  71        0.000000057
  72       -0.000337062
  73        0.000000126
  74       -0.000000308
  75       -0.008783891
  76        0.006465070
  77       -0.152771513
  78       -0.032037053
  79       -0.008114982
  80        0.012657944
  81        0.000000089
  82       -0.061032880
  83       -0.015453821
  84        0.006985947
  85       -0.002699928
  86       -0.000000041
 Sym= A   
 Ene=         0.000000
 Spin= Alpha
 Occup=       0.000000
   1        0.003827368
   2       -0.033422297
   3       -0.048234595
   4        0.245779440
   5        0.146233065
   6        0.000000130
   7        0.086460107
   8        0.057653478
   9        0.000000317
  10       -0.000345322
  11        0.000000256
  12        0.000000659
  13       -0.009933498
  14        0.012287276
  15       -0.039209457
  16       -0.008982395
  17        0.008460943
  18       -0.000275514
  19        0.000000091
  20       -0.221416580
  21       -0.069930777
  22       -0.015970484
  23        0.003689870
  24        0.000000035
  25       -0.001861207
  26        0.065989705
  27        0.059706975
  28       -0.022553930
  29       -0.222202066
  30        0.000000069
  31        0.022797005
  32       -0.075680947
  33       -0.000000265
  34        0.000864583
  35        0.000000418
  36        0.000000672
  37       -0.008420251
  38       -0.002924021
  39       -0.101837401
  40       -0.023399955
  41       -0.006198915
  42        0.004068217
  43       -0.000000082
  44        0.001861212
  45       -0.065989753
  46       -0.059707027
  47       -0.022554295
  48       -0.222202068
  49       -0.000000143
  50        0.022796877
  51       -0.075680941
  52        0.000000219
  53       -0.000864587
  54        0.000000405
  55        0.000000584
  56        0.008420252
  57        0.002924013
  58        0.101837268
  59        0.023399918
  60       -0.006198912
  61        0.004068206
  62        0.000000058
  63       -0.003827372
  64        0.033422308
  65        0.048234627
  66        0.245779332
  67        0.146233341
  68       -0.000000195
  69        0.086460067
  70        0.057653578
  71       -0.000000312
  72        0.000345321
  73        0.000000111
  74        0.000000622
  75        0.009933498
  76       -0.012287295
  77        0.039209769
  78        0.008982488
  79        0.008460954
  80       -0.000275536
  81       -0.000000106
  82        0.221416475
  83        0.069930745
  84       -0.015970475
  85        0.003689883
  86        0.000000004
 Sym= A   
 Ene=         0.000000
 Spin= Alpha
 Occup=       0.000000
   1        0.001265425
   2       -0.012925532
   3       -0.025227011
   4       -0.137365840
   5        0.209929340
   6        0.000000012
   7       -0.045484859
   8        0.075643993
   9        0.000000117
  10       -0.000214537
  11        0.000000110
  12        0.000000353
  13       -0.002541389
  14        0.005949616
  15       -0.209653761
  16       -0.064617971
  17        0.006872036
  18       -0.013486558
  19        0.000000063
  20        0.100918261
  21        0.033112147
  22        0.007064534
  23        0.004785183
  24        0.000000023
  25       -0.003299760
  26        0.012658893
  27        0.020344570
  28       -0.246114280
  29        0.038634844
  30        0.000000044
  31       -0.094096610
  32        0.017916993
  33       -0.000000103
  34        0.002441547
  35        0.000000242
  36        0.000000119
  37       -0.003847540
  38        0.000678580
  39        0.129797378
  40        0.035748736
  41        0.001965954
  42       -0.011258245
  43        0.000000032
  44       -0.003299756
  45        0.012658833
  46        0.020344486
  47        0.246114263
  48       -0.038635162
  49        0.000000065
  50        0.094096682
  51       -0.017917106
  52       -0.000000100
  53        0.002441547
  54       -0.000000281
  55       -0.000000200
  56       -0.003847526
  57        0.000678587
  58        0.129797493
  59        0.035748754
  60       -0.001965956
  61        0.011258251
  62        0.000000019
  63        0.001265422
  64       -0.012925491
  65       -0.025226965
  66        0.137366173
  67       -0.209929272
  68        0.000000013
  69        0.045484972
  70       -0.075643942
  71        0.000000117
  72       -0.000214537
  73       -0.000000171
  74       -0.000000423
  75       -0.002541369
  76        0.005949605
  77       -0.209653805
  78       -0.064617997
  79       -0.006872023
  80        0.013486565
  81        0.000000072
  82        0.100918606
  83        0.033112261
  84       -0.007064559
  85       -0.004785179
  86        0.000000043
 Sym= A   
 Ene=         0.000000
 Spin= Alpha
 Occup=       0.000000
   1        0.000017432
   2        0.042034643
   3        0.036254403
   4        0.223107002
   5        0.198851823
   6       -0.000000073
   7        0.092196018
   8        0.078600839
   9        0.000000312
  10        0.001150345
  11        0.000000284
  12        0.000000746
  13       -0.008677535
  14        0.013098059
  15       -0.043545929
  16       -0.022214696
  17        0.006678469
  18        0.002535494
  19        0.000000102
  20       -0.171855145
  21       -0.069489706
  22       -0.010191039
  23        0.005304278
  24        0.000000040
  25        0.001446822
  26        0.005286268
  27       -0.027263280
  28       -0.142144468
  29       -0.264562721
  30        0.000000004
  31       -0.048914853
  32       -0.085756747
  33       -0.000000300
  34        0.002361427
  35        0.000000277
  36        0.000000919
  37       -0.012539892
  38        0.025222271
  39       -0.147309238
  40       -0.069349226
  41       -0.011200088
  42        0.003086333
  43       -0.000000153
  44        0.001446822
  45        0.005286242
  46       -0.027263314
  47        0.142144504
  48        0.264562716
  49        0.000000062
  50        0.048914844
  51        0.085756719
  52       -0.000000228
  53        0.002361425
  54       -0.000000352
  55       -0.000000802
  56       -0.012539872
  57        0.025222275
  58       -0.147309300
  59       -0.069349249
  60        0.011200090
  61       -0.003086342
  62       -0.000000120
  63        0.000017430
  64        0.042034635
  65        0.036254432
  66       -0.223106914
  67       -0.198851841
  68        0.000000015
  69       -0.092195998
  70       -0.078600857
  71        0.000000315
  72        0.001150343
  73       -0.000000191
  74       -0.000000777
  75       -0.008677518
  76        0.013098067
  77       -0.043546050
  78       -0.022214744
  79       -0.006678471
  80       -0.002535485
  81        0.000000127
  82       -0.171855022
  83       -0.069489650
  84        0.010191031
  85       -0.005304283
  86        0.000000017
 Sym= A   
 Ene=         0.000000
 Spin= Alpha
 Occup=       0.000000
   1        0.001174662
   2        0.012415910
   3        0.005569440
   4       -0.172774925
   5        0.220800313
   6       -0.000000046
   7       -0.065749964
   8        0.087989916
   9        0.000000034
  10        0.000000557
  11        0.000000489
  12        0.000000210
  13        0.016876419
  14        0.014683778
  15       -0.245997052
  16       -0.108956663
  17        0.004342378
  18       -0.013515634
  19       -0.000000020
  20        0.170780658
  21        0.076192685
  22        0.009697549
  23        0.006662266
  24        0.000000114
  25        0.003465891
  26       -0.032493603
  27       -0.077543357
  28       -0.005154982
  29       -0.154955677
  30       -0.000000006
  31       -0.015766340
  32       -0.056003232
  33       -0.000000073
  34        0.000011676
  35        0.000000405
  36        0.000000173