 Entering Gaussian System, Link 0=/apps/software/g16/g16
 Initial command:
 /apps/software/g16/l1.exe "/scratch/Gau-223480.inp" -scrdir="/scratch/"
 Entering Link 1 = /apps/software/g16/l1.exe PID=    223481.
  
 Copyright (c) 1988,1990,1992,1993,1995,1998,2003,2009,2016,
            Gaussian, Inc.  All Rights Reserved.
  
 This is part of the Gaussian(R) 16 program.  It is based on
 the Gaussian(R) 09 system (copyright 2009, Gaussian, Inc.),
 the Gaussian(R) 03 system (copyright 2003, Gaussian, Inc.),
 the Gaussian(R) 98 system (copyright 1998, Gaussian, Inc.),
 the Gaussian(R) 94 system (copyright 1995, Gaussian, Inc.),
 the Gaussian 92(TM) system (copyright 1992, Gaussian, Inc.),
 the Gaussian 90(TM) system (copyright 1990, Gaussian, Inc.),
 the Gaussian 88(TM) system (copyright 1988, Gaussian, Inc.),
 the Gaussian 86(TM) system (copyright 1986, Carnegie Mellon
 University), and the Gaussian 82(TM) system (copyright 1983,
 Carnegie Mellon University). Gaussian is a federally registered
 trademark of Gaussian, Inc.
  
 This software contains proprietary and confidential information,
 including trade secrets, belonging to Gaussian, Inc.
  
 This software is provided under written license and may be
 used, copied, transmitted, or stored only in accord with that
 written license.
  
 The following legend is applicable only to US Government
 contracts under FAR:
  
                    RESTRICTED RIGHTS LEGEND
  
 Use, reproduction and disclosure by the US Government is
 subject to restrictions as set forth in subparagraphs (a)
 and (c) of the Commercial Computer Software - Restricted
 Rights clause in FAR 52.227-19.
  
 Gaussian, Inc.
 340 Quinnipiac St., Bldg. 40, Wallingford CT 06492
  
  
 ---------------------------------------------------------------
 Warning -- This program may not be used in any manner that
 competes with the business of Gaussian, Inc. or will provide
 assistance to any competitor of Gaussian, Inc.  The licensee
 of this program is prohibited from giving any competitor of
 Gaussian, Inc. access to this program.  By using this program,
 the user acknowledges that Gaussian, Inc. is engaged in the
 business of creating and licensing software in the field of
 computational chemistry and represents and warrants to the
 licensee that it is not a competitor of Gaussian, Inc. and that
 it will not use this program in any manner prohibited above.
 ---------------------------------------------------------------
  

 Cite this work as:
 Gaussian 16, Revision A.03,
 M. J. Frisch, G. W. Trucks, H. B. Schlegel, G. E. Scuseria, 
 M. A. Robb, J. R. Cheeseman, G. Scalmani, V. Barone, 
 G. A. Petersson, H. Nakatsuji, X. Li, M. Caricato, A. V. Marenich, 
 J. Bloino, B. G. Janesko, R. Gomperts, B. Mennucci, H. P. Hratchian, 
 J. V. Ortiz, A. F. Izmaylov, J. L. Sonnenberg, D. Williams-Young, 
 F. Ding, F. Lipparini, F. Egidi, J. Goings, B. Peng, A. Petrone, 
 T. Henderson, D. Ranasinghe, V. G. Zakrzewski, J. Gao, N. Rega, 
 G. Zheng, W. Liang, M. Hada, M. Ehara, K. Toyota, R. Fukuda, 
 J. Hasegawa, M. Ishida, T. Nakajima, Y. Honda, O. Kitao, H. Nakai, 
 T. Vreven, K. Throssell, J. A. Montgomery, Jr., J. E. Peralta, 
 F. Ogliaro, M. J. Bearpark, J. J. Heyd, E. N. Brothers, K. N. Kudin, 
 V. N. Staroverov, T. A. Keith, R. Kobayashi, J. Normand, 
 K. Raghavachari, A. P. Rendell, J. C. Burant, S. S. Iyengar, 
 J. Tomasi, M. Cossi, J. M. Millam, M. Klene, C. Adamo, R. Cammi, 
 J. W. Ochterski, R. L. Martin, K. Morokuma, O. Farkas, 
 J. B. Foresman, and D. J. Fox, Gaussian, Inc., Wallingford CT, 2016.
 
 ******************************************
 Gaussian 16:  ES64L-G16RevA.03 25-Dec-2016
                26-May-2022 
 ******************************************
 %chk=BH-0.9-MP2-G.chk
 -------------------------
 #p RHF/aug-cc-pVQZ MP2=FC
 -------------------------
 1/38=1,172=1/1;
 2/12=2,17=6,18=5,40=1/2;
 3/5=16,6=2,7=10,11=1,25=1,30=1,116=1/1,2,3;
 4//1;
 5/5=2,38=5/2;
 8/10=1/1;
 9/16=-3/6;
 6/7=2,8=2,9=2,10=2/1;
 99/5=1,9=1/99;
 Leave Link    1 at Thu May 26 10:09:29 2022, MaxMem=           0 cpu:               0.0 elap:               0.0
 (Enter /apps/software/g16/l101.exe)
 -----------------------
 BH RMP2 at 0.9 Angstrom
 -----------------------
 Symbolic Z-matrix:
 Charge =  0 Multiplicity = 1
 B                     0.        0.        0. 
 H                     0.9       0.        0. 
 
 ITRead=  0  0
 MicOpt= -1 -1
 NAtoms=      2 NQM=        2 NQMF=       0 NMMI=      0 NMMIF=      0
                NMic=       0 NMicF=      0.
                    Isotopes and Nuclear Properties:
 (Nuclear quadrupole moments (NQMom) in fm**2, nuclear magnetic moments (NMagM)
  in nuclear magnetons)

  Atom         1           2
 IAtWgt=          11           1
 AtmWgt=  11.0093053   1.0078250
 NucSpn=           3           1
 AtZEff=  -0.0000000  -0.0000000
 NQMom=    4.0590000   0.0000000
 NMagM=    2.6886370   2.7928460
 AtZNuc=   5.0000000   1.0000000
 Leave Link  101 at Thu May 26 10:09:29 2022, MaxMem=   104857600 cpu:               0.1 elap:               0.1
 (Enter /apps/software/g16/l202.exe)
                          Input orientation:                          
 ---------------------------------------------------------------------
 Center     Atomic      Atomic             Coordinates (Angstroms)
 Number     Number       Type             X           Y           Z
 ---------------------------------------------------------------------
      1          5           0        0.000000    0.000000    0.000000
      2          1           0        0.900000    0.000000    0.000000
 ---------------------------------------------------------------------
 Stoichiometry    BH
 Framework group  C*V[C*(HB)]
 Deg. of freedom     1
 Full point group                 C*V     NOp   4
 Largest Abelian subgroup         C2V     NOp   4
 Largest concise Abelian subgroup C1      NOp   1
                         Standard orientation:                         
 ---------------------------------------------------------------------
 Center     Atomic      Atomic             Coordinates (Angstroms)
 Number     Number       Type             X           Y           Z
 ---------------------------------------------------------------------
      1          5           0        0.000000    0.000000    0.150000
      2          1           0        0.000000    0.000000   -0.750000
 ---------------------------------------------------------------------
 Rotational constants (GHZ):           0.0000000         675.7528621         675.7528621
 Leave Link  202 at Thu May 26 10:09:29 2022, MaxMem=   104857600 cpu:               0.0 elap:               0.0
 (Enter /apps/software/g16/l301.exe)
 Standard basis: Aug-CC-pVQZ (5D, 7F)
 Ernie: Thresh=  0.10000D-02 Tol=  0.10000D-05 Strict=F.
 Ernie:  4 primitive shells out of 54 were deleted.
 There are    68 symmetry adapted cartesian basis functions of A1  symmetry.
 There are    18 symmetry adapted cartesian basis functions of A2  symmetry.
 There are    37 symmetry adapted cartesian basis functions of B1  symmetry.
 There are    37 symmetry adapted cartesian basis functions of B2  symmetry.
 There are    50 symmetry adapted basis functions of A1  symmetry.
 There are    16 symmetry adapted basis functions of A2  symmetry.
 There are    30 symmetry adapted basis functions of B1  symmetry.
 There are    30 symmetry adapted basis functions of B2  symmetry.
   126 basis functions,   180 primitive gaussians,   160 cartesian basis functions
     3 alpha electrons        3 beta electrons
       nuclear repulsion energy         2.9398733940 Hartrees.
 IExCor=    0 DFT=F Ex=HF Corr=None ExCW=0 ScaHFX=  1.000000
 ScaDFX=  1.000000  1.000000  1.000000  1.000000 ScalE2=  1.000000  1.000000
 IRadAn=      5 IRanWt=     -1 IRanGd=            0 ICorTp=0 IEmpDi=  4
 NAtoms=    2 NActive=    2 NUniq=    2 SFac= 1.00D+00 NAtFMM=   60 NAOKFM=F Big=F
 Integral buffers will be    131072 words long.
 Raffenetti 1 integral format.
 Two-electron integral symmetry is turned on.
 Leave Link  301 at Thu May 26 10:09:29 2022, MaxMem=   104857600 cpu:               0.1 elap:               0.1
 (Enter /apps/software/g16/l302.exe)
 NPDir=0 NMtPBC=     1 NCelOv=     1 NCel=       1 NClECP=     1 NCelD=      1
         NCelK=      1 NCelE2=     1 NClLst=     1 CellRange=     0.0.
 One-electron integrals computed using PRISM.
 One-electron integral symmetry used in STVInt
 NBasis=   126 RedAO= T EigKep=  4.25D-05  NBF=    50    16    30    30
 NBsUse=   126 1.00D-06 EigRej= -1.00D+00 NBFU=    50    16    30    30
 Leave Link  302 at Thu May 26 10:09:29 2022, MaxMem=   104857600 cpu:               0.1 elap:               0.1
 (Enter /apps/software/g16/l303.exe)
 DipDrv:  MaxL=1.
 Leave Link  303 at Thu May 26 10:09:29 2022, MaxMem=   104857600 cpu:               0.0 elap:               0.0
 (Enter /apps/software/g16/l401.exe)
 ExpMin= 1.88D-02 ExpMax= 2.39D+04 ExpMxC= 2.30D+02 IAcc=3 IRadAn=         5 AccDes= 0.00D+00
 Harris functional with IExCor=  205 and IRadAn=       5 diagonalized for initial guess.
 HarFok:  IExCor=  205 AccDes= 0.00D+00 IRadAn=         5 IDoV= 1 UseB2=F ITyADJ=14
 ICtDFT=  3500011 ScaDFX=  1.000000  1.000000  1.000000  1.000000
 FoFCou: FMM=F IPFlag=           0 FMFlag=      100000 FMFlg1=           0
         NFxFlg=           0 DoJE=T BraDBF=F KetDBF=T FulRan=T
         wScrn=  0.000000 ICntrl=       500 IOpCl=  0 I1Cent=   200000004 NGrid=           0
         NMat0=    1 NMatS0=      1 NMatT0=    0 NMatD0=    1 NMtDS0=    0 NMtDT0=    0
 Petite list used in FoFCou.
 Harris En= -25.0506984648314    
 JPrj=0 DoOrth=F DoCkMO=F.
 Initial guess orbital symmetries:
       Occupied  (SG) (SG) (SG)
       Virtual   (PI) (PI) (SG) (SG) (PI) (PI) (SG) (PI) (PI) (SG)
                 (DLTA) (DLTA) (SG) (PI) (PI) (SG) (PI) (PI) (SG)
                 (SG) (DLTA) (DLTA) (PI) (PI) (DLTA) (DLTA) (PHI)
                 (PHI) (SG) (SG) (PI) (PI) (PI) (PI) (SG) (DLTA)
                 (DLTA) (SG) (PI) (PI) (SG) (PI) (PI) (SG) (DLTA)
                 (DLTA) (PHI) (PHI) (?A) (?A) (DLTA) (DLTA) (SG)
                 (PI) (PI) (PHI) (PHI) (SG) (PI) (PI) (DLTA) (DLTA)
                 (SG) (PI) (PI) (SG) (PHI) (PHI) (DLTA) (DLTA)
                 (SG) (PI) (PI) (SG) (PI) (PI) (SG) (PI) (PI) (DLTA)
                 (DLTA) (SG) (DLTA) (DLTA) (PHI) (PHI) (PI) (PI)
                 (?A) (?A) (SG) (DLTA) (DLTA) (PHI) (PHI) (PI)
                 (PI) (SG) (PI) (PI) (DLTA) (DLTA) (SG) (SG) (PI)
                 (PI) (PHI) (PHI) (SG) (PI) (PI) (DLTA) (DLTA)
                 (SG) (DLTA) (DLTA) (PI) (PI) (SG) (PI) (PI) (SG)
                 (SG)
 The electronic state of the initial guess is 1-SG.
 Leave Link  401 at Thu May 26 10:09:30 2022, MaxMem=   104857600 cpu:               0.2 elap:               0.2
 (Enter /apps/software/g16/l502.exe)
 Keep R1 ints in memory in symmetry-blocked form, NReq=40143665.
 FoFCou: FMM=F IPFlag=           0 FMFlag=           0 FMFlg1=           0
         NFxFlg=           0 DoJE=F BraDBF=F KetDBF=F FulRan=T
         wScrn=  0.000000 ICntrl=       600 IOpCl=  0 I1Cent=           0 NGrid=           0
         NMat0=    1 NMatS0=   8001 NMatT0=    0 NMatD0=    1 NMtDS0=    0 NMtDT0=    0
 Petite list used in FoFCou.
 Closed shell SCF:
 Using DIIS extrapolation, IDIIS=  1040.
 NGot=   104857600 LenX=    96673173 LenY=    96647132
 Requested convergence on RMS density matrix=1.00D-08 within 128 cycles.
 Requested convergence on MAX density matrix=1.00D-06.
 Requested convergence on             energy=1.00D-06.
 No special actions if energy rises.

 Cycle   1  Pass 1  IDiag  1:
 E= -25.0442081279900    
 DIIS: error= 2.24D-02 at cycle   1 NSaved=   1.
 NSaved= 1 IEnMin= 1 EnMin= -25.0442081279900     IErMin= 1 ErrMin= 2.24D-02
 ErrMax= 2.24D-02  0.00D+00 EMaxC= 1.00D-01 BMatC= 3.89D-02 BMatP= 3.89D-02
 IDIUse=3 WtCom= 7.76D-01 WtEn= 2.24D-01
 Coeff-Com:  0.100D+01
 Coeff-En:   0.100D+01
 Coeff:      0.100D+01
 Gap=     0.372 Goal=   None    Shift=    0.000
 GapD=    0.372 DampG=1.000 DampE=0.500 DampFc=0.5000 IDamp=-1.
 Damping current iteration by 5.00D-01
 RMSDP=1.94D-03 MaxDP=7.53D-02              OVMax= 5.00D-02

 Cycle   2  Pass 1  IDiag  1:
 E= -25.0516175938687     Delta-E=       -0.007409465879 Rises=F Damp=T
 DIIS: error= 1.17D-02 at cycle   2 NSaved=   2.
 NSaved= 2 IEnMin= 2 EnMin= -25.0516175938687     IErMin= 2 ErrMin= 1.17D-02
 ErrMax= 1.17D-02  0.00D+00 EMaxC= 1.00D-01 BMatC= 1.13D-02 BMatP= 3.89D-02
 IDIUse=3 WtCom= 8.83D-01 WtEn= 1.17D-01
 Coeff-Com: -0.116D+01 0.216D+01
 Coeff-En:   0.000D+00 0.100D+01
 Coeff:     -0.102D+01 0.202D+01
 Gap=     0.366 Goal=   None    Shift=    0.000
 RMSDP=1.14D-03 MaxDP=4.48D-02 DE=-7.41D-03 OVMax= 5.85D-03

 Cycle   3  Pass 1  IDiag  1:
 E= -25.0597264877751     Delta-E=       -0.008108893906 Rises=F Damp=F
 DIIS: error= 3.45D-04 at cycle   3 NSaved=   3.
 NSaved= 3 IEnMin= 3 EnMin= -25.0597264877751     IErMin= 3 ErrMin= 3.45D-04
 ErrMax= 3.45D-04  0.00D+00 EMaxC= 1.00D-01 BMatC= 5.44D-06 BMatP= 1.13D-02
 IDIUse=3 WtCom= 9.97D-01 WtEn= 3.45D-03
 Coeff-Com:  0.217D+00-0.415D+00 0.120D+01
 Coeff-En:   0.000D+00 0.000D+00 0.100D+01
 Coeff:      0.216D+00-0.414D+00 0.120D+01
 Gap=     0.365 Goal=   None    Shift=    0.000
 RMSDP=4.14D-05 MaxDP=2.17D-03 DE=-8.11D-03 OVMax= 2.33D-03

 Cycle   4  Pass 1  IDiag  1:
 E= -25.0597375436110     Delta-E=       -0.000011055836 Rises=F Damp=F
 DIIS: error= 1.11D-04 at cycle   4 NSaved=   4.
 NSaved= 4 IEnMin= 4 EnMin= -25.0597375436110     IErMin= 4 ErrMin= 1.11D-04
 ErrMax= 1.11D-04  0.00D+00 EMaxC= 1.00D-01 BMatC= 1.87D-07 BMatP= 5.44D-06
 IDIUse=3 WtCom= 9.99D-01 WtEn= 1.11D-03
 Coeff-Com: -0.270D-01 0.528D-01-0.313D+00 0.129D+01
 Coeff-En:   0.000D+00 0.000D+00 0.000D+00 0.100D+01
 Coeff:     -0.269D-01 0.527D-01-0.312D+00 0.129D+01
 Gap=     0.365 Goal=   None    Shift=    0.000
 RMSDP=1.66D-05 MaxDP=1.12D-03 DE=-1.11D-05 OVMax= 8.33D-04

 Cycle   5  Pass 1  IDiag  1:
 E= -25.0597383267629     Delta-E=       -0.000000783152 Rises=F Damp=F
 DIIS: error= 2.44D-05 at cycle   5 NSaved=   5.
 NSaved= 5 IEnMin= 5 EnMin= -25.0597383267629     IErMin= 5 ErrMin= 2.44D-05
 ErrMax= 2.44D-05  0.00D+00 EMaxC= 1.00D-01 BMatC= 6.05D-09 BMatP= 1.87D-07
 IDIUse=1 WtCom= 1.00D+00 WtEn= 0.00D+00
 Coeff-Com:  0.900D-03-0.189D-02 0.395D-01-0.324D+00 0.129D+01
 Coeff:      0.900D-03-0.189D-02 0.395D-01-0.324D+00 0.129D+01
 Gap=     0.365 Goal=   None    Shift=    0.000
 RMSDP=5.28D-06 MaxDP=3.25D-04 DE=-7.83D-07 OVMax= 2.12D-04

 Cycle   6  Pass 1  IDiag  1:
 E= -25.0597383620326     Delta-E=       -0.000000035270 Rises=F Damp=F
 DIIS: error= 3.67D-06 at cycle   6 NSaved=   6.
 NSaved= 6 IEnMin= 6 EnMin= -25.0597383620326     IErMin= 6 ErrMin= 3.67D-06
 ErrMax= 3.67D-06  0.00D+00 EMaxC= 1.00D-01 BMatC= 1.97D-10 BMatP= 6.05D-09
 IDIUse=1 WtCom= 1.00D+00 WtEn= 0.00D+00
 Coeff-Com:  0.103D-03-0.187D-03-0.516D-02 0.646D-01-0.407D+00 0.135D+01
 Coeff:      0.103D-03-0.187D-03-0.516D-02 0.646D-01-0.407D+00 0.135D+01
 Gap=     0.365 Goal=   None    Shift=    0.000
 RMSDP=1.04D-06 MaxDP=5.41D-05 DE=-3.53D-08 OVMax= 4.24D-05

 Cycle   7  Pass 1  IDiag  1:
 E= -25.0597383631845     Delta-E=       -0.000000001152 Rises=F Damp=F
 DIIS: error= 3.48D-07 at cycle   7 NSaved=   7.
 NSaved= 7 IEnMin= 7 EnMin= -25.0597383631845     IErMin= 7 ErrMin= 3.48D-07
 ErrMax= 3.48D-07  0.00D+00 EMaxC= 1.00D-01 BMatC= 3.70D-12 BMatP= 1.97D-10
 IDIUse=1 WtCom= 1.00D+00 WtEn= 0.00D+00
 Coeff-Com: -0.134D-03 0.257D-03 0.314D-03-0.124D-01 0.102D+00-0.436D+00
 Coeff-Com:  0.135D+01
 Coeff:     -0.134D-03 0.257D-03 0.314D-03-0.124D-01 0.102D+00-0.436D+00
 Coeff:      0.135D+01
 Gap=     0.365 Goal=   None    Shift=    0.000
 RMSDP=5.44D-08 MaxDP=1.90D-06 DE=-1.15D-09 OVMax= 4.38D-06

 Cycle   8  Pass 1  IDiag  1:
 E= -25.0597383631996     Delta-E=       -0.000000000015 Rises=F Damp=F
 DIIS: error= 3.89D-08 at cycle   8 NSaved=   8.
 NSaved= 8 IEnMin= 8 EnMin= -25.0597383631996     IErMin= 8 ErrMin= 3.89D-08
 ErrMax= 3.89D-08  0.00D+00 EMaxC= 1.00D-01 BMatC= 5.84D-14 BMatP= 3.70D-12
 IDIUse=1 WtCom= 1.00D+00 WtEn= 0.00D+00
 Coeff-Com:  0.283D-04-0.543D-04-0.115D-03 0.328D-02-0.267D-01 0.118D+00
 Coeff-Com: -0.431D+00 0.134D+01
 Coeff:      0.283D-04-0.543D-04-0.115D-03 0.328D-02-0.267D-01 0.118D+00
 Coeff:     -0.431D+00 0.134D+01
 Gap=     0.365 Goal=   None    Shift=    0.000
 RMSDP=2.05D-08 MaxDP=1.07D-06 DE=-1.51D-11 OVMax= 3.71D-07

 Cycle   9  Pass 1  IDiag  1:
 E= -25.0597383631997     Delta-E=       -0.000000000000 Rises=F Damp=F
 DIIS: error= 2.52D-09 at cycle   9 NSaved=   9.
 NSaved= 9 IEnMin= 9 EnMin= -25.0597383631997     IErMin= 9 ErrMin= 2.52D-09
 ErrMax= 2.52D-09  0.00D+00 EMaxC= 1.00D-01 BMatC= 4.14D-16 BMatP= 5.84D-14
 IDIUse=1 WtCom= 1.00D+00 WtEn= 0.00D+00
 Coeff-Com: -0.547D-05 0.105D-04 0.171D-04-0.576D-03 0.480D-02-0.216D-01
 Coeff-Com:  0.833D-01-0.300D+00 0.123D+01
 Coeff:     -0.547D-05 0.105D-04 0.171D-04-0.576D-03 0.480D-02-0.216D-01
 Coeff:      0.833D-01-0.300D+00 0.123D+01
 Gap=     0.365 Goal=   None    Shift=    0.000
 RMSDP=2.16D-09 MaxDP=6.19D-08 DE=-1.39D-13 OVMax= 4.27D-08

 SCF Done:  E(RHF) =  -25.0597383632     A.U. after    9 cycles
            NFock=  9  Conv=0.22D-08     -V/T= 1.9791
 KE= 2.559411554649D+01 PE=-6.411972614044D+01 EE= 1.052599883675D+01
 Leave Link  502 at Thu May 26 10:09:33 2022, MaxMem=   104857600 cpu:               3.6 elap:               3.6
 (Enter /apps/software/g16/l801.exe)
 ExpMin= 1.88D-02 ExpMax= 2.39D+04 ExpMxC= 2.30D+02 IAcc=3 IRadAn=         5 AccDes= 0.00D+00
 HarFok:  IExCor=  205 AccDes= 0.00D+00 IRadAn=         5 IDoV=-2 UseB2=F ITyADJ=14
 ICtDFT= 12500011 ScaDFX=  1.000000  1.000000  1.000000  1.000000
 Largest valence mixing into a core orbital is  2.97D-04
 Largest core mixing into a valence orbital is  5.74D-05
 Range of M.O.s used for correlation:     2   126
 NBasis=   126 NAE=     3 NBE=     3 NFC=     1 NFV=     0
 NROrb=    125 NOA=     2 NOB=     2 NVA=   123 NVB=   123

 **** Warning!!: The largest alpha MO coefficient is  0.44370054D+02

 Leave Link  801 at Thu May 26 10:09:33 2022, MaxMem=   104857600 cpu:               0.1 elap:               0.1
 (Enter /apps/software/g16/l906.exe)
 FulOut=F Deriv=F AODrv=F NAtomX=     2
   MMem=         940  MDisk=           2 MDiskD=           2
  W3Min=       39360 MinDsk=      297938 NBas6D=         160
 NBas2D=       13447    NTT=       12880    LW2=     4508827
    MDV=   104742513 MDiskM=        1426 NBas2p=       13447
 Fully direct method using O(OVN) memory.
 IMap=   1   2
 JobTyp=1 Pass  1:  I=   1 to   2 NPSUse=  1 ParTrn=F ParDer=F DoDerP=F.
 Spin components of T(2) and E(2):
     alpha-alpha T2 =       0.9830922487D-03 E2=     -0.2475220532D-02
     alpha-beta  T2 =       0.3199170518D-01 E2=     -0.7340763549D-01
     beta-beta   T2 =       0.9830922487D-03 E2=     -0.2475220532D-02
 The integrals were generated   1 times.
 ANorm=    0.1016837199D+01
 E2 =    -0.7835807656D-01 EUMP2 =    -0.25138096439758D+02
 Leave Link  906 at Thu May 26 10:09:36 2022, MaxMem=   104857600 cpu:               2.8 elap:               2.8
 (Enter /apps/software/g16/l601.exe)
 Copying SCF densities to generalized density rwf, IOpCl= 0 IROHF=0.

 **********************************************************************

            Population analysis using the SCF density.

 **********************************************************************

 Orbital symmetries:
       Occupied  (SG) (SG) (SG)
       Virtual   (PI) (PI) (SG) (SG) (PI) (PI) (SG) (PI) (PI) (SG)
                 (DLTA) (DLTA) (SG) (PI) (PI) (SG) (PI) (PI) (SG)
                 (DLTA) (DLTA) (SG) (PHI) (PHI) (PI) (PI) (SG)
                 (DLTA) (DLTA) (SG) (PI) (PI) (SG) (PI) (PI) (DLTA)
                 (DLTA) (SG) (SG) (PI) (PI) (PI) (PI) (?A) (?A)
                 (PHI) (PHI) (SG) (DLTA) (DLTA) (DLTA) (DLTA) (PHI)
                 (PHI) (PI) (PI) (SG) (SG) (PI) (PI) (DLTA) (DLTA)
                 (SG) (PI) (PI) (SG) (PHI) (PHI) (DLTA) (DLTA)
                 (SG) (PI) (PI) (SG) (PI) (PI) (SG) (PI) (PI) (DLTA)
                 (DLTA) (?A) (?A) (PHI) (PHI) (SG) (DLTA) (DLTA)
                 (PI) (PI) (DLTA) (DLTA) (SG) (PHI) (PHI) (PI)
                 (PI) (SG) (PI) (PI) (DLTA) (DLTA) (SG) (SG) (PI)
                 (PI) (PHI) (PHI) (SG) (DLTA) (DLTA) (PI) (PI)
                 (SG) (DLTA) (DLTA) (PI) (PI) (SG) (PI) (PI) (SG)
                 (SG)
 The electronic state is 1-SG.
 Alpha  occ. eigenvalues --   -7.64826  -0.74828  -0.34027
 Alpha virt. eigenvalues --    0.02479   0.02479   0.02772   0.04449   0.07945
 Alpha virt. eigenvalues --    0.07945   0.11984   0.13197   0.13197   0.14402
 Alpha virt. eigenvalues --    0.14531   0.14531   0.17693   0.27095   0.27095
 Alpha virt. eigenvalues --    0.28471   0.33066   0.33066   0.41420   0.43310
 Alpha virt. eigenvalues --    0.43310   0.43958   0.46182   0.46182   0.47732
 Alpha virt. eigenvalues --    0.47732   0.50343   0.50412   0.50412   0.58487
 Alpha virt. eigenvalues --    0.60600   0.60600   0.77564   0.77703   0.77703
 Alpha virt. eigenvalues --    0.81644   0.81644   1.00907   1.03853   1.04232
 Alpha virt. eigenvalues --    1.04232   1.20833   1.20833   1.37062   1.37062
 Alpha virt. eigenvalues --    1.37508   1.37508   1.37646   1.40300   1.40300
 Alpha virt. eigenvalues --    1.43814   1.43814   1.44297   1.44297   1.46950
 Alpha virt. eigenvalues --    1.46950   1.47972   1.63322   1.64583   1.64583
 Alpha virt. eigenvalues --    1.72781   1.72781   1.88328   1.90571   1.90571
 Alpha virt. eigenvalues --    1.98684   2.01595   2.01595   2.02421   2.02421
 Alpha virt. eigenvalues --    2.14140   2.22467   2.22467   2.99665   3.16365
 Alpha virt. eigenvalues --    3.16365   3.32105   3.33169   3.33169   3.42253
 Alpha virt. eigenvalues --    3.42253   3.92418   3.92418   3.94312   3.94312
 Alpha virt. eigenvalues --    3.94790   3.97267   3.97267   4.05889   4.05889
 Alpha virt. eigenvalues --    4.07905   4.07905   4.08631   4.10132   4.10132
 Alpha virt. eigenvalues --    4.37331   4.37331   4.58971   4.68214   4.68214
 Alpha virt. eigenvalues --    4.81108   4.81108   5.70244   5.86315   6.02626
 Alpha virt. eigenvalues --    6.02626   6.97219   6.97219   7.95913   7.96482
 Alpha virt. eigenvalues --    7.96482   7.98085   7.98085   8.80047   9.11622
 Alpha virt. eigenvalues --    9.11622   9.24966   9.24966  10.30476  10.44929
 Alpha virt. eigenvalues --   10.44929  12.19583  18.21062
          Condensed to atoms (all electrons):
               1          2
     1  B    4.944835   0.084382
     2  H    0.084382   0.886400
 Mulliken charges:
               1
     1  B   -0.029217
     2  H    0.029217
 Sum of Mulliken charges =   0.00000
 Mulliken charges with hydrogens summed into heavy atoms:
               1
     1  B    0.000000
 Electronic spatial extent (au):  <R**2>=             19.6665
 Charge=              0.0000 electrons
 Dipole moment (field-independent basis, Debye):
    X=              0.0000    Y=              0.0000    Z=             -2.5150  Tot=              2.5150
 Quadrupole moment (field-independent basis, Debye-Ang):
   XX=             -6.5407   YY=             -6.5407   ZZ=            -10.1286
   XY=              0.0000   XZ=              0.0000   YZ=              0.0000
 Traceless Quadrupole moment (field-independent basis, Debye-Ang):
   XX=              1.1960   YY=              1.1960   ZZ=             -2.3919
   XY=              0.0000   XZ=              0.0000   YZ=              0.0000
 Octapole moment (field-independent basis, Debye-Ang**2):
  XXX=              0.0000  YYY=              0.0000  ZZZ=             -7.2387  XYY=              0.0000
  XXY=              0.0000  XXZ=             -2.3496  XZZ=              0.0000  YZZ=              0.0000
  YYZ=             -2.3496  XYZ=              0.0000
 Hexadecapole moment (field-independent basis, Debye-Ang**3):
 XXXX=            -10.3540 YYYY=            -10.3540 ZZZZ=            -23.7359 XXXY=              0.0000
 XXXZ=              0.0000 YYYX=              0.0000 YYYZ=              0.0000 ZZZX=              0.0000
 ZZZY=              0.0000 XXYY=             -3.4513 XXZZ=             -5.7362 YYZZ=             -5.7362
 XXYZ=              0.0000 YYXZ=              0.0000 ZZXY=              0.0000
 N-N= 2.939873394000D+00 E-N=-6.411972615659D+01  KE= 2.559411554649D+01
 Symmetry A1   KE= 2.559411554649D+01
 Symmetry A2   KE=-3.662517912170D-51
 Symmetry B1   KE= 0.000000000000D+00
 Symmetry B2   KE= 0.000000000000D+00
 Leave Link  601 at Thu May 26 10:09:36 2022, MaxMem=   104857600 cpu:               0.0 elap:               0.1
 (Enter /apps/software/g16/l9999.exe)
 1\1\GINC-CNODE16\SP\RMP2-FC\Aug-CC-pVQZ\B1H1\LCZ\26-May-2022\0\\#p RHF
 /aug-cc-pVQZ MP2=FC\\BH RMP2 at 0.9 Angstrom\\0,1\B,0,0.,0.,0.\H,0,0.9
 ,0.,0.\\Version=ES64L-G16RevA.03\State=1-SG\HF=-25.0597384\MP2=-25.138
 0964\RMSD=2.160e-09\PG=C*V [C*(H1B1)]\\@


 IF YOU DON'T HAVE THE LAW - ARGUE THE FACTS.
 IF YOU DON'T HAVE THE FACTS - ARGUE THE LAW.
 IF YOU DON'T HAVE EITHER - POUND THE TABLE.
 Job cpu time:       0 days  0 hours  0 minutes  7.2 seconds.
 Elapsed time:       0 days  0 hours  0 minutes  7.2 seconds.
 File lengths (MBytes):  RWF=     10 Int=      0 D2E=      0 Chk=      3 Scr=      1
 Normal termination of Gaussian 16 at Thu May 26 10:09:36 2022.

Sender: Unischeduler System <lcz@mgt01>
Subject: Job 136151: <#!/bin/bash
#BSUB -J intel
#BSUB -o BH-0.9-MP2-G.out
#BSUB -n 8
#BSUB -q cqueue
#BSUB -R span[hosts=1]
export g16root=/apps/software
source /apps/software/g16/bsd/g16.profile
export GAUSS_SCRDIR=/scratch
/apps/software/g16/g16 < BH-0.9-MP2-G.inp > BH-0.9-MP2-G.out> Done

Job <#!/bin/bash
#BSUB -J intel
#BSUB -o BH-0.9-MP2-G.out
#BSUB -n 8
#BSUB -q cqueue
#BSUB -R span[hosts=1]
export g16root=/apps/software
source /apps/software/g16/bsd/g16.profile
export GAUSS_SCRDIR=/scratch
/apps/software/g16/g16 < BH-0.9-MP2-G.inp > BH-0.9-MP2-G.out> was submitted from host <mgt01> by user <lcz>.
Job was executed on host(s) <8*cnode16>, in queue <cqueue>, as user <lcz>.
</apps/users/lcz> was used as the home directory.
</apps/users/lcz/exe13/GMP2> was used as the working directory.
Started at 2022-05-26 10:09:29
Results reported at 2022-05-26 10:09:36

Your job looked like:

------------------------------------------------------------
# User input
#!/bin/bash
#BSUB -J intel
#BSUB -o BH-0.9-MP2-G.out
#BSUB -n 8
#BSUB -q cqueue
#BSUB -R span[hosts=1]
export g16root=/apps/software
source /apps/software/g16/bsd/g16.profile
export GAUSS_SCRDIR=/scratch
/apps/software/g16/g16 < BH-0.9-MP2-G.inp > BH-0.9-MP2-G.out
------------------------------------------------------------

Successfully completed.

Resource usage summary:

    Max Memory :                 0 MB
    Max Processes  :               1


The output (if any) follows:

