 Entering Gaussian System, Link 0=/apps/software/g16/g16
 Initial command:
 /apps/software/g16/l1.exe "/scratch/Gau-223530.inp" -scrdir="/scratch/"
 Entering Link 1 = /apps/software/g16/l1.exe PID=    223531.
  
 Copyright (c) 1988,1990,1992,1993,1995,1998,2003,2009,2016,
            Gaussian, Inc.  All Rights Reserved.
  
 This is part of the Gaussian(R) 16 program.  It is based on
 the Gaussian(R) 09 system (copyright 2009, Gaussian, Inc.),
 the Gaussian(R) 03 system (copyright 2003, Gaussian, Inc.),
 the Gaussian(R) 98 system (copyright 1998, Gaussian, Inc.),
 the Gaussian(R) 94 system (copyright 1995, Gaussian, Inc.),
 the Gaussian 92(TM) system (copyright 1992, Gaussian, Inc.),
 the Gaussian 90(TM) system (copyright 1990, Gaussian, Inc.),
 the Gaussian 88(TM) system (copyright 1988, Gaussian, Inc.),
 the Gaussian 86(TM) system (copyright 1986, Carnegie Mellon
 University), and the Gaussian 82(TM) system (copyright 1983,
 Carnegie Mellon University). Gaussian is a federally registered
 trademark of Gaussian, Inc.
  
 This software contains proprietary and confidential information,
 including trade secrets, belonging to Gaussian, Inc.
  
 This software is provided under written license and may be
 used, copied, transmitted, or stored only in accord with that
 written license.
  
 The following legend is applicable only to US Government
 contracts under FAR:
  
                    RESTRICTED RIGHTS LEGEND
  
 Use, reproduction and disclosure by the US Government is
 subject to restrictions as set forth in subparagraphs (a)
 and (c) of the Commercial Computer Software - Restricted
 Rights clause in FAR 52.227-19.
  
 Gaussian, Inc.
 340 Quinnipiac St., Bldg. 40, Wallingford CT 06492
  
  
 ---------------------------------------------------------------
 Warning -- This program may not be used in any manner that
 competes with the business of Gaussian, Inc. or will provide
 assistance to any competitor of Gaussian, Inc.  The licensee
 of this program is prohibited from giving any competitor of
 Gaussian, Inc. access to this program.  By using this program,
 the user acknowledges that Gaussian, Inc. is engaged in the
 business of creating and licensing software in the field of
 computational chemistry and represents and warrants to the
 licensee that it is not a competitor of Gaussian, Inc. and that
 it will not use this program in any manner prohibited above.
 ---------------------------------------------------------------
  

 Cite this work as:
 Gaussian 16, Revision A.03,
 M. J. Frisch, G. W. Trucks, H. B. Schlegel, G. E. Scuseria, 
 M. A. Robb, J. R. Cheeseman, G. Scalmani, V. Barone, 
 G. A. Petersson, H. Nakatsuji, X. Li, M. Caricato, A. V. Marenich, 
 J. Bloino, B. G. Janesko, R. Gomperts, B. Mennucci, H. P. Hratchian, 
 J. V. Ortiz, A. F. Izmaylov, J. L. Sonnenberg, D. Williams-Young, 
 F. Ding, F. Lipparini, F. Egidi, J. Goings, B. Peng, A. Petrone, 
 T. Henderson, D. Ranasinghe, V. G. Zakrzewski, J. Gao, N. Rega, 
 G. Zheng, W. Liang, M. Hada, M. Ehara, K. Toyota, R. Fukuda, 
 J. Hasegawa, M. Ishida, T. Nakajima, Y. Honda, O. Kitao, H. Nakai, 
 T. Vreven, K. Throssell, J. A. Montgomery, Jr., J. E. Peralta, 
 F. Ogliaro, M. J. Bearpark, J. J. Heyd, E. N. Brothers, K. N. Kudin, 
 V. N. Staroverov, T. A. Keith, R. Kobayashi, J. Normand, 
 K. Raghavachari, A. P. Rendell, J. C. Burant, S. S. Iyengar, 
 J. Tomasi, M. Cossi, J. M. Millam, M. Klene, C. Adamo, R. Cammi, 
 J. W. Ochterski, R. L. Martin, K. Morokuma, O. Farkas, 
 J. B. Foresman, and D. J. Fox, Gaussian, Inc., Wallingford CT, 2016.
 
 ******************************************
 Gaussian 16:  ES64L-G16RevA.03 25-Dec-2016
                26-May-2022 
 ******************************************
 %chk=BH-1.3-MP2-G.chk
 -------------------------
 #p RHF/aug-cc-pVQZ MP2=FC
 -------------------------
 1/38=1,172=1/1;
 2/12=2,17=6,18=5,40=1/2;
 3/5=16,6=2,7=10,11=1,25=1,30=1,116=1/1,2,3;
 4//1;
 5/5=2,38=5/2;
 8/10=1/1;
 9/16=-3/6;
 6/7=2,8=2,9=2,10=2/1;
 99/5=1,9=1/99;
 Leave Link    1 at Thu May 26 10:09:49 2022, MaxMem=           0 cpu:               0.0 elap:               0.0
 (Enter /apps/software/g16/l101.exe)
 -----------------------
 BH RMP2 at 1.3 Angstrom
 -----------------------
 Symbolic Z-matrix:
 Charge =  0 Multiplicity = 1
 B                     0.        0.        0. 
 H                     1.3       0.        0. 
 
 ITRead=  0  0
 MicOpt= -1 -1
 NAtoms=      2 NQM=        2 NQMF=       0 NMMI=      0 NMMIF=      0
                NMic=       0 NMicF=      0.
                    Isotopes and Nuclear Properties:
 (Nuclear quadrupole moments (NQMom) in fm**2, nuclear magnetic moments (NMagM)
  in nuclear magnetons)

  Atom         1           2
 IAtWgt=          11           1
 AtmWgt=  11.0093053   1.0078250
 NucSpn=           3           1
 AtZEff=  -0.0000000  -0.0000000
 NQMom=    4.0590000   0.0000000
 NMagM=    2.6886370   2.7928460
 AtZNuc=   5.0000000   1.0000000
 Leave Link  101 at Thu May 26 10:09:49 2022, MaxMem=   104857600 cpu:               0.1 elap:               0.1
 (Enter /apps/software/g16/l202.exe)
                          Input orientation:                          
 ---------------------------------------------------------------------
 Center     Atomic      Atomic             Coordinates (Angstroms)
 Number     Number       Type             X           Y           Z
 ---------------------------------------------------------------------
      1          5           0        0.000000    0.000000    0.000000
      2          1           0        1.300000    0.000000    0.000000
 ---------------------------------------------------------------------
 Stoichiometry    BH
 Framework group  C*V[C*(HB)]
 Deg. of freedom     1
 Full point group                 C*V     NOp   4
 Largest Abelian subgroup         C2V     NOp   4
 Largest concise Abelian subgroup C1      NOp   1
                         Standard orientation:                         
 ---------------------------------------------------------------------
 Center     Atomic      Atomic             Coordinates (Angstroms)
 Number     Number       Type             X           Y           Z
 ---------------------------------------------------------------------
      1          5           0        0.000000    0.000000    0.216667
      2          1           0        0.000000    0.000000   -1.083333
 ---------------------------------------------------------------------
 Rotational constants (GHZ):           0.0000000         323.8815493         323.8815493
 Leave Link  202 at Thu May 26 10:09:49 2022, MaxMem=   104857600 cpu:               0.0 elap:               0.0
 (Enter /apps/software/g16/l301.exe)
 Standard basis: Aug-CC-pVQZ (5D, 7F)
 Ernie: Thresh=  0.10000D-02 Tol=  0.10000D-05 Strict=F.
 Ernie:  4 primitive shells out of 54 were deleted.
 There are    68 symmetry adapted cartesian basis functions of A1  symmetry.
 There are    18 symmetry adapted cartesian basis functions of A2  symmetry.
 There are    37 symmetry adapted cartesian basis functions of B1  symmetry.
 There are    37 symmetry adapted cartesian basis functions of B2  symmetry.
 There are    50 symmetry adapted basis functions of A1  symmetry.
 There are    16 symmetry adapted basis functions of A2  symmetry.
 There are    30 symmetry adapted basis functions of B1  symmetry.
 There are    30 symmetry adapted basis functions of B2  symmetry.
   126 basis functions,   180 primitive gaussians,   160 cartesian basis functions
     3 alpha electrons        3 beta electrons
       nuclear repulsion energy         2.0352969651 Hartrees.
 IExCor=    0 DFT=F Ex=HF Corr=None ExCW=0 ScaHFX=  1.000000
 ScaDFX=  1.000000  1.000000  1.000000  1.000000 ScalE2=  1.000000  1.000000
 IRadAn=      5 IRanWt=     -1 IRanGd=            0 ICorTp=0 IEmpDi=  4
 NAtoms=    2 NActive=    2 NUniq=    2 SFac= 1.00D+00 NAtFMM=   60 NAOKFM=F Big=F
 Integral buffers will be    131072 words long.
 Raffenetti 1 integral format.
 Two-electron integral symmetry is turned on.
 Leave Link  301 at Thu May 26 10:09:50 2022, MaxMem=   104857600 cpu:               0.1 elap:               0.1
 (Enter /apps/software/g16/l302.exe)
 NPDir=0 NMtPBC=     1 NCelOv=     1 NCel=       1 NClECP=     1 NCelD=      1
         NCelK=      1 NCelE2=     1 NClLst=     1 CellRange=     0.0.
 One-electron integrals computed using PRISM.
 One-electron integral symmetry used in STVInt
 NBasis=   126 RedAO= T EigKep=  1.36D-04  NBF=    50    16    30    30
 NBsUse=   126 1.00D-06 EigRej= -1.00D+00 NBFU=    50    16    30    30
 Leave Link  302 at Thu May 26 10:09:50 2022, MaxMem=   104857600 cpu:               0.1 elap:               0.1
 (Enter /apps/software/g16/l303.exe)
 DipDrv:  MaxL=1.
 Leave Link  303 at Thu May 26 10:09:50 2022, MaxMem=   104857600 cpu:               0.0 elap:               0.1
 (Enter /apps/software/g16/l401.exe)
 ExpMin= 1.88D-02 ExpMax= 2.39D+04 ExpMxC= 2.30D+02 IAcc=3 IRadAn=         5 AccDes= 0.00D+00
 Harris functional with IExCor=  205 and IRadAn=       5 diagonalized for initial guess.
 HarFok:  IExCor=  205 AccDes= 0.00D+00 IRadAn=         5 IDoV= 1 UseB2=F ITyADJ=14
 ICtDFT=  3500011 ScaDFX=  1.000000  1.000000  1.000000  1.000000
 FoFCou: FMM=F IPFlag=           0 FMFlag=      100000 FMFlg1=           0
         NFxFlg=           0 DoJE=T BraDBF=F KetDBF=T FulRan=T
         wScrn=  0.000000 ICntrl=       500 IOpCl=  0 I1Cent=   200000004 NGrid=           0
         NMat0=    1 NMatS0=      1 NMatT0=    0 NMatD0=    1 NMtDS0=    0 NMtDT0=    0
 Petite list used in FoFCou.
 Harris En= -25.1016437161538    
 JPrj=0 DoOrth=F DoCkMO=F.
 Initial guess orbital symmetries:
       Occupied  (SG) (SG) (SG)
       Virtual   (PI) (PI) (SG) (SG) (PI) (PI) (SG) (SG) (PI) (PI)
                 (DLTA) (DLTA) (SG) (SG) (PI) (PI) (PI) (PI) (SG)
                 (SG) (PI) (PI) (DLTA) (DLTA) (DLTA) (DLTA) (PHI)
                 (PHI) (SG) (SG) (PI) (PI) (SG) (PI) (PI) (SG)
                 (DLTA) (DLTA) (PI) (PI) (SG) (PI) (PI) (SG) (DLTA)
                 (DLTA) (PHI) (PHI) (SG) (PI) (PI) (?A) (?A) (DLTA)
                 (DLTA) (PHI) (PHI) (SG) (PI) (PI) (DLTA) (DLTA)
                 (SG) (PI) (PI) (PHI) (PHI) (SG) (DLTA) (DLTA)
                 (PI) (PI) (SG) (SG) (DLTA) (DLTA) (PI) (PI) (SG)
                 (PI) (PI) (SG) (PI) (PI) (DLTA) (DLTA) (PHI) (PHI)
                 (?A) (?A) (DLTA) (DLTA) (SG) (PHI) (PHI) (PI)
                 (PI) (PI) (PI) (DLTA) (DLTA) (SG) (SG) (PI) (PI)
                 (SG) (PHI) (PHI) (DLTA) (DLTA) (SG) (PI) (PI)
                 (SG) (PI) (PI) (DLTA) (DLTA) (PI) (PI) (SG) (SG)
                 (SG)
 The electronic state of the initial guess is 1-SG.
 Leave Link  401 at Thu May 26 10:09:50 2022, MaxMem=   104857600 cpu:               0.2 elap:               0.2
 (Enter /apps/software/g16/l502.exe)
 Keep R1 ints in memory in symmetry-blocked form, NReq=40143665.
 FoFCou: FMM=F IPFlag=           0 FMFlag=           0 FMFlg1=           0
         NFxFlg=           0 DoJE=F BraDBF=F KetDBF=F FulRan=T
         wScrn=  0.000000 ICntrl=       600 IOpCl=  0 I1Cent=           0 NGrid=           0
         NMat0=    1 NMatS0=   8001 NMatT0=    0 NMatD0=    1 NMtDS0=    0 NMtDT0=    0
 Petite list used in FoFCou.
 Closed shell SCF:
 Using DIIS extrapolation, IDIIS=  1040.
 NGot=   104857600 LenX=    96673173 LenY=    96647132
 Requested convergence on RMS density matrix=1.00D-08 within 128 cycles.
 Requested convergence on MAX density matrix=1.00D-06.
 Requested convergence on             energy=1.00D-06.
 No special actions if energy rises.

 Cycle   1  Pass 1  IDiag  1:
 E= -25.1196374064333    
 DIIS: error= 2.14D-02 at cycle   1 NSaved=   1.
 NSaved= 1 IEnMin= 1 EnMin= -25.1196374064333     IErMin= 1 ErrMin= 2.14D-02
 ErrMax= 2.14D-02  0.00D+00 EMaxC= 1.00D-01 BMatC= 3.52D-02 BMatP= 3.52D-02
 IDIUse=3 WtCom= 7.86D-01 WtEn= 2.14D-01
 Coeff-Com:  0.100D+01
 Coeff-En:   0.100D+01
 Coeff:      0.100D+01
 Gap=     0.408 Goal=   None    Shift=    0.000
 GapD=    0.408 DampG=2.000 DampE=0.500 DampFc=1.0000 IDamp=-1.
 RMSDP=5.69D-04 MaxDP=2.05D-02              OVMax= 2.72D-02

 Cycle   2  Pass 1  IDiag  1:
 E= -25.1290824796262     Delta-E=       -0.009445073193 Rises=F Damp=F
 DIIS: error= 1.87D-03 at cycle   2 NSaved=   2.
 NSaved= 2 IEnMin= 2 EnMin= -25.1290824796262     IErMin= 2 ErrMin= 1.87D-03
 ErrMax= 1.87D-03  0.00D+00 EMaxC= 1.00D-01 BMatC= 2.24D-04 BMatP= 3.52D-02
 IDIUse=3 WtCom= 9.81D-01 WtEn= 1.87D-02
 Coeff-Com: -0.709D-01 0.107D+01
 Coeff-En:   0.000D+00 0.100D+01
 Coeff:     -0.696D-01 0.107D+01
 Gap=     0.373 Goal=   None    Shift=    0.000
 RMSDP=1.06D-04 MaxDP=4.60D-03 DE=-9.45D-03 OVMax= 5.64D-03

 Cycle   3  Pass 1  IDiag  1:
 E= -25.1292546543805     Delta-E=       -0.000172174754 Rises=F Damp=F
 DIIS: error= 3.13D-04 at cycle   3 NSaved=   3.
 NSaved= 3 IEnMin= 3 EnMin= -25.1292546543805     IErMin= 3 ErrMin= 3.13D-04
 ErrMax= 3.13D-04  0.00D+00 EMaxC= 1.00D-01 BMatC= 2.93D-06 BMatP= 2.24D-04
 IDIUse=3 WtCom= 9.97D-01 WtEn= 3.13D-03
 Coeff-Com:  0.989D-02-0.191D+00 0.118D+01
 Coeff-En:   0.000D+00 0.000D+00 0.100D+01
 Coeff:      0.986D-02-0.190D+00 0.118D+01
 Gap=     0.374 Goal=   None    Shift=    0.000
 RMSDP=3.46D-05 MaxDP=1.80D-03 DE=-1.72D-04 OVMax= 1.55D-03

 Cycle   4  Pass 1  IDiag  1:
 E= -25.1292616368005     Delta-E=       -0.000006982420 Rises=F Damp=F
 DIIS: error= 5.92D-05 at cycle   4 NSaved=   4.
 NSaved= 4 IEnMin= 4 EnMin= -25.1292616368005     IErMin= 4 ErrMin= 5.92D-05
 ErrMax= 5.92D-05  0.00D+00 EMaxC= 1.00D-01 BMatC= 1.02D-07 BMatP= 2.93D-06
 IDIUse=1 WtCom= 1.00D+00 WtEn= 0.00D+00
 Coeff-Com: -0.167D-02 0.363D-01-0.341D+00 0.131D+01
 Coeff:     -0.167D-02 0.363D-01-0.341D+00 0.131D+01
 Gap=     0.374 Goal=   None    Shift=    0.000
 RMSDP=1.15D-05 MaxDP=5.36D-04 DE=-6.98D-06 OVMax= 5.24D-04

 Cycle   5  Pass 1  IDiag  1:
 E= -25.1292620179288     Delta-E=       -0.000000381128 Rises=F Damp=F
 DIIS: error= 1.14D-05 at cycle   5 NSaved=   5.
 NSaved= 5 IEnMin= 5 EnMin= -25.1292620179288     IErMin= 5 ErrMin= 1.14D-05
 ErrMax= 1.14D-05  0.00D+00 EMaxC= 1.00D-01 BMatC= 3.64D-09 BMatP= 1.02D-07
 IDIUse=1 WtCom= 1.00D+00 WtEn= 0.00D+00
 Coeff-Com:  0.395D-03-0.952D-02 0.103D+00-0.504D+00 0.141D+01
 Coeff:      0.395D-03-0.952D-02 0.103D+00-0.504D+00 0.141D+01
 Gap=     0.374 Goal=   None    Shift=    0.000
 RMSDP=2.67D-06 MaxDP=1.08D-04 DE=-3.81D-07 OVMax= 1.52D-04

 Cycle   6  Pass 1  IDiag  1:
 E= -25.1292620373210     Delta-E=       -0.000000019392 Rises=F Damp=F
 DIIS: error= 1.82D-06 at cycle   6 NSaved=   6.
 NSaved= 6 IEnMin= 6 EnMin= -25.1292620373210     IErMin= 6 ErrMin= 1.82D-06
 ErrMax= 1.82D-06  0.00D+00 EMaxC= 1.00D-01 BMatC= 1.01D-10 BMatP= 3.64D-09
 IDIUse=1 WtCom= 1.00D+00 WtEn= 0.00D+00
 Coeff-Com: -0.655D-04 0.177D-02-0.215D-01 0.117D+00-0.459D+00 0.136D+01
 Coeff:     -0.655D-04 0.177D-02-0.215D-01 0.117D+00-0.459D+00 0.136D+01
 Gap=     0.374 Goal=   None    Shift=    0.000
 RMSDP=3.45D-07 MaxDP=1.71D-05 DE=-1.94D-08 OVMax= 2.85D-05

 Cycle   7  Pass 1  IDiag  1:
 E= -25.1292620378886     Delta-E=       -0.000000000568 Rises=F Damp=F
 DIIS: error= 1.49D-07 at cycle   7 NSaved=   7.
 NSaved= 7 IEnMin= 7 EnMin= -25.1292620378886     IErMin= 7 ErrMin= 1.49D-07
 ErrMax= 1.49D-07  0.00D+00 EMaxC= 1.00D-01 BMatC= 9.98D-13 BMatP= 1.01D-10
 IDIUse=1 WtCom= 1.00D+00 WtEn= 0.00D+00
 Coeff-Com: -0.130D-05-0.138D-04 0.545D-03-0.486D-02 0.349D-01-0.197D+00
 Coeff-Com:  0.117D+01
 Coeff:     -0.130D-05-0.138D-04 0.545D-03-0.486D-02 0.349D-01-0.197D+00
 Coeff:      0.117D+01
 Gap=     0.374 Goal=   None    Shift=    0.000
 RMSDP=2.08D-08 MaxDP=4.60D-07 DE=-5.68D-10 OVMax= 1.90D-06

 Cycle   8  Pass 1  IDiag  1:
 E= -25.1292620378918     Delta-E=       -0.000000000003 Rises=F Damp=F
 DIIS: error= 2.34D-08 at cycle   8 NSaved=   8.
 NSaved= 8 IEnMin= 8 EnMin= -25.1292620378918     IErMin= 8 ErrMin= 2.34D-08
 ErrMax= 2.34D-08  0.00D+00 EMaxC= 1.00D-01 BMatC= 2.67D-14 BMatP= 9.98D-13
 IDIUse=1 WtCom= 1.00D+00 WtEn= 0.00D+00
 Coeff-Com:  0.116D-05-0.158D-04 0.803D-04 0.152D-04-0.377D-02 0.347D-01
 Coeff-Com: -0.333D+00 0.130D+01
 Coeff:      0.116D-05-0.158D-04 0.803D-04 0.152D-04-0.377D-02 0.347D-01
 Coeff:     -0.333D+00 0.130D+01
 Gap=     0.374 Goal=   None    Shift=    0.000
 RMSDP=3.96D-09 MaxDP=1.02D-07 DE=-3.23D-12 OVMax= 2.11D-07

 SCF Done:  E(RHF) =  -25.1292620379     A.U. after    8 cycles
            NFock=  8  Conv=0.40D-08     -V/T= 2.0027
 KE= 2.506235242922D+01 PE=-6.203711278770D+01 EE= 9.810201355514D+00
 Leave Link  502 at Thu May 26 10:09:54 2022, MaxMem=   104857600 cpu:               3.6 elap:               3.6
 (Enter /apps/software/g16/l801.exe)
 ExpMin= 1.88D-02 ExpMax= 2.39D+04 ExpMxC= 2.30D+02 IAcc=3 IRadAn=         5 AccDes= 0.00D+00
 HarFok:  IExCor=  205 AccDes= 0.00D+00 IRadAn=         5 IDoV=-2 UseB2=F ITyADJ=14
 ICtDFT= 12500011 ScaDFX=  1.000000  1.000000  1.000000  1.000000
 DSYEVD-2 returned Info=        3401 IAlg= 4 N=    80 NDim=    80 NE2=     1309686 trying  DSYEV.
 Largest valence mixing into a core orbital is  3.51D-04
 Largest core mixing into a valence orbital is  6.20D-05
 Range of M.O.s used for correlation:     2   126
 NBasis=   126 NAE=     3 NBE=     3 NFC=     1 NFV=     0
 NROrb=    125 NOA=     2 NOB=     2 NVA=   123 NVB=   123

 **** Warning!!: The largest alpha MO coefficient is  0.23531069D+02

 Leave Link  801 at Thu May 26 10:09:54 2022, MaxMem=   104857600 cpu:               0.1 elap:               0.1
 (Enter /apps/software/g16/l906.exe)
 FulOut=F Deriv=F AODrv=F NAtomX=     2
   MMem=         940  MDisk=           2 MDiskD=           2
  W3Min=       39360 MinDsk=      297938 NBas6D=         160
 NBas2D=       13447    NTT=       12880    LW2=     4508827
    MDV=   104742611 MDiskM=        1426 NBas2p=       13447
 Fully direct method using O(OVN) memory.
 IMap=   1   2
 JobTyp=1 Pass  1:  I=   1 to   2 NPSUse=  1 ParTrn=F ParDer=F DoDerP=F.
 Spin components of T(2) and E(2):
     alpha-alpha T2 =       0.1202867733D-02 E2=     -0.2569671770D-02
     alpha-beta  T2 =       0.3567394860D-01 E2=     -0.7377462824D-01
     beta-beta   T2 =       0.1202867733D-02 E2=     -0.2569671770D-02
 The integrals were generated   1 times.
 ANorm=    0.1018861955D+01
 E2 =    -0.7891397178D-01 EUMP2 =    -0.25208176009672D+02
 Leave Link  906 at Thu May 26 10:09:56 2022, MaxMem=   104857600 cpu:               2.7 elap:               2.8
 (Enter /apps/software/g16/l601.exe)
 Copying SCF densities to generalized density rwf, IOpCl= 0 IROHF=0.

 **********************************************************************

            Population analysis using the SCF density.

 **********************************************************************

 Orbital symmetries:
       Occupied  (SG) (SG) (SG)
       Virtual   (PI) (PI) (SG) (SG) (PI) (PI) (SG) (PI) (PI) (DLTA)
                 (DLTA) (SG) (SG) (SG) (PI) (PI) (PI) (PI) (SG)
                 (SG) (DLTA) (DLTA) (PHI) (PHI) (PI) (PI) (DLTA)
                 (DLTA) (SG) (SG) (PI) (PI) (SG) (PI) (PI) (DLTA)
                 (DLTA) (SG) (PI) (PI) (SG) (PI) (PI) (SG) (PHI)
                 (PHI) (?A) (?A) (DLTA) (DLTA) (PHI) (PHI) (SG)
                 (PI) (PI) (DLTA) (DLTA) (SG) (PI) (PI) (DLTA)
                 (DLTA) (SG) (PI) (PI) (PHI) (PHI) (SG) (DLTA)
                 (DLTA) (PI) (PI) (SG) (SG) (DLTA) (DLTA) (PI)
                 (PI) (PI) (PI) (SG) (SG) (?A) (?A) (PI) (PI) (PHI)
                 (PHI) (DLTA) (DLTA) (PHI) (PHI) (DLTA) (DLTA)
                 (SG) (PI) (PI) (DLTA) (DLTA) (PI) (PI) (SG) (SG)
                 (PI) (PI) (SG) (PHI) (PHI) (DLTA) (DLTA) (SG)
                 (PI) (PI) (SG) (PI) (PI) (DLTA) (DLTA) (PI) (PI)
                 (SG) (SG) (SG)
 The electronic state is 1-SG.
 Alpha  occ. eigenvalues --   -7.69465  -0.63255  -0.34999
 Alpha virt. eigenvalues --    0.02361   0.02361   0.03144   0.04588   0.07807
 Alpha virt. eigenvalues --    0.07807   0.10918   0.13619   0.13619   0.14520
 Alpha virt. eigenvalues --    0.14520   0.14995   0.19200   0.25845   0.27221
 Alpha virt. eigenvalues --    0.27221   0.31373   0.31373   0.38807   0.40341
 Alpha virt. eigenvalues --    0.45632   0.45632   0.46075   0.46075   0.48279
 Alpha virt. eigenvalues --    0.48279   0.49976   0.49976   0.53435   0.54292
 Alpha virt. eigenvalues --    0.58504   0.58504   0.74605   0.78174   0.78174
 Alpha virt. eigenvalues --    0.80249   0.80249   0.83320   1.02514   1.02514
 Alpha virt. eigenvalues --    1.14027   1.19472   1.19472   1.35384   1.36636
 Alpha virt. eigenvalues --    1.36636   1.36826   1.36826   1.38319   1.38319
 Alpha virt. eigenvalues --    1.43788   1.43788   1.44101   1.44802   1.44802
 Alpha virt. eigenvalues --    1.45835   1.45835   1.54896   1.57855   1.57855
 Alpha virt. eigenvalues --    1.61861   1.61861   1.70262   1.85254   1.85254
 Alpha virt. eigenvalues --    1.86940   1.86940   1.92531   2.07527   2.07527
 Alpha virt. eigenvalues --    2.20503   2.20503   2.30508   2.48923   2.98497
 Alpha virt. eigenvalues --    2.98497   3.06038   3.06038   3.26903   3.26903
 Alpha virt. eigenvalues --    3.30108   3.44122   3.91610   3.91610   3.91979
 Alpha virt. eigenvalues --    3.91979   3.93297   3.93297   3.99054   3.99054
 Alpha virt. eigenvalues --    4.09002   4.09002   4.10870   4.10870   4.13952
 Alpha virt. eigenvalues --    4.14750   4.14750   4.23967   4.23967   4.28933
 Alpha virt. eigenvalues --    4.28933   4.46205   4.92584   5.17808   5.17808
 Alpha virt. eigenvalues --    5.54636   6.69187   6.69187   7.09686   7.09686
 Alpha virt. eigenvalues --    7.61354   7.64380   7.64380   8.21679   8.72562
 Alpha virt. eigenvalues --    8.72562   8.73521   8.73521   9.25521   9.25521
 Alpha virt. eigenvalues --    9.47899  10.27776  15.59512
          Condensed to atoms (all electrons):
               1          2
     1  B    4.671753   0.193494
     2  H    0.193494   0.941259
 Mulliken charges:
               1
     1  B    0.134753
     2  H   -0.134753
 Sum of Mulliken charges =   0.00000
 Mulliken charges with hydrogens summed into heavy atoms:
               1
     1  B    0.000000
 Electronic spatial extent (au):  <R**2>=             23.1996
 Charge=              0.0000 electrons
 Dipole moment (field-independent basis, Debye):
    X=              0.0000    Y=              0.0000    Z=             -1.5274  Tot=              1.5274
 Quadrupole moment (field-independent basis, Debye-Ang):
   XX=             -6.8069   YY=             -6.8069   ZZ=            -10.8259
   XY=              0.0000   XZ=              0.0000   YZ=              0.0000
 Traceless Quadrupole moment (field-independent basis, Debye-Ang):
   XX=              1.3397   YY=              1.3397   ZZ=             -2.6794
   XY=              0.0000   XZ=              0.0000   YZ=              0.0000
 Octapole moment (field-independent basis, Debye-Ang**2):
  XXX=              0.0000  YYY=              0.0000  ZZZ=             -5.2490  XYY=              0.0000
  XXY=              0.0000  XXZ=             -1.4413  XZZ=              0.0000  YZZ=              0.0000
  YYZ=             -1.4413  XYZ=              0.0000
 Hexadecapole moment (field-independent basis, Debye-Ang**3):
 XXXX=             -9.9191 YYYY=             -9.9191 ZZZZ=            -31.2567 XXXY=              0.0000
 XXXZ=              0.0000 YYYX=              0.0000 YYYZ=              0.0000 ZZZX=              0.0000
 ZZZY=              0.0000 XXYY=             -3.3064 XXZZ=             -7.0050 YYZZ=             -7.0050
 XXYZ=              0.0000 YYXZ=              0.0000 ZZXY=              0.0000
 N-N= 2.035296965077D+00 E-N=-6.203711272971D+01  KE= 2.506235242922D+01
 Symmetry A1   KE= 2.506235242922D+01
 Symmetry A2   KE=-1.185708629344D-51
 Symmetry B1   KE= 0.000000000000D+00
 Symmetry B2   KE= 0.000000000000D+00
 Leave Link  601 at Thu May 26 10:09:56 2022, MaxMem=   104857600 cpu:               0.1 elap:               0.1
 (Enter /apps/software/g16/l9999.exe)
 1\1\GINC-CNODE16\SP\RMP2-FC\Aug-CC-pVQZ\B1H1\LCZ\26-May-2022\0\\#p RHF
 /aug-cc-pVQZ MP2=FC\\BH RMP2 at 1.3 Angstrom\\0,1\B,0,0.,0.,0.\H,0,1.3
 ,0.,0.\\Version=ES64L-G16RevA.03\State=1-SG\HF=-25.129262\MP2=-25.2081
 76\RMSD=3.962e-09\PG=C*V [C*(H1B1)]\\@


 IT IS A SIMPLE TASK TO MAKE THINGS COMPLEX,
 BUT A COMPLEX TASK TO MAKE THEM SIMPLE.
 Job cpu time:       0 days  0 hours  0 minutes  7.2 seconds.
 Elapsed time:       0 days  0 hours  0 minutes  7.2 seconds.
 File lengths (MBytes):  RWF=     10 Int=      0 D2E=      0 Chk=      3 Scr=      1
 Normal termination of Gaussian 16 at Thu May 26 10:09:57 2022.

Sender: Unischeduler System <lcz@mgt01>
Subject: Job 136155: <#!/bin/bash
#BSUB -J intel
#BSUB -o BH-1.3-MP2-G.out
#BSUB -n 8
#BSUB -q cqueue
#BSUB -R span[hosts=1]
export g16root=/apps/software
source /apps/software/g16/bsd/g16.profile
export GAUSS_SCRDIR=/scratch
/apps/software/g16/g16 < BH-1.3-MP2-G.inp > BH-1.3-MP2-G.out> Done

Job <#!/bin/bash
#BSUB -J intel
#BSUB -o BH-1.3-MP2-G.out
#BSUB -n 8
#BSUB -q cqueue
#BSUB -R span[hosts=1]
export g16root=/apps/software
source /apps/software/g16/bsd/g16.profile
export GAUSS_SCRDIR=/scratch
/apps/software/g16/g16 < BH-1.3-MP2-G.inp > BH-1.3-MP2-G.out> was submitted from host <mgt01> by user <lcz>.
Job was executed on host(s) <8*cnode16>, in queue <cqueue>, as user <lcz>.
</apps/users/lcz> was used as the home directory.
</apps/users/lcz/exe13/GMP2> was used as the working directory.
Started at 2022-05-26 10:09:49
Results reported at 2022-05-26 10:09:57

Your job looked like:

------------------------------------------------------------
# User input
#!/bin/bash
#BSUB -J intel
#BSUB -o BH-1.3-MP2-G.out
#BSUB -n 8
#BSUB -q cqueue
#BSUB -R span[hosts=1]
export g16root=/apps/software
source /apps/software/g16/bsd/g16.profile
export GAUSS_SCRDIR=/scratch
/apps/software/g16/g16 < BH-1.3-MP2-G.inp > BH-1.3-MP2-G.out
------------------------------------------------------------

Successfully completed.

Resource usage summary:

    CPU time   :            0.01 sec.
    Max Memory :                 8 MB
    Max Processes  :               2


The output (if any) follows:

