 Entering Gaussian System, Link 0=/apps/software/g16/g16
 Initial command:
 /apps/software/g16/l1.exe "/scratch/Gau-282179.inp" -scrdir="/scratch/"
 Entering Link 1 = /apps/software/g16/l1.exe PID=    282180.
  
 Copyright (c) 1988,1990,1992,1993,1995,1998,2003,2009,2016,
            Gaussian, Inc.  All Rights Reserved.
  
 This is part of the Gaussian(R) 16 program.  It is based on
 the Gaussian(R) 09 system (copyright 2009, Gaussian, Inc.),
 the Gaussian(R) 03 system (copyright 2003, Gaussian, Inc.),
 the Gaussian(R) 98 system (copyright 1998, Gaussian, Inc.),
 the Gaussian(R) 94 system (copyright 1995, Gaussian, Inc.),
 the Gaussian 92(TM) system (copyright 1992, Gaussian, Inc.),
 the Gaussian 90(TM) system (copyright 1990, Gaussian, Inc.),
 the Gaussian 88(TM) system (copyright 1988, Gaussian, Inc.),
 the Gaussian 86(TM) system (copyright 1986, Carnegie Mellon
 University), and the Gaussian 82(TM) system (copyright 1983,
 Carnegie Mellon University). Gaussian is a federally registered
 trademark of Gaussian, Inc.
  
 This software contains proprietary and confidential information,
 including trade secrets, belonging to Gaussian, Inc.
  
 This software is provided under written license and may be
 used, copied, transmitted, or stored only in accord with that
 written license.
  
 The following legend is applicable only to US Government
 contracts under FAR:
  
                    RESTRICTED RIGHTS LEGEND
  
 Use, reproduction and disclosure by the US Government is
 subject to restrictions as set forth in subparagraphs (a)
 and (c) of the Commercial Computer Software - Restricted
 Rights clause in FAR 52.227-19.
  
 Gaussian, Inc.
 340 Quinnipiac St., Bldg. 40, Wallingford CT 06492
  
  
 ---------------------------------------------------------------
 Warning -- This program may not be used in any manner that
 competes with the business of Gaussian, Inc. or will provide
 assistance to any competitor of Gaussian, Inc.  The licensee
 of this program is prohibited from giving any competitor of
 Gaussian, Inc. access to this program.  By using this program,
 the user acknowledges that Gaussian, Inc. is engaged in the
 business of creating and licensing software in the field of
 computational chemistry and represents and warrants to the
 licensee that it is not a competitor of Gaussian, Inc. and that
 it will not use this program in any manner prohibited above.
 ---------------------------------------------------------------
  

 Cite this work as:
 Gaussian 16, Revision A.03,
 M. J. Frisch, G. W. Trucks, H. B. Schlegel, G. E. Scuseria, 
 M. A. Robb, J. R. Cheeseman, G. Scalmani, V. Barone, 
 G. A. Petersson, H. Nakatsuji, X. Li, M. Caricato, A. V. Marenich, 
 J. Bloino, B. G. Janesko, R. Gomperts, B. Mennucci, H. P. Hratchian, 
 J. V. Ortiz, A. F. Izmaylov, J. L. Sonnenberg, D. Williams-Young, 
 F. Ding, F. Lipparini, F. Egidi, J. Goings, B. Peng, A. Petrone, 
 T. Henderson, D. Ranasinghe, V. G. Zakrzewski, J. Gao, N. Rega, 
 G. Zheng, W. Liang, M. Hada, M. Ehara, K. Toyota, R. Fukuda, 
 J. Hasegawa, M. Ishida, T. Nakajima, Y. Honda, O. Kitao, H. Nakai, 
 T. Vreven, K. Throssell, J. A. Montgomery, Jr., J. E. Peralta, 
 F. Ogliaro, M. J. Bearpark, J. J. Heyd, E. N. Brothers, K. N. Kudin, 
 V. N. Staroverov, T. A. Keith, R. Kobayashi, J. Normand, 
 K. Raghavachari, A. P. Rendell, J. C. Burant, S. S. Iyengar, 
 J. Tomasi, M. Cossi, J. M. Millam, M. Klene, C. Adamo, R. Cammi, 
 J. W. Ochterski, R. L. Martin, K. Morokuma, O. Farkas, 
 J. B. Foresman, and D. J. Fox, Gaussian, Inc., Wallingford CT, 2016.
 
 ******************************************
 Gaussian 16:  ES64L-G16RevA.03 25-Dec-2016
                26-May-2022 
 ******************************************
 %chk=BH-2.0-MP2-G.chk
 -------------------------
 #p RHF/aug-cc-pVQZ MP2=FC
 -------------------------
 1/38=1,172=1/1;
 2/12=2,17=6,18=5,40=1/2;
 3/5=16,6=2,7=10,11=1,25=1,30=1,116=1/1,2,3;
 4//1;
 5/5=2,38=5/2;
 8/10=1/1;
 9/16=-3/6;
 6/7=2,8=2,9=2,10=2/1;
 99/5=1,9=1/99;
 Leave Link    1 at Thu May 26 10:06:59 2022, MaxMem=           0 cpu:               0.0 elap:               0.0
 (Enter /apps/software/g16/l101.exe)
 -----------------------
 BH RMP2 at 2.0 Angstrom
 -----------------------
 Symbolic Z-matrix:
 Charge =  0 Multiplicity = 1
 B                     0.        0.        0. 
 H                     2.        0.        0. 
 
 ITRead=  0  0
 MicOpt= -1 -1
 NAtoms=      2 NQM=        2 NQMF=       0 NMMI=      0 NMMIF=      0
                NMic=       0 NMicF=      0.
                    Isotopes and Nuclear Properties:
 (Nuclear quadrupole moments (NQMom) in fm**2, nuclear magnetic moments (NMagM)
  in nuclear magnetons)

  Atom         1           2
 IAtWgt=          11           1
 AtmWgt=  11.0093053   1.0078250
 NucSpn=           3           1
 AtZEff=  -0.0000000  -0.0000000
 NQMom=    4.0590000   0.0000000
 NMagM=    2.6886370   2.7928460
 AtZNuc=   5.0000000   1.0000000
 Leave Link  101 at Thu May 26 10:06:59 2022, MaxMem=   104857600 cpu:               0.1 elap:               0.1
 (Enter /apps/software/g16/l202.exe)
                          Input orientation:                          
 ---------------------------------------------------------------------
 Center     Atomic      Atomic             Coordinates (Angstroms)
 Number     Number       Type             X           Y           Z
 ---------------------------------------------------------------------
      1          5           0        0.000000    0.000000    0.000000
      2          1           0        2.000000    0.000000    0.000000
 ---------------------------------------------------------------------
 Stoichiometry    BH
 Framework group  C*V[C*(HB)]
 Deg. of freedom     1
 Full point group                 C*V     NOp   4
 Largest Abelian subgroup         C2V     NOp   4
 Largest concise Abelian subgroup C1      NOp   1
                         Standard orientation:                         
 ---------------------------------------------------------------------
 Center     Atomic      Atomic             Coordinates (Angstroms)
 Number     Number       Type             X           Y           Z
 ---------------------------------------------------------------------
      1          5           0        0.000000    0.000000    0.333333
      2          1           0        0.000000    0.000000   -1.666667
 ---------------------------------------------------------------------
 Rotational constants (GHZ):           0.0000000         136.8399546         136.8399546
 Leave Link  202 at Thu May 26 10:06:59 2022, MaxMem=   104857600 cpu:               0.0 elap:               0.0
 (Enter /apps/software/g16/l301.exe)
 Standard basis: Aug-CC-pVQZ (5D, 7F)
 Ernie: Thresh=  0.10000D-02 Tol=  0.10000D-05 Strict=F.
 Ernie:  4 primitive shells out of 54 were deleted.
 There are    68 symmetry adapted cartesian basis functions of A1  symmetry.
 There are    18 symmetry adapted cartesian basis functions of A2  symmetry.
 There are    37 symmetry adapted cartesian basis functions of B1  symmetry.
 There are    37 symmetry adapted cartesian basis functions of B2  symmetry.
 There are    50 symmetry adapted basis functions of A1  symmetry.
 There are    16 symmetry adapted basis functions of A2  symmetry.
 There are    30 symmetry adapted basis functions of B1  symmetry.
 There are    30 symmetry adapted basis functions of B2  symmetry.
   126 basis functions,   180 primitive gaussians,   160 cartesian basis functions
     3 alpha electrons        3 beta electrons
       nuclear repulsion energy         1.3229430273 Hartrees.
 IExCor=    0 DFT=F Ex=HF Corr=None ExCW=0 ScaHFX=  1.000000
 ScaDFX=  1.000000  1.000000  1.000000  1.000000 ScalE2=  1.000000  1.000000
 IRadAn=      5 IRanWt=     -1 IRanGd=            0 ICorTp=0 IEmpDi=  4
 NAtoms=    2 NActive=    2 NUniq=    2 SFac= 1.00D+00 NAtFMM=   60 NAOKFM=F Big=F
 Integral buffers will be    131072 words long.
 Raffenetti 1 integral format.
 Two-electron integral symmetry is turned on.
 Leave Link  301 at Thu May 26 10:06:59 2022, MaxMem=   104857600 cpu:               0.1 elap:               0.1
 (Enter /apps/software/g16/l302.exe)
 NPDir=0 NMtPBC=     1 NCelOv=     1 NCel=       1 NClECP=     1 NCelD=      1
         NCelK=      1 NCelE2=     1 NClLst=     1 CellRange=     0.0.
 One-electron integrals computed using PRISM.
 One-electron integral symmetry used in STVInt
 NBasis=   126 RedAO= T EigKep=  5.32D-04  NBF=    50    16    30    30
 NBsUse=   126 1.00D-06 EigRej= -1.00D+00 NBFU=    50    16    30    30
 Leave Link  302 at Thu May 26 10:06:59 2022, MaxMem=   104857600 cpu:               0.1 elap:               0.1
 (Enter /apps/software/g16/l303.exe)
 DipDrv:  MaxL=1.
 Leave Link  303 at Thu May 26 10:06:59 2022, MaxMem=   104857600 cpu:               0.0 elap:               0.0
 (Enter /apps/software/g16/l401.exe)
 ExpMin= 1.88D-02 ExpMax= 2.39D+04 ExpMxC= 2.30D+02 IAcc=3 IRadAn=         5 AccDes= 0.00D+00
 Harris functional with IExCor=  205 and IRadAn=       5 diagonalized for initial guess.
 HarFok:  IExCor=  205 AccDes= 0.00D+00 IRadAn=         5 IDoV= 1 UseB2=F ITyADJ=14
 ICtDFT=  3500011 ScaDFX=  1.000000  1.000000  1.000000  1.000000
 FoFCou: FMM=F IPFlag=           0 FMFlag=      100000 FMFlg1=           0
         NFxFlg=           0 DoJE=T BraDBF=F KetDBF=T FulRan=T
         wScrn=  0.000000 ICntrl=       500 IOpCl=  0 I1Cent=   200000004 NGrid=           0
         NMat0=    1 NMatS0=      1 NMatT0=    0 NMatD0=    1 NMtDS0=    0 NMtDT0=    0
 Petite list used in FoFCou.
 Harris En= -25.0396782545397    
 JPrj=0 DoOrth=F DoCkMO=F.
 Initial guess orbital symmetries:
       Occupied  (SG) (SG) (SG)
       Virtual   (PI) (PI) (SG) (SG) (SG) (PI) (PI) (SG) (PI) (PI)
                 (DLTA) (DLTA) (SG) (SG) (PI) (PI) (PI) (PI) (SG)
                 (SG) (PI) (PI) (DLTA) (DLTA) (DLTA) (DLTA) (PHI)
                 (PHI) (SG) (PI) (PI) (SG) (SG) (DLTA) (DLTA) (PI)
                 (PI) (SG) (PI) (PI) (SG) (PI) (PI) (SG) (PI) (PI)
                 (PHI) (PHI) (DLTA) (DLTA) (SG) (?A) (?A) (DLTA)
                 (DLTA) (PHI) (PHI) (SG) (PI) (PI) (DLTA) (DLTA)
                 (SG) (PHI) (PHI) (PI) (PI) (SG) (SG) (SG) (DLTA)
                 (DLTA) (PI) (PI) (DLTA) (DLTA) (PI) (PI) (SG)
                 (PI) (PI) (SG) (PI) (PI) (DLTA) (DLTA) (SG) (PI)
                 (PI) (?A) (?A) (PHI) (PHI) (DLTA) (DLTA) (SG)
                 (PHI) (PHI) (DLTA) (DLTA) (PI) (PI) (PI) (PI)
                 (SG) (SG) (PHI) (PHI) (DLTA) (DLTA) (PI) (PI)
                 (SG) (SG) (PI) (PI) (DLTA) (DLTA) (SG) (PI) (PI)
                 (SG) (SG)
 The electronic state of the initial guess is 1-SG.
 Leave Link  401 at Thu May 26 10:06:59 2022, MaxMem=   104857600 cpu:               0.2 elap:               0.2
 (Enter /apps/software/g16/l502.exe)
 Keep R1 ints in memory in symmetry-blocked form, NReq=40143665.
 FoFCou: FMM=F IPFlag=           0 FMFlag=           0 FMFlg1=           0
         NFxFlg=           0 DoJE=F BraDBF=F KetDBF=F FulRan=T
         wScrn=  0.000000 ICntrl=       600 IOpCl=  0 I1Cent=           0 NGrid=           0
         NMat0=    1 NMatS0=   8001 NMatT0=    0 NMatD0=    1 NMtDS0=    0 NMtDT0=    0
 Petite list used in FoFCou.
 Closed shell SCF:
 Using DIIS extrapolation, IDIIS=  1040.
 NGot=   104857600 LenX=    96673173 LenY=    96647132
 Requested convergence on RMS density matrix=1.00D-08 within 128 cycles.
 Requested convergence on MAX density matrix=1.00D-06.
 Requested convergence on             energy=1.00D-06.
 No special actions if energy rises.

 Cycle   1  Pass 1  IDiag  1:
 E= -25.0253766862418    
 DIIS: error= 3.53D-02 at cycle   1 NSaved=   1.
 NSaved= 1 IEnMin= 1 EnMin= -25.0253766862418     IErMin= 1 ErrMin= 3.53D-02
 ErrMax= 3.53D-02  0.00D+00 EMaxC= 1.00D-01 BMatC= 4.10D-02 BMatP= 4.10D-02
 IDIUse=3 WtCom= 6.47D-01 WtEn= 3.53D-01
 Coeff-Com:  0.100D+01
 Coeff-En:   0.100D+01
 Coeff:      0.100D+01
 Gap=     0.334 Goal=   None    Shift=    0.000
 GapD=    0.334 DampG=1.000 DampE=0.500 DampFc=0.5000 IDamp=-1.
 Damping current iteration by 5.00D-01
 RMSDP=1.20D-03 MaxDP=4.32D-02              OVMax= 1.15D-01

 Cycle   2  Pass 1  IDiag  1:
 E= -25.0372489263314     Delta-E=       -0.011872240090 Rises=F Damp=T
 DIIS: error= 1.77D-02 at cycle   2 NSaved=   2.
 NSaved= 2 IEnMin= 2 EnMin= -25.0372489263314     IErMin= 2 ErrMin= 1.77D-02
 ErrMax= 1.77D-02  0.00D+00 EMaxC= 1.00D-01 BMatC= 1.07D-02 BMatP= 4.10D-02
 IDIUse=3 WtCom= 8.23D-01 WtEn= 1.77D-01
 Coeff-Com: -0.102D+01 0.202D+01
 Coeff-En:   0.000D+00 0.100D+01
 Coeff:     -0.838D+00 0.184D+01
 Gap=     0.353 Goal=   None    Shift=    0.000
 RMSDP=6.38D-04 MaxDP=2.97D-02 DE=-1.19D-02 OVMax= 1.28D-02

 Cycle   3  Pass 1  IDiag  1:
 E= -25.0493256466637     Delta-E=       -0.012076720332 Rises=F Damp=F
 DIIS: error= 9.20D-04 at cycle   3 NSaved=   3.
 NSaved= 3 IEnMin= 3 EnMin= -25.0493256466637     IErMin= 3 ErrMin= 9.20D-04
 ErrMax= 9.20D-04  0.00D+00 EMaxC= 1.00D-01 BMatC= 2.51D-05 BMatP= 1.07D-02
 IDIUse=3 WtCom= 9.91D-01 WtEn= 9.20D-03
 Coeff-Com:  0.120D+00-0.262D+00 0.114D+01
 Coeff-En:   0.000D+00 0.000D+00 0.100D+01
 Coeff:      0.119D+00-0.259D+00 0.114D+01
 Gap=     0.348 Goal=   None    Shift=    0.000
 RMSDP=7.07D-05 MaxDP=1.92D-03 DE=-1.21D-02 OVMax= 4.62D-03

 Cycle   4  Pass 1  IDiag  1:
 E= -25.0493908662783     Delta-E=       -0.000065219615 Rises=F Damp=F
 DIIS: error= 2.80D-04 at cycle   4 NSaved=   4.
 NSaved= 4 IEnMin= 4 EnMin= -25.0493908662783     IErMin= 4 ErrMin= 2.80D-04
 ErrMax= 2.80D-04  0.00D+00 EMaxC= 1.00D-01 BMatC= 1.96D-06 BMatP= 2.51D-05
 IDIUse=3 WtCom= 9.97D-01 WtEn= 2.80D-03
 Coeff-Com: -0.214D-02 0.135D-01-0.428D+00 0.142D+01
 Coeff-En:   0.000D+00 0.000D+00 0.000D+00 0.100D+01
 Coeff:     -0.213D-02 0.134D-01-0.427D+00 0.142D+01
 Gap=     0.349 Goal=   None    Shift=    0.000
 RMSDP=2.37D-05 MaxDP=6.75D-04 DE=-6.52D-05 OVMax= 2.00D-03

 Cycle   5  Pass 1  IDiag  1:
 E= -25.0493969828082     Delta-E=       -0.000006116530 Rises=F Damp=F
 DIIS: error= 1.94D-05 at cycle   5 NSaved=   5.
 NSaved= 5 IEnMin= 5 EnMin= -25.0493969828082     IErMin= 5 ErrMin= 1.94D-05
 ErrMax= 1.94D-05  0.00D+00 EMaxC= 1.00D-01 BMatC= 3.25D-08 BMatP= 1.96D-06
 IDIUse=1 WtCom= 1.00D+00 WtEn= 0.00D+00
 Coeff-Com:  0.481D-03-0.324D-02 0.114D+00-0.438D+00 0.133D+01
 Coeff:      0.481D-03-0.324D-02 0.114D+00-0.438D+00 0.133D+01
 Gap=     0.349 Goal=   None    Shift=    0.000
 RMSDP=2.69D-06 MaxDP=8.18D-05 DE=-6.12D-06 OVMax= 2.02D-04

 Cycle   6  Pass 1  IDiag  1:
 E= -25.0493970661891     Delta-E=       -0.000000083381 Rises=F Damp=F
 DIIS: error= 2.97D-06 at cycle   6 NSaved=   6.
 NSaved= 6 IEnMin= 6 EnMin= -25.0493970661891     IErMin= 6 ErrMin= 2.97D-06
 ErrMax= 2.97D-06  0.00D+00 EMaxC= 1.00D-01 BMatC= 4.90D-10 BMatP= 3.25D-08
 IDIUse=1 WtCom= 1.00D+00 WtEn= 0.00D+00
 Coeff-Com:  0.368D-03-0.359D-03-0.177D-01 0.782D-01-0.314D+00 0.125D+01
 Coeff:      0.368D-03-0.359D-03-0.177D-01 0.782D-01-0.314D+00 0.125D+01
 Gap=     0.349 Goal=   None    Shift=    0.000
 RMSDP=5.70D-07 MaxDP=1.85D-05 DE=-8.34D-08 OVMax= 3.06D-05

 Cycle   7  Pass 1  IDiag  1:
 E= -25.0493970679559     Delta-E=       -0.000000001767 Rises=F Damp=F
 DIIS: error= 5.34D-07 at cycle   7 NSaved=   7.
 NSaved= 7 IEnMin= 7 EnMin= -25.0493970679559     IErMin= 7 ErrMin= 5.34D-07
 ErrMax= 5.34D-07  0.00D+00 EMaxC= 1.00D-01 BMatC= 1.53D-11 BMatP= 4.90D-10
 IDIUse=1 WtCom= 1.00D+00 WtEn= 0.00D+00
 Coeff-Com: -0.337D-05-0.672D-04 0.384D-02-0.168D-01 0.639D-01-0.358D+00
 Coeff-Com:  0.131D+01
 Coeff:     -0.337D-05-0.672D-04 0.384D-02-0.168D-01 0.639D-01-0.358D+00
 Coeff:      0.131D+01
 Gap=     0.349 Goal=   None    Shift=    0.000
 RMSDP=1.06D-07 MaxDP=5.47D-06 DE=-1.77D-09 OVMax= 6.85D-06

 Cycle   8  Pass 1  IDiag  1:
 E= -25.0493970680216     Delta-E=       -0.000000000066 Rises=F Damp=F
 DIIS: error= 1.22D-07 at cycle   8 NSaved=   8.
 NSaved= 8 IEnMin= 8 EnMin= -25.0493970680216     IErMin= 8 ErrMin= 1.22D-07
 ErrMax= 1.22D-07  0.00D+00 EMaxC= 1.00D-01 BMatC= 5.84D-13 BMatP= 1.53D-11
 IDIUse=1 WtCom= 1.00D+00 WtEn= 0.00D+00
 Coeff-Com:  0.398D-05 0.133D-04-0.108D-02 0.495D-02-0.179D-01 0.121D+00
 Coeff-Com: -0.597D+00 0.149D+01
 Coeff:      0.398D-05 0.133D-04-0.108D-02 0.495D-02-0.179D-01 0.121D+00
 Coeff:     -0.597D+00 0.149D+01
 Gap=     0.349 Goal=   None    Shift=    0.000
 RMSDP=2.58D-08 MaxDP=1.53D-06 DE=-6.57D-11 OVMax= 2.14D-06

 Cycle   9  Pass 1  IDiag  1:
 E= -25.0493970680252     Delta-E=       -0.000000000004 Rises=F Damp=F
 DIIS: error= 1.55D-08 at cycle   9 NSaved=   9.
 NSaved= 9 IEnMin= 9 EnMin= -25.0493970680252     IErMin= 9 ErrMin= 1.55D-08
 ErrMax= 1.55D-08  0.00D+00 EMaxC= 1.00D-01 BMatC= 1.20D-14 BMatP= 5.84D-13
 IDIUse=1 WtCom= 1.00D+00 WtEn= 0.00D+00
 Coeff-Com:  0.162D-05-0.520D-05 0.105D-03-0.482D-03 0.132D-02-0.122D-01
 Coeff-Com:  0.806D-01-0.326D+00 0.126D+01
 Coeff:      0.162D-05-0.520D-05 0.105D-03-0.482D-03 0.132D-02-0.122D-01
 Coeff:      0.806D-01-0.326D+00 0.126D+01
 Gap=     0.349 Goal=   None    Shift=    0.000
 RMSDP=3.30D-09 MaxDP=1.13D-07 DE=-3.57D-12 OVMax= 3.06D-07

 SCF Done:  E(RHF) =  -25.0493970680     A.U. after    9 cycles
            NFock=  9  Conv=0.33D-08     -V/T= 2.0098
 KE= 2.480728816559D+01 PE=-6.020820998248D+01 EE= 9.028581721568D+00
 Leave Link  502 at Thu May 26 10:07:03 2022, MaxMem=   104857600 cpu:               3.6 elap:               3.6
 (Enter /apps/software/g16/l801.exe)
 ExpMin= 1.88D-02 ExpMax= 2.39D+04 ExpMxC= 2.30D+02 IAcc=3 IRadAn=         5 AccDes= 0.00D+00
 HarFok:  IExCor=  205 AccDes= 0.00D+00 IRadAn=         5 IDoV=-2 UseB2=F ITyADJ=14
 ICtDFT= 12500011 ScaDFX=  1.000000  1.000000  1.000000  1.000000
 DSYEVD-2 returned Info=        3401 IAlg= 4 N=    80 NDim=    80 NE2=     1309686 trying  DSYEV.
 Largest valence mixing into a core orbital is  3.90D-04
 Largest core mixing into a valence orbital is  1.32D-04
 Range of M.O.s used for correlation:     2   126
 NBasis=   126 NAE=     3 NBE=     3 NFC=     1 NFV=     0
 NROrb=    125 NOA=     2 NOB=     2 NVA=   123 NVB=   123

 **** Warning!!: The largest alpha MO coefficient is  0.15677521D+02

 Leave Link  801 at Thu May 26 10:07:03 2022, MaxMem=   104857600 cpu:               0.1 elap:               0.1
 (Enter /apps/software/g16/l906.exe)
 FulOut=F Deriv=F AODrv=F NAtomX=     2
   MMem=         940  MDisk=           2 MDiskD=           2
  W3Min=       39360 MinDsk=      297938 NBas6D=         160
 NBas2D=       13447    NTT=       12880    LW2=     4508827
    MDV=   104743003 MDiskM=        1426 NBas2p=       13447
 Fully direct method using O(OVN) memory.
 IMap=   1   2
 JobTyp=1 Pass  1:  I=   1 to   2 NPSUse=  1 ParTrn=F ParDer=F DoDerP=F.
 Spin components of T(2) and E(2):
     alpha-alpha T2 =       0.1512831455D-02 E2=     -0.2638865400D-02
     alpha-beta  T2 =       0.4926730329D-01 E2=     -0.7867714551D-01
     beta-beta   T2 =       0.1512831455D-02 E2=     -0.2638865400D-02
 The integrals were generated   1 times.
 ANorm=    0.1025813319D+01
 E2 =    -0.8395487631D-01 EUMP2 =    -0.25133351944339D+02
 Leave Link  906 at Thu May 26 10:07:06 2022, MaxMem=   104857600 cpu:               2.9 elap:               2.9
 (Enter /apps/software/g16/l601.exe)
 Copying SCF densities to generalized density rwf, IOpCl= 0 IROHF=0.

 **********************************************************************

            Population analysis using the SCF density.

 **********************************************************************

 Orbital symmetries:
       Occupied  (SG) (SG) (SG)
       Virtual   (PI) (PI) (SG) (SG) (PI) (PI) (SG) (SG) (PI) (PI)
                 (DLTA) (DLTA) (SG) (SG) (PI) (PI) (PI) (PI) (SG)
                 (SG) (PHI) (PHI) (DLTA) (DLTA) (PI) (PI) (DLTA)
                 (DLTA) (SG) (PI) (PI) (SG) (SG) (DLTA) (DLTA)
                 (PI) (PI) (SG) (PI) (PI) (SG) (PI) (PI) (SG) (PHI)
                 (PHI) (?A) (?A) (PI) (PI) (DLTA) (DLTA) (SG) (DLTA)
                 (DLTA) (PHI) (PHI) (SG) (PI) (PI) (DLTA) (DLTA)
                 (SG) (PHI) (PHI) (PI) (PI) (SG) (SG) (DLTA) (DLTA)
                 (SG) (PI) (PI) (DLTA) (DLTA) (PI) (PI) (PI) (PI)
                 (SG) (SG) (PI) (PI) (?A) (?A) (DLTA) (DLTA) (PHI)
                 (PHI) (PI) (PI) (SG) (DLTA) (DLTA) (SG) (PHI)
                 (PHI) (DLTA) (DLTA) (PI) (PI) (PI) (PI) (SG) (SG)
                 (PHI) (PHI) (DLTA) (DLTA) (PI) (PI) (SG) (SG)
                 (PI) (PI) (DLTA) (DLTA) (SG) (PI) (PI) (SG) (SG)
 The electronic state is 1-SG.
 Alpha  occ. eigenvalues --   -7.77878  -0.55628  -0.33682
 Alpha virt. eigenvalues --    0.01176   0.01176   0.02929   0.05296   0.06577
 Alpha virt. eigenvalues --    0.06577   0.09289   0.09897   0.14043   0.14043
 Alpha virt. eigenvalues --    0.14169   0.14169   0.19494   0.24208   0.27235
 Alpha virt. eigenvalues --    0.27235   0.29634   0.29634   0.32175   0.36482
 Alpha virt. eigenvalues --    0.45345   0.45345   0.45988   0.45988   0.48047
 Alpha virt. eigenvalues --    0.48047   0.48394   0.48394   0.50744   0.54355
 Alpha virt. eigenvalues --    0.54355   0.58898   0.65462   0.76949   0.76949
 Alpha virt. eigenvalues --    0.81889   0.81889   0.82957   0.94794   0.94794
 Alpha virt. eigenvalues --    1.04110   1.12212   1.12212   1.29879   1.33750
 Alpha virt. eigenvalues --    1.33750   1.35241   1.35241   1.35615   1.35615
 Alpha virt. eigenvalues --    1.37188   1.37188   1.39658   1.40833   1.40833
 Alpha virt. eigenvalues --    1.41503   1.41503   1.47411   1.47610   1.47610
 Alpha virt. eigenvalues --    1.48942   1.48942   1.60496   1.70997   1.70997
 Alpha virt. eigenvalues --    1.77522   1.77522   1.83048   2.03099   2.05948
 Alpha virt. eigenvalues --    2.05948   2.10783   2.12632   2.12632   2.58105
 Alpha virt. eigenvalues --    2.58105   2.76357   2.76357   3.04626   3.04626
 Alpha virt. eigenvalues --    3.05976   3.40286   3.71990   3.71990   3.88225
 Alpha virt. eigenvalues --    3.88225   3.90541   3.90541   3.91264   3.91264
 Alpha virt. eigenvalues --    3.96231   3.96231   3.96817   3.98095   3.98095
 Alpha virt. eigenvalues --    4.01933   4.04117   4.04117   4.09382   4.09382
 Alpha virt. eigenvalues --    4.15471   4.15471   4.32091   4.32091   4.53271
 Alpha virt. eigenvalues --    4.74563   6.64874   6.64874   6.74580   6.74580
 Alpha virt. eigenvalues --    6.79617   6.79617   6.93617   7.78425   8.26182
 Alpha virt. eigenvalues --    8.26182   8.51688   8.51688   8.62239   8.71423
 Alpha virt. eigenvalues --    8.71423   9.29535  13.56573
          Condensed to atoms (all electrons):
               1          2
     1  B    4.533363   0.287381
     2  H    0.287381   0.891876
 Mulliken charges:
               1
     1  B    0.179257
     2  H   -0.179257
 Sum of Mulliken charges =  -0.00000
 Mulliken charges with hydrogens summed into heavy atoms:
               1
     1  B   -0.000000
 Electronic spatial extent (au):  <R**2>=             32.6591
 Charge=             -0.0000 electrons
 Dipole moment (field-independent basis, Debye):
    X=              0.0000    Y=              0.0000    Z=              1.2879  Tot=              1.2879
 Quadrupole moment (field-independent basis, Debye-Ang):
   XX=             -7.5304   YY=             -7.5304   ZZ=            -12.8561
   XY=              0.0000   XZ=              0.0000   YZ=              0.0000
 Traceless Quadrupole moment (field-independent basis, Debye-Ang):
   XX=              1.7752   YY=              1.7752   ZZ=             -3.5505
   XY=              0.0000   XZ=              0.0000   YZ=              0.0000
 Octapole moment (field-independent basis, Debye-Ang**2):
  XXX=              0.0000  YYY=              0.0000  ZZZ=              3.6504  XYY=              0.0000
  XXY=              0.0000  XXZ=              1.2798  XZZ=              0.0000  YZZ=              0.0000
  YYZ=              1.2798  XYZ=              0.0000
 Hexadecapole moment (field-independent basis, Debye-Ang**3):
 XXXX=            -11.2591 YYYY=            -11.2591 ZZZZ=            -60.1487 XXXY=              0.0000
 XXXZ=              0.0000 YYYX=              0.0000 YYYZ=              0.0000 ZZZX=              0.0000
 ZZZY=              0.0000 XXYY=             -3.7530 XXZZ=            -11.8941 YYZZ=            -11.8941
 XXYZ=              0.0000 YYXZ=              0.0000 ZZXY=              0.0000
 N-N= 1.322943027300D+00 E-N=-6.020820993584D+01  KE= 2.480728816559D+01
 Symmetry A1   KE= 2.480728816559D+01
 Symmetry A2   KE=-2.298389070742D-54
 Symmetry B1   KE= 0.000000000000D+00
 Symmetry B2   KE= 0.000000000000D+00
 Leave Link  601 at Thu May 26 10:07:06 2022, MaxMem=   104857600 cpu:               0.1 elap:               0.1
 (Enter /apps/software/g16/l9999.exe)
 1\1\GINC-CNODE05\SP\RMP2-FC\Aug-CC-pVQZ\B1H1\ROOT\26-May-2022\0\\#p RH
 F/aug-cc-pVQZ MP2=FC\\BH RMP2 at 2.0 Angstrom\\0,1\B,0,0.,0.,0.\H,0,2.
 ,0.,0.\\Version=ES64L-G16RevA.03\State=1-SG\HF=-25.0493971\MP2=-25.133
 3519\RMSD=3.299e-09\PG=C*V [C*(H1B1)]\\@


 This summer one third of the nation will be ill-housed
 ill-nourished and ill-clad. Only they call it a vacation.
 -- Jonas Salk
 Job cpu time:       0 days  0 hours  0 minutes  7.3 seconds.
 Elapsed time:       0 days  0 hours  0 minutes  7.3 seconds.
 File lengths (MBytes):  RWF=     10 Int=      0 D2E=      0 Chk=      3 Scr=      1
 Normal termination of Gaussian 16 at Thu May 26 10:07:06 2022.

Sender: Unischeduler System <lcz@mgt01>
Subject: Job 136159: <#!/bin/bash
#BSUB -J intel
#BSUB -o BH-2.0-MP2-G.out
#BSUB -n 8
#BSUB -q cqueue
#BSUB -R span[hosts=1]
export g16root=/apps/software
source /apps/software/g16/bsd/g16.profile
export GAUSS_SCRDIR=/scratch
/apps/software/g16/g16 < BH-2.0-MP2-G.inp > BH-2.0-MP2-G.out> Done

Job <#!/bin/bash
#BSUB -J intel
#BSUB -o BH-2.0-MP2-G.out
#BSUB -n 8
#BSUB -q cqueue
#BSUB -R span[hosts=1]
export g16root=/apps/software
source /apps/software/g16/bsd/g16.profile
export GAUSS_SCRDIR=/scratch
/apps/software/g16/g16 < BH-2.0-MP2-G.inp > BH-2.0-MP2-G.out> was submitted from host <mgt01> by user <lcz>.
Job was executed on host(s) <8*cnode05>, in queue <cqueue>, as user <lcz>.
</apps/users/lcz> was used as the home directory.
</apps/users/lcz/exe13/GMP2> was used as the working directory.
Started at 2022-05-26 10:06:59
Results reported at 2022-05-26 10:07:06

Your job looked like:

------------------------------------------------------------
# User input
#!/bin/bash
#BSUB -J intel
#BSUB -o BH-2.0-MP2-G.out
#BSUB -n 8
#BSUB -q cqueue
#BSUB -R span[hosts=1]
export g16root=/apps/software
source /apps/software/g16/bsd/g16.profile
export GAUSS_SCRDIR=/scratch
/apps/software/g16/g16 < BH-2.0-MP2-G.inp > BH-2.0-MP2-G.out
------------------------------------------------------------

Successfully completed.

Resource usage summary:

    CPU time   :            2.98 sec.
    Max Memory :               479 MB
    Max Processes  :               5


The output (if any) follows:

