 Entering Gaussian System, Link 0=/apps/software/g16/g16
 Initial command:
 /apps/software/g16/l1.exe "/scratch/Gau-223708.inp" -scrdir="/scratch/"
 Entering Link 1 = /apps/software/g16/l1.exe PID=    223709.
  
 Copyright (c) 1988,1990,1992,1993,1995,1998,2003,2009,2016,
            Gaussian, Inc.  All Rights Reserved.
  
 This is part of the Gaussian(R) 16 program.  It is based on
 the Gaussian(R) 09 system (copyright 2009, Gaussian, Inc.),
 the Gaussian(R) 03 system (copyright 2003, Gaussian, Inc.),
 the Gaussian(R) 98 system (copyright 1998, Gaussian, Inc.),
 the Gaussian(R) 94 system (copyright 1995, Gaussian, Inc.),
 the Gaussian 92(TM) system (copyright 1992, Gaussian, Inc.),
 the Gaussian 90(TM) system (copyright 1990, Gaussian, Inc.),
 the Gaussian 88(TM) system (copyright 1988, Gaussian, Inc.),
 the Gaussian 86(TM) system (copyright 1986, Carnegie Mellon
 University), and the Gaussian 82(TM) system (copyright 1983,
 Carnegie Mellon University). Gaussian is a federally registered
 trademark of Gaussian, Inc.
  
 This software contains proprietary and confidential information,
 including trade secrets, belonging to Gaussian, Inc.
  
 This software is provided under written license and may be
 used, copied, transmitted, or stored only in accord with that
 written license.
  
 The following legend is applicable only to US Government
 contracts under FAR:
  
                    RESTRICTED RIGHTS LEGEND
  
 Use, reproduction and disclosure by the US Government is
 subject to restrictions as set forth in subparagraphs (a)
 and (c) of the Commercial Computer Software - Restricted
 Rights clause in FAR 52.227-19.
  
 Gaussian, Inc.
 340 Quinnipiac St., Bldg. 40, Wallingford CT 06492
  
  
 ---------------------------------------------------------------
 Warning -- This program may not be used in any manner that
 competes with the business of Gaussian, Inc. or will provide
 assistance to any competitor of Gaussian, Inc.  The licensee
 of this program is prohibited from giving any competitor of
 Gaussian, Inc. access to this program.  By using this program,
 the user acknowledges that Gaussian, Inc. is engaged in the
 business of creating and licensing software in the field of
 computational chemistry and represents and warrants to the
 licensee that it is not a competitor of Gaussian, Inc. and that
 it will not use this program in any manner prohibited above.
 ---------------------------------------------------------------
  

 Cite this work as:
 Gaussian 16, Revision A.03,
 M. J. Frisch, G. W. Trucks, H. B. Schlegel, G. E. Scuseria, 
 M. A. Robb, J. R. Cheeseman, G. Scalmani, V. Barone, 
 G. A. Petersson, H. Nakatsuji, X. Li, M. Caricato, A. V. Marenich, 
 J. Bloino, B. G. Janesko, R. Gomperts, B. Mennucci, H. P. Hratchian, 
 J. V. Ortiz, A. F. Izmaylov, J. L. Sonnenberg, D. Williams-Young, 
 F. Ding, F. Lipparini, F. Egidi, J. Goings, B. Peng, A. Petrone, 
 T. Henderson, D. Ranasinghe, V. G. Zakrzewski, J. Gao, N. Rega, 
 G. Zheng, W. Liang, M. Hada, M. Ehara, K. Toyota, R. Fukuda, 
 J. Hasegawa, M. Ishida, T. Nakajima, Y. Honda, O. Kitao, H. Nakai, 
 T. Vreven, K. Throssell, J. A. Montgomery, Jr., J. E. Peralta, 
 F. Ogliaro, M. J. Bearpark, J. J. Heyd, E. N. Brothers, K. N. Kudin, 
 V. N. Staroverov, T. A. Keith, R. Kobayashi, J. Normand, 
 K. Raghavachari, A. P. Rendell, J. C. Burant, S. S. Iyengar, 
 J. Tomasi, M. Cossi, J. M. Millam, M. Klene, C. Adamo, R. Cammi, 
 J. W. Ochterski, R. L. Martin, K. Morokuma, O. Farkas, 
 J. B. Foresman, and D. J. Fox, Gaussian, Inc., Wallingford CT, 2016.
 
 ******************************************
 Gaussian 16:  ES64L-G16RevA.03 25-Dec-2016
                26-May-2022 
 ******************************************
 %chk=BH-3.6-MP2-G.chk
 -------------------------
 #p RHF/aug-cc-pVQZ MP2=FC
 -------------------------
 1/38=1,172=1/1;
 2/12=2,17=6,18=5,40=1/2;
 3/5=16,6=2,7=10,11=1,25=1,30=1,116=1/1,2,3;
 4//1;
 5/5=2,38=5/2;
 8/10=1/1;
 9/16=-3/6;
 6/7=2,8=2,9=2,10=2/1;
 99/5=1,9=1/99;
 Leave Link    1 at Thu May 26 10:10:40 2022, MaxMem=           0 cpu:               0.0 elap:               0.0
 (Enter /apps/software/g16/l101.exe)
 -----------------------
 BH RMP2 at 3.6 Angstrom
 -----------------------
 Symbolic Z-matrix:
 Charge =  0 Multiplicity = 1
 B                     0.        0.        0. 
 H                     3.6       0.        0. 
 
 ITRead=  0  0
 MicOpt= -1 -1
 NAtoms=      2 NQM=        2 NQMF=       0 NMMI=      0 NMMIF=      0
                NMic=       0 NMicF=      0.
                    Isotopes and Nuclear Properties:
 (Nuclear quadrupole moments (NQMom) in fm**2, nuclear magnetic moments (NMagM)
  in nuclear magnetons)

  Atom         1           2
 IAtWgt=          11           1
 AtmWgt=  11.0093053   1.0078250
 NucSpn=           3           1
 AtZEff=  -0.0000000  -0.0000000
 NQMom=    4.0590000   0.0000000
 NMagM=    2.6886370   2.7928460
 AtZNuc=   5.0000000   1.0000000
 Leave Link  101 at Thu May 26 10:10:40 2022, MaxMem=   104857600 cpu:               0.1 elap:               0.1
 (Enter /apps/software/g16/l202.exe)
                          Input orientation:                          
 ---------------------------------------------------------------------
 Center     Atomic      Atomic             Coordinates (Angstroms)
 Number     Number       Type             X           Y           Z
 ---------------------------------------------------------------------
      1          5           0        0.000000    0.000000    0.000000
      2          1           0        3.600000    0.000000    0.000000
 ---------------------------------------------------------------------
 Stoichiometry    BH
 Framework group  C*V[C*(HB)]
 Deg. of freedom     1
 Full point group                 C*V     NOp   4
 Largest Abelian subgroup         C2V     NOp   4
 Largest concise Abelian subgroup C1      NOp   1
                         Standard orientation:                         
 ---------------------------------------------------------------------
 Center     Atomic      Atomic             Coordinates (Angstroms)
 Number     Number       Type             X           Y           Z
 ---------------------------------------------------------------------
      1          5           0        0.000000    0.000000    0.600000
      2          1           0        0.000000    0.000000   -3.000000
 ---------------------------------------------------------------------
 Rotational constants (GHZ):           0.0000000          42.2345539          42.2345539
 Leave Link  202 at Thu May 26 10:10:40 2022, MaxMem=   104857600 cpu:               0.0 elap:               0.0
 (Enter /apps/software/g16/l301.exe)
 Standard basis: Aug-CC-pVQZ (5D, 7F)
 Ernie: Thresh=  0.10000D-02 Tol=  0.10000D-05 Strict=F.
 Ernie:  4 primitive shells out of 54 were deleted.
 There are    68 symmetry adapted cartesian basis functions of A1  symmetry.
 There are    18 symmetry adapted cartesian basis functions of A2  symmetry.
 There are    37 symmetry adapted cartesian basis functions of B1  symmetry.
 There are    37 symmetry adapted cartesian basis functions of B2  symmetry.
 There are    50 symmetry adapted basis functions of A1  symmetry.
 There are    16 symmetry adapted basis functions of A2  symmetry.
 There are    30 symmetry adapted basis functions of B1  symmetry.
 There are    30 symmetry adapted basis functions of B2  symmetry.
   126 basis functions,   180 primitive gaussians,   160 cartesian basis functions
     3 alpha electrons        3 beta electrons
       nuclear repulsion energy         0.7349683485 Hartrees.
 IExCor=    0 DFT=F Ex=HF Corr=None ExCW=0 ScaHFX=  1.000000
 ScaDFX=  1.000000  1.000000  1.000000  1.000000 ScalE2=  1.000000  1.000000
 IRadAn=      5 IRanWt=     -1 IRanGd=            0 ICorTp=0 IEmpDi=  4
 NAtoms=    2 NActive=    2 NUniq=    2 SFac= 1.00D+00 NAtFMM=   60 NAOKFM=F Big=F
 Integral buffers will be    131072 words long.
 Raffenetti 1 integral format.
 Two-electron integral symmetry is turned on.
 Leave Link  301 at Thu May 26 10:10:40 2022, MaxMem=   104857600 cpu:               0.1 elap:               0.1
 (Enter /apps/software/g16/l302.exe)
 NPDir=0 NMtPBC=     1 NCelOv=     1 NCel=       1 NClECP=     1 NCelD=      1
         NCelK=      1 NCelE2=     1 NClLst=     1 CellRange=     0.0.
 One-electron integrals computed using PRISM.
 One-electron integral symmetry used in STVInt
 NBasis=   126 RedAO= T EigKep=  7.37D-03  NBF=    50    16    30    30
 NBsUse=   126 1.00D-06 EigRej= -1.00D+00 NBFU=    50    16    30    30
 Leave Link  302 at Thu May 26 10:10:40 2022, MaxMem=   104857600 cpu:               0.1 elap:               0.1
 (Enter /apps/software/g16/l303.exe)
 DipDrv:  MaxL=1.
 Leave Link  303 at Thu May 26 10:10:40 2022, MaxMem=   104857600 cpu:               0.0 elap:               0.0
 (Enter /apps/software/g16/l401.exe)
 ExpMin= 1.88D-02 ExpMax= 2.39D+04 ExpMxC= 2.30D+02 IAcc=3 IRadAn=         5 AccDes= 0.00D+00
 Harris functional with IExCor=  205 and IRadAn=       5 diagonalized for initial guess.
 HarFok:  IExCor=  205 AccDes= 0.00D+00 IRadAn=         5 IDoV= 1 UseB2=F ITyADJ=14
 ICtDFT=  3500011 ScaDFX=  1.000000  1.000000  1.000000  1.000000
 FoFCou: FMM=F IPFlag=           0 FMFlag=      100000 FMFlg1=           0
         NFxFlg=           0 DoJE=T BraDBF=F KetDBF=T FulRan=T
         wScrn=  0.000000 ICntrl=       500 IOpCl=  0 I1Cent=   200000004 NGrid=           0
         NMat0=    1 NMatS0=      1 NMatT0=    0 NMatD0=    1 NMtDS0=    0 NMtDT0=    0
 Petite list used in FoFCou.
 Harris En= -24.9915650181756    
 JPrj=0 DoOrth=F DoCkMO=F.
 Initial guess orbital symmetries:
       Occupied  (SG) (SG) (SG)
       Virtual   (PI) (PI) (SG) (SG) (PI) (PI) (SG) (SG) (PI) (PI)
                 (DLTA) (DLTA) (SG) (PI) (PI) (SG) (PI) (PI) (SG)
                 (SG) (SG) (PI) (PI) (DLTA) (DLTA) (DLTA) (DLTA)
                 (SG) (PHI) (PHI) (PI) (PI) (SG) (DLTA) (DLTA)
                 (PI) (PI) (PI) (PI) (SG) (SG) (PI) (PI) (SG) (SG)
                 (PI) (PI) (DLTA) (DLTA) (SG) (PI) (PI) (DLTA)
                 (DLTA) (PHI) (PHI) (?A) (?A) (DLTA) (DLTA) (PHI)
                 (PHI) (SG) (PI) (PI) (SG) (PHI) (PHI) (DLTA) (DLTA)
                 (SG) (PI) (PI) (SG) (DLTA) (DLTA) (PI) (PI) (PI)
                 (PI) (SG) (SG) (PI) (PI) (SG) (DLTA) (DLTA) (PI)
                 (PI) (SG) (?A) (PHI) (PHI) (?A) (DLTA) (DLTA)
                 (PI) (PI) (PHI) (PHI) (DLTA) (DLTA) (SG) (PI)
                 (PI) (SG) (PHI) (PHI) (DLTA) (DLTA) (PI) (PI)
                 (SG) (SG) (PI) (PI) (SG) (DLTA) (DLTA) (PI) (PI)
                 (SG) (SG)
 The electronic state of the initial guess is 1-SG.
 Leave Link  401 at Thu May 26 10:10:40 2022, MaxMem=   104857600 cpu:               0.2 elap:               0.2
 (Enter /apps/software/g16/l502.exe)
 Keep R1 ints in memory in symmetry-blocked form, NReq=40143665.
 FoFCou: FMM=F IPFlag=           0 FMFlag=           0 FMFlg1=           0
         NFxFlg=           0 DoJE=F BraDBF=F KetDBF=F FulRan=T
         wScrn=  0.000000 ICntrl=       600 IOpCl=  0 I1Cent=           0 NGrid=           0
         NMat0=    1 NMatS0=   8001 NMatT0=    0 NMatD0=    1 NMtDS0=    0 NMtDT0=    0
 Petite list used in FoFCou.
 Closed shell SCF:
 Using DIIS extrapolation, IDIIS=  1040.
 NGot=   104857600 LenX=    96673173 LenY=    96647132
 Requested convergence on RMS density matrix=1.00D-08 within 128 cycles.
 Requested convergence on MAX density matrix=1.00D-06.
 Requested convergence on             energy=1.00D-06.
 No special actions if energy rises.

 Cycle   1  Pass 1  IDiag  1:
 E= -24.8027801524615    
 DIIS: error= 3.99D-02 at cycle   1 NSaved=   1.
 NSaved= 1 IEnMin= 1 EnMin= -24.8027801524615     IErMin= 1 ErrMin= 3.99D-02
 ErrMax= 3.99D-02  0.00D+00 EMaxC= 1.00D-01 BMatC= 6.06D-02 BMatP= 6.06D-02
 IDIUse=3 WtCom= 6.01D-01 WtEn= 3.99D-01
 Coeff-Com:  0.100D+01
 Coeff-En:   0.100D+01
 Coeff:      0.100D+01
 Gap=     0.000 Goal=   None    Shift=    0.000
 GapD=    0.000 DampG=0.250 DampE=0.500 DampFc=0.2500 IDamp=-1.
 Damping current iteration by 2.50D-01
 RMSDP=4.08D-03 MaxDP=1.56D-01              OVMax= 1.19D-01

 Cycle   2  Pass 1  IDiag  1:
 E= -24.8307741894261     Delta-E=       -0.027994036965 Rises=F Damp=T
 DIIS: error= 2.50D-02 at cycle   2 NSaved=   2.
 NSaved= 2 IEnMin= 2 EnMin= -24.8307741894261     IErMin= 2 ErrMin= 2.50D-02
 ErrMax= 2.50D-02  0.00D+00 EMaxC= 1.00D-01 BMatC= 2.52D-02 BMatP= 6.06D-02
 IDIUse=3 WtCom= 7.50D-01 WtEn= 2.50D-01
 Coeff-Com: -0.145D+01 0.245D+01
 Coeff-En:   0.000D+00 0.100D+01
 Coeff:     -0.109D+01 0.209D+01
 Gap=     0.035 Goal=   None    Shift=    0.000
 RMSDP=1.01D-03 MaxDP=4.07D-02 DE=-2.80D-02 OVMax= 6.48D-01

 Cycle   3  Pass 1  IDiag  1:
 E= -24.8998264425102     Delta-E=       -0.069052253084 Rises=F Damp=F
 DIIS: error= 1.54D-02 at cycle   3 NSaved=   3.
 NSaved= 3 IEnMin= 3 EnMin= -24.8998264425102     IErMin= 3 ErrMin= 1.54D-02
 ErrMax= 1.54D-02  0.00D+00 EMaxC= 1.00D-01 BMatC= 5.56D-03 BMatP= 2.52D-02
 IDIUse=3 WtCom= 8.46D-01 WtEn= 1.54D-01
 Coeff-Com: -0.905D+00 0.121D+01 0.699D+00
 Coeff-En:   0.000D+00 0.000D+00 0.100D+01
 Coeff:     -0.766D+00 0.102D+01 0.746D+00
 Gap=     0.167 Goal=   None    Shift=    0.000
 RMSDP=6.41D-04 MaxDP=2.49D-02 DE=-6.91D-02 OVMax= 1.14D-01

 Cycle   4  Pass 1  IDiag  1:
 E= -24.9179396831515     Delta-E=       -0.018113240641 Rises=F Damp=F
 DIIS: error= 5.43D-03 at cycle   4 NSaved=   4.
 NSaved= 4 IEnMin= 4 EnMin= -24.9179396831515     IErMin= 4 ErrMin= 5.43D-03
 ErrMax= 5.43D-03  0.00D+00 EMaxC= 1.00D-01 BMatC= 6.54D-04 BMatP= 5.56D-03
 IDIUse=3 WtCom= 9.46D-01 WtEn= 5.43D-02
 Coeff-Com: -0.393D-01 0.721D-01-0.455D+00 0.142D+01
 Coeff-En:   0.000D+00 0.000D+00 0.000D+00 0.100D+01
 Coeff:     -0.372D-01 0.682D-01-0.430D+00 0.140D+01
 Gap=     0.195 Goal=   None    Shift=    0.000
 RMSDP=3.07D-04 MaxDP=9.20D-03 DE=-1.81D-02 OVMax= 3.97D-02

 Cycle   5  Pass 1  IDiag  1:
 E= -24.9201952696241     Delta-E=       -0.002255586473 Rises=F Damp=F
 DIIS: error= 9.92D-04 at cycle   5 NSaved=   5.
 NSaved= 5 IEnMin= 5 EnMin= -24.9201952696241     IErMin= 5 ErrMin= 9.92D-04
 ErrMax= 9.92D-04  0.00D+00 EMaxC= 1.00D-01 BMatC= 3.18D-05 BMatP= 6.54D-04
 IDIUse=3 WtCom= 9.90D-01 WtEn= 9.92D-03
 Coeff-Com: -0.590D-01 0.710D-01 0.249D+00-0.891D+00 0.163D+01
 Coeff-En:   0.000D+00 0.000D+00 0.000D+00 0.000D+00 0.100D+01
 Coeff:     -0.584D-01 0.703D-01 0.247D+00-0.882D+00 0.162D+01
 Gap=     0.194 Goal=   None    Shift=    0.000
 RMSDP=9.98D-05 MaxDP=3.09D-03 DE=-2.26D-03 OVMax= 9.14D-03

 Cycle   6  Pass 1  IDiag  1:
 E= -24.9203112419547     Delta-E=       -0.000115972331 Rises=F Damp=F
 DIIS: error= 4.48D-04 at cycle   6 NSaved=   6.
 NSaved= 6 IEnMin= 6 EnMin= -24.9203112419547     IErMin= 6 ErrMin= 4.48D-04
 ErrMax= 4.48D-04  0.00D+00 EMaxC= 1.00D-01 BMatC= 5.82D-06 BMatP= 3.18D-05
 IDIUse=3 WtCom= 9.96D-01 WtEn= 4.48D-03
 Coeff-Com: -0.287D-03 0.125D-02-0.214D-01-0.322D-01-0.517D-01 0.110D+01
 Coeff-En:   0.000D+00 0.000D+00 0.000D+00 0.000D+00 0.000D+00 0.100D+01
 Coeff:     -0.286D-03 0.124D-02-0.213D-01-0.321D-01-0.515D-01 0.110D+01
 Gap=     0.195 Goal=   None    Shift=    0.000
 RMSDP=3.69D-05 MaxDP=1.10D-03 DE=-1.16D-04 OVMax= 4.35D-03

 Cycle   7  Pass 1  IDiag  1:
 E= -24.9203306108839     Delta-E=       -0.000019368929 Rises=F Damp=F
 DIIS: error= 3.35D-05 at cycle   7 NSaved=   7.
 NSaved= 7 IEnMin= 7 EnMin= -24.9203306108839     IErMin= 7 ErrMin= 3.35D-05
 ErrMax= 3.35D-05  0.00D+00 EMaxC= 1.00D-01 BMatC= 2.09D-08 BMatP= 5.82D-06
 IDIUse=1 WtCom= 1.00D+00 WtEn= 0.00D+00
 Coeff-Com: -0.154D-03 0.356D-03-0.300D-02 0.320D-01-0.229D-01-0.221D+00
 Coeff-Com:  0.121D+01
 Coeff:     -0.154D-03 0.356D-03-0.300D-02 0.320D-01-0.229D-01-0.221D+00
 Coeff:      0.121D+01
 Gap=     0.195 Goal=   None    Shift=    0.000
 RMSDP=3.46D-06 MaxDP=1.50D-04 DE=-1.94D-05 OVMax= 3.47D-04

 Cycle   8  Pass 1  IDiag  1:
 E= -24.9203307253562     Delta-E=       -0.000000114472 Rises=F Damp=F
 DIIS: error= 9.20D-06 at cycle   8 NSaved=   8.
 NSaved= 8 IEnMin= 8 EnMin= -24.9203307253562     IErMin= 8 ErrMin= 9.20D-06
 ErrMax= 9.20D-06  0.00D+00 EMaxC= 1.00D-01 BMatC= 1.43D-09 BMatP= 2.09D-08
 IDIUse=1 WtCom= 1.00D+00 WtEn= 0.00D+00
 Coeff-Com: -0.103D-03 0.902D-04 0.760D-03-0.504D-02-0.351D-03 0.276D-01
 Coeff-Com: -0.324D+00 0.130D+01
 Coeff:     -0.103D-03 0.902D-04 0.760D-03-0.504D-02-0.351D-03 0.276D-01
 Coeff:     -0.324D+00 0.130D+01
 Gap=     0.195 Goal=   None    Shift=    0.000
 RMSDP=1.44D-06 MaxDP=6.56D-05 DE=-1.14D-07 OVMax= 1.45D-04

 Cycle   9  Pass 1  IDiag  1:
 E= -24.9203307363682     Delta-E=       -0.000000011012 Rises=F Damp=F
 DIIS: error= 1.77D-06 at cycle   9 NSaved=   9.
 NSaved= 9 IEnMin= 9 EnMin= -24.9203307363682     IErMin= 9 ErrMin= 1.77D-06
 ErrMax= 1.77D-06  0.00D+00 EMaxC= 1.00D-01 BMatC= 7.62D-11 BMatP= 1.43D-09
 IDIUse=1 WtCom= 1.00D+00 WtEn= 0.00D+00
 Coeff-Com: -0.104D-03 0.139D-03 0.142D-03-0.141D-02 0.359D-02 0.571D-02
 Coeff-Com:  0.214D-01-0.355D+00 0.133D+01
 Coeff:     -0.104D-03 0.139D-03 0.142D-03-0.141D-02 0.359D-02 0.571D-02
 Coeff:      0.214D-01-0.355D+00 0.133D+01
 Gap=     0.195 Goal=   None    Shift=    0.000
 RMSDP=2.24D-07 MaxDP=8.29D-06 DE=-1.10D-08 OVMax= 2.45D-05

 Cycle  10  Pass 1  IDiag  1:
 E= -24.9203307366648     Delta-E=       -0.000000000297 Rises=F Damp=F
 DIIS: error= 9.63D-07 at cycle  10 NSaved=  10.
 NSaved=10 IEnMin=10 EnMin= -24.9203307366648     IErMin=10 ErrMin= 9.63D-07
 ErrMax= 9.63D-07  0.00D+00 EMaxC= 1.00D-01 BMatC= 3.34D-11 BMatP= 7.62D-11
 IDIUse=1 WtCom= 1.00D+00 WtEn= 0.00D+00
 Coeff-Com: -0.788D-05 0.102D-04 0.457D-05 0.118D-03-0.426D-03-0.351D-02
 Coeff-Com: -0.804D-02 0.115D+00-0.487D+00 0.138D+01
 Coeff:     -0.788D-05 0.102D-04 0.457D-05 0.118D-03-0.426D-03-0.351D-02
 Coeff:     -0.804D-02 0.115D+00-0.487D+00 0.138D+01
 Gap=     0.195 Goal=   None    Shift=    0.000
 RMSDP=8.61D-08 MaxDP=2.92D-06 DE=-2.97D-10 OVMax= 9.18D-06

 Cycle  11  Pass 1  IDiag  1:
 E= -24.9203307367654     Delta-E=       -0.000000000101 Rises=F Damp=F
 DIIS: error= 6.41D-08 at cycle  11 NSaved=  11.
 NSaved=11 IEnMin=11 EnMin= -24.9203307367654     IErMin=11 ErrMin= 6.41D-08
 ErrMax= 6.41D-08  0.00D+00 EMaxC= 1.00D-01 BMatC= 1.98D-13 BMatP= 3.34D-11
 IDIUse=1 WtCom= 1.00D+00 WtEn= 0.00D+00
 Coeff-Com: -0.188D-05 0.237D-05 0.447D-05-0.494D-04 0.149D-03 0.759D-03
 Coeff-Com:  0.173D-02-0.251D-01 0.109D+00-0.372D+00 0.129D+01
 Coeff:     -0.188D-05 0.237D-05 0.447D-05-0.494D-04 0.149D-03 0.759D-03
 Coeff:      0.173D-02-0.251D-01 0.109D+00-0.372D+00 0.129D+01
 Gap=     0.195 Goal=   None    Shift=    0.000
 RMSDP=6.42D-09 MaxDP=2.81D-07 DE=-1.01D-10 OVMax= 4.69D-07

 SCF Done:  E(RHF) =  -24.9203307368     A.U. after   11 cycles
            NFock= 11  Conv=0.64D-08     -V/T= 2.0070
 KE= 2.474822591669D+01 PE=-5.857954659591D+01 EE= 8.176021593955D+00
 Leave Link  502 at Thu May 26 10:10:44 2022, MaxMem=   104857600 cpu:               3.6 elap:               3.6
 (Enter /apps/software/g16/l801.exe)
 ExpMin= 1.88D-02 ExpMax= 2.39D+04 ExpMxC= 2.30D+02 IAcc=3 IRadAn=         5 AccDes= 0.00D+00
 HarFok:  IExCor=  205 AccDes= 0.00D+00 IRadAn=         5 IDoV=-2 UseB2=F ITyADJ=14
 ICtDFT= 12500011 ScaDFX=  1.000000  1.000000  1.000000  1.000000
 DSYEVD-2 returned Info=        3401 IAlg= 4 N=    80 NDim=    80 NE2=     1309686 trying  DSYEV.
 Largest valence mixing into a core orbital is  4.03D-04
 Largest core mixing into a valence orbital is  1.73D-04
 Range of M.O.s used for correlation:     2   126
 NBasis=   126 NAE=     3 NBE=     3 NFC=     1 NFV=     0
 NROrb=    125 NOA=     2 NOB=     2 NVA=   123 NVB=   123
 Leave Link  801 at Thu May 26 10:10:44 2022, MaxMem=   104857600 cpu:               0.1 elap:               0.1
 (Enter /apps/software/g16/l906.exe)
 FulOut=F Deriv=F AODrv=F NAtomX=     2
   MMem=         940  MDisk=           2 MDiskD=           2
  W3Min=       39360 MinDsk=      297938 NBas6D=         160
 NBas2D=       13447    NTT=       12880    LW2=     4508827
    MDV=   104744705 MDiskM=        1427 NBas2p=       13371
 Fully direct method using O(OVN) memory.
 IMap=   1   2
 JobTyp=1 Pass  1:  I=   1 to   2 NPSUse=  1 ParTrn=F ParDer=F DoDerP=F.
 Spin components of T(2) and E(2):
     alpha-alpha T2 =       0.1598041036D-02 E2=     -0.2222973966D-02
     alpha-beta  T2 =       0.1270698762D+00 E2=     -0.1005643392D+00
     beta-beta   T2 =       0.1598041036D-02 E2=     -0.2222973966D-02
 The integrals were generated   1 times.
 ANorm=    0.1063139670D+01
 E2 =    -0.1050102872D+00 EUMP2 =    -0.25025341023934D+02
 Leave Link  906 at Thu May 26 10:10:47 2022, MaxMem=   104857600 cpu:               2.9 elap:               2.9
 (Enter /apps/software/g16/l601.exe)
 Copying SCF densities to generalized density rwf, IOpCl= 0 IROHF=0.

 **********************************************************************

            Population analysis using the SCF density.

 **********************************************************************

 Orbital symmetries:
       Occupied  (SG) (SG) (SG)
       Virtual   (SG) (PI) (PI) (SG) (PI) (PI) (SG) (SG) (DLTA)
                 (DLTA) (PI) (PI) (SG) (PI) (PI) (SG) (PI) (PI)
                 (SG) (SG) (PHI) (PHI) (DLTA) (DLTA) (DLTA) (DLTA)
                 (PI) (PI) (SG) (PI) (PI) (SG) (SG) (DLTA) (DLTA)
                 (PI) (PI) (SG) (PI) (PI) (PI) (PI) (SG) (SG) (SG)
                 (?A) (?A) (DLTA) (DLTA) (PHI) (PHI) (DLTA) (DLTA)
                 (PI) (PI) (SG) (PI) (PI) (PHI) (PHI) (DLTA) (DLTA)
                 (SG) (PI) (PI) (SG) (PHI) (PHI) (DLTA) (DLTA)
                 (SG) (PI) (PI) (SG) (DLTA) (DLTA) (PI) (PI) (PI)
                 (PI) (SG) (SG) (PI) (PI) (SG) (?A) (?A) (DLTA)
                 (DLTA) (PHI) (PHI) (DLTA) (DLTA) (PI) (PI) (SG)
                 (PI) (PI) (PHI) (PHI) (DLTA) (DLTA) (SG) (PI)
                 (PI) (SG) (PHI) (PHI) (DLTA) (DLTA) (PI) (PI)
                 (SG) (SG) (PI) (PI) (SG) (DLTA) (DLTA) (PI) (PI)
                 (SG) (SG)
 The electronic state is 1-SG.
 Alpha  occ. eigenvalues --   -7.87965  -0.61007  -0.24991
 Alpha virt. eigenvalues --   -0.05471  -0.03703  -0.03703   0.02672   0.04615
 Alpha virt. eigenvalues --    0.04615   0.06695   0.09195   0.12467   0.12467
 Alpha virt. eigenvalues --    0.13177   0.13177   0.16190   0.24601   0.24601
 Alpha virt. eigenvalues --    0.26122   0.26643   0.26643   0.29537   0.34192
 Alpha virt. eigenvalues --    0.42396   0.42396   0.43077   0.43077   0.44399
 Alpha virt. eigenvalues --    0.44399   0.44937   0.44937   0.45355   0.47235
 Alpha virt. eigenvalues --    0.47235   0.49087   0.58171   0.69717   0.69717
 Alpha virt. eigenvalues --    0.77214   0.77214   0.87865   0.88030   0.88030
 Alpha virt. eigenvalues --    0.95365   0.95365   0.95890   1.00522   1.29912
 Alpha virt. eigenvalues --    1.30502   1.30502   1.31231   1.31231   1.31551
 Alpha virt. eigenvalues --    1.31551   1.32194   1.32194   1.32307   1.32307
 Alpha virt. eigenvalues --    1.33219   1.33313   1.33313   1.35844   1.35844
 Alpha virt. eigenvalues --    1.37234   1.37234   1.40120   1.41721   1.41721
 Alpha virt. eigenvalues --    1.55897   1.64407   1.64407   1.66221   1.66221
 Alpha virt. eigenvalues --    1.75054   1.75384   1.75384   1.90333   2.56069
 Alpha virt. eigenvalues --    2.56069   2.61857   2.61857   2.69249   2.69249
 Alpha virt. eigenvalues --    2.75244   2.77754   3.59240   3.59240   3.64102
 Alpha virt. eigenvalues --    3.81194   3.81194   3.81983   3.81983   3.82336
 Alpha virt. eigenvalues --    3.82336   3.83425   3.83425   3.83513   3.83513
 Alpha virt. eigenvalues --    3.84528   3.87149   3.87149   3.96216   3.96216
 Alpha virt. eigenvalues --    3.97724   3.97724   4.00687   4.00730   4.00730
 Alpha virt. eigenvalues --    4.06146   6.65406   6.65406   6.65859   6.65859
 Alpha virt. eigenvalues --    6.68133   6.68133   6.71576   7.57481   8.05017
 Alpha virt. eigenvalues --    8.05017   8.10834   8.49462   8.49462   8.53421
 Alpha virt. eigenvalues --    8.53421   8.63021  12.93098
          Condensed to atoms (all electrons):
               1          2
     1  B    4.474553   0.159852
     2  H    0.159852   1.205742
 Mulliken charges:
               1
     1  B    0.365595
     2  H   -0.365595
 Sum of Mulliken charges =  -0.00000
 Mulliken charges with hydrogens summed into heavy atoms:
               1
     1  B   -0.000000
 Electronic spatial extent (au):  <R**2>=             70.3690
 Charge=             -0.0000 electrons
 Dipole moment (field-independent basis, Debye):
    X=              0.0000    Y=              0.0000    Z=              7.0509  Tot=              7.0509
 Quadrupole moment (field-independent basis, Debye-Ang):
   XX=             -8.9678   YY=             -8.9678   ZZ=            -24.8385
   XY=              0.0000   XZ=              0.0000   YZ=              0.0000
 Traceless Quadrupole moment (field-independent basis, Debye-Ang):
   XX=              5.2902   YY=              5.2902   ZZ=            -10.5804
   XY=              0.0000   XZ=              0.0000   YZ=              0.0000
 Octapole moment (field-independent basis, Debye-Ang**2):
  XXX=              0.0000  YYY=              0.0000  ZZZ=             56.3760  XYY=              0.0000
  XXY=              0.0000  XXZ=              7.9276  XZZ=              0.0000  YZZ=              0.0000
  YYZ=              7.9276  XYZ=              0.0000
 Hexadecapole moment (field-independent basis, Debye-Ang**3):
 XXXX=            -18.8341 YYYY=            -18.8341 ZZZZ=           -309.0577 XXXY=              0.0000
 XXXZ=              0.0000 YYYX=              0.0000 YYYZ=              0.0000 ZZZX=              0.0000
 ZZZY=              0.0000 XXYY=             -6.2780 XXZZ=            -38.8280 YYZZ=            -38.8280
 XXYZ=              0.0000 YYXZ=              0.0000 ZZXY=              0.0000
 N-N= 7.349683485000D-01 E-N=-5.857954761246D+01  KE= 2.474822591669D+01
 Symmetry A1   KE= 2.474822591669D+01
 Symmetry A2   KE= 2.704164695351D-53
 Symmetry B1   KE= 0.000000000000D+00
 Symmetry B2   KE= 0.000000000000D+00
 Leave Link  601 at Thu May 26 10:10:47 2022, MaxMem=   104857600 cpu:               0.0 elap:               0.1
 (Enter /apps/software/g16/l9999.exe)
 1\1\GINC-CNODE16\SP\RMP2-FC\Aug-CC-pVQZ\B1H1\LCZ\26-May-2022\0\\#p RHF
 /aug-cc-pVQZ MP2=FC\\BH RMP2 at 3.6 Angstrom\\0,1\B,0,0.,0.,0.\H,0,3.6
 ,0.,0.\\Version=ES64L-G16RevA.03\State=1-SG\HF=-24.9203307\MP2=-25.025
 341\RMSD=6.420e-09\PG=C*V [C*(H1B1)]\\@


 A COMPLEXITY IS MERELY A DISARRANGEMENT OF SIMPLICITIES.

                                    -- G. O. ABELL IN "EXPLORATION OF THE UNIVERSE"
 Job cpu time:       0 days  0 hours  0 minutes  7.3 seconds.
 Elapsed time:       0 days  0 hours  0 minutes  7.3 seconds.
 File lengths (MBytes):  RWF=     10 Int=      0 D2E=      0 Chk=      3 Scr=      1
 Normal termination of Gaussian 16 at Thu May 26 10:10:47 2022.

Sender: Unischeduler System <lcz@mgt01>
Subject: Job 136167: <#!/bin/bash
#BSUB -J intel
#BSUB -o BH-3.6-MP2-G.out
#BSUB -n 8
#BSUB -q cqueue
#BSUB -R span[hosts=1]
export g16root=/apps/software
source /apps/software/g16/bsd/g16.profile
export GAUSS_SCRDIR=/scratch
/apps/software/g16/g16 < BH-3.6-MP2-G.inp > BH-3.6-MP2-G.out> Done

Job <#!/bin/bash
#BSUB -J intel
#BSUB -o BH-3.6-MP2-G.out
#BSUB -n 8
#BSUB -q cqueue
#BSUB -R span[hosts=1]
export g16root=/apps/software
source /apps/software/g16/bsd/g16.profile
export GAUSS_SCRDIR=/scratch
/apps/software/g16/g16 < BH-3.6-MP2-G.inp > BH-3.6-MP2-G.out> was submitted from host <mgt01> by user <lcz>.
Job was executed on host(s) <8*cnode16>, in queue <cqueue>, as user <lcz>.
</apps/users/lcz> was used as the home directory.
</apps/users/lcz/exe13/GMP2> was used as the working directory.
Started at 2022-05-26 10:10:40
Results reported at 2022-05-26 10:10:47

Your job looked like:

------------------------------------------------------------
# User input
#!/bin/bash
#BSUB -J intel
#BSUB -o BH-3.6-MP2-G.out
#BSUB -n 8
#BSUB -q cqueue
#BSUB -R span[hosts=1]
export g16root=/apps/software
source /apps/software/g16/bsd/g16.profile
export GAUSS_SCRDIR=/scratch
/apps/software/g16/g16 < BH-3.6-MP2-G.inp > BH-3.6-MP2-G.out
------------------------------------------------------------

Successfully completed.

Resource usage summary:

    CPU time   :            0.01 sec.
    Max Memory :                 9 MB
    Max Processes  :               2


The output (if any) follows:

