
                                        *****************
                                        * O   R   C   A *
                                        *****************

                                            #,                                       
                                            ###                                      
                                            ####                                     
                                            #####                                    
                                            ######                                   
                                           ########,                                 
                                     ,,################,,,,,                         
                               ,,#################################,,                 
                          ,,##########################################,,             
                       ,#########################################, ''#####,          
                    ,#############################################,,   '####,        
                  ,##################################################,,,,####,       
                ,###########''''           ''''###############################       
              ,#####''   ,,,,##########,,,,          '''####'''          '####       
            ,##' ,,,,###########################,,,                        '##       
           ' ,,###''''                  '''############,,,                           
         ,,##''                                '''############,,,,        ,,,,,,###''
      ,#''                                            '''#######################'''  
     '                                                          ''''####''''         
             ,#######,   #######,   ,#######,      ##                                
            ,#'     '#,  ##    ##  ,#'     '#,    #''#        ######   ,####,        
            ##       ##  ##   ,#'  ##            #'  '#       #        #'  '#        
            ##       ##  #######   ##           ,######,      #####,   #    #        
            '#,     ,#'  ##    ##  '#,     ,#' ,#      #,         ##   #,  ,#        
             '#######'   ##     ##  '#######'  #'      '#     #####' # '####'        



                  #######################################################
                  #                        -***-                        #
                  #          Department of theory and spectroscopy      #
                  #    Directorship and core code : Frank Neese         #
                  #        Max Planck Institute fuer Kohlenforschung    #
                  #                Kaiser Wilhelm Platz 1               #
                  #                 D-45470 Muelheim/Ruhr               #
                  #                      Germany                        #
                  #                                                     #
                  #                  All rights reserved                #
                  #                        -***-                        #
                  #######################################################


                         Program Version 5.0.0 -  RELEASE  -
                                (SVN: $Rev: 19529$)
                ($Date: 2021-06-28 11:36:33 +0200 (Mo, 28 Jun 2021) $)


 With contributions from (in alphabetic order):
   Daniel Aravena         : Magnetic Suceptibility
   Michael Atanasov       : Ab Initio Ligand Field Theory (pilot matlab implementation)
   Alexander A. Auer      : GIAO ZORA, VPT2 properties, NMR spectrum
   Ute Becker             : Parallelization
   Giovanni Bistoni       : ED, misc. LED, open-shell LED, HFLD
   Martin Brehm           : Molecular dynamics
   Dmytro Bykov           : SCF Hessian
   Vijay G. Chilkuri      : MRCI spin determinant printing, contributions to CSF-ICE
   Dipayan Datta          : RHF DLPNO-CCSD density
   Achintya Kumar Dutta   : EOM-CC, STEOM-CC
   Dmitry Ganyushin       : Spin-Orbit,Spin-Spin,Magnetic field MRCI
   Miquel Garcia          : C-PCM Hessian, Gaussian charge scheme
   Yang Guo               : DLPNO-NEVPT2, F12-NEVPT2, CIM, IAO-localization
   Andreas Hansen         : Spin unrestricted coupled pair/coupled cluster methods
   Benjamin Helmich-Paris : MC-RPA, TRAH-SCF, COSX integrals
   Lee Huntington         : MR-EOM, pCC
   Robert Izsak           : Overlap fitted RIJCOSX, COSX-SCS-MP3, EOM
   Marcus Kettner         : VPT2
   Christian Kollmar      : KDIIS, OOCD, Brueckner-CCSD(T), CCSD density, CASPT2, CASPT2-K
   Simone Kossmann        : Meta GGA functionals, TD-DFT gradient, OOMP2, MP2 Hessian
   Martin Krupicka        : Initial AUTO-CI
   Lucas Lang             : DCDCAS
   Marvin Lechner         : AUTO-CI (C++ implementation), FIC-MRCC
   Dagmar Lenk            : GEPOL surface, SMD
   Dimitrios Liakos       : Extrapolation schemes; Compound Job, initial MDCI parallelization
   Dimitrios Manganas     : Further ROCIS development; embedding schemes
   Dimitrios Pantazis     : SARC Basis sets
   Anastasios Papadopoulos: AUTO-CI, single reference methods and gradients
   Taras Petrenko         : DFT Hessian,TD-DFT gradient, ASA, ECA, R-Raman, ABS, FL, XAS/XES, NRVS
   Peter Pinski           : DLPNO-MP2, DLPNO-MP2 Gradient
   Christoph Reimann      : Effective Core Potentials
   Marius Retegan         : Local ZFS, SOC
   Christoph Riplinger    : Optimizer, TS searches, QM/MM, DLPNO-CCSD(T), (RO)-DLPNO pert. Triples
   Tobias Risthaus        : Range-separated hybrids, TD-DFT gradient, RPA, STAB
   Michael Roemelt        : Original ROCIS implementation
   Masaaki Saitow         : Open-shell DLPNO-CCSD energy and density
   Barbara Sandhoefer     : DKH picture change effects
   Avijit Sen             : IP-ROCIS
   Kantharuban Sivalingam : CASSCF convergence, NEVPT2, FIC-MRCI
   Bernardo de Souza      : ESD, SOC TD-DFT
   Georgi Stoychev        : AutoAux, RI-MP2 NMR
   Willem Van den Heuvel  : Paramagnetic NMR
   Boris Wezisla          : Elementary symmetry handling
   Frank Wennmohs         : Technical directorship


 We gratefully acknowledge several colleagues who have allowed us to
 interface, adapt or use parts of their codes:
   Stefan Grimme, W. Hujo, H. Kruse, P. Pracht,  : VdW corrections, initial TS optimization,
                  C. Bannwarth, S. Ehlert          DFT functionals, gCP, sTDA/sTD-DF
   Ed Valeev, F. Pavosevic, A. Kumar             : LibInt (2-el integral package), F12 methods
   Garnet Chan, S. Sharma, J. Yang, R. Olivares  : DMRG
   Ulf Ekstrom                                   : XCFun DFT Library
   Mihaly Kallay                                 : mrcc  (arbitrary order and MRCC methods)
   Jiri Pittner, Ondrej Demel                    : Mk-CCSD
   Frank Weinhold                                : gennbo (NPA and NBO analysis)
   Christopher J. Cramer and Donald G. Truhlar   : smd solvation model
   Lars Goerigk                                  : TD-DFT with DH, B97 family of functionals
   V. Asgeirsson, H. Jonsson                     : NEB implementation
   FAccTs GmbH                                   : IRC, NEB, NEB-TS, DLPNO-Multilevel, CI-OPT
                                                   MM, QMMM, 2- and 3-layer-ONIOM, Crystal-QMMM,
                                                   LR-CPCM, SF, NACMEs, symmetry and pop. for TD-DFT,
                                                   nearIR, NL-DFT gradient (VV10), updates on ESD,
                                                   ML-optimized integration grids
   S Lehtola, MJT Oliveira, MAL Marques          : LibXC Library
   Liviu Ungur et al                             : ANISO software


 Your calculation uses the libint2 library for the computation of 2-el integrals
 For citations please refer to: http://libint.valeyev.net

 Your ORCA version has been built with support for libXC version: 5.1.0
 For citations please refer to: https://tddft.org/programs/libxc/

 This ORCA versions uses:
   CBLAS   interface :  Fast vector & matrix operations
   LAPACKE interface :  Fast linear algebra routines
   SCALAPACK package :  Parallel linear algebra routines
   Shared memory     :  Shared parallel matrices
   BLAS/LAPACK       :  OpenBLAS 0.3.15  USE64BITINT DYNAMIC_ARCH NO_AFFINITY SkylakeX SINGLE_THREADED
        Core in use  :  SkylakeX
   Copyright (c) 2011-2014, The OpenBLAS Project


================================================================================

----- Orbital basis set information -----
Your calculation utilizes the basis: aug-cc-pVQZ 
    H, B-Ne : Obtained from the ccRepo (grant-hill.group.shef.ac.uk/ccrepo) Feb. 2017
              R. A. Kendall, T. H. Dunning, Jr., R. J. Harrison, J. Chem. Phys. 96, 6796 (1992)
         He : Obtained from the ccRepo (grant-hill.group.shef.ac.uk/ccrepo) Feb. 2017
              D. E. Woon, T. H. Dunning, Jr., J. Chem. Phys. 100, 2975 (1994)
  Li-Be, Na : Obtained from the ccRepo (grant-hill.group.shef.ac.uk/ccrepo) Feb. 2017
              B. P. Prascher, D. E. Woon, K. A. Peterson, T. H. Dunning, Jr., A. K. Wilson, Theor. Chem. Acc. 128, 69 (2011)
         Mg : Obtained from the Peterson Research Group Website (tyr0.chem.wsu.edu/~kipeters) Feb. 2017
              B. P. Prascher, D. E. Woon, K. A. Peterson, T. H. Dunning, Jr., A. K. Wilson, Theor. Chem. Acc. 128, 69 (2011)
      Al-Ar : Obtained from the ccRepo (grant-hill.group.shef.ac.uk/ccrepo) Feb. 2017
              D. E. Woon, T. H. Dunning, Jr., J. Chem. Phys. 98, 1358 (1993)
      Sc-Zn : Obtained from the ccRepo (grant-hill.group.shef.ac.uk/ccrepo) Feb. 2017
              N. B. Balabanov, K. A. Peterson, J. Chem. Phys. 123, 064107 (2005)
              N. B. Balabanov, K. A. Peterson, J. Chem. Phys. 125, 074110 (2006)
      Ga-Kr : Obtained from the ccRepo (grant-hill.group.shef.ac.uk/ccrepo) Feb. 2017
              A. K. Wilson, D. E. Woon, K. A. Peterson, T. H. Dunning, Jr., J. Chem. Phys. 110, 7667 (1999)

================================================================================
                                        WARNINGS
                       Please study these warnings very carefully!
================================================================================


WARNING: No MP2 level density has been requested!
         To caclulate MP2 level properties use
         %mp2 Density relaxed end
         or
         %mp2 Density unrelaxed end

WARNING: Post HF methods need fully converged wavefunctions
  ===> : Setting SCFConvForced true
         You can overwrite this default with %scf ConvForced false 


INFO   : the flag for use of the SHARK integral package has been found!

================================================================================
                                       INPUT FILE
================================================================================
NAME = /scratch/BH-3.0-MP2-O_428/BH-3.0-MP2-O.inp
|  1> ! MP2 aug-cc-pVQZ pal8 VeryTightSCF UseSym MOread
|  2> 
|  3> %moinp "BH-3.0-O.gbw"
|  4> 
|  5> *xyz 0 1
|  6>  B	0.0	0.0	0.0
|  7>  H	3.0	0.0	0.0
|  8> **                         ****END OF INPUT****
================================================================================

------------------------------------------------------------------------------
                            SYMMETRY HANDLING SETUP
------------------------------------------------------------------------------

------------------
SYMMETRY DETECTION
------------------
The point group will now be determined using a tolerance of 1.0000e-04.
Splitting atom subsets according to nuclear charge, mass and basis set.
Splitting atom subsets according to distance from the molecule's center.
Identifying relative distance patterns of the atoms.
Splitting atom subsets according to atoms' relative distance patterns.
Bring atoms of each subset into input order.
The molecule is linear.
There is at least one atom subset not centered around the molecule's center.
The molecule does not have a center of inversion.
No further test is needed for point group Cinfv.
This point group has been found:    Cinfv
Largest non-degenerate subgroup:    C2v


Mass-centered symmetry-perfected Cartesians (point groups Cinfv and C2v):

Atom          Symmetry-perfected Cartesians (x, y, z; au)
  0       0.000000000000    0.000000000000   -0.483544747756
  1       0.000000000000    0.000000000000    5.185633654008


-----------------------------------------------
SYMMETRY-PERFECTED CARTESIAN COORDINATES (A.U.)
-----------------------------------------------
Warning (ORCA_SYM): Coordinates were not cleaned so far!

------------------
SYMMETRY REDUCTION
------------------
ORCA supports only abelian point groups.
It is now checked, if the determined point group is supported:
Point Group ( C2v   ) is          ... supported

(Re)building abelian point group:
Creating Character Table          ... done
Making direct product table       ... done
Constructing symmetry operations  ... done
Creating atom transfer table      ... done
Creating asymmetric unit          ... done

----------------------
ASYMMETRIC UNIT IN C2v
----------------------
  #  AT     MASS              COORDS (A.U.)             BAS
   0 B   10.8100   0.00000000   0.00000000  -0.48354475   0
   1 H    1.0080   0.00000000   0.00000000   5.18563365   0

----------------------
SYMMETRY ADAPTED BASIS
----------------------
The coefficients for the symmetry adapted linear combinations (SALCS)
of basis functions will now be computed:
Number of basis functions         ...   126
Preparing memory                  ... done
Constructing Gamma(red)           ... done
Reducing Gamma(red)               ... done
Constructing SALCs                ... done
Checking SALC integrity           ... nothing suspicious
Normalizing SALCs                 ... done

Storing the symmetry object:
Symmetry file                     ... /scratch/BH-3.0-MP2-O_428/BH-3.0-MP2-O.sym.tmp
Writing symmetry information      ... done

                       ****************************
                       * Single Point Calculation *
                       ****************************

---------------------------------
CARTESIAN COORDINATES (ANGSTROEM)
---------------------------------
  B      0.000000    0.000000   -0.255881
  H      0.000000    0.000000    2.744119

----------------------------
CARTESIAN COORDINATES (A.U.)
----------------------------
  NO LB      ZA    FRAG     MASS         X           Y           Z
   0 B     5.0000    0    10.810    0.000000    0.000000   -0.483545
   1 H     1.0000    0     1.008    0.000000    0.000000    5.185634

--------------------------------
INTERNAL COORDINATES (ANGSTROEM)
--------------------------------
 B      0   0   0     0.000000000000     0.00000000     0.00000000
 H      1   0   0     3.000000000000     0.00000000     0.00000000

---------------------------
INTERNAL COORDINATES (A.U.)
---------------------------
 B      0   0   0     0.000000000000     0.00000000     0.00000000
 H      1   0   0     5.669178401764     0.00000000     0.00000000

---------------------
BASIS SET INFORMATION
---------------------
There are 2 groups of distinct atoms

 Group   1 Type B   : 22s7p4d3f2g contracted to 6s5p4d3f2g pattern {991111/31111/1111/111/11}
 Group   2 Type H   : 7s4p3d2f contracted to 5s4p3d2f pattern {31111/1111/111/11}

Atom   0B    basis set group =>   1
Atom   1H    basis set group =>   2
--------------------------------------------------------------------------
WARNING: There was an error initializing an OpenFabrics device.

  Local host:   cnode04
  Local device: mlx5_0
--------------------------------------------------------------------------


           ************************************************************
           *        Program running with 8 parallel MPI-processes     *
           *              working on a common directory               *
           ************************************************************
------------------------------------------------------------------------------
                           ORCA GTO INTEGRAL CALCULATION
------------------------------------------------------------------------------
------------------------------------------------------------------------------
                   ___                                                        
                  /   \      - P O W E R E D   B Y -                         
                 /     \                                                     
                 |  |  |   _    _      __       _____    __    __             
                 |  |  |  | |  | |    /  \     |  _  \  |  |  /  |          
                  \  \/   | |  | |   /    \    | | | |  |  | /  /          
                 / \  \   | |__| |  /  /\  \   | |_| |  |  |/  /          
                |  |  |   |  __  | /  /__\  \  |    /   |      \           
                |  |  |   | |  | | |   __   |  |    \   |  |\   \          
                \     /   | |  | | |  |  |  |  | |\  \  |  | \   \       
                 \___/    |_|  |_| |__|  |__|  |_| \__\ |__|  \__/        
                                                                              
                      - O R C A' S   B I G   F R I E N D -                    
                                      &                                       
                       - I N T E G R A L  F E E D E R -                       
                                                                              
 v1 FN, 2020, v2 2021                                                         
------------------------------------------------------------------------------


Reading SHARK input file /scratch/BH-3.0-MP2-O_428/BH-3.0-MP2-O.SHARKINP.tmp ... ok
----------------------
SHARK INTEGRAL PACKAGE
----------------------

Number of atoms                             ...      2
Number of basis functions                   ...    126
Number of shells                            ...     34
Maximum angular momentum                    ...      4
Integral batch strategy                     ... SHARK/LIBINT Hybrid
RI-J (if used) integral strategy            ... SPLIT-RIJ (Revised 2003 algorithm where possible)
Printlevel                                  ...      1
Contraction scheme used                     ... SEGMENTED contraction
Coulomb Range Separation                    ... NOT USED
Exchange Range Separation                   ... NOT USED
Finite Nucleus Model                        ... NOT USED
Auxiliary Coulomb fitting basis             ... NOT available
Auxiliary J/K fitting basis                 ... NOT available
Auxiliary Correlation fitting basis         ... NOT available
Auxiliary 'external' fitting basis          ... NOT available
Integral threshold                          ...     1.000000e-12
Primitive cut-off                           ...     1.000000e-14
Primitive pair pre-selection threshold      ...     1.000000e-14

Calculating pre-screening integrals         ... done (  0.1 sec) Dimension = 34
Organizing shell pair data                  ... done (  0.0 sec)
Shell pair information
Total number of shell pairs                 ...       595
Shell pairs after pre-screening             ...       593
Total number of primitive shell pairs       ...      1563
Primitive shell pairs kept                  ...      1449
          la=0 lb=0:     64 shell pairs
          la=1 lb=0:     99 shell pairs
          la=1 lb=1:     45 shell pairs
          la=2 lb=0:     77 shell pairs
          la=2 lb=1:     63 shell pairs
          la=2 lb=2:     28 shell pairs
          la=3 lb=0:     55 shell pairs
          la=3 lb=1:     45 shell pairs
          la=3 lb=2:     35 shell pairs
          la=3 lb=3:     15 shell pairs
          la=4 lb=0:     22 shell pairs
          la=4 lb=1:     18 shell pairs
          la=4 lb=2:     14 shell pairs
          la=4 lb=3:     10 shell pairs
          la=4 lb=4:      3 shell pairs

Calculating one electron integrals          ... done (  0.0 sec)
Calculating Nuclear repulsion               ... done (  0.0 sec) ENN=      0.881962013833 Eh

SHARK setup successfully completed in   0.1 seconds

Maximum memory used throughout the entire GTOINT-calculation: 28.9 MB
[cnode04:10415] 7 more processes have sent help message help-mpi-btl-openib.txt / error in device init
[cnode04:10415] Set MCA parameter "orte_base_help_aggregate" to 0 to see all help / error messages
--------------------------------------------------------------------------
WARNING: There was an error initializing an OpenFabrics device.

  Local host:   cnode04
  Local device: mlx5_0
--------------------------------------------------------------------------


           ************************************************************
           *        Program running with 8 parallel MPI-processes     *
           *              working on a common directory               *
           ************************************************************
-------------------------------------------------------------------------------
                                 ORCA SCF
-------------------------------------------------------------------------------

------------
SCF SETTINGS
------------
Hamiltonian:
 Ab initio Hamiltonian  Method          .... Hartree-Fock(GTOs)


General Settings:
 Integral files         IntName         .... /scratch/BH-3.0-MP2-O_428/BH-3.0-MP2-O
 Hartree-Fock type      HFTyp           .... RHF
 Total Charge           Charge          ....    0
 Multiplicity           Mult            ....    1
 Number of Electrons    NEL             ....    6
 Basis Dimension        Dim             ....  126
 Nuclear Repulsion      ENuc            ....      0.8819620138 Eh

 Symmetry handling      UseSym         .... ON
 Point group                           .... C2v
 Used point group                      .... C2v
 Number of irreps                      .... 4
   Irrep   A1 has   50 symmetry adapted basis functions (ofs=   0)
   Irrep   A2 has   16 symmetry adapted basis functions (ofs=  50)
   Irrep   B1 has   30 symmetry adapted basis functions (ofs=  66)
   Irrep   B2 has   30 symmetry adapted basis functions (ofs=  96)

Convergence Acceleration:
 DIIS                   CNVDIIS         .... on
   Start iteration      DIISMaxIt       ....    12
   Startup error        DIISStart       ....  0.200000
   # of expansion vecs  DIISMaxEq       ....     5
   Bias factor          DIISBfac        ....   1.050
   Max. coefficient     DIISMaxC        ....  10.000
 Trust-Rad. Augm. Hess. CNVTRAH         .... auto
   Auto Start mean grad. ratio tolernc. ....  1.125000
   Auto Start start iteration           ....     1
   Auto Start num. interpolation iter.  ....    10
   Max. Number of Micro iterations      ....    16
   Max. Number of Macro iterations      .... Maxiter - #DIIS iter
   Number of Davidson start vectors     ....     2
   Converg. threshold I  (grad. norm)   ....   2.000e-06
   Converg. threshold II (energy diff.) ....   1.000e-09
   Grad. Scal. Fac. for Micro threshold ....   0.100
   Minimum threshold for Micro iter.    ....   0.010
   NR start threshold (gradient norm)   ....   0.001
   Initial trust radius                 ....   0.400
   Minimum AH scaling param. (alpha)    ....   1.000
   Maximum AH scaling param. (alpha)    .... 1000.000
   Orbital update algorithm             .... Taylor
   White noise on init. David. guess    .... on
   Maximum white noise                  ....   0.010
   Quad. conv. algorithm                .... NR
 SOSCF                  CNVSOSCF        .... on
   Start iteration      SOSCFMaxIt      ....   150
   Startup grad/error   SOSCFStart      ....  0.003300
 Level Shifting         CNVShift        .... on
   Level shift para.    LevelShift      ....    0.2500
   Turn off err/grad.   ShiftErr        ....    0.0010
 Zerner damping         CNVZerner       .... off
 Static damping         CNVDamp         .... on
   Fraction old density DampFac         ....    0.7000
   Max. Damping (<1)    DampMax         ....    0.9800
   Min. Damping (>=0)   DampMin         ....    0.0000
   Turn off err/grad.   DampErr         ....    0.1000
 Fernandez-Rico         CNVRico         .... off

SCF Procedure:
 Maximum # iterations   MaxIter         ....   125
 SCF integral mode      SCFMode         .... Direct
   Integral package                     .... SHARK and LIBINT hybrid scheme
 Reset frequency        DirectResetFreq ....    20
 Integral Threshold     Thresh          ....  1.000e-12 Eh
 Primitive CutOff       TCut            ....  1.000e-14 Eh

Convergence Tolerance:
 Convergence Check Mode ConvCheckMode   .... Total+1el-Energy
 Convergence forced     ConvForced      .... 1
 Energy Change          TolE            ....  1.000e-09 Eh
 1-El. energy change                    ....  1.000e-06 Eh
 Orbital Gradient       TolG            ....  2.000e-06
 Orbital Rotation angle TolX            ....  2.000e-06
 DIIS Error             TolErr          ....  1.000e-08


Diagonalization of the overlap matrix:
Smallest eigenvalue                        ... 2.276e-03
Time for diagonalization                   ...    0.002 sec
Threshold for overlap eigenvalues          ... 1.000e-08
Number of eigenvalues below threshold      ... 0
Time for construction of square roots      ...    0.002 sec
Producing symmetrization matrix            ... done (   0.000 sec)
Total time needed                          ...    0.004 sec

---------------------
INITIAL GUESS: MOREAD
---------------------
Guess MOs are being read from file: BH-3.0-O.gbw
Input Geometry matches current geometry (good)
Input basis set matches current basis set (good)
Warning: Geometry matches/Basis set matches and symmetry is to be used
         We proceed in good trust that the input orbitals and irreps are correct
MOs were renormalized
MOs were reorthogonalized (Cholesky)
Irrep occupations for operator 0
    A1 -    3
    A2 -    0
    B1 -    0
    B2 -    0
                      ------------------
                      INITIAL GUESS DONE (   0.0 sec)
                      ------------------
--------------
SCF ITERATIONS
--------------
ITER       Energy         Delta-E        Max-DP      RMS-DP      [F,P]     Damp
               ***  Starting incremental Fock matrix formation  ***
                      *** Initiating the SOSCF procedure ***
                      *** Re-Reading the Fockian *** 
                      *** Removing any level shift *** 
ITER      Energy       Delta-E        Grad      Rot      Max-DP    RMS-DP
  0    -24.95519521 -24.9551952071  0.000000  0.000000  0.000000  0.000000
               *** Restarting incremental Fock matrix formation ***
                 **** Energy Check signals convergence ****
              ***Rediagonalizing the Fockian in SOSCF/NRSCF***

               *****************************************************
               *                     SUCCESS                       *
               *           SCF CONVERGED AFTER   1 CYCLES          *
               *****************************************************


----------------
TOTAL SCF ENERGY
----------------

Total Energy       :          -24.95519521 Eh            -679.06538 eV

Components:
Nuclear Repulsion  :            0.88196201 Eh              23.99941 eV
Electronic Energy  :          -25.83715722 Eh            -703.06479 eV
One Electron Energy:          -34.23128041 Eh            -931.48050 eV
Two Electron Energy:            8.39412319 Eh             228.41570 eV

Virial components:
Potential Energy   :          -49.70274189 Eh           -1352.48037 eV
Kinetic Energy     :           24.74754668 Eh             673.41498 eV
Virial Ratio       :            2.00839067


---------------
SCF CONVERGENCE
---------------

  Last Energy change         ...   -6.0396e-14  Tolerance :   1.0000e-09
  Last MAX-Density change    ...    1.5269e-07  Tolerance :   1.0000e-08
  Last RMS-Density change    ...    3.0030e-09  Tolerance :   1.0000e-09
  Last Orbital Gradient      ...    5.0111e-08  Tolerance :   2.0000e-06
  Last Orbital Rotation      ...    1.4536e-07  Tolerance :   2.0000e-06

             **** THE GBW FILE WAS UPDATED (/scratch/BH-3.0-MP2-O_428/BH-3.0-MP2-O.gbw) ****
             **** DENSITY /scratch/BH-3.0-MP2-O_428/BH-3.0-MP2-O.scfp WAS UPDATED ****
             **** ENERGY FILE WAS UPDATED (/scratch/BH-3.0-MP2-O_428/BH-3.0-MP2-O.en.tmp) ****
             **** THE GBW FILE WAS UPDATED (/scratch/BH-3.0-MP2-O_428/BH-3.0-MP2-O.gbw) ****
             **** DENSITY /scratch/BH-3.0-MP2-O_428/BH-3.0-MP2-O.scfp WAS UPDATED ****
----------------
ORBITAL ENERGIES
----------------

  NO   OCC          E(Eh)            E(eV)    Irrep 
   0   2.0000      -7.856440      -213.7846    1-A1
   1   2.0000      -0.590609       -16.0713    2-A1
   2   2.0000      -0.274468        -7.4686    3-A1
   3   0.0000      -0.021904        -0.5960    4-A1
   4   0.0000      -0.021209        -0.5771    1-B1
   5   0.0000      -0.021209        -0.5771    1-B2
   6   0.0000       0.033090         0.9004    5-A1
   7   0.0000       0.051232         1.3941    2-B1
   8   0.0000       0.051232         1.3941    2-B2
   9   0.0000       0.070270         1.9121    6-A1
  10   0.0000       0.086258         2.3472    7-A1
  11   0.0000       0.131202         3.5702    1-A2
  12   0.0000       0.131202         3.5702    8-A1
  13   0.0000       0.136347         3.7102    3-B1
  14   0.0000       0.136347         3.7102    3-B2
  15   0.0000       0.168159         4.5758    9-A1
  16   0.0000       0.253388         6.8950    4-B2
  17   0.0000       0.253388         6.8950    4-B1
  18   0.0000       0.281301         7.6546    5-B1
  19   0.0000       0.281301         7.6546    5-B2
  20   0.0000       0.283491         7.7142   10-A1
  21   0.0000       0.296410         8.0657   11-A1
  22   0.0000       0.336001         9.1431   12-A1
  23   0.0000       0.434380        11.8201    6-B2
  24   0.0000       0.434380        11.8201    6-B1
  25   0.0000       0.441432        12.0120    2-A2
  26   0.0000       0.441432        12.0120   13-A1
  27   0.0000       0.456911        12.4332   14-A1
  28   0.0000       0.456911        12.4332    3-A2
  29   0.0000       0.458997        12.4899    7-B1
  30   0.0000       0.458997        12.4899    7-B2
  31   0.0000       0.471888        12.8407   15-A1
  32   0.0000       0.502034        13.6610    8-B2
  33   0.0000       0.502034        13.6610    8-B1
  34   0.0000       0.534695        14.5498   16-A1
  35   0.0000       0.606712        16.5095   17-A1
  36   0.0000       0.710687        19.3388    4-A2
  37   0.0000       0.710687        19.3388   18-A1
  38   0.0000       0.835074        22.7235    9-B2
  39   0.0000       0.835074        22.7235    9-B1
  40   0.0000       0.881275        23.9807   19-A1
  41   0.0000       0.886249        24.1161   10-B1
  42   0.0000       0.886249        24.1161   10-B2
  43   0.0000       0.924582        25.1592   20-A1
  44   0.0000       0.969181        26.3728   11-B2
  45   0.0000       0.969181        26.3728   11-B1
  46   0.0000       1.141803        31.0700   21-A1
  47   0.0000       1.319848        35.9149    5-A2
  48   0.0000       1.319848        35.9149   22-A1
  49   0.0000       1.324237        36.0343    6-A2
  50   0.0000       1.324237        36.0343   23-A1
  51   0.0000       1.325077        36.0572   24-A1
  52   0.0000       1.329491        36.1773   12-B2
  53   0.0000       1.329491        36.1773   12-B1
  54   0.0000       1.332463        36.2582    7-A2
  55   0.0000       1.332463        36.2582   25-A1
  56   0.0000       1.340965        36.4895   13-B1
  57   0.0000       1.340965        36.4895   13-B2
  58   0.0000       1.352554        36.8049   26-A1
  59   0.0000       1.363634        37.1064   14-B2
  60   0.0000       1.363634        37.1064   14-B1
  61   0.0000       1.374913        37.4133   15-B1
  62   0.0000       1.374913        37.4133   15-B2
  63   0.0000       1.395692        37.9787    8-A2
  64   0.0000       1.395692        37.9787   27-A1
  65   0.0000       1.454391        39.5760   28-A1
  66   0.0000       1.489470        40.5306   16-B1
  67   0.0000       1.489470        40.5306   16-B2
  68   0.0000       1.640236        44.6331   17-B1
  69   0.0000       1.640236        44.6331   17-B2
  70   0.0000       1.688048        45.9341   29-A1
  71   0.0000       1.728945        47.0470    9-A2
  72   0.0000       1.728945        47.0470   30-A1
  73   0.0000       1.841851        50.1193   31-A1
  74   0.0000       1.953513        53.1578   18-B2
  75   0.0000       1.953513        53.1578   18-B1
  76   0.0000       1.981643        53.9232   32-A1
  77   0.0000       2.567536        69.8662   10-A2
  78   0.0000       2.567536        69.8662   33-A1
  79   0.0000       2.681517        72.9678   19-B1
  80   0.0000       2.681517        72.9678   19-B2
  81   0.0000       2.700175        73.4755   20-B2
  82   0.0000       2.700175        73.4755   20-B1
  83   0.0000       2.777279        75.5736   34-A1
  84   0.0000       2.938446        79.9592   35-A1
  85   0.0000       3.616966        98.4226   21-B2
  86   0.0000       3.616966        98.4226   21-B1
  87   0.0000       3.762116       102.3724   36-A1
  88   0.0000       3.831144       104.2507   11-A2
  89   0.0000       3.831144       104.2507   37-A1
  90   0.0000       3.840764       104.5125   12-A2
  91   0.0000       3.840764       104.5125   38-A1
  92   0.0000       3.844763       104.6213   22-B2
  93   0.0000       3.844763       104.6213   22-B1
  94   0.0000       3.857038       104.9553   23-B2
  95   0.0000       3.857038       104.9553   23-B1
  96   0.0000       3.874843       105.4398   13-A2
  97   0.0000       3.874843       105.4398   39-A1
  98   0.0000       3.889975       105.8516   40-A1
  99   0.0000       3.982744       108.3760   24-B2
 100   0.0000       3.982744       108.3760   24-B1
 101   0.0000       3.992326       108.6367   25-B1
 102   0.0000       3.992326       108.6367   25-B2
 103   0.0000       4.001486       108.8860   14-A2
 104   0.0000       4.001486       108.8860   41-A1
 105   0.0000       4.037076       109.8544   26-B2
 106   0.0000       4.037076       109.8544   26-B1
 107   0.0000       4.092205       111.3546   42-A1
 108   0.0000       4.229821       115.0993   43-A1
 109   0.0000       6.649579       180.9442   27-B1
 110   0.0000       6.649579       180.9442   27-B2
 111   0.0000       6.671139       181.5309   15-A2
 112   0.0000       6.671139       181.5309   44-A1
 113   0.0000       6.744044       183.5148   28-B2
 114   0.0000       6.744044       183.5148   28-B1
 115   0.0000       6.780166       184.4977   45-A1
 116   0.0000       7.607591       207.0131   46-A1
 117   0.0000       8.061319       219.3596   29-B2
 118   0.0000       8.061319       219.3596   29-B1
 119   0.0000       8.276473       225.2143   47-A1
 120   0.0000       8.499020       231.2701   48-A1
 121   0.0000       8.499020       231.2701   16-A2
 122   0.0000       8.566787       233.1141   30-B2
 123   0.0000       8.566787       233.1141   30-B1
 124   0.0000       8.659678       235.6418   49-A1
 125   0.0000      12.978283       353.1570   50-A1

                    ********************************
                    * MULLIKEN POPULATION ANALYSIS *
                    ********************************

-----------------------
MULLIKEN ATOMIC CHARGES
-----------------------
   0 B :    0.305399
   1 H :   -0.305399
Sum of atomic charges:   -0.0000000

--------------------------------
MULLIKEN REDUCED ORBITAL CHARGES
--------------------------------
  0 B s       :     3.994488  s :     3.994488
      pz      :     0.669525  p :     0.669525
      px      :     0.000000
      py      :     0.000000
      dz2     :     0.028343  d :     0.028343
      dxz     :     0.000000
      dyz     :     0.000000
      dx2y2   :     0.000000
      dxy     :     0.000000
      f0      :     0.002144  f :     0.002144
      f+1     :     0.000000
      f-1     :     0.000000
      f+2     :     0.000000
      f-2     :     0.000000
      f+3     :     0.000000
      f-3     :     0.000000
      g0      :     0.000100  g :     0.000100
      g+1     :     0.000000
      g-1     :     0.000000
      g+2     :     0.000000
      g-2     :     0.000000
      g+3     :     0.000000
      g-3     :     0.000000
      g+4     :     0.000000
      g-4     :     0.000000
  1 H s       :     1.296440  s :     1.296440
      pz      :     0.008394  p :     0.008394
      px      :     0.000000
      py      :     0.000000
      dz2     :     0.000568  d :     0.000568
      dxz     :     0.000000
      dyz     :     0.000000
      dx2y2   :     0.000000
      dxy     :     0.000000
      f0      :    -0.000003  f :    -0.000003
      f+1     :     0.000000
      f-1     :     0.000000
      f+2     :     0.000000
      f-2     :     0.000000
      f+3     :     0.000000
      f-3     :     0.000000


                     *******************************
                     * LOEWDIN POPULATION ANALYSIS *
                     *******************************

----------------------
LOEWDIN ATOMIC CHARGES
----------------------
   0 B :    0.229855
   1 H :   -0.229855

-------------------------------
LOEWDIN REDUCED ORBITAL CHARGES
-------------------------------
  0 B s       :     3.956705  s :     3.956705
      pz      :     0.722618  p :     0.722618
      px      :     0.000000
      py      :     0.000000
      dz2     :     0.071150  d :     0.071150
      dxz     :     0.000000
      dyz     :     0.000000
      dx2y2   :     0.000000
      dxy     :     0.000000
      f0      :     0.018736  f :     0.018736
      f+1     :     0.000000
      f-1     :     0.000000
      f+2     :     0.000000
      f-2     :     0.000000
      f+3     :     0.000000
      f-3     :     0.000000
      g0      :     0.000936  g :     0.000936
      g+1     :     0.000000
      g-1     :     0.000000
      g+2     :     0.000000
      g-2     :     0.000000
      g+3     :     0.000000
      g-3     :     0.000000
      g+4     :     0.000000
      g-4     :     0.000000
  1 H s       :     1.179920  s :     1.179920
      pz      :     0.037545  p :     0.037545
      px      :     0.000000
      py      :     0.000000
      dz2     :     0.011202  d :     0.011202
      dxz     :     0.000000
      dyz     :     0.000000
      dx2y2   :     0.000000
      dxy     :     0.000000
      f0      :     0.001188  f :     0.001188
      f+1     :     0.000000
      f-1     :     0.000000
      f+2     :     0.000000
      f-2     :     0.000000
      f+3     :     0.000000
      f-3     :     0.000000


                      *****************************
                      * MAYER POPULATION ANALYSIS *
                      *****************************

  NA   - Mulliken gross atomic population
  ZA   - Total nuclear charge
  QA   - Mulliken gross atomic charge
  VA   - Mayer's total valence
  BVA  - Mayer's bonded valence
  FA   - Mayer's free valence

  ATOM       NA         ZA         QA         VA         BVA        FA
  0 B      4.6946     5.0000     0.3054     0.9136     0.9136    -0.0000
  1 H      1.3054     1.0000    -0.3054     0.9136     0.9136    -0.0000

  Mayer bond orders larger than 0.100000
B(  0-B ,  1-H ) :   0.9136 

-------
TIMINGS
-------

Total SCF time: 0 days 0 hours 0 min 0 sec 

Total time                  ....       0.531 sec
Sum of individual times     ....       0.385 sec  ( 72.5%)

Fock matrix formation       ....       0.370 sec  ( 69.6%)
Diagonalization             ....       0.003 sec  (  0.7%)
Density matrix formation    ....       0.000 sec  (  0.0%)
Population analysis         ....       0.004 sec  (  0.7%)
Initial guess               ....       0.004 sec  (  0.8%)
Orbital Transformation      ....       0.000 sec  (  0.0%)
Orbital Orthonormalization  ....       0.002 sec  (  0.4%)
DIIS solution               ....       0.001 sec  (  0.3%)
SOSCF solution              ....       0.002 sec  (  0.4%)

Maximum memory used throughout the entire SCF-calculation: 228.5 MB
[cnode04:10479] 7 more processes have sent help message help-mpi-btl-openib.txt / error in device init
[cnode04:10479] Set MCA parameter "orte_base_help_aggregate" to 0 to see all help / error messages
--------------------------------------------------------------------------
WARNING: There was an error initializing an OpenFabrics device.

  Local host:   cnode04
  Local device: mlx5_0
--------------------------------------------------------------------------


           ************************************************************
           *        Program running with 8 parallel MPI-processes     *
           *              working on a common directory               *
           ************************************************************

------------------------------------------------------------------------------
                                ORCA  MP2 
------------------------------------------------------------------------------

Freezing NCore=2 chemical core electrons

----------
MP2 ENERGY (disk based algorithm)
----------

Dimension of the basis                    ...  126
Memory devoted to MP2                     ...  256 MB   
Data format for buffers                   ... DOUBLE
Compression type for matrix containers    ... UNCOMPRESSED

-------------------------------
PARTIAL EXCHANGE TRANSFORMATION
-------------------------------

Transformation type                        ... one-operator
Generation of integrals (i,mue|j,nue)      ... ON
Generation of integrals (mue,kappa|nue,tau)... OFF
Generation of integrals (i,mue|a,nue)      ... OFF
Dimension of the basis                     ...  126
Number of internal MOs                     ...    2 (   1-   2)
Pair cutoff                                ... 1.000e-14 Eh
Number of AO pairs in the trafo            ... 8001
Total Number of distinct AO pairs          ... 8001
Memory devoted for trafo                   ...  256.0 MB 
Max. Number of MO pairs treated together   ... 2113      
Number Format for Storage                  ... Double (8 Byte)
Integral package used                      ... LIBINT

Starting integral evaluation:
    ... done with AO integral generation
Closing buffer AOK     ( 0.00 GB; CompressionRatio= 0.77)
Collecting buffer AOK 
Number of MO pairs included in the trafo   ...    3
------------------------
SORTING OF (i,mue|j,nue)
------------------------

IBATCH = 1 of  1
Closing buffer KAO     ( 0.00 GB; CompressionRatio= 1.00)
Collecting buffer KAO 
N(AO-Batches) Done                         ...     65847 
N(AO-Batches) Skipped                      ...      2052 
N(IJ)-pairs Skipped                        ...         0 
TOTAL TIME for half transformation         ...     0.812 sec
AO-integral generation                     ...     0.370 sec
Half transformation                        ...     0.016 sec
K-integral sorting                         ...     0.010 sec

Finished integral transformation - now doing MP2 part

OPERATOR COMBINATION   0   0: ij=(  1..  2,  1..  2)
-----------------------------------------------
 MP2 CORRELATION ENERGY   :     -0.094791141 Eh
-----------------------------------------------


-------
TIMINGS
-------
Total time                :    0.910 sec
Integral trafo            :    0.812 sec ( 89.3%)
K(i,j)                    :    0.000 sec (  0.0%)
T(i,j)                    :    0.000 sec (  0.0%)

---------------------------------------
MP2 TOTAL ENERGY:      -25.049986348 Eh
---------------------------------------

Maximum memory used throughout the entire MP2-calculation: 73.6 MB
[cnode04:10539] 7 more processes have sent help message help-mpi-btl-openib.txt / error in device init
[cnode04:10539] Set MCA parameter "orte_base_help_aggregate" to 0 to see all help / error messages

-------------------------   --------------------
FINAL SINGLE POINT ENERGY       -25.049986348177
-------------------------   --------------------


                            ***************************************
                            *     ORCA property calculations      *
                            ***************************************


  WARNING: The energy has been calculated at the MP2 level but the densities
           used in the property calculations are still SCF densities
           MP2 response densities have not been calculated 
           use %mp2 Density relaxed end
           or  %mp2 Density unrelaxed end

                                    ---------------------
                                    Active property flags
                                    ---------------------
   (+) Dipole Moment


------------------------------------------------------------------------------
                       ORCA ELECTRIC PROPERTIES CALCULATION
------------------------------------------------------------------------------

Dipole Moment Calculation                       ... on
Quadrupole Moment Calculation                   ... off
Polarizability Calculation                      ... off
GBWName                                         ... /scratch/BH-3.0-MP2-O_428/BH-3.0-MP2-O.gbw
Electron density file                           ... /scratch/BH-3.0-MP2-O_428/BH-3.0-MP2-O.scfp
The origin for moment calculation is the CENTER OF MASS  = ( 0.000000,  0.000000 -0.000000)

-------------
DIPOLE MOMENT
-------------
                                X             Y             Z
Electronic contribution:      0.00000      -0.00000      -4.81549
Nuclear contribution   :      0.00000       0.00000       2.76791
                        -----------------------------------------
Total Dipole Moment    :      0.00000      -0.00000      -2.04758
                        -----------------------------------------
Magnitude (a.u.)       :      2.04758
Magnitude (Debye)      :      5.20454



--------------------
Rotational spectrum 
--------------------
 
Rotational constants in cm-1:     0.000000     2.031478     2.031478 
Rotational constants in MHz :     0.000000 60902.182182 60902.182182 

 Dipole components along the rotational axes: 
x,y,z [a.u.] :    -2.047584    -0.000000     0.000000 
x,y,z [Debye]:    -5.204544    -0.000000     0.000000 

 
--------------------------------------------------------------------------
WARNING: There was an error initializing an OpenFabrics device.

  Local host:   cnode04
  Local device: mlx5_0
--------------------------------------------------------------------------
[cnode04:10615] 7 more processes have sent help message help-mpi-btl-openib.txt / error in device init
[cnode04:10615] Set MCA parameter "orte_base_help_aggregate" to 0 to see all help / error messages

Timings for individual modules:

Sum of individual times         ...        2.664 sec (=   0.044 min)
GTO integral calculation        ...        0.479 sec (=   0.008 min)  18.0 %
SCF iterations                  ...        0.896 sec (=   0.015 min)  33.6 %
MP2 module                      ...        1.289 sec (=   0.021 min)  48.4 %
                             ****ORCA TERMINATED NORMALLY****
TOTAL RUN TIME: 0 days 0 hours 0 minutes 3 seconds 92 msec

Sender: Unischeduler System <lcz@mgt01>
Subject: Job 133719: <#!/bin/bash
#BSUB -J intel
#BSUB -o BH-3.0-MP2-O.out
#BSUB -n 8
#BSUB -q cqueue
export LD_LIBRARY_PATH=/apps/software/openmpi-4.1.1/lib:/apps/software/orca_5_0_0:$LD_LIBRARY_PATH
export PATH=/apps/software/openmpi-4.1.1/bin:/apps/software/orca_5_0_0:$PATH
mkdir /scratch/BH-3.0-MP2-O_428
scp $USER@mgt01:/apps/users/lcz/exe13/MP2/BH-3.0-MP2-O.inp /scratch/BH-3.0-MP2-O_428
scp $USER@mgt01:/apps/users/lcz/exe13/MP2/BH-3.0-O.gbw /scratch/BH-3.0-MP2-O_428
/apps/software/orca_5_0_0/orca /scratch/BH-3.0-MP2-O_428/BH-3.0-MP2-O.inp >& BH-3.0-MP2-O.out
scp /scratch/BH-3.0-MP2-O_428/*.gbw $USER@mgt01:/apps/users/lcz/exe13/MP2
scp /scratch/BH-3.0-MP2-O_428/*.xyz $USER@mgt01:/apps/users/lcz/exe13/MP2
scp /scratch/BH-3.0-MP2-O_428/*.trj $USER@mgt01:/apps/users/lcz/exe13/MP2> Exited

Job <#!/bin/bash
#BSUB -J intel
#BSUB -o BH-3.0-MP2-O.out
#BSUB -n 8
#BSUB -q cqueue
export LD_LIBRARY_PATH=/apps/software/openmpi-4.1.1/lib:/apps/software/orca_5_0_0:$LD_LIBRARY_PATH
export PATH=/apps/software/openmpi-4.1.1/bin:/apps/software/orca_5_0_0:$PATH
mkdir /scratch/BH-3.0-MP2-O_428
scp $USER@mgt01:/apps/users/lcz/exe13/MP2/BH-3.0-MP2-O.inp /scratch/BH-3.0-MP2-O_428
scp $USER@mgt01:/apps/users/lcz/exe13/MP2/BH-3.0-O.gbw /scratch/BH-3.0-MP2-O_428
/apps/software/orca_5_0_0/orca /scratch/BH-3.0-MP2-O_428/BH-3.0-MP2-O.inp >& BH-3.0-MP2-O.out
scp /scratch/BH-3.0-MP2-O_428/*.gbw $USER@mgt01:/apps/users/lcz/exe13/MP2
scp /scratch/BH-3.0-MP2-O_428/*.xyz $USER@mgt01:/apps/users/lcz/exe13/MP2
scp /scratch/BH-3.0-MP2-O_428/*.trj $USER@mgt01:/apps/users/lcz/exe13/MP2> was submitted from host <mgt01> by user <lcz>.
Job was executed on host(s) <8*cnode04>, in queue <cqueue>, as user <lcz>.
</apps/users/lcz> was used as the home directory.
</apps/users/lcz/exe13/MP2> was used as the working directory.
Started at 2022-05-21 22:22:17
Results reported at 2022-05-21 22:22:22

Your job looked like:

------------------------------------------------------------
# User input
#!/bin/bash
#BSUB -J intel
#BSUB -o BH-3.0-MP2-O.out
#BSUB -n 8
#BSUB -q cqueue
export LD_LIBRARY_PATH=/apps/software/openmpi-4.1.1/lib:/apps/software/orca_5_0_0:$LD_LIBRARY_PATH
export PATH=/apps/software/openmpi-4.1.1/bin:/apps/software/orca_5_0_0:$PATH
mkdir /scratch/BH-3.0-MP2-O_428
scp $USER@mgt01:/apps/users/lcz/exe13/MP2/BH-3.0-MP2-O.inp /scratch/BH-3.0-MP2-O_428
scp $USER@mgt01:/apps/users/lcz/exe13/MP2/BH-3.0-O.gbw /scratch/BH-3.0-MP2-O_428
/apps/software/orca_5_0_0/orca /scratch/BH-3.0-MP2-O_428/BH-3.0-MP2-O.inp >& BH-3.0-MP2-O.out
scp /scratch/BH-3.0-MP2-O_428/*.gbw $USER@mgt01:/apps/users/lcz/exe13/MP2
scp /scratch/BH-3.0-MP2-O_428/*.xyz $USER@mgt01:/apps/users/lcz/exe13/MP2
scp /scratch/BH-3.0-MP2-O_428/*.trj $USER@mgt01:/apps/users/lcz/exe13/MP2
------------------------------------------------------------

Exited with exit code 1.

Resource usage summary:

    CPU time   :            0.01 sec.
    Max Memory :                 9 MB
    Max Processes  :               2


The output (if any) follows:

/scratch/BH-3.0-MP2-O_428/*.xyz: No such file or directory
/scratch/BH-3.0-MP2-O_428/*.trj: No such file or directory
