
                                        *****************
                                        * O   R   C   A *
                                        *****************

                                            #,                                       
                                            ###                                      
                                            ####                                     
                                            #####                                    
                                            ######                                   
                                           ########,                                 
                                     ,,################,,,,,                         
                               ,,#################################,,                 
                          ,,##########################################,,             
                       ,#########################################, ''#####,          
                    ,#############################################,,   '####,        
                  ,##################################################,,,,####,       
                ,###########''''           ''''###############################       
              ,#####''   ,,,,##########,,,,          '''####'''          '####       
            ,##' ,,,,###########################,,,                        '##       
           ' ,,###''''                  '''############,,,                           
         ,,##''                                '''############,,,,        ,,,,,,###''
      ,#''                                            '''#######################'''  
     '                                                          ''''####''''         
             ,#######,   #######,   ,#######,      ##                                
            ,#'     '#,  ##    ##  ,#'     '#,    #''#        ######   ,####,        
            ##       ##  ##   ,#'  ##            #'  '#       #        #'  '#        
            ##       ##  #######   ##           ,######,      #####,   #    #        
            '#,     ,#'  ##    ##  '#,     ,#' ,#      #,         ##   #,  ,#        
             '#######'   ##     ##  '#######'  #'      '#     #####' # '####'        



                  #######################################################
                  #                        -***-                        #
                  #          Department of theory and spectroscopy      #
                  #    Directorship and core code : Frank Neese         #
                  #        Max Planck Institute fuer Kohlenforschung    #
                  #                Kaiser Wilhelm Platz 1               #
                  #                 D-45470 Muelheim/Ruhr               #
                  #                      Germany                        #
                  #                                                     #
                  #                  All rights reserved                #
                  #                        -***-                        #
                  #######################################################


                         Program Version 5.0.0 -  RELEASE  -
                                (SVN: $Rev: 19529$)
                ($Date: 2021-06-28 11:36:33 +0200 (Mo, 28 Jun 2021) $)


 With contributions from (in alphabetic order):
   Daniel Aravena         : Magnetic Suceptibility
   Michael Atanasov       : Ab Initio Ligand Field Theory (pilot matlab implementation)
   Alexander A. Auer      : GIAO ZORA, VPT2 properties, NMR spectrum
   Ute Becker             : Parallelization
   Giovanni Bistoni       : ED, misc. LED, open-shell LED, HFLD
   Martin Brehm           : Molecular dynamics
   Dmytro Bykov           : SCF Hessian
   Vijay G. Chilkuri      : MRCI spin determinant printing, contributions to CSF-ICE
   Dipayan Datta          : RHF DLPNO-CCSD density
   Achintya Kumar Dutta   : EOM-CC, STEOM-CC
   Dmitry Ganyushin       : Spin-Orbit,Spin-Spin,Magnetic field MRCI
   Miquel Garcia          : C-PCM Hessian, Gaussian charge scheme
   Yang Guo               : DLPNO-NEVPT2, F12-NEVPT2, CIM, IAO-localization
   Andreas Hansen         : Spin unrestricted coupled pair/coupled cluster methods
   Benjamin Helmich-Paris : MC-RPA, TRAH-SCF, COSX integrals
   Lee Huntington         : MR-EOM, pCC
   Robert Izsak           : Overlap fitted RIJCOSX, COSX-SCS-MP3, EOM
   Marcus Kettner         : VPT2
   Christian Kollmar      : KDIIS, OOCD, Brueckner-CCSD(T), CCSD density, CASPT2, CASPT2-K
   Simone Kossmann        : Meta GGA functionals, TD-DFT gradient, OOMP2, MP2 Hessian
   Martin Krupicka        : Initial AUTO-CI
   Lucas Lang             : DCDCAS
   Marvin Lechner         : AUTO-CI (C++ implementation), FIC-MRCC
   Dagmar Lenk            : GEPOL surface, SMD
   Dimitrios Liakos       : Extrapolation schemes; Compound Job, initial MDCI parallelization
   Dimitrios Manganas     : Further ROCIS development; embedding schemes
   Dimitrios Pantazis     : SARC Basis sets
   Anastasios Papadopoulos: AUTO-CI, single reference methods and gradients
   Taras Petrenko         : DFT Hessian,TD-DFT gradient, ASA, ECA, R-Raman, ABS, FL, XAS/XES, NRVS
   Peter Pinski           : DLPNO-MP2, DLPNO-MP2 Gradient
   Christoph Reimann      : Effective Core Potentials
   Marius Retegan         : Local ZFS, SOC
   Christoph Riplinger    : Optimizer, TS searches, QM/MM, DLPNO-CCSD(T), (RO)-DLPNO pert. Triples
   Tobias Risthaus        : Range-separated hybrids, TD-DFT gradient, RPA, STAB
   Michael Roemelt        : Original ROCIS implementation
   Masaaki Saitow         : Open-shell DLPNO-CCSD energy and density
   Barbara Sandhoefer     : DKH picture change effects
   Avijit Sen             : IP-ROCIS
   Kantharuban Sivalingam : CASSCF convergence, NEVPT2, FIC-MRCI
   Bernardo de Souza      : ESD, SOC TD-DFT
   Georgi Stoychev        : AutoAux, RI-MP2 NMR
   Willem Van den Heuvel  : Paramagnetic NMR
   Boris Wezisla          : Elementary symmetry handling
   Frank Wennmohs         : Technical directorship


 We gratefully acknowledge several colleagues who have allowed us to
 interface, adapt or use parts of their codes:
   Stefan Grimme, W. Hujo, H. Kruse, P. Pracht,  : VdW corrections, initial TS optimization,
                  C. Bannwarth, S. Ehlert          DFT functionals, gCP, sTDA/sTD-DF
   Ed Valeev, F. Pavosevic, A. Kumar             : LibInt (2-el integral package), F12 methods
   Garnet Chan, S. Sharma, J. Yang, R. Olivares  : DMRG
   Ulf Ekstrom                                   : XCFun DFT Library
   Mihaly Kallay                                 : mrcc  (arbitrary order and MRCC methods)
   Jiri Pittner, Ondrej Demel                    : Mk-CCSD
   Frank Weinhold                                : gennbo (NPA and NBO analysis)
   Christopher J. Cramer and Donald G. Truhlar   : smd solvation model
   Lars Goerigk                                  : TD-DFT with DH, B97 family of functionals
   V. Asgeirsson, H. Jonsson                     : NEB implementation
   FAccTs GmbH                                   : IRC, NEB, NEB-TS, DLPNO-Multilevel, CI-OPT
                                                   MM, QMMM, 2- and 3-layer-ONIOM, Crystal-QMMM,
                                                   LR-CPCM, SF, NACMEs, symmetry and pop. for TD-DFT,
                                                   nearIR, NL-DFT gradient (VV10), updates on ESD,
                                                   ML-optimized integration grids
   S Lehtola, MJT Oliveira, MAL Marques          : LibXC Library
   Liviu Ungur et al                             : ANISO software


 Your calculation uses the libint2 library for the computation of 2-el integrals
 For citations please refer to: http://libint.valeyev.net

 Your ORCA version has been built with support for libXC version: 5.1.0
 For citations please refer to: https://tddft.org/programs/libxc/

 This ORCA versions uses:
   CBLAS   interface :  Fast vector & matrix operations
   LAPACKE interface :  Fast linear algebra routines
   SCALAPACK package :  Parallel linear algebra routines
   Shared memory     :  Shared parallel matrices
   BLAS/LAPACK       :  OpenBLAS 0.3.15  USE64BITINT DYNAMIC_ARCH NO_AFFINITY SkylakeX SINGLE_THREADED
        Core in use  :  SkylakeX
   Copyright (c) 2011-2014, The OpenBLAS Project


================================================================================

----- Orbital basis set information -----
Your calculation utilizes the basis: aug-cc-pVQZ 
    H, B-Ne : Obtained from the ccRepo (grant-hill.group.shef.ac.uk/ccrepo) Feb. 2017
              R. A. Kendall, T. H. Dunning, Jr., R. J. Harrison, J. Chem. Phys. 96, 6796 (1992)
         He : Obtained from the ccRepo (grant-hill.group.shef.ac.uk/ccrepo) Feb. 2017
              D. E. Woon, T. H. Dunning, Jr., J. Chem. Phys. 100, 2975 (1994)
  Li-Be, Na : Obtained from the ccRepo (grant-hill.group.shef.ac.uk/ccrepo) Feb. 2017
              B. P. Prascher, D. E. Woon, K. A. Peterson, T. H. Dunning, Jr., A. K. Wilson, Theor. Chem. Acc. 128, 69 (2011)
         Mg : Obtained from the Peterson Research Group Website (tyr0.chem.wsu.edu/~kipeters) Feb. 2017
              B. P. Prascher, D. E. Woon, K. A. Peterson, T. H. Dunning, Jr., A. K. Wilson, Theor. Chem. Acc. 128, 69 (2011)
      Al-Ar : Obtained from the ccRepo (grant-hill.group.shef.ac.uk/ccrepo) Feb. 2017
              D. E. Woon, T. H. Dunning, Jr., J. Chem. Phys. 98, 1358 (1993)
      Sc-Zn : Obtained from the ccRepo (grant-hill.group.shef.ac.uk/ccrepo) Feb. 2017
              N. B. Balabanov, K. A. Peterson, J. Chem. Phys. 123, 064107 (2005)
              N. B. Balabanov, K. A. Peterson, J. Chem. Phys. 125, 074110 (2006)
      Ga-Kr : Obtained from the ccRepo (grant-hill.group.shef.ac.uk/ccrepo) Feb. 2017
              A. K. Wilson, D. E. Woon, K. A. Peterson, T. H. Dunning, Jr., J. Chem. Phys. 110, 7667 (1999)

================================================================================
                                        WARNINGS
                       Please study these warnings very carefully!
================================================================================


WARNING: No MP2 level density has been requested!
         To caclulate MP2 level properties use
         %mp2 Density relaxed end
         or
         %mp2 Density unrelaxed end

WARNING: Post HF methods need fully converged wavefunctions
  ===> : Setting SCFConvForced true
         You can overwrite this default with %scf ConvForced false 


INFO   : the flag for use of the SHARK integral package has been found!

================================================================================
                                       INPUT FILE
================================================================================
NAME = /scratch/BH-3.4-MP2-O_817/BH-3.4-MP2-O.inp
|  1> ! MP2 aug-cc-pVQZ pal8 VeryTightSCF UseSym MOread
|  2> 
|  3> %moinp "BH-3.4-O.gbw"
|  4> 
|  5> *xyz 0 1
|  6>  B	0.0	0.0	0.0
|  7>  H	3.4	0.0	0.0
|  8> **                         ****END OF INPUT****
================================================================================

------------------------------------------------------------------------------
                            SYMMETRY HANDLING SETUP
------------------------------------------------------------------------------

------------------
SYMMETRY DETECTION
------------------
The point group will now be determined using a tolerance of 1.0000e-04.
Splitting atom subsets according to nuclear charge, mass and basis set.
Splitting atom subsets according to distance from the molecule's center.
Identifying relative distance patterns of the atoms.
Splitting atom subsets according to atoms' relative distance patterns.
Bring atoms of each subset into input order.
The molecule is linear.
There is at least one atom subset not centered around the molecule's center.
The molecule does not have a center of inversion.
No further test is needed for point group Cinfv.
This point group has been found:    Cinfv
Largest non-degenerate subgroup:    C2v


Mass-centered symmetry-perfected Cartesians (point groups Cinfv and C2v):

Atom          Symmetry-perfected Cartesians (x, y, z; au)
  0       0.000000000000    0.000000000000   -0.548017380790
  1       0.000000000000    0.000000000000    5.877051474542


-----------------------------------------------
SYMMETRY-PERFECTED CARTESIAN COORDINATES (A.U.)
-----------------------------------------------
Warning (ORCA_SYM): Coordinates were not cleaned so far!

------------------
SYMMETRY REDUCTION
------------------
ORCA supports only abelian point groups.
It is now checked, if the determined point group is supported:
Point Group ( C2v   ) is          ... supported

(Re)building abelian point group:
Creating Character Table          ... done
Making direct product table       ... done
Constructing symmetry operations  ... done
Creating atom transfer table      ... done
Creating asymmetric unit          ... done

----------------------
ASYMMETRIC UNIT IN C2v
----------------------
  #  AT     MASS              COORDS (A.U.)             BAS
   0 B   10.8100   0.00000000   0.00000000  -0.54801738   0
   1 H    1.0080   0.00000000   0.00000000   5.87705147   0

----------------------
SYMMETRY ADAPTED BASIS
----------------------
The coefficients for the symmetry adapted linear combinations (SALCS)
of basis functions will now be computed:
Number of basis functions         ...   126
Preparing memory                  ... done
Constructing Gamma(red)           ... done
Reducing Gamma(red)               ... done
Constructing SALCs                ... done
Checking SALC integrity           ... nothing suspicious
Normalizing SALCs                 ... done

Storing the symmetry object:
Symmetry file                     ... /scratch/BH-3.4-MP2-O_817/BH-3.4-MP2-O.sym.tmp
Writing symmetry information      ... done

                       ****************************
                       * Single Point Calculation *
                       ****************************

---------------------------------
CARTESIAN COORDINATES (ANGSTROEM)
---------------------------------
  B      0.000000    0.000000   -0.289998
  H      0.000000    0.000000    3.110002

----------------------------
CARTESIAN COORDINATES (A.U.)
----------------------------
  NO LB      ZA    FRAG     MASS         X           Y           Z
   0 B     5.0000    0    10.810    0.000000    0.000000   -0.548017
   1 H     1.0000    0     1.008    0.000000    0.000000    5.877051

--------------------------------
INTERNAL COORDINATES (ANGSTROEM)
--------------------------------
 B      0   0   0     0.000000000000     0.00000000     0.00000000
 H      1   0   0     3.400000000000     0.00000000     0.00000000

---------------------------
INTERNAL COORDINATES (A.U.)
---------------------------
 B      0   0   0     0.000000000000     0.00000000     0.00000000
 H      1   0   0     6.425068855332     0.00000000     0.00000000

---------------------
BASIS SET INFORMATION
---------------------
There are 2 groups of distinct atoms

 Group   1 Type B   : 22s7p4d3f2g contracted to 6s5p4d3f2g pattern {991111/31111/1111/111/11}
 Group   2 Type H   : 7s4p3d2f contracted to 5s4p3d2f pattern {31111/1111/111/11}

Atom   0B    basis set group =>   1
Atom   1H    basis set group =>   2
--------------------------------------------------------------------------
WARNING: There was an error initializing an OpenFabrics device.

  Local host:   cnode07
  Local device: mlx5_0
--------------------------------------------------------------------------


           ************************************************************
           *        Program running with 8 parallel MPI-processes     *
           *              working on a common directory               *
           ************************************************************
------------------------------------------------------------------------------
                           ORCA GTO INTEGRAL CALCULATION
------------------------------------------------------------------------------
------------------------------------------------------------------------------
                   ___                                                        
                  /   \      - P O W E R E D   B Y -                         
                 /     \                                                     
                 |  |  |   _    _      __       _____    __    __             
                 |  |  |  | |  | |    /  \     |  _  \  |  |  /  |          
                  \  \/   | |  | |   /    \    | | | |  |  | /  /          
                 / \  \   | |__| |  /  /\  \   | |_| |  |  |/  /          
                |  |  |   |  __  | /  /__\  \  |    /   |      \           
                |  |  |   | |  | | |   __   |  |    \   |  |\   \          
                \     /   | |  | | |  |  |  |  | |\  \  |  | \   \       
                 \___/    |_|  |_| |__|  |__|  |_| \__\ |__|  \__/        
                                                                              
                      - O R C A' S   B I G   F R I E N D -                    
                                      &                                       
                       - I N T E G R A L  F E E D E R -                       
                                                                              
 v1 FN, 2020, v2 2021                                                         
------------------------------------------------------------------------------


Reading SHARK input file /scratch/BH-3.4-MP2-O_817/BH-3.4-MP2-O.SHARKINP.tmp ... ok
----------------------
SHARK INTEGRAL PACKAGE
----------------------

Number of atoms                             ...      2
Number of basis functions                   ...    126
Number of shells                            ...     34
Maximum angular momentum                    ...      4
Integral batch strategy                     ... SHARK/LIBINT Hybrid
RI-J (if used) integral strategy            ... SPLIT-RIJ (Revised 2003 algorithm where possible)
Printlevel                                  ...      1
Contraction scheme used                     ... SEGMENTED contraction
Coulomb Range Separation                    ... NOT USED
Exchange Range Separation                   ... NOT USED
Finite Nucleus Model                        ... NOT USED
Auxiliary Coulomb fitting basis             ... NOT available
Auxiliary J/K fitting basis                 ... NOT available
Auxiliary Correlation fitting basis         ... NOT available
Auxiliary 'external' fitting basis          ... NOT available
Integral threshold                          ...     1.000000e-12
Primitive cut-off                           ...     1.000000e-14
Primitive pair pre-selection threshold      ...     1.000000e-14

Calculating pre-screening integrals         ... done (  0.1 sec) Dimension = 34
Organizing shell pair data                  ... done (  0.0 sec)
Shell pair information
Total number of shell pairs                 ...       595
Shell pairs after pre-screening             ...       587
Total number of primitive shell pairs       ...      1563
Primitive shell pairs kept                  ...      1425
          la=0 lb=0:     64 shell pairs
          la=1 lb=0:     96 shell pairs
          la=1 lb=1:     44 shell pairs
          la=2 lb=0:     75 shell pairs
          la=2 lb=1:     63 shell pairs
          la=2 lb=2:     28 shell pairs
          la=3 lb=0:     55 shell pairs
          la=3 lb=1:     45 shell pairs
          la=3 lb=2:     35 shell pairs
          la=3 lb=3:     15 shell pairs
          la=4 lb=0:     22 shell pairs
          la=4 lb=1:     18 shell pairs
          la=4 lb=2:     14 shell pairs
          la=4 lb=3:     10 shell pairs
          la=4 lb=4:      3 shell pairs

Calculating one electron integrals          ... done (  0.0 sec)
Calculating Nuclear repulsion               ... done (  0.0 sec) ENN=      0.778201776912 Eh

SHARK setup successfully completed in   0.1 seconds

Maximum memory used throughout the entire GTOINT-calculation: 28.9 MB
[cnode07:307905] 7 more processes have sent help message help-mpi-btl-openib.txt / error in device init
[cnode07:307905] Set MCA parameter "orte_base_help_aggregate" to 0 to see all help / error messages
--------------------------------------------------------------------------
WARNING: There was an error initializing an OpenFabrics device.

  Local host:   cnode07
  Local device: mlx5_0
--------------------------------------------------------------------------


           ************************************************************
           *        Program running with 8 parallel MPI-processes     *
           *              working on a common directory               *
           ************************************************************
-------------------------------------------------------------------------------
                                 ORCA SCF
-------------------------------------------------------------------------------

------------
SCF SETTINGS
------------
Hamiltonian:
 Ab initio Hamiltonian  Method          .... Hartree-Fock(GTOs)


General Settings:
 Integral files         IntName         .... /scratch/BH-3.4-MP2-O_817/BH-3.4-MP2-O
 Hartree-Fock type      HFTyp           .... RHF
 Total Charge           Charge          ....    0
 Multiplicity           Mult            ....    1
 Number of Electrons    NEL             ....    6
 Basis Dimension        Dim             ....  126
 Nuclear Repulsion      ENuc            ....      0.7782017769 Eh

 Symmetry handling      UseSym         .... ON
 Point group                           .... C2v
 Used point group                      .... C2v
 Number of irreps                      .... 4
   Irrep   A1 has   50 symmetry adapted basis functions (ofs=   0)
   Irrep   A2 has   16 symmetry adapted basis functions (ofs=  50)
   Irrep   B1 has   30 symmetry adapted basis functions (ofs=  66)
   Irrep   B2 has   30 symmetry adapted basis functions (ofs=  96)

Convergence Acceleration:
 DIIS                   CNVDIIS         .... on
   Start iteration      DIISMaxIt       ....    12
   Startup error        DIISStart       ....  0.200000
   # of expansion vecs  DIISMaxEq       ....     5
   Bias factor          DIISBfac        ....   1.050
   Max. coefficient     DIISMaxC        ....  10.000
 Trust-Rad. Augm. Hess. CNVTRAH         .... auto
   Auto Start mean grad. ratio tolernc. ....  1.125000
   Auto Start start iteration           ....     1
   Auto Start num. interpolation iter.  ....    10
   Max. Number of Micro iterations      ....    16
   Max. Number of Macro iterations      .... Maxiter - #DIIS iter
   Number of Davidson start vectors     ....     2
   Converg. threshold I  (grad. norm)   ....   2.000e-06
   Converg. threshold II (energy diff.) ....   1.000e-09
   Grad. Scal. Fac. for Micro threshold ....   0.100
   Minimum threshold for Micro iter.    ....   0.010
   NR start threshold (gradient norm)   ....   0.001
   Initial trust radius                 ....   0.400
   Minimum AH scaling param. (alpha)    ....   1.000
   Maximum AH scaling param. (alpha)    .... 1000.000
   Orbital update algorithm             .... Taylor
   White noise on init. David. guess    .... on
   Maximum white noise                  ....   0.010
   Quad. conv. algorithm                .... NR
 SOSCF                  CNVSOSCF        .... on
   Start iteration      SOSCFMaxIt      ....   150
   Startup grad/error   SOSCFStart      ....  0.003300
 Level Shifting         CNVShift        .... on
   Level shift para.    LevelShift      ....    0.2500
   Turn off err/grad.   ShiftErr        ....    0.0010
 Zerner damping         CNVZerner       .... off
 Static damping         CNVDamp         .... on
   Fraction old density DampFac         ....    0.7000
   Max. Damping (<1)    DampMax         ....    0.9800
   Min. Damping (>=0)   DampMin         ....    0.0000
   Turn off err/grad.   DampErr         ....    0.1000
 Fernandez-Rico         CNVRico         .... off

SCF Procedure:
 Maximum # iterations   MaxIter         ....   125
 SCF integral mode      SCFMode         .... Direct
   Integral package                     .... SHARK and LIBINT hybrid scheme
 Reset frequency        DirectResetFreq ....    20
 Integral Threshold     Thresh          ....  1.000e-12 Eh
 Primitive CutOff       TCut            ....  1.000e-14 Eh

Convergence Tolerance:
 Convergence Check Mode ConvCheckMode   .... Total+1el-Energy
 Convergence forced     ConvForced      .... 1
 Energy Change          TolE            ....  1.000e-09 Eh
 1-El. energy change                    ....  1.000e-06 Eh
 Orbital Gradient       TolG            ....  2.000e-06
 Orbital Rotation angle TolX            ....  2.000e-06
 DIIS Error             TolErr          ....  1.000e-08


Diagonalization of the overlap matrix:
Smallest eigenvalue                        ... 4.304e-03
Time for diagonalization                   ...    0.002 sec
Threshold for overlap eigenvalues          ... 1.000e-08
Number of eigenvalues below threshold      ... 0
Time for construction of square roots      ...    0.002 sec
Producing symmetrization matrix            ... done (   0.000 sec)
Total time needed                          ...    0.004 sec

---------------------
INITIAL GUESS: MOREAD
---------------------
Guess MOs are being read from file: BH-3.4-O.gbw
Input Geometry matches current geometry (good)
Input basis set matches current basis set (good)
Warning: Geometry matches/Basis set matches and symmetry is to be used
         We proceed in good trust that the input orbitals and irreps are correct
MOs were renormalized
MOs were reorthogonalized (Cholesky)
Irrep occupations for operator 0
    A1 -    3
    A2 -    0
    B1 -    0
    B2 -    0
                      ------------------
                      INITIAL GUESS DONE (   0.0 sec)
                      ------------------
--------------
SCF ITERATIONS
--------------
ITER       Energy         Delta-E        Max-DP      RMS-DP      [F,P]     Damp
               ***  Starting incremental Fock matrix formation  ***
                      *** Initiating the SOSCF procedure ***
                      *** Re-Reading the Fockian *** 
                      *** Removing any level shift *** 
ITER      Energy       Delta-E        Grad      Rot      Max-DP    RMS-DP
  0    -24.93055957 -24.9305595731  0.000000  0.000000  0.000000  0.000000
               *** Restarting incremental Fock matrix formation ***
                 **** Energy Check signals convergence ****
              ***Rediagonalizing the Fockian in SOSCF/NRSCF***

               *****************************************************
               *                     SUCCESS                       *
               *           SCF CONVERGED AFTER   1 CYCLES          *
               *****************************************************


----------------
TOTAL SCF ENERGY
----------------

Total Energy       :          -24.93055957 Eh            -678.39501 eV

Components:
Nuclear Repulsion  :            0.77820178 Eh              21.17595 eV
Electronic Energy  :          -25.70876135 Eh            -699.57096 eV
One Electron Energy:          -33.94746995 Eh            -923.75762 eV
Two Electron Energy:            8.23870860 Eh             224.18666 eV

Virial components:
Potential Energy   :          -49.67723478 Eh           -1351.78628 eV
Kinetic Energy     :           24.74667521 Eh             673.39127 eV
Virial Ratio       :            2.00743067


---------------
SCF CONVERGENCE
---------------

  Last Energy change         ...   -2.9843e-13  Tolerance :   1.0000e-09
  Last MAX-Density change    ...    2.8283e-07  Tolerance :   1.0000e-08
  Last RMS-Density change    ...    5.7105e-09  Tolerance :   1.0000e-09
  Last Orbital Gradient      ...    9.8325e-08  Tolerance :   2.0000e-06
  Last Orbital Rotation      ...    3.0209e-07  Tolerance :   2.0000e-06

             **** THE GBW FILE WAS UPDATED (/scratch/BH-3.4-MP2-O_817/BH-3.4-MP2-O.gbw) ****
             **** DENSITY /scratch/BH-3.4-MP2-O_817/BH-3.4-MP2-O.scfp WAS UPDATED ****
             **** ENERGY FILE WAS UPDATED (/scratch/BH-3.4-MP2-O_817/BH-3.4-MP2-O.en.tmp) ****
             **** THE GBW FILE WAS UPDATED (/scratch/BH-3.4-MP2-O_817/BH-3.4-MP2-O.gbw) ****
             **** DENSITY /scratch/BH-3.4-MP2-O_817/BH-3.4-MP2-O.scfp WAS UPDATED ****
----------------
ORBITAL ENERGIES
----------------

  NO   OCC          E(Eh)            E(eV)    Irrep 
   0   2.0000      -7.873474      -214.2481    1-A1
   1   2.0000      -0.604491       -16.4490    2-A1
   2   2.0000      -0.257062        -6.9950    3-A1
   3   0.0000      -0.045105        -1.2274    4-A1
   4   0.0000      -0.032399        -0.8816    1-B1
   5   0.0000      -0.032399        -0.8816    1-B2
   6   0.0000       0.028456         0.7743    5-A1
   7   0.0000       0.047652         1.2967    2-B2
   8   0.0000       0.047652         1.2967    2-B1
   9   0.0000       0.068425         1.8619    6-A1
  10   0.0000       0.089883         2.4458    7-A1
  11   0.0000       0.126766         3.4495    1-A2
  12   0.0000       0.126766         3.4495    8-A1
  13   0.0000       0.133346         3.6285    3-B1
  14   0.0000       0.133346         3.6285    3-B2
  15   0.0000       0.163878         4.4593    9-A1
  16   0.0000       0.248030         6.7492    4-B2
  17   0.0000       0.248030         6.7492    4-B1
  18   0.0000       0.269345         7.3293   10-A1
  19   0.0000       0.271299         7.3824    5-B1
  20   0.0000       0.271299         7.3824    5-B2
  21   0.0000       0.297072         8.0837   11-A1
  22   0.0000       0.340116         9.2550   12-A1
  23   0.0000       0.427183        11.6242    6-B2
  24   0.0000       0.427183        11.6242    6-B1
  25   0.0000       0.433964        11.8088    2-A2
  26   0.0000       0.433964        11.8088   13-A1
  27   0.0000       0.447926        12.1887   14-A1
  28   0.0000       0.447926        12.1887    3-A2
  29   0.0000       0.452473        12.3124    7-B1
  30   0.0000       0.452473        12.3124    7-B2
  31   0.0000       0.459398        12.5009   15-A1
  32   0.0000       0.482103        13.1187    8-B2
  33   0.0000       0.482103        13.1187    8-B1
  34   0.0000       0.502878        13.6840   16-A1
  35   0.0000       0.590595        16.0709   17-A1
  36   0.0000       0.700264        19.0552    4-A2
  37   0.0000       0.700264        19.0552   18-A1
  38   0.0000       0.790413        21.5082    9-B2
  39   0.0000       0.790413        21.5082    9-B1
  40   0.0000       0.882814        24.0226   10-B2
  41   0.0000       0.882814        24.0226   10-B1
  42   0.0000       0.900123        24.4936   19-A1
  43   0.0000       0.936483        25.4830   20-A1
  44   0.0000       0.957712        26.0607   11-B2
  45   0.0000       0.957712        26.0607   11-B1
  46   0.0000       1.038442        28.2574   21-A1
  47   0.0000       1.304227        35.4898   22-A1
  48   0.0000       1.309403        35.6307    5-A2
  49   0.0000       1.309403        35.6307   23-A1
  50   0.0000       1.316909        35.8349    6-A2
  51   0.0000       1.316909        35.8349   24-A1
  52   0.0000       1.320169        35.9236   12-B1
  53   0.0000       1.320169        35.9236   12-B2
  54   0.0000       1.324414        36.0391    7-A2
  55   0.0000       1.324414        36.0391   25-A1
  56   0.0000       1.330795        36.2128   13-B1
  57   0.0000       1.330795        36.2128   13-B2
  58   0.0000       1.335043        36.3284   14-B2
  59   0.0000       1.335043        36.3284   14-B1
  60   0.0000       1.335202        36.3327   26-A1
  61   0.0000       1.363195        37.0944   15-B2
  62   0.0000       1.363195        37.0944   15-B1
  63   0.0000       1.379084        37.5268    8-A2
  64   0.0000       1.379084        37.5268   27-A1
  65   0.0000       1.416542        38.5461   28-A1
  66   0.0000       1.434983        39.0479   16-B2
  67   0.0000       1.434983        39.0479   16-B1
  68   0.0000       1.613937        43.9174   29-A1
  69   0.0000       1.642258        44.6881   17-B1
  70   0.0000       1.642258        44.6881   17-B2
  71   0.0000       1.674457        45.5643    9-A2
  72   0.0000       1.674457        45.5643   30-A1
  73   0.0000       1.776638        48.3448   31-A1
  74   0.0000       1.806989        49.1707   18-B1
  75   0.0000       1.806989        49.1707   18-B2
  76   0.0000       1.928308        52.4719   32-A1
  77   0.0000       2.562230        69.7218   10-A2
  78   0.0000       2.562230        69.7218   33-A1
  79   0.0000       2.637410        71.7676   19-B2
  80   0.0000       2.637410        71.7676   19-B1
  81   0.0000       2.693616        73.2970   20-B1
  82   0.0000       2.693616        73.2970   20-B2
  83   0.0000       2.766948        75.2925   34-A1
  84   0.0000       2.815709        76.6193   35-A1
  85   0.0000       3.598334        97.9157   21-B1
  86   0.0000       3.598334        97.9157   21-B2
  87   0.0000       3.665637        99.7471   36-A1
  88   0.0000       3.817354       103.8755   37-A1
  89   0.0000       3.817354       103.8755   11-A2
  90   0.0000       3.825595       104.0997   12-A2
  91   0.0000       3.825595       104.0997   38-A1
  92   0.0000       3.829252       104.1992   22-B1
  93   0.0000       3.829252       104.1992   22-B2
  94   0.0000       3.840979       104.5184   23-B1
  95   0.0000       3.840979       104.5184   23-B2
  96   0.0000       3.843477       104.5863   13-A2
  97   0.0000       3.843477       104.5863   39-A1
  98   0.0000       3.855417       104.9112   40-A1
  99   0.0000       3.904037       106.2343   24-B2
 100   0.0000       3.904037       106.2343   24-B1
 101   0.0000       3.967870       107.9712   25-B2
 102   0.0000       3.967870       107.9712   25-B1
 103   0.0000       3.984298       108.4183   14-A2
 104   0.0000       3.984298       108.4183   41-A1
 105   0.0000       4.015369       109.2638   26-B2
 106   0.0000       4.015369       109.2638   26-B1
 107   0.0000       4.055932       110.3675   42-A1
 108   0.0000       4.088203       111.2457   43-A1
 109   0.0000       6.652666       181.0282   27-B2
 110   0.0000       6.652666       181.0282   27-B1
 111   0.0000       6.660388       181.2384   15-A2
 112   0.0000       6.660388       181.2384   44-A1
 113   0.0000       6.695854       182.2034   28-B1
 114   0.0000       6.695854       182.2034   28-B2
 115   0.0000       6.738285       183.3580   45-A1
 116   0.0000       7.582345       206.3261   46-A1
 117   0.0000       8.051413       219.0901   29-B1
 118   0.0000       8.051413       219.0901   29-B2
 119   0.0000       8.138634       221.4635   47-A1
 120   0.0000       8.495513       231.1746   16-A2
 121   0.0000       8.495513       231.1746   48-A1
 122   0.0000       8.545375       232.5315   30-B2
 123   0.0000       8.545375       232.5315   30-B1
 124   0.0000       8.646600       235.2860   49-A1
 125   0.0000      12.943294       352.2049   50-A1

                    ********************************
                    * MULLIKEN POPULATION ANALYSIS *
                    ********************************

-----------------------
MULLIKEN ATOMIC CHARGES
-----------------------
   0 B :    0.350755
   1 H :   -0.350755
Sum of atomic charges:    0.0000000

--------------------------------
MULLIKEN REDUCED ORBITAL CHARGES
--------------------------------
  0 B s       :     4.003049  s :     4.003049
      pz      :     0.622658  p :     0.622658
      px      :     0.000000
      py      :     0.000000
      dz2     :     0.022419  d :     0.022419
      dxz     :     0.000000
      dyz     :     0.000000
      dx2y2   :     0.000000
      dxy     :     0.000000
      f0      :     0.001086  f :     0.001086
      f+1     :     0.000000
      f-1     :     0.000000
      f+2     :     0.000000
      f-2     :     0.000000
      f+3     :     0.000000
      f-3     :     0.000000
      g0      :     0.000034  g :     0.000034
      g+1     :     0.000000
      g-1     :     0.000000
      g+2     :     0.000000
      g-2     :     0.000000
      g+3     :     0.000000
      g-3     :     0.000000
      g+4     :     0.000000
      g-4     :     0.000000
  1 H s       :     1.342144  s :     1.342144
      pz      :     0.008065  p :     0.008065
      px      :     0.000000
      py      :     0.000000
      dz2     :     0.000525  d :     0.000525
      dxz     :     0.000000
      dyz     :     0.000000
      dx2y2   :     0.000000
      dxy     :     0.000000
      f0      :     0.000021  f :     0.000021
      f+1     :     0.000000
      f-1     :     0.000000
      f+2     :     0.000000
      f-2     :     0.000000
      f+3     :     0.000000
      f-3     :     0.000000


                     *******************************
                     * LOEWDIN POPULATION ANALYSIS *
                     *******************************

----------------------
LOEWDIN ATOMIC CHARGES
----------------------
   0 B :    0.262846
   1 H :   -0.262846

-------------------------------
LOEWDIN REDUCED ORBITAL CHARGES
-------------------------------
  0 B s       :     3.994383  s :     3.994383
      pz      :     0.670052  p :     0.670052
      px      :     0.000000
      py      :     0.000000
      dz2     :     0.060482  d :     0.060482
      dxz     :     0.000000
      dyz     :     0.000000
      dx2y2   :     0.000000
      dxy     :     0.000000
      f0      :     0.011895  f :     0.011895
      f+1     :     0.000000
      f-1     :     0.000000
      f+2     :     0.000000
      f-2     :     0.000000
      f+3     :     0.000000
      f-3     :     0.000000
      g0      :     0.000343  g :     0.000343
      g+1     :     0.000000
      g-1     :     0.000000
      g+2     :     0.000000
      g-2     :     0.000000
      g+3     :     0.000000
      g-3     :     0.000000
      g+4     :     0.000000
      g-4     :     0.000000
  1 H s       :     1.240337  s :     1.240337
      pz      :     0.018612  p :     0.018612
      px      :     0.000000
      py      :     0.000000
      dz2     :     0.003628  d :     0.003628
      dxz     :     0.000000
      dyz     :     0.000000
      dx2y2   :     0.000000
      dxy     :     0.000000
      f0      :     0.000270  f :     0.000270
      f+1     :     0.000000
      f-1     :     0.000000
      f+2     :     0.000000
      f-2     :     0.000000
      f+3     :     0.000000
      f-3     :     0.000000


                      *****************************
                      * MAYER POPULATION ANALYSIS *
                      *****************************

  NA   - Mulliken gross atomic population
  ZA   - Total nuclear charge
  QA   - Mulliken gross atomic charge
  VA   - Mayer's total valence
  BVA  - Mayer's bonded valence
  FA   - Mayer's free valence

  ATOM       NA         ZA         QA         VA         BVA        FA
  0 B      4.6492     5.0000     0.3508     0.8814     0.8814    -0.0000
  1 H      1.3508     1.0000    -0.3508     0.8814     0.8814     0.0000

  Mayer bond orders larger than 0.100000
B(  0-B ,  1-H ) :   0.8814 

-------
TIMINGS
-------

Total SCF time: 0 days 0 hours 0 min 0 sec 

Total time                  ....       0.503 sec
Sum of individual times     ....       0.356 sec  ( 70.7%)

Fock matrix formation       ....       0.340 sec  ( 67.6%)
Diagonalization             ....       0.004 sec  (  0.7%)
Density matrix formation    ....       0.000 sec  (  0.1%)
Population analysis         ....       0.004 sec  (  0.7%)
Initial guess               ....       0.004 sec  (  0.9%)
Orbital Transformation      ....       0.000 sec  (  0.0%)
Orbital Orthonormalization  ....       0.002 sec  (  0.3%)
DIIS solution               ....       0.001 sec  (  0.3%)
SOSCF solution              ....       0.002 sec  (  0.5%)

Maximum memory used throughout the entire SCF-calculation: 228.5 MB
[cnode07:307970] 7 more processes have sent help message help-mpi-btl-openib.txt / error in device init
[cnode07:307970] Set MCA parameter "orte_base_help_aggregate" to 0 to see all help / error messages
--------------------------------------------------------------------------
WARNING: There was an error initializing an OpenFabrics device.

  Local host:   cnode07
  Local device: mlx5_0
--------------------------------------------------------------------------


           ************************************************************
           *        Program running with 8 parallel MPI-processes     *
           *              working on a common directory               *
           ************************************************************

------------------------------------------------------------------------------
                                ORCA  MP2 
------------------------------------------------------------------------------

Freezing NCore=2 chemical core electrons

----------
MP2 ENERGY (disk based algorithm)
----------

Dimension of the basis                    ...  126
Memory devoted to MP2                     ...  256 MB   
Data format for buffers                   ... DOUBLE
Compression type for matrix containers    ... UNCOMPRESSED

-------------------------------
PARTIAL EXCHANGE TRANSFORMATION
-------------------------------

Transformation type                        ... one-operator
Generation of integrals (i,mue|j,nue)      ... ON
Generation of integrals (mue,kappa|nue,tau)... OFF
Generation of integrals (i,mue|a,nue)      ... OFF
Dimension of the basis                     ...  126
Number of internal MOs                     ...    2 (   1-   2)
Pair cutoff                                ... 1.000e-14 Eh
Number of AO pairs in the trafo            ... 8001
Total Number of distinct AO pairs          ... 8001
Memory devoted for trafo                   ...  256.0 MB 
Max. Number of MO pairs treated together   ... 2113      
Number Format for Storage                  ... Double (8 Byte)
Integral package used                      ... LIBINT

Starting integral evaluation:
    ... done with AO integral generation
Closing buffer AOK     ( 0.00 GB; CompressionRatio= 0.77)
Collecting buffer AOK 
Number of MO pairs included in the trafo   ...    3
------------------------
SORTING OF (i,mue|j,nue)
------------------------

IBATCH = 1 of  1
Closing buffer KAO     ( 0.00 GB; CompressionRatio= 1.00)
Collecting buffer KAO 
N(AO-Batches) Done                         ...     63359 
N(AO-Batches) Skipped                      ...      3134 
N(IJ)-pairs Skipped                        ...         0 
TOTAL TIME for half transformation         ...     0.773 sec
AO-integral generation                     ...     0.349 sec
Half transformation                        ...     0.016 sec
K-integral sorting                         ...     0.009 sec

Finished integral transformation - now doing MP2 part

OPERATOR COMBINATION   0   0: ij=(  1..  2,  1..  2)
-----------------------------------------------
 MP2 CORRELATION ENERGY   :     -0.101199595 Eh
-----------------------------------------------


-------
TIMINGS
-------
Total time                :    0.872 sec
Integral trafo            :    0.773 sec ( 88.7%)
K(i,j)                    :    0.000 sec (  0.0%)
T(i,j)                    :    0.000 sec (  0.0%)

---------------------------------------
MP2 TOTAL ENERGY:      -25.031759168 Eh
---------------------------------------

Maximum memory used throughout the entire MP2-calculation: 73.6 MB
[cnode07:308039] 7 more processes have sent help message help-mpi-btl-openib.txt / error in device init
[cnode07:308039] Set MCA parameter "orte_base_help_aggregate" to 0 to see all help / error messages

-------------------------   --------------------
FINAL SINGLE POINT ENERGY       -25.031759167822
-------------------------   --------------------


                            ***************************************
                            *     ORCA property calculations      *
                            ***************************************


  WARNING: The energy has been calculated at the MP2 level but the densities
           used in the property calculations are still SCF densities
           MP2 response densities have not been calculated 
           use %mp2 Density relaxed end
           or  %mp2 Density unrelaxed end

                                    ---------------------
                                    Active property flags
                                    ---------------------
   (+) Dipole Moment


------------------------------------------------------------------------------
                       ORCA ELECTRIC PROPERTIES CALCULATION
------------------------------------------------------------------------------

Dipole Moment Calculation                       ... on
Quadrupole Moment Calculation                   ... off
Polarizability Calculation                      ... off
GBWName                                         ... /scratch/BH-3.4-MP2-O_817/BH-3.4-MP2-O.gbw
Electron density file                           ... /scratch/BH-3.4-MP2-O_817/BH-3.4-MP2-O.scfp
The origin for moment calculation is the CENTER OF MASS  = ( 0.000000,  0.000000 -0.000000)

-------------
DIPOLE MOMENT
-------------
                                X             Y             Z
Electronic contribution:      0.00000      -0.00000      -5.68482
Nuclear contribution   :      0.00000       0.00000       3.13696
                        -----------------------------------------
Total Dipole Moment    :      0.00000      -0.00000      -2.54786
                        -----------------------------------------
Magnitude (a.u.)       :      2.54786
Magnitude (Debye)      :      6.47614



--------------------
Rotational spectrum 
--------------------
 
Rotational constants in cm-1:     0.000000     1.581601     1.581601 
Rotational constants in MHz :     0.000000 47415.193741 47415.193741 

 Dipole components along the rotational axes: 
x,y,z [a.u.] :    -2.547856    -0.000000     0.000000 
x,y,z [Debye]:    -6.476136    -0.000000     0.000000 

 
--------------------------------------------------------------------------
WARNING: There was an error initializing an OpenFabrics device.

  Local host:   cnode07
  Local device: mlx5_0
--------------------------------------------------------------------------
[cnode07:308100] 7 more processes have sent help message help-mpi-btl-openib.txt / error in device init
[cnode07:308100] Set MCA parameter "orte_base_help_aggregate" to 0 to see all help / error messages

Timings for individual modules:

Sum of individual times         ...        2.606 sec (=   0.043 min)
GTO integral calculation        ...        0.491 sec (=   0.008 min)  18.8 %
SCF iterations                  ...        0.864 sec (=   0.014 min)  33.1 %
MP2 module                      ...        1.252 sec (=   0.021 min)  48.0 %
                             ****ORCA TERMINATED NORMALLY****
TOTAL RUN TIME: 0 days 0 hours 0 minutes 3 seconds 35 msec

Sender: Unischeduler System <lcz@mgt01>
Subject: Job 133721: <#!/bin/bash
#BSUB -J intel
#BSUB -o BH-3.4-MP2-O.out
#BSUB -n 8
#BSUB -q cqueue
export LD_LIBRARY_PATH=/apps/software/openmpi-4.1.1/lib:/apps/software/orca_5_0_0:$LD_LIBRARY_PATH
export PATH=/apps/software/openmpi-4.1.1/bin:/apps/software/orca_5_0_0:$PATH
mkdir /scratch/BH-3.4-MP2-O_817
scp $USER@mgt01:/apps/users/lcz/exe13/MP2/BH-3.4-MP2-O.inp /scratch/BH-3.4-MP2-O_817
scp $USER@mgt01:/apps/users/lcz/exe13/MP2/BH-3.4-O.gbw /scratch/BH-3.4-MP2-O_817
/apps/software/orca_5_0_0/orca /scratch/BH-3.4-MP2-O_817/BH-3.4-MP2-O.inp >& BH-3.4-MP2-O.out
scp /scratch/BH-3.4-MP2-O_817/*.gbw $USER@mgt01:/apps/users/lcz/exe13/MP2
scp /scratch/BH-3.4-MP2-O_817/*.xyz $USER@mgt01:/apps/users/lcz/exe13/MP2
scp /scratch/BH-3.4-MP2-O_817/*.trj $USER@mgt01:/apps/users/lcz/exe13/MP2> Exited

Job <#!/bin/bash
#BSUB -J intel
#BSUB -o BH-3.4-MP2-O.out
#BSUB -n 8
#BSUB -q cqueue
export LD_LIBRARY_PATH=/apps/software/openmpi-4.1.1/lib:/apps/software/orca_5_0_0:$LD_LIBRARY_PATH
export PATH=/apps/software/openmpi-4.1.1/bin:/apps/software/orca_5_0_0:$PATH
mkdir /scratch/BH-3.4-MP2-O_817
scp $USER@mgt01:/apps/users/lcz/exe13/MP2/BH-3.4-MP2-O.inp /scratch/BH-3.4-MP2-O_817
scp $USER@mgt01:/apps/users/lcz/exe13/MP2/BH-3.4-O.gbw /scratch/BH-3.4-MP2-O_817
/apps/software/orca_5_0_0/orca /scratch/BH-3.4-MP2-O_817/BH-3.4-MP2-O.inp >& BH-3.4-MP2-O.out
scp /scratch/BH-3.4-MP2-O_817/*.gbw $USER@mgt01:/apps/users/lcz/exe13/MP2
scp /scratch/BH-3.4-MP2-O_817/*.xyz $USER@mgt01:/apps/users/lcz/exe13/MP2
scp /scratch/BH-3.4-MP2-O_817/*.trj $USER@mgt01:/apps/users/lcz/exe13/MP2> was submitted from host <mgt01> by user <lcz>.
Job was executed on host(s) <8*cnode07>, in queue <cqueue>, as user <lcz>.
</apps/users/lcz> was used as the home directory.
</apps/users/lcz/exe13/MP2> was used as the working directory.
Started at 2022-05-21 22:24:01
Results reported at 2022-05-21 22:24:06

Your job looked like:

------------------------------------------------------------
# User input
#!/bin/bash
#BSUB -J intel
#BSUB -o BH-3.4-MP2-O.out
#BSUB -n 8
#BSUB -q cqueue
export LD_LIBRARY_PATH=/apps/software/openmpi-4.1.1/lib:/apps/software/orca_5_0_0:$LD_LIBRARY_PATH
export PATH=/apps/software/openmpi-4.1.1/bin:/apps/software/orca_5_0_0:$PATH
mkdir /scratch/BH-3.4-MP2-O_817
scp $USER@mgt01:/apps/users/lcz/exe13/MP2/BH-3.4-MP2-O.inp /scratch/BH-3.4-MP2-O_817
scp $USER@mgt01:/apps/users/lcz/exe13/MP2/BH-3.4-O.gbw /scratch/BH-3.4-MP2-O_817
/apps/software/orca_5_0_0/orca /scratch/BH-3.4-MP2-O_817/BH-3.4-MP2-O.inp >& BH-3.4-MP2-O.out
scp /scratch/BH-3.4-MP2-O_817/*.gbw $USER@mgt01:/apps/users/lcz/exe13/MP2
scp /scratch/BH-3.4-MP2-O_817/*.xyz $USER@mgt01:/apps/users/lcz/exe13/MP2
scp /scratch/BH-3.4-MP2-O_817/*.trj $USER@mgt01:/apps/users/lcz/exe13/MP2
------------------------------------------------------------

Exited with exit code 1.

Resource usage summary:

    CPU time   :            0.01 sec.
    Max Memory :                 9 MB
    Max Processes  :               2


The output (if any) follows:

/scratch/BH-3.4-MP2-O_817/*.xyz: No such file or directory
/scratch/BH-3.4-MP2-O_817/*.trj: No such file or directory
