 Entering Gaussian System, Link 0=/apps/software/g16/g16
 Initial command:
 /apps/software/g16/l1.exe "/scratch/Gau-282323.inp" -scrdir="/scratch/"
 Entering Link 1 = /apps/software/g16/l1.exe PID=    282324.
  
 Copyright (c) 1988,1990,1992,1993,1995,1998,2003,2009,2016,
            Gaussian, Inc.  All Rights Reserved.
  
 This is part of the Gaussian(R) 16 program.  It is based on
 the Gaussian(R) 09 system (copyright 2009, Gaussian, Inc.),
 the Gaussian(R) 03 system (copyright 2003, Gaussian, Inc.),
 the Gaussian(R) 98 system (copyright 1998, Gaussian, Inc.),
 the Gaussian(R) 94 system (copyright 1995, Gaussian, Inc.),
 the Gaussian 92(TM) system (copyright 1992, Gaussian, Inc.),
 the Gaussian 90(TM) system (copyright 1990, Gaussian, Inc.),
 the Gaussian 88(TM) system (copyright 1988, Gaussian, Inc.),
 the Gaussian 86(TM) system (copyright 1986, Carnegie Mellon
 University), and the Gaussian 82(TM) system (copyright 1983,
 Carnegie Mellon University). Gaussian is a federally registered
 trademark of Gaussian, Inc.
  
 This software contains proprietary and confidential information,
 including trade secrets, belonging to Gaussian, Inc.
  
 This software is provided under written license and may be
 used, copied, transmitted, or stored only in accord with that
 written license.
  
 The following legend is applicable only to US Government
 contracts under FAR:
  
                    RESTRICTED RIGHTS LEGEND
  
 Use, reproduction and disclosure by the US Government is
 subject to restrictions as set forth in subparagraphs (a)
 and (c) of the Commercial Computer Software - Restricted
 Rights clause in FAR 52.227-19.
  
 Gaussian, Inc.
 340 Quinnipiac St., Bldg. 40, Wallingford CT 06492
  
  
 ---------------------------------------------------------------
 Warning -- This program may not be used in any manner that
 competes with the business of Gaussian, Inc. or will provide
 assistance to any competitor of Gaussian, Inc.  The licensee
 of this program is prohibited from giving any competitor of
 Gaussian, Inc. access to this program.  By using this program,
 the user acknowledges that Gaussian, Inc. is engaged in the
 business of creating and licensing software in the field of
 computational chemistry and represents and warrants to the
 licensee that it is not a competitor of Gaussian, Inc. and that
 it will not use this program in any manner prohibited above.
 ---------------------------------------------------------------
  

 Cite this work as:
 Gaussian 16, Revision A.03,
 M. J. Frisch, G. W. Trucks, H. B. Schlegel, G. E. Scuseria, 
 M. A. Robb, J. R. Cheeseman, G. Scalmani, V. Barone, 
 G. A. Petersson, H. Nakatsuji, X. Li, M. Caricato, A. V. Marenich, 
 J. Bloino, B. G. Janesko, R. Gomperts, B. Mennucci, H. P. Hratchian, 
 J. V. Ortiz, A. F. Izmaylov, J. L. Sonnenberg, D. Williams-Young, 
 F. Ding, F. Lipparini, F. Egidi, J. Goings, B. Peng, A. Petrone, 
 T. Henderson, D. Ranasinghe, V. G. Zakrzewski, J. Gao, N. Rega, 
 G. Zheng, W. Liang, M. Hada, M. Ehara, K. Toyota, R. Fukuda, 
 J. Hasegawa, M. Ishida, T. Nakajima, Y. Honda, O. Kitao, H. Nakai, 
 T. Vreven, K. Throssell, J. A. Montgomery, Jr., J. E. Peralta, 
 F. Ogliaro, M. J. Bearpark, J. J. Heyd, E. N. Brothers, K. N. Kudin, 
 V. N. Staroverov, T. A. Keith, R. Kobayashi, J. Normand, 
 K. Raghavachari, A. P. Rendell, J. C. Burant, S. S. Iyengar, 
 J. Tomasi, M. Cossi, J. M. Millam, M. Klene, C. Adamo, R. Cammi, 
 J. W. Ochterski, R. L. Martin, K. Morokuma, O. Farkas, 
 J. B. Foresman, and D. J. Fox, Gaussian, Inc., Wallingford CT, 2016.
 
 ******************************************
 Gaussian 16:  ES64L-G16RevA.03 25-Dec-2016
                26-May-2022 
 ******************************************
 %chk=BH-4.0-MP2-G.chk
 -------------------------
 #p RHF/aug-cc-pVQZ MP2=FC
 -------------------------
 1/38=1,172=1/1;
 2/12=2,17=6,18=5,40=1/2;
 3/5=16,6=2,7=10,11=1,25=1,30=1,116=1/1,2,3;
 4//1;
 5/5=2,38=5/2;
 8/10=1/1;
 9/16=-3/6;
 6/7=2,8=2,9=2,10=2/1;
 99/5=1,9=1/99;
 Leave Link    1 at Thu May 26 10:07:35 2022, MaxMem=           0 cpu:               0.0 elap:               0.0
 (Enter /apps/software/g16/l101.exe)
 -----------------------
 BH RMP2 at 4.0 Angstrom
 -----------------------
 Symbolic Z-matrix:
 Charge =  0 Multiplicity = 1
 B                     0.        0.        0. 
 H                     4.        0.        0. 
 
 ITRead=  0  0
 MicOpt= -1 -1
 NAtoms=      2 NQM=        2 NQMF=       0 NMMI=      0 NMMIF=      0
                NMic=       0 NMicF=      0.
                    Isotopes and Nuclear Properties:
 (Nuclear quadrupole moments (NQMom) in fm**2, nuclear magnetic moments (NMagM)
  in nuclear magnetons)

  Atom         1           2
 IAtWgt=          11           1
 AtmWgt=  11.0093053   1.0078250
 NucSpn=           3           1
 AtZEff=  -0.0000000  -0.0000000
 NQMom=    4.0590000   0.0000000
 NMagM=    2.6886370   2.7928460
 AtZNuc=   5.0000000   1.0000000
 Leave Link  101 at Thu May 26 10:07:35 2022, MaxMem=   104857600 cpu:               0.1 elap:               0.1
 (Enter /apps/software/g16/l202.exe)
                          Input orientation:                          
 ---------------------------------------------------------------------
 Center     Atomic      Atomic             Coordinates (Angstroms)
 Number     Number       Type             X           Y           Z
 ---------------------------------------------------------------------
      1          5           0        0.000000    0.000000    0.000000
      2          1           0        4.000000    0.000000    0.000000
 ---------------------------------------------------------------------
 Stoichiometry    BH
 Framework group  C*V[C*(HB)]
 Deg. of freedom     1
 Full point group                 C*V     NOp   4
 Largest Abelian subgroup         C2V     NOp   4
 Largest concise Abelian subgroup C1      NOp   1
                         Standard orientation:                         
 ---------------------------------------------------------------------
 Center     Atomic      Atomic             Coordinates (Angstroms)
 Number     Number       Type             X           Y           Z
 ---------------------------------------------------------------------
      1          5           0        0.000000    0.000000    0.666667
      2          1           0        0.000000    0.000000   -3.333333
 ---------------------------------------------------------------------
 Rotational constants (GHZ):           0.0000000          34.2099886          34.2099886
 Leave Link  202 at Thu May 26 10:07:35 2022, MaxMem=   104857600 cpu:               0.0 elap:               0.0
 (Enter /apps/software/g16/l301.exe)
 Standard basis: Aug-CC-pVQZ (5D, 7F)
 Ernie: Thresh=  0.10000D-02 Tol=  0.10000D-05 Strict=F.
 Ernie:  4 primitive shells out of 54 were deleted.
 There are    68 symmetry adapted cartesian basis functions of A1  symmetry.
 There are    18 symmetry adapted cartesian basis functions of A2  symmetry.
 There are    37 symmetry adapted cartesian basis functions of B1  symmetry.
 There are    37 symmetry adapted cartesian basis functions of B2  symmetry.
 There are    50 symmetry adapted basis functions of A1  symmetry.
 There are    16 symmetry adapted basis functions of A2  symmetry.
 There are    30 symmetry adapted basis functions of B1  symmetry.
 There are    30 symmetry adapted basis functions of B2  symmetry.
   126 basis functions,   180 primitive gaussians,   160 cartesian basis functions
     3 alpha electrons        3 beta electrons
       nuclear repulsion energy         0.6614715137 Hartrees.
 IExCor=    0 DFT=F Ex=HF Corr=None ExCW=0 ScaHFX=  1.000000
 ScaDFX=  1.000000  1.000000  1.000000  1.000000 ScalE2=  1.000000  1.000000
 IRadAn=      5 IRanWt=     -1 IRanGd=            0 ICorTp=0 IEmpDi=  4
 NAtoms=    2 NActive=    2 NUniq=    2 SFac= 1.00D+00 NAtFMM=   60 NAOKFM=F Big=F
 Integral buffers will be    131072 words long.
 Raffenetti 1 integral format.
 Two-electron integral symmetry is turned on.
 Leave Link  301 at Thu May 26 10:07:35 2022, MaxMem=   104857600 cpu:               0.1 elap:               0.1
 (Enter /apps/software/g16/l302.exe)
 NPDir=0 NMtPBC=     1 NCelOv=     1 NCel=       1 NClECP=     1 NCelD=      1
         NCelK=      1 NCelE2=     1 NClLst=     1 CellRange=     0.0.
 One-electron integrals computed using PRISM.
 One-electron integral symmetry used in STVInt
 NBasis=   126 RedAO= T EigKep=  1.13D-02  NBF=    50    16    30    30
 NBsUse=   126 1.00D-06 EigRej= -1.00D+00 NBFU=    50    16    30    30
 Leave Link  302 at Thu May 26 10:07:35 2022, MaxMem=   104857600 cpu:               0.1 elap:               0.1
 (Enter /apps/software/g16/l303.exe)
 DipDrv:  MaxL=1.
 Leave Link  303 at Thu May 26 10:07:35 2022, MaxMem=   104857600 cpu:               0.0 elap:               0.0
 (Enter /apps/software/g16/l401.exe)
 ExpMin= 1.88D-02 ExpMax= 2.39D+04 ExpMxC= 2.30D+02 IAcc=3 IRadAn=         5 AccDes= 0.00D+00
 Harris functional with IExCor=  205 and IRadAn=       5 diagonalized for initial guess.
 HarFok:  IExCor=  205 AccDes= 0.00D+00 IRadAn=         5 IDoV= 1 UseB2=F ITyADJ=14
 ICtDFT=  3500011 ScaDFX=  1.000000  1.000000  1.000000  1.000000
 FoFCou: FMM=F IPFlag=           0 FMFlag=      100000 FMFlg1=           0
         NFxFlg=           0 DoJE=T BraDBF=F KetDBF=T FulRan=T
         wScrn=  0.000000 ICntrl=       500 IOpCl=  0 I1Cent=   200000004 NGrid=           0
         NMat0=    1 NMatS0=      1 NMatT0=    0 NMatD0=    1 NMtDS0=    0 NMtDT0=    0
 Petite list used in FoFCou.
 Harris En= -24.9897358755842    
 JPrj=0 DoOrth=F DoCkMO=F.
 Initial guess orbital symmetries:
       Occupied  (SG) (SG) (SG)
       Virtual   (PI) (PI) (SG) (SG) (PI) (PI) (SG) (SG) (PI) (PI)
                 (DLTA) (DLTA) (SG) (PI) (PI) (SG) (PI) (PI) (SG)
                 (SG) (SG) (PI) (PI) (SG) (DLTA) (DLTA) (DLTA)
                 (DLTA) (PHI) (PHI) (PI) (PI) (SG) (DLTA) (DLTA)
                 (PI) (PI) (SG) (PI) (PI) (SG) (PI) (PI) (SG) (SG)
                 (PI) (PI) (DLTA) (DLTA) (SG) (DLTA) (DLTA) (?A)
                 (?A) (?B) (?A) (?A) (?B) (SG) (DLTA) (DLTA) (PHI)
                 (PHI) (PI) (PI) (SG) (SG) (PHI) (PHI) (DLTA) (DLTA)
                 (PI) (PI) (SG) (DLTA) (DLTA) (PI) (PI) (SG) (PI)
                 (PI) (SG) (PI) (PI) (SG) (DLTA) (DLTA) (PI) (PI)
                 (SG) (?B) (PHI) (PHI) (?B) (DLTA) (DLTA) (PI)
                 (PI) (SG) (PHI) (PHI) (DLTA) (DLTA) (PI) (PI)
                 (SG) (PHI) (PHI) (DLTA) (DLTA) (PI) (PI) (SG)
                 (SG) (PI) (PI) (SG) (DLTA) (DLTA) (PI) (PI) (SG)
                 (SG)
 The electronic state of the initial guess is 1-SG.
 Leave Link  401 at Thu May 26 10:07:36 2022, MaxMem=   104857600 cpu:               0.2 elap:               0.2
 (Enter /apps/software/g16/l502.exe)
 Keep R1 ints in memory in symmetry-blocked form, NReq=40143665.
 FoFCou: FMM=F IPFlag=           0 FMFlag=           0 FMFlg1=           0
         NFxFlg=           0 DoJE=F BraDBF=F KetDBF=F FulRan=T
         wScrn=  0.000000 ICntrl=       600 IOpCl=  0 I1Cent=           0 NGrid=           0
         NMat0=    1 NMatS0=   8001 NMatT0=    0 NMatD0=    1 NMtDS0=    0 NMtDT0=    0
 Petite list used in FoFCou.
 Closed shell SCF:
 Using DIIS extrapolation, IDIIS=  1040.
 NGot=   104857600 LenX=    96673173 LenY=    96647132
 Requested convergence on RMS density matrix=1.00D-08 within 128 cycles.
 Requested convergence on MAX density matrix=1.00D-06.
 Requested convergence on             energy=1.00D-06.
 No special actions if energy rises.

 Cycle   1  Pass 1  IDiag  1:
 E= -24.7794259366900    
 DIIS: error= 2.81D-02 at cycle   1 NSaved=   1.
 NSaved= 1 IEnMin= 1 EnMin= -24.7794259366900     IErMin= 1 ErrMin= 2.81D-02
 ErrMax= 2.81D-02  0.00D+00 EMaxC= 1.00D-01 BMatC= 6.07D-02 BMatP= 6.07D-02
 IDIUse=3 WtCom= 7.19D-01 WtEn= 2.81D-01
 Coeff-Com:  0.100D+01
 Coeff-En:   0.100D+01
 Coeff:      0.100D+01
 Gap=     0.000 Goal=   None    Shift=    0.000
 GapD=    0.000 DampG=0.250 DampE=0.500 DampFc=0.2500 IDamp=-1.
 Damping current iteration by 2.50D-01
 RMSDP=4.80D-03 MaxDP=2.16D-01              OVMax= 1.10D-01

 Cycle   2  Pass 1  IDiag  1:
 E= -24.8052314769011     Delta-E=       -0.025805540211 Rises=F Damp=T
 DIIS: error= 1.83D-02 at cycle   2 NSaved=   2.
 NSaved= 2 IEnMin= 2 EnMin= -24.8052314769011     IErMin= 2 ErrMin= 1.83D-02
 ErrMax= 1.83D-02  0.00D+00 EMaxC= 1.00D-01 BMatC= 2.32D-02 BMatP= 6.07D-02
 IDIUse=3 WtCom= 8.17D-01 WtEn= 1.83D-01
 Coeff-Com: -0.113D+01 0.213D+01
 Coeff-En:   0.119D+00 0.881D+00
 Coeff:     -0.903D+00 0.190D+01
 Gap=     0.135 Goal=   None    Shift=    0.000
 RMSDP=1.29D-03 MaxDP=8.15D-02 DE=-2.58D-02 OVMax= 1.74D-01

 Cycle   3  Pass 1  IDiag  1:
 E= -24.8166920589690     Delta-E=       -0.011460582068 Rises=F Damp=F
 DIIS: error= 1.62D-02 at cycle   3 NSaved=   3.
 NSaved= 3 IEnMin= 3 EnMin= -24.8166920589690     IErMin= 3 ErrMin= 1.62D-02
 ErrMax= 1.62D-02  0.00D+00 EMaxC= 1.00D-01 BMatC= 1.38D-02 BMatP= 2.32D-02
 IDIUse=3 WtCom= 8.38D-01 WtEn= 1.62D-01
 Coeff-Com: -0.105D+01 0.137D+01 0.684D+00
 Coeff-En:   0.000D+00 0.205D+00 0.795D+00
 Coeff:     -0.880D+00 0.118D+01 0.702D+00
 Gap=     0.066 Goal=   None    Shift=    0.000
 RMSDP=7.50D-04 MaxDP=3.31D-02 DE=-1.15D-02 OVMax= 8.60D-02

 Cycle   4  Pass 1  IDiag  1:
 E= -24.8468876884380     Delta-E=       -0.030195629469 Rises=F Damp=F
 DIIS: error= 1.29D-02 at cycle   4 NSaved=   4.
 NSaved= 4 IEnMin= 4 EnMin= -24.8468876884380     IErMin= 4 ErrMin= 1.29D-02
 ErrMax= 1.29D-02  0.00D+00 EMaxC= 1.00D-01 BMatC= 5.88D-03 BMatP= 1.38D-02
 IDIUse=3 WtCom= 8.71D-01 WtEn= 1.29D-01
 Coeff-Com: -0.875D+00 0.116D+01 0.274D+00 0.444D+00
 Coeff-En:   0.000D+00 0.000D+00 0.000D+00 0.100D+01
 Coeff:     -0.762D+00 0.101D+01 0.238D+00 0.516D+00
 Gap=     0.069 Goal=   None    Shift=    0.000
 RMSDP=2.74D-04 MaxDP=9.85D-03 DE=-3.02D-02 OVMax= 4.28D-02

 Cycle   5  Pass 1  IDiag  1:
 E= -24.8565490805432     Delta-E=       -0.009661392105 Rises=F Damp=F
 DIIS: error= 1.24D-02 at cycle   5 NSaved=   5.
 NSaved= 5 IEnMin= 5 EnMin= -24.8565490805432     IErMin= 5 ErrMin= 1.24D-02
 ErrMax= 1.24D-02  0.00D+00 EMaxC= 1.00D-01 BMatC= 4.37D-03 BMatP= 5.88D-03
 IDIUse=3 WtCom= 8.76D-01 WtEn= 1.24D-01
 Coeff-Com: -0.894D+00 0.115D+01 0.828D+00-0.187D+01 0.178D+01
 Coeff-En:   0.000D+00 0.000D+00 0.000D+00 0.000D+00 0.100D+01
 Coeff:     -0.783D+00 0.101D+01 0.725D+00-0.164D+01 0.168D+01
 Gap=     0.079 Goal=   None    Shift=    0.000
 RMSDP=1.36D-04 MaxDP=7.64D-03 DE=-9.66D-03 OVMax= 2.47D-02

 Cycle   6  Pass 1  IDiag  1:
 E= -24.8594383528357     Delta-E=       -0.002889272292 Rises=F Damp=F
 DIIS: error= 1.29D-02 at cycle   6 NSaved=   6.
 NSaved= 6 IEnMin= 6 EnMin= -24.8594383528357     IErMin= 5 ErrMin= 1.24D-02
 ErrMax= 1.29D-02  0.00D+00 EMaxC= 1.00D-01 BMatC= 4.55D-03 BMatP= 4.37D-03
 IDIUse=3 WtCom= 8.76D-01 WtEn= 1.24D-01
 Coeff-Com: -0.818D+00 0.104D+01 0.130D+01-0.432D+01 0.663D+01-0.283D+01
 Coeff-En:   0.000D+00 0.000D+00 0.000D+00 0.000D+00 0.000D+00 0.100D+01
 Coeff:     -0.716D+00 0.907D+00 0.114D+01-0.379D+01 0.581D+01-0.235D+01
 Gap=     0.071 Goal=   None    Shift=    0.000
 RMSDP=1.50D-04 MaxDP=5.89D-03 DE=-2.89D-03 OVMax= 1.56D-02

 Cycle   7  Pass 1  IDiag  1:
 E= -24.8631912984389     Delta-E=       -0.003752945603 Rises=F Damp=F
 DIIS: error= 1.24D-02 at cycle   7 NSaved=   7.
 NSaved= 7 IEnMin= 7 EnMin= -24.8631912984389     IErMin= 7 ErrMin= 1.24D-02
 ErrMax= 1.24D-02  0.00D+00 EMaxC= 1.00D-01 BMatC= 3.68D-03 BMatP= 4.37D-03
 IDIUse=3 WtCom= 8.76D-01 WtEn= 1.24D-01
 Coeff-Com: -0.800D+00 0.102D+01 0.119D+01-0.336D+01 0.495D+01-0.310D+01
 Coeff-Com:  0.110D+01
 Coeff-En:   0.000D+00 0.000D+00 0.000D+00 0.000D+00 0.000D+00 0.000D+00
 Coeff-En:   0.100D+01
 Coeff:     -0.700D+00 0.890D+00 0.105D+01-0.294D+01 0.433D+01-0.272D+01
 Coeff:      0.109D+01
 Gap=     0.073 Goal=   None    Shift=    0.000
 RMSDP=2.97D-05 MaxDP=1.53D-03 DE=-3.75D-03 OVMax= 5.00D-03

 Cycle   8  Pass 1  IDiag  1:
 E= -24.8640878769891     Delta-E=       -0.000896578550 Rises=F Damp=F
 DIIS: error= 1.24D-02 at cycle   8 NSaved=   8.
 NSaved= 8 IEnMin= 8 EnMin= -24.8640878769891     IErMin= 8 ErrMin= 1.24D-02
 ErrMax= 1.24D-02  0.00D+00 EMaxC= 1.00D-01 BMatC= 3.59D-03 BMatP= 3.68D-03
 IDIUse=3 WtCom= 8.76D-01 WtEn= 1.24D-01
 Large coefficients: NSaved=  8 BigCof=   15.66 CofMax=   10.00 Det=-7.27D-09
 Inversion failed.  Reducing to  7 matrices.
 Large coefficients: NSaved=  7 BigCof=  124.19 CofMax=   10.00 Det=-1.01D-08
 Inversion failed.  Reducing to  6 matrices.
 Large coefficients: NSaved=  6 BigCof=   95.08 CofMax=   10.00 Det=-1.21D-08
 Inversion failed.  Reducing to  5 matrices.
 Large coefficients: NSaved=  5 BigCof=   88.23 CofMax=   10.00 Det=-1.33D-08
 Inversion failed.  Reducing to  4 matrices.
 Large coefficients: NSaved=  4 BigCof=   10.85 CofMax=   10.00 Det=-1.76D-08
 Inversion failed.  Reducing to  3 matrices.
 Large coefficients: NSaved=  3 BigCof=   52.20 CofMax=   10.00 Det=-1.17D-07
 Inversion failed.  Reducing to  2 matrices.
 Large coefficients: NSaved=  2 BigCof=   37.87 CofMax=   10.00 Det=-1.17D-06
 Coeff-Com: -0.369D+02 0.379D+02
 Coeff-En:   0.000D+00 0.100D+01
 Coeff:     -0.323D+02 0.333D+02
 Gap=     0.077 Goal=   None    Shift=    0.000
 RMSDP=1.91D-03 MaxDP=7.85D-02 DE=-8.97D-04 OVMax= 4.13D-01

 Cycle   9  Pass 1  IDiag  1:
 E= -24.8955676756891     Delta-E=       -0.031479798700 Rises=F Damp=F
 DIIS: error= 8.95D-03 at cycle   9 NSaved=   3.
 NSaved= 3 IEnMin= 3 EnMin= -24.8955676756891     IErMin= 3 ErrMin= 8.95D-03
 ErrMax= 8.95D-03  0.00D+00 EMaxC= 1.00D-01 BMatC= 2.49D-03 BMatP= 3.59D-03
 IDIUse=3 WtCom= 9.10D-01 WtEn= 8.95D-02
 Coeff-Com: -0.311D+01 0.359D+01 0.528D+00
 Coeff-En:   0.000D+00 0.000D+00 0.100D+01
 Coeff:     -0.283D+01 0.326D+01 0.570D+00
 Gap=     0.142 Goal=   None    Shift=    0.000
 RMSDP=5.15D-04 MaxDP=2.02D-02 DE=-3.15D-02 OVMax= 8.91D-02

 Cycle  10  Pass 1  IDiag  1:
 E= -24.9027685339229     Delta-E=       -0.007200858234 Rises=F Damp=F
 DIIS: error= 1.62D-03 at cycle  10 NSaved=   4.
 NSaved= 4 IEnMin= 4 EnMin= -24.9027685339229     IErMin= 4 ErrMin= 1.62D-03
 ErrMax= 1.62D-03  0.00D+00 EMaxC= 1.00D-01 BMatC= 1.07D-04 BMatP= 2.49D-03
 IDIUse=3 WtCom= 9.84D-01 WtEn= 1.62D-02
 Large coefficients: NSaved=  4 BigCof=   12.55 CofMax=   10.00 Det=-2.62D-07
 Inversion failed.  Reducing to  3 matrices.
 Coeff-Com:  0.948D-01-0.201D-01 0.925D+00
 Coeff-En:   0.000D+00 0.000D+00 0.100D+01
 Coeff:      0.933D-01-0.198D-01 0.927D+00
 Gap=     0.157 Goal=   None    Shift=    0.000
 RMSDP=1.43D-04 MaxDP=5.17D-03 DE=-7.20D-03 OVMax= 1.77D-02

 Cycle  11  Pass 1  IDiag  1:
 E= -24.9030722485393     Delta-E=       -0.000303714616 Rises=F Damp=F
 DIIS: error= 1.10D-03 at cycle  11 NSaved=   4.
 NSaved= 4 IEnMin= 4 EnMin= -24.9030722485393     IErMin= 4 ErrMin= 1.10D-03
 ErrMax= 1.10D-03  0.00D+00 EMaxC= 1.00D-01 BMatC= 5.89D-05 BMatP= 1.07D-04
 IDIUse=3 WtCom= 9.89D-01 WtEn= 1.10D-02
 Coeff-Com:  0.144D-01-0.125D+00-0.915D+00 0.203D+01
 Coeff-En:   0.000D+00 0.000D+00 0.000D+00 0.100D+01
 Coeff:      0.143D-01-0.124D+00-0.905D+00 0.201D+01
 Gap=     0.167 Goal=   None    Shift=    0.000
 RMSDP=1.75D-04 MaxDP=7.48D-03 DE=-3.04D-04 OVMax= 1.39D-02

 Cycle  12  Pass 1  IDiag  1:
 E= -24.9032695577399     Delta-E=       -0.000197309201 Rises=F Damp=F
 DIIS: error= 4.63D-05 at cycle  12 NSaved=   5.
 NSaved= 5 IEnMin= 5 EnMin= -24.9032695577399     IErMin= 5 ErrMin= 4.63D-05
 ErrMax= 4.63D-05  0.00D+00 EMaxC= 1.00D-01 BMatC= 1.20D-07 BMatP= 5.89D-05
 IDIUse=1 WtCom= 1.00D+00 WtEn= 0.00D+00
 Coeff-Com: -0.484D-02 0.330D-01 0.192D+00-0.496D+00 0.128D+01
 Coeff:     -0.484D-02 0.330D-01 0.192D+00-0.496D+00 0.128D+01
 Gap=     0.168 Goal=   None    Shift=    0.000
 RMSDP=8.61D-06 MaxDP=5.07D-04 DE=-1.97D-04 OVMax= 7.11D-04

 Cycle  13  Pass 1  IDiag  1:
 E= -24.9032699060468     Delta-E=       -0.000000348307 Rises=F Damp=F
 DIIS: error= 1.93D-05 at cycle  13 NSaved=   6.
 NSaved= 6 IEnMin= 6 EnMin= -24.9032699060468     IErMin= 6 ErrMin= 1.93D-05
 ErrMax= 1.93D-05  0.00D+00 EMaxC= 1.00D-01 BMatC= 1.42D-08 BMatP= 1.20D-07
 IDIUse=1 WtCom= 1.00D+00 WtEn= 0.00D+00
 Coeff-Com: -0.627D-03-0.363D-02-0.513D-02 0.459D-01-0.285D+00 0.125D+01
 Coeff:     -0.627D-03-0.363D-02-0.513D-02 0.459D-01-0.285D+00 0.125D+01
 Gap=     0.168 Goal=   None    Shift=    0.000
 RMSDP=2.96D-06 MaxDP=1.01D-04 DE=-3.48D-07 OVMax= 2.89D-04

 Cycle  14  Pass 1  IDiag  1:
 E= -24.9032699703636     Delta-E=       -0.000000064317 Rises=F Damp=F
 DIIS: error= 4.10D-06 at cycle  14 NSaved=   7.
 NSaved= 7 IEnMin= 7 EnMin= -24.9032699703636     IErMin= 7 ErrMin= 4.10D-06
 ErrMax= 4.10D-06  0.00D+00 EMaxC= 1.00D-01 BMatC= 5.36D-10 BMatP= 1.42D-08
 IDIUse=1 WtCom= 1.00D+00 WtEn= 0.00D+00
 Coeff-Com: -0.987D-04-0.109D-03-0.317D-04-0.733D-03 0.124D-01-0.282D+00
 Coeff-Com:  0.127D+01
 Coeff:     -0.987D-04-0.109D-03-0.317D-04-0.733D-03 0.124D-01-0.282D+00
 Coeff:      0.127D+01
 Gap=     0.168 Goal=   None    Shift=    0.000
 RMSDP=6.23D-07 MaxDP=2.44D-05 DE=-6.43D-08 OVMax= 6.55D-05

 Cycle  15  Pass 1  IDiag  1:
 E= -24.9032699728945     Delta-E=       -0.000000002531 Rises=F Damp=F
 DIIS: error= 6.19D-07 at cycle  15 NSaved=   8.
 NSaved= 8 IEnMin= 8 EnMin= -24.9032699728945     IErMin= 8 ErrMin= 6.19D-07
 ErrMax= 6.19D-07  0.00D+00 EMaxC= 1.00D-01 BMatC= 1.54D-11 BMatP= 5.36D-10
 IDIUse=1 WtCom= 1.00D+00 WtEn= 0.00D+00
 Coeff-Com: -0.174D-04-0.666D-06 0.416D-04 0.718D-03-0.489D-02 0.973D-01
 Coeff-Com: -0.448D+00 0.135D+01
 Coeff:     -0.174D-04-0.666D-06 0.416D-04 0.718D-03-0.489D-02 0.973D-01
 Coeff:     -0.448D+00 0.135D+01
 Gap=     0.168 Goal=   None    Shift=    0.000
 RMSDP=8.77D-08 MaxDP=3.15D-06 DE=-2.53D-09 OVMax= 4.91D-06

 Cycle  16  Pass 1  IDiag  1:
 E= -24.9032699729389     Delta-E=       -0.000000000044 Rises=F Damp=F
 DIIS: error= 7.36D-08 at cycle  16 NSaved=   9.
 NSaved= 9 IEnMin= 9 EnMin= -24.9032699729389     IErMin= 9 ErrMin= 7.36D-08
 ErrMax= 7.36D-08  0.00D+00 EMaxC= 1.00D-01 BMatC= 3.13D-13 BMatP= 1.54D-11
 IDIUse=1 WtCom= 1.00D+00 WtEn= 0.00D+00
 Coeff-Com:  0.486D-06-0.576D-05-0.363D-05-0.504D-04 0.429D-04-0.146D-01
 Coeff-Com:  0.732D-01-0.346D+00 0.129D+01
 Coeff:      0.486D-06-0.576D-05-0.363D-05-0.504D-04 0.429D-04-0.146D-01
 Coeff:      0.732D-01-0.346D+00 0.129D+01
 Gap=     0.168 Goal=   None    Shift=    0.000
 RMSDP=1.47D-08 MaxDP=6.51D-07 DE=-4.45D-11 OVMax= 7.45D-07

 Cycle  17  Pass 1  IDiag  1:
 E= -24.9032699729398     Delta-E=       -0.000000000001 Rises=F Damp=F
 DIIS: error= 7.68D-09 at cycle  17 NSaved=  10.
 NSaved=10 IEnMin=10 EnMin= -24.9032699729398     IErMin=10 ErrMin= 7.68D-09
 ErrMax= 7.68D-09  0.00D+00 EMaxC= 1.00D-01 BMatC= 1.33D-15 BMatP= 3.13D-13
 IDIUse=1 WtCom= 1.00D+00 WtEn= 0.00D+00
 Coeff-Com:  0.627D-07 0.835D-07-0.600D-05 0.237D-04-0.134D-04 0.232D-02
 Coeff-Com: -0.992D-02 0.619D-01-0.295D+00 0.124D+01
 Coeff:      0.627D-07 0.835D-07-0.600D-05 0.237D-04-0.134D-04 0.232D-02
 Coeff:     -0.992D-02 0.619D-01-0.295D+00 0.124D+01
 Gap=     0.168 Goal=   None    Shift=    0.000
 RMSDP=1.73D-09 MaxDP=9.30D-08 DE=-8.21D-13 OVMax= 1.64D-07

 SCF Done:  E(RHF) =  -24.9032699729     A.U. after   17 cycles
            NFock= 17  Conv=0.17D-08     -V/T= 2.0060
 KE= 2.475366664368D+01 PE=-5.839296701002D+01 EE= 8.074558879744D+00
 Leave Link  502 at Thu May 26 10:07:39 2022, MaxMem=   104857600 cpu:               3.6 elap:               3.6
 (Enter /apps/software/g16/l801.exe)
 ExpMin= 1.88D-02 ExpMax= 2.39D+04 ExpMxC= 2.30D+02 IAcc=3 IRadAn=         5 AccDes= 0.00D+00
 HarFok:  IExCor=  205 AccDes= 0.00D+00 IRadAn=         5 IDoV=-2 UseB2=F ITyADJ=14
 ICtDFT= 12500011 ScaDFX=  1.000000  1.000000  1.000000  1.000000
 Largest valence mixing into a core orbital is  4.03D-04
 Largest core mixing into a valence orbital is  1.74D-04
 Range of M.O.s used for correlation:     2   126
 NBasis=   126 NAE=     3 NBE=     3 NFC=     1 NFV=     0
 NROrb=    125 NOA=     2 NOB=     2 NVA=   123 NVB=   123
 Leave Link  801 at Thu May 26 10:07:39 2022, MaxMem=   104857600 cpu:               0.1 elap:               0.1
 (Enter /apps/software/g16/l906.exe)
 FulOut=F Deriv=F AODrv=F NAtomX=     2
   MMem=         940  MDisk=           2 MDiskD=           2
  W3Min=       39360 MinDsk=      297938 NBas6D=         160
 NBas2D=       13447    NTT=       12880    LW2=     4508827
    MDV=   104745627 MDiskM=        1427 NBas2p=       13237
 Fully direct method using O(OVN) memory.
 IMap=   1   2
 JobTyp=1 Pass  1:  I=   1 to   2 NPSUse=  1 ParTrn=F ParDer=F DoDerP=F.
 Spin components of T(2) and E(2):
     alpha-alpha T2 =       0.1631147048D-02 E2=     -0.2211196578D-02
     alpha-beta  T2 =       0.1665891363D+00 E2=     -0.1094708078D+00
     beta-beta   T2 =       0.1631147048D-02 E2=     -0.2211196578D-02
 The integrals were generated   1 times.
 ANorm=    0.1081596704D+01
 E2 =    -0.1138932009D+00 EUMP2 =    -0.25017163173877D+02
 Leave Link  906 at Thu May 26 10:07:42 2022, MaxMem=   104857600 cpu:               2.7 elap:               2.7
 (Enter /apps/software/g16/l601.exe)
 Copying SCF densities to generalized density rwf, IOpCl= 0 IROHF=0.

 **********************************************************************

            Population analysis using the SCF density.

 **********************************************************************

 Orbital symmetries:
       Occupied  (SG) (SG) (SG)
       Virtual   (SG) (PI) (PI) (SG) (PI) (PI) (SG) (SG) (DLTA)
                 (DLTA) (PI) (PI) (SG) (PI) (PI) (SG) (PI) (PI)
                 (SG) (SG) (PHI) (PHI) (DLTA) (DLTA) (DLTA) (DLTA)
                 (SG) (PI) (PI) (PI) (PI) (SG) (SG) (DLTA) (DLTA)
                 (PI) (PI) (SG) (PI) (PI) (PI) (PI) (SG) (SG) (SG)
                 (?A) (?A) (DLTA) (DLTA) (PHI) (PHI) (DLTA) (DLTA)
                 (PI) (PI) (PI) (PI) (SG) (PHI) (PHI) (DLTA) (DLTA)
                 (SG) (PI) (PI) (SG) (PHI) (PHI) (DLTA) (DLTA)
                 (PI) (PI) (SG) (SG) (DLTA) (DLTA) (PI) (PI) (SG)
                 (PI) (PI) (SG) (PI) (PI) (SG) (?A) (?A) (DLTA)
                 (DLTA) (PHI) (PHI) (DLTA) (DLTA) (PI) (PI) (SG)
                 (PI) (PI) (SG) (PHI) (PHI) (DLTA) (DLTA) (PI)
                 (PI) (SG) (PHI) (PHI) (DLTA) (DLTA) (PI) (PI)
                 (SG) (SG) (PI) (PI) (SG) (DLTA) (DLTA) (PI) (PI)
                 (SG) (SG)
 The electronic state is 1-SG.
 Alpha  occ. eigenvalues --   -7.88834  -0.61869  -0.23806
 Alpha virt. eigenvalues --   -0.07053  -0.04441  -0.04441   0.02397   0.04357
 Alpha virt. eigenvalues --    0.04357   0.06369   0.09581   0.12079   0.12079
 Alpha virt. eigenvalues --    0.12860   0.12860   0.15740   0.24305   0.24305
 Alpha virt. eigenvalues --    0.24671   0.25749   0.25749   0.29139   0.33929
 Alpha virt. eigenvalues --    0.41837   0.41837   0.42550   0.42550   0.43721
 Alpha virt. eigenvalues --    0.43721   0.44188   0.44296   0.44296   0.45554
 Alpha virt. eigenvalues --    0.45554   0.47536   0.56453   0.69393   0.69393
 Alpha virt. eigenvalues --    0.74354   0.74354   0.82102   0.87504   0.87504
 Alpha virt. eigenvalues --    0.94614   0.94614   0.96121   0.99408   1.29285
 Alpha virt. eigenvalues --    1.29786   1.29786   1.30453   1.30453   1.30755
 Alpha virt. eigenvalues --    1.30755   1.31512   1.31512   1.31552   1.31552
 Alpha virt. eigenvalues --    1.32667   1.32667   1.33018   1.35084   1.35084
 Alpha virt. eigenvalues --    1.36260   1.36260   1.37166   1.39141   1.39141
 Alpha virt. eigenvalues --    1.47838   1.64731   1.64731   1.65281   1.65281
 Alpha virt. eigenvalues --    1.69106   1.69106   1.70950   1.83624   2.55948
 Alpha virt. eigenvalues --    2.55948   2.59246   2.59246   2.66950   2.68901
 Alpha virt. eigenvalues --    2.68901   2.77320   3.58380   3.58380   3.62356
 Alpha virt. eigenvalues --    3.80364   3.80364   3.81136   3.81136   3.81446
 Alpha virt. eigenvalues --    3.81446   3.82285   3.82285   3.82589   3.82589
 Alpha virt. eigenvalues --    3.83483   3.83586   3.83586   3.90487   3.95362
 Alpha virt. eigenvalues --    3.95362   3.96653   3.96653   3.99049   3.99049
 Alpha virt. eigenvalues --    4.04023   6.65639   6.65639   6.65803   6.65803
 Alpha virt. eigenvalues --    6.66699   6.66699   6.68386   7.55771   8.04907
 Alpha virt. eigenvalues --    8.04907   8.09184   8.49423   8.49423   8.51673
 Alpha virt. eigenvalues --    8.51673   8.58621  12.89808
          Condensed to atoms (all electrons):
               1          2
     1  B    4.485773   0.128369
     2  H    0.128369   1.257489
 Mulliken charges:
               1
     1  B    0.385858
     2  H   -0.385858
 Sum of Mulliken charges =  -0.00000
 Mulliken charges with hydrogens summed into heavy atoms:
               1
     1  B   -0.000000
 Electronic spatial extent (au):  <R**2>=             82.8696
 Charge=             -0.0000 electrons
 Dipole moment (field-independent basis, Debye):
    X=              0.0000    Y=              0.0000    Z=              8.0929  Tot=              8.0929
 Quadrupole moment (field-independent basis, Debye-Ang):
   XX=             -9.1322   YY=             -9.1322   ZZ=            -29.1553
   XY=              0.0000   XZ=              0.0000   YZ=              0.0000
 Traceless Quadrupole moment (field-independent basis, Debye-Ang):
   XX=              6.6744   YY=              6.6744   ZZ=            -13.3487
   XY=              0.0000   XZ=              0.0000   YZ=              0.0000
 Octapole moment (field-independent basis, Debye-Ang**2):
  XXX=              0.0000  YYY=              0.0000  ZZZ=             78.6259  XYY=              0.0000
  XXY=              0.0000  XXZ=              9.2930  XZZ=              0.0000  YZZ=              0.0000
  YYZ=              9.2930  XYZ=              0.0000
 Hexadecapole moment (field-independent basis, Debye-Ang**3):
 XXXX=            -20.2189 YYYY=            -20.2189 ZZZZ=           -435.3306 XXXY=              0.0000
 XXXZ=              0.0000 YYYX=              0.0000 YYYZ=              0.0000 ZZZX=              0.0000
 ZZZY=              0.0000 XXYY=             -6.7396 XXZZ=            -48.3558 YYZZ=            -48.3558
 XXYZ=              0.0000 YYXZ=              0.0000 ZZXY=              0.0000
 N-N= 6.614715136500D-01 E-N=-5.839296707400D+01  KE= 2.475366664368D+01
 Symmetry A1   KE= 2.475366664368D+01
 Symmetry A2   KE= 1.947601136508D-51
 Symmetry B1   KE= 0.000000000000D+00
 Symmetry B2   KE= 0.000000000000D+00
 Leave Link  601 at Thu May 26 10:07:42 2022, MaxMem=   104857600 cpu:               0.0 elap:               0.1
 (Enter /apps/software/g16/l9999.exe)
 1\1\GINC-CNODE05\SP\RMP2-FC\Aug-CC-pVQZ\B1H1\ROOT\26-May-2022\0\\#p RH
 F/aug-cc-pVQZ MP2=FC\\BH RMP2 at 4.0 Angstrom\\0,1\B,0,0.,0.,0.\H,0,4.
 ,0.,0.\\Version=ES64L-G16RevA.03\State=1-SG\HF=-24.90327\MP2=-25.01716
 32\RMSD=1.733e-09\PG=C*V [C*(H1B1)]\\@


 WE THE UNWILLING
 LED BY THE UNQUALIFIED
 HAVE BEEN DOING THE UNBELIEVABLE SO LONG WITH SO LITTLE
 THAT WE NOW ATTEMPT THE IMPOSSIBLE WITH NOTHING.

                                    -- ANONYMOUS
 Job cpu time:       0 days  0 hours  0 minutes  7.0 seconds.
 Elapsed time:       0 days  0 hours  0 minutes  7.0 seconds.
 File lengths (MBytes):  RWF=     10 Int=      0 D2E=      0 Chk=      3 Scr=      1
 Normal termination of Gaussian 16 at Thu May 26 10:07:42 2022.

Sender: Unischeduler System <lcz@mgt01>
Subject: Job 136169: <#!/bin/bash
#BSUB -J intel
#BSUB -o BH-4.0-MP2-G.out
#BSUB -n 8
#BSUB -q cqueue
#BSUB -R span[hosts=1]
export g16root=/apps/software
source /apps/software/g16/bsd/g16.profile
export GAUSS_SCRDIR=/scratch
/apps/software/g16/g16 < BH-4.0-MP2-G.inp > BH-4.0-MP2-G.out> Done

Job <#!/bin/bash
#BSUB -J intel
#BSUB -o BH-4.0-MP2-G.out
#BSUB -n 8
#BSUB -q cqueue
#BSUB -R span[hosts=1]
export g16root=/apps/software
source /apps/software/g16/bsd/g16.profile
export GAUSS_SCRDIR=/scratch
/apps/software/g16/g16 < BH-4.0-MP2-G.inp > BH-4.0-MP2-G.out> was submitted from host <mgt01> by user <lcz>.
Job was executed on host(s) <8*cnode05>, in queue <cqueue>, as user <lcz>.
</apps/users/lcz> was used as the home directory.
</apps/users/lcz/exe13/GMP2> was used as the working directory.
Started at 2022-05-26 10:07:35
Results reported at 2022-05-26 10:07:42

Your job looked like:

------------------------------------------------------------
# User input
#!/bin/bash
#BSUB -J intel
#BSUB -o BH-4.0-MP2-G.out
#BSUB -n 8
#BSUB -q cqueue
#BSUB -R span[hosts=1]
export g16root=/apps/software
source /apps/software/g16/bsd/g16.profile
export GAUSS_SCRDIR=/scratch
/apps/software/g16/g16 < BH-4.0-MP2-G.inp > BH-4.0-MP2-G.out
------------------------------------------------------------

Successfully completed.

Resource usage summary:

    CPU time   :            7.07 sec.
    Max Memory :               181 MB
    Max Processes  :               5


The output (if any) follows:

