 Entering Gaussian System, Link 0=/apps/software/g16/g16
 Initial command:
 /apps/software/g16/l1.exe "/scratch/Gau-311251.inp" -scrdir="/scratch/"
 Entering Link 1 = /apps/software/g16/l1.exe PID=    311252.
  
 Copyright (c) 1988,1990,1992,1993,1995,1998,2003,2009,2016,
            Gaussian, Inc.  All Rights Reserved.
  
 This is part of the Gaussian(R) 16 program.  It is based on
 the Gaussian(R) 09 system (copyright 2009, Gaussian, Inc.),
 the Gaussian(R) 03 system (copyright 2003, Gaussian, Inc.),
 the Gaussian(R) 98 system (copyright 1998, Gaussian, Inc.),
 the Gaussian(R) 94 system (copyright 1995, Gaussian, Inc.),
 the Gaussian 92(TM) system (copyright 1992, Gaussian, Inc.),
 the Gaussian 90(TM) system (copyright 1990, Gaussian, Inc.),
 the Gaussian 88(TM) system (copyright 1988, Gaussian, Inc.),
 the Gaussian 86(TM) system (copyright 1986, Carnegie Mellon
 University), and the Gaussian 82(TM) system (copyright 1983,
 Carnegie Mellon University). Gaussian is a federally registered
 trademark of Gaussian, Inc.
  
 This software contains proprietary and confidential information,
 including trade secrets, belonging to Gaussian, Inc.
  
 This software is provided under written license and may be
 used, copied, transmitted, or stored only in accord with that
 written license.
  
 The following legend is applicable only to US Government
 contracts under FAR:
  
                    RESTRICTED RIGHTS LEGEND
  
 Use, reproduction and disclosure by the US Government is
 subject to restrictions as set forth in subparagraphs (a)
 and (c) of the Commercial Computer Software - Restricted
 Rights clause in FAR 52.227-19.
  
 Gaussian, Inc.
 340 Quinnipiac St., Bldg. 40, Wallingford CT 06492
  
  
 ---------------------------------------------------------------
 Warning -- This program may not be used in any manner that
 competes with the business of Gaussian, Inc. or will provide
 assistance to any competitor of Gaussian, Inc.  The licensee
 of this program is prohibited from giving any competitor of
 Gaussian, Inc. access to this program.  By using this program,
 the user acknowledges that Gaussian, Inc. is engaged in the
 business of creating and licensing software in the field of
 computational chemistry and represents and warrants to the
 licensee that it is not a competitor of Gaussian, Inc. and that
 it will not use this program in any manner prohibited above.
 ---------------------------------------------------------------
  

 Cite this work as:
 Gaussian 16, Revision A.03,
 M. J. Frisch, G. W. Trucks, H. B. Schlegel, G. E. Scuseria, 
 M. A. Robb, J. R. Cheeseman, G. Scalmani, V. Barone, 
 G. A. Petersson, H. Nakatsuji, X. Li, M. Caricato, A. V. Marenich, 
 J. Bloino, B. G. Janesko, R. Gomperts, B. Mennucci, H. P. Hratchian, 
 J. V. Ortiz, A. F. Izmaylov, J. L. Sonnenberg, D. Williams-Young, 
 F. Ding, F. Lipparini, F. Egidi, J. Goings, B. Peng, A. Petrone, 
 T. Henderson, D. Ranasinghe, V. G. Zakrzewski, J. Gao, N. Rega, 
 G. Zheng, W. Liang, M. Hada, M. Ehara, K. Toyota, R. Fukuda, 
 J. Hasegawa, M. Ishida, T. Nakajima, Y. Honda, O. Kitao, H. Nakai, 
 T. Vreven, K. Throssell, J. A. Montgomery, Jr., J. E. Peralta, 
 F. Ogliaro, M. J. Bearpark, J. J. Heyd, E. N. Brothers, K. N. Kudin, 
 V. N. Staroverov, T. A. Keith, R. Kobayashi, J. Normand, 
 K. Raghavachari, A. P. Rendell, J. C. Burant, S. S. Iyengar, 
 J. Tomasi, M. Cossi, J. M. Millam, M. Klene, C. Adamo, R. Cammi, 
 J. W. Ochterski, R. L. Martin, K. Morokuma, O. Farkas, 
 J. B. Foresman, and D. J. Fox, Gaussian, Inc., Wallingford CT, 2016.
 
 ******************************************
 Gaussian 16:  ES64L-G16RevA.03 25-Dec-2016
                26-May-2022 
 ******************************************
 %chk=BH-6.0-MP2-G.chk
 -------------------------
 #p RHF/aug-cc-pVQZ MP2=FC
 -------------------------
 1/38=1,172=1/1;
 2/12=2,17=6,18=5,40=1/2;
 3/5=16,6=2,7=10,11=1,25=1,30=1,116=1/1,2,3;
 4//1;
 5/5=2,38=5/2;
 8/10=1/1;
 9/16=-3/6;
 6/7=2,8=2,9=2,10=2/1;
 99/5=1,9=1/99;
 Leave Link    1 at Thu May 26 10:22:01 2022, MaxMem=           0 cpu:               0.0 elap:               0.0
 (Enter /apps/software/g16/l101.exe)
 -----------------------
 BH RMP2 at 6.0 Angstrom
 -----------------------
 Symbolic Z-matrix:
 Charge =  0 Multiplicity = 1
 B                     0.        0.        0. 
 H                     6.        0.        0. 
 
 ITRead=  0  0
 MicOpt= -1 -1
 NAtoms=      2 NQM=        2 NQMF=       0 NMMI=      0 NMMIF=      0
                NMic=       0 NMicF=      0.
                    Isotopes and Nuclear Properties:
 (Nuclear quadrupole moments (NQMom) in fm**2, nuclear magnetic moments (NMagM)
  in nuclear magnetons)

  Atom         1           2
 IAtWgt=          11           1
 AtmWgt=  11.0093053   1.0078250
 NucSpn=           3           1
 AtZEff=  -0.0000000  -0.0000000
 NQMom=    4.0590000   0.0000000
 NMagM=    2.6886370   2.7928460
 AtZNuc=   5.0000000   1.0000000
 Leave Link  101 at Thu May 26 10:22:01 2022, MaxMem=   104857600 cpu:               0.1 elap:               0.1
 (Enter /apps/software/g16/l202.exe)
                          Input orientation:                          
 ---------------------------------------------------------------------
 Center     Atomic      Atomic             Coordinates (Angstroms)
 Number     Number       Type             X           Y           Z
 ---------------------------------------------------------------------
      1          5           0        0.000000    0.000000    0.000000
      2          1           0        6.000000    0.000000    0.000000
 ---------------------------------------------------------------------
 Stoichiometry    BH
 Framework group  C*V[C*(HB)]
 Deg. of freedom     1
 Full point group                 C*V     NOp   4
 Largest Abelian subgroup         C2V     NOp   4
 Largest concise Abelian subgroup C1      NOp   1
                         Standard orientation:                         
 ---------------------------------------------------------------------
 Center     Atomic      Atomic             Coordinates (Angstroms)
 Number     Number       Type             X           Y           Z
 ---------------------------------------------------------------------
      1          5           0        0.000000    0.000000    1.000000
      2          1           0        0.000000    0.000000   -5.000000
 ---------------------------------------------------------------------
 Rotational constants (GHZ):           0.0000000          15.2044394          15.2044394
 Leave Link  202 at Thu May 26 10:22:01 2022, MaxMem=   104857600 cpu:               0.0 elap:               0.0
 (Enter /apps/software/g16/l301.exe)
 Standard basis: Aug-CC-pVQZ (5D, 7F)
 Ernie: Thresh=  0.10000D-02 Tol=  0.10000D-05 Strict=F.
 Ernie:  4 primitive shells out of 54 were deleted.
 There are    68 symmetry adapted cartesian basis functions of A1  symmetry.
 There are    18 symmetry adapted cartesian basis functions of A2  symmetry.
 There are    37 symmetry adapted cartesian basis functions of B1  symmetry.
 There are    37 symmetry adapted cartesian basis functions of B2  symmetry.
 There are    50 symmetry adapted basis functions of A1  symmetry.
 There are    16 symmetry adapted basis functions of A2  symmetry.
 There are    30 symmetry adapted basis functions of B1  symmetry.
 There are    30 symmetry adapted basis functions of B2  symmetry.
   126 basis functions,   180 primitive gaussians,   160 cartesian basis functions
     3 alpha electrons        3 beta electrons
       nuclear repulsion energy         0.4409810091 Hartrees.
 IExCor=    0 DFT=F Ex=HF Corr=None ExCW=0 ScaHFX=  1.000000
 ScaDFX=  1.000000  1.000000  1.000000  1.000000 ScalE2=  1.000000  1.000000
 IRadAn=      5 IRanWt=     -1 IRanGd=            0 ICorTp=0 IEmpDi=  4
 NAtoms=    2 NActive=    2 NUniq=    2 SFac= 1.00D+00 NAtFMM=   60 NAOKFM=F Big=F
 Integral buffers will be    131072 words long.
 Raffenetti 1 integral format.
 Two-electron integral symmetry is turned on.
 Leave Link  301 at Thu May 26 10:22:01 2022, MaxMem=   104857600 cpu:               0.1 elap:               0.1
 (Enter /apps/software/g16/l302.exe)
 NPDir=0 NMtPBC=     1 NCelOv=     1 NCel=       1 NClECP=     1 NCelD=      1
         NCelK=      1 NCelE2=     1 NClLst=     1 CellRange=     0.0.
 One-electron integrals computed using PRISM.
 One-electron integral symmetry used in STVInt
 NBasis=   126 RedAO= T EigKep=  1.28D-02  NBF=    50    16    30    30
 NBsUse=   126 1.00D-06 EigRej= -1.00D+00 NBFU=    50    16    30    30
 Leave Link  302 at Thu May 26 10:22:01 2022, MaxMem=   104857600 cpu:               0.1 elap:               0.1
 (Enter /apps/software/g16/l303.exe)
 DipDrv:  MaxL=1.
 Leave Link  303 at Thu May 26 10:22:01 2022, MaxMem=   104857600 cpu:               0.0 elap:               0.0
 (Enter /apps/software/g16/l401.exe)
 ExpMin= 1.88D-02 ExpMax= 2.39D+04 ExpMxC= 2.30D+02 IAcc=3 IRadAn=         5 AccDes= 0.00D+00
 Harris functional with IExCor=  205 and IRadAn=       5 diagonalized for initial guess.
 HarFok:  IExCor=  205 AccDes= 0.00D+00 IRadAn=         5 IDoV= 1 UseB2=F ITyADJ=14
 ICtDFT=  3500011 ScaDFX=  1.000000  1.000000  1.000000  1.000000
 FoFCou: FMM=F IPFlag=           0 FMFlag=      100000 FMFlg1=           0
         NFxFlg=           0 DoJE=T BraDBF=F KetDBF=T FulRan=T
         wScrn=  0.000000 ICntrl=       500 IOpCl=  0 I1Cent=   200000004 NGrid=           0
         NMat0=    1 NMatS0=      1 NMatT0=    0 NMatD0=    1 NMtDS0=    0 NMtDT0=    0
 Petite list used in FoFCou.
 Harris En= -24.9880675387051    
 JPrj=0 DoOrth=F DoCkMO=F.
 Initial guess orbital symmetries:
       Occupied  (SG) (SG) (SG)
       Virtual   (SG) (PI) (PI) (SG) (SG) (PI) (PI) (SG) (SG) (PI)
                 (PI) (DLTA) (DLTA) (PI) (PI) (SG) (PI) (PI) (SG)
                 (SG) (SG) (PI) (PI) (DLTA) (DLTA) (SG) (?A) (?A)
                 (DLTA) (DLTA) (?A) (?A) (SG) (DLTA) (DLTA) (PI)
                 (PI) (SG) (PI) (PI) (SG) (PI) (PI) (SG) (SG) (DLTA)
                 (DLTA) (PI) (PI) (SG) (?B) (DLTA) (?A) (?A) (?A)
                 (?A) (DLTA) (?B) (?B) (DLTA) (?A) (?A) (DLTA)
                 (?A) (?A) (SG) (SG) (PHI) (PHI) (DLTA) (DLTA)
                 (PI) (PI) (SG) (DLTA) (DLTA) (PI) (PI) (SG) (PI)
                 (PI) (SG) (PI) (PI) (SG) (DLTA) (DLTA) (PI) (PI)
                 (SG) (DLTA) (?C) (?A) (?A) (DLTA) (?C) (?A) (?A)
                 (?C) (DLTA) (PHI) (PHI) (DLTA) (PI) (PI) (SG)
                 (PHI) (PHI) (DLTA) (DLTA) (PI) (PI) (SG) (SG)
                 (PI) (PI) (SG) (DLTA) (DLTA) (PI) (PI) (SG) (SG)
 The electronic state of the initial guess is 1-SG.
 Leave Link  401 at Thu May 26 10:22:02 2022, MaxMem=   104857600 cpu:               0.2 elap:               0.2
 (Enter /apps/software/g16/l502.exe)
 Keep R1 ints in memory in symmetry-blocked form, NReq=40143665.
 FoFCou: FMM=F IPFlag=           0 FMFlag=           0 FMFlg1=           0
         NFxFlg=           0 DoJE=F BraDBF=F KetDBF=F FulRan=T
         wScrn=  0.000000 ICntrl=       600 IOpCl=  0 I1Cent=           0 NGrid=           0
         NMat0=    1 NMatS0=   8001 NMatT0=    0 NMatD0=    1 NMtDS0=    0 NMtDT0=    0
 Petite list used in FoFCou.
 Closed shell SCF:
 Using DIIS extrapolation, IDIIS=  1040.
 NGot=   104857600 LenX=    96673173 LenY=    96647132
 Requested convergence on RMS density matrix=1.00D-08 within 128 cycles.
 Requested convergence on MAX density matrix=1.00D-06.
 Requested convergence on             energy=1.00D-06.
 No special actions if energy rises.

 Cycle   1  Pass 1  IDiag  1:
 E= -24.7276311424831    
 DIIS: error= 5.28D-02 at cycle   1 NSaved=   1.
 NSaved= 1 IEnMin= 1 EnMin= -24.7276311424831     IErMin= 1 ErrMin= 5.28D-02
 ErrMax= 5.28D-02  0.00D+00 EMaxC= 1.00D-01 BMatC= 6.02D-02 BMatP= 6.02D-02
 IDIUse=3 WtCom= 4.72D-01 WtEn= 5.28D-01
 Coeff-Com:  0.100D+01
 Coeff-En:   0.100D+01
 Coeff:      0.100D+01
 Gap=     0.000 Goal=   None    Shift=    0.000
 GapD=    0.000 DampG=0.250 DampE=0.500 DampFc=0.2500 IDamp=-1.
 Damping current iteration by 2.50D-01
 RMSDP=4.85D-03 MaxDP=2.23D-01              OVMax= 1.03D-01

 Cycle   2  Pass 1  IDiag  1:
 E= -24.7904399482076     Delta-E=       -0.062808805725 Rises=F Damp=T
 DIIS: error= 3.18D-02 at cycle   2 NSaved=   2.
 NSaved= 2 IEnMin= 2 EnMin= -24.7904399482076     IErMin= 2 ErrMin= 3.18D-02
 ErrMax= 3.18D-02  0.00D+00 EMaxC= 1.00D-01 BMatC= 2.33D-02 BMatP= 6.02D-02
 IDIUse=3 WtCom= 6.82D-01 WtEn= 3.18D-01
 Coeff-Com: -0.117D+01 0.217D+01
 Coeff-En:   0.000D+00 0.100D+01
 Coeff:     -0.800D+00 0.180D+01
 Gap=     0.151 Goal=   None    Shift=    0.000
 RMSDP=1.33D-03 MaxDP=8.64D-02 DE=-6.28D-02 OVMax= 1.69D-01

 Cycle   3  Pass 1  IDiag  1:
 E= -24.7735147116852     Delta-E=        0.016925236522 Rises=F Damp=F
 DIIS: error= 2.05D-02 at cycle   3 NSaved=   3.
 NSaved= 3 IEnMin= 2 EnMin= -24.7904399482076     IErMin= 3 ErrMin= 2.05D-02
 ErrMax= 2.05D-02  0.00D+00 EMaxC= 1.00D-01 BMatC= 1.18D-02 BMatP= 2.33D-02
 IDIUse=3 WtCom= 7.95D-01 WtEn= 2.05D-01
 Coeff-Com: -0.102D+01 0.133D+01 0.691D+00
 Coeff-En:   0.000D+00 0.822D+00 0.178D+00
 Coeff:     -0.810D+00 0.123D+01 0.585D+00
 Gap=     0.033 Goal=   None    Shift=    0.000
 RMSDP=6.35D-04 MaxDP=2.69D-02 DE= 1.69D-02 OVMax= 6.16D-02

 Cycle   4  Pass 1  IDiag  1:
 E= -24.7940551690409     Delta-E=       -0.020540457356 Rises=F Damp=F
 DIIS: error= 1.45D-02 at cycle   4 NSaved=   4.
 NSaved= 4 IEnMin= 4 EnMin= -24.7940551690409     IErMin= 4 ErrMin= 1.45D-02
 ErrMax= 1.45D-02  0.00D+00 EMaxC= 1.00D-01 BMatC= 5.62D-03 BMatP= 1.18D-02
 IDIUse=3 WtCom= 8.55D-01 WtEn= 1.45D-01
 Coeff-Com: -0.780D+00 0.104D+01 0.182D-01 0.722D+00
 Coeff-En:   0.000D+00 0.339D+00 0.000D+00 0.661D+00
 Coeff:     -0.667D+00 0.938D+00 0.155D-01 0.713D+00
 Gap=     0.012 Goal=   None    Shift=    0.000
 RMSDP=4.06D-04 MaxDP=1.56D-02 DE=-2.05D-02 OVMax= 4.44D-02

 Cycle   5  Pass 1  IDiag  1:
 E= -24.8035385369026     Delta-E=       -0.009483367862 Rises=F Damp=F
 DIIS: error= 1.08D-02 at cycle   5 NSaved=   5.
 NSaved= 5 IEnMin= 5 EnMin= -24.8035385369026     IErMin= 5 ErrMin= 1.08D-02
 ErrMax= 1.08D-02  0.00D+00 EMaxC= 1.00D-01 BMatC= 3.23D-03 BMatP= 5.62D-03
 IDIUse=3 WtCom= 8.92D-01 WtEn= 1.08D-01
 Coeff-Com: -0.718D+00 0.935D+00 0.792D+00-0.173D+01 0.172D+01
 Coeff-En:   0.000D+00 0.000D+00 0.000D+00 0.000D+00 0.100D+01
 Coeff:     -0.641D+00 0.835D+00 0.707D+00-0.154D+01 0.164D+01
 Gap=     0.010 Goal=   None    Shift=    0.000
 RMSDP=2.58D-04 MaxDP=9.22D-03 DE=-9.48D-03 OVMax= 4.45D-02

 Cycle   6  Pass 1  IDiag  1:
 E= -24.8084769445016     Delta-E=       -0.004938407599 Rises=F Damp=F
 DIIS: error= 1.01D-02 at cycle   6 NSaved=   6.
 NSaved= 6 IEnMin= 6 EnMin= -24.8084769445016     IErMin= 6 ErrMin= 1.01D-02
 ErrMax= 1.01D-02  0.00D+00 EMaxC= 1.00D-01 BMatC= 2.60D-03 BMatP= 3.23D-03
 IDIUse=3 WtCom= 8.99D-01 WtEn= 1.01D-01
 Large coefficients: NSaved=  6 BigCof=   11.53 CofMax=   10.00 Det=-1.00D-06
 Inversion failed.  Reducing to  5 matrices.
 Large coefficients: NSaved=  5 BigCof=   17.09 CofMax=   10.00 Det=-1.46D-06
 Inversion failed.  Reducing to  4 matrices.
 Coeff-Com:  0.419D-01-0.378D+01 0.719D+01-0.245D+01
 Coeff-En:   0.000D+00 0.000D+00 0.000D+00 0.100D+01
 Coeff:      0.377D-01-0.340D+01 0.646D+01-0.210D+01
 Gap=     0.008 Goal=   None    Shift=    0.000
 RMSDP=4.49D-03 MaxDP=2.14D-01 DE=-4.94D-03 OVMax= 5.32D-02

 Cycle   7  Pass 1  IDiag  1:
 E= -24.4497989617034     Delta-E=        0.358677982798 Rises=F Damp=F
 DIIS: error= 4.99D-02 at cycle   7 NSaved=   5.
 NSaved= 5 IEnMin= 4 EnMin= -24.8084769445016     IErMin= 4 ErrMin= 1.01D-02
 ErrMax= 4.99D-02  0.00D+00 EMaxC= 1.00D-01 BMatC= 3.75D-02 BMatP= 2.60D-03
 IDIUse=2 WtCom= 0.00D+00 WtEn= 1.00D+00
 Coeff-En:   0.000D+00 0.000D+00 0.000D+00 0.834D+00 0.166D+00
 Coeff:      0.000D+00 0.000D+00 0.000D+00 0.834D+00 0.166D+00
 Gap=     0.052 Goal=   None    Shift=    0.000
 RMSDP=6.34D-04 MaxDP=2.54D-02 DE= 3.59D-01 OVMax= 4.92D-02

 Cycle   8  Pass 1  IDiag  1:
 E= -24.4837742608674     Delta-E=       -0.033975299164 Rises=F Damp=F
 DIIS: error= 4.15D-02 at cycle   8 NSaved=   6.
 NSaved= 6 IEnMin= 4 EnMin= -24.8084769445016     IErMin= 4 ErrMin= 1.01D-02
 ErrMax= 4.15D-02  0.00D+00 EMaxC= 1.00D-01 BMatC= 2.45D-02 BMatP= 2.60D-03
 IDIUse=2 WtCom= 0.00D+00 WtEn= 1.00D+00
 Coeff-En:   0.000D+00 0.000D+00 0.000D+00 0.824D+00 0.000D+00 0.176D+00
 Coeff:      0.000D+00 0.000D+00 0.000D+00 0.824D+00 0.000D+00 0.176D+00
 Gap=     0.000 Goal=   None    Shift=    0.000
 RMSDP=4.39D-03 MaxDP=2.01D-01 DE=-3.40D-02 OVMax= 1.15D-02

 Cycle   9  Pass 1  IDiag  1:
 E= -24.8169133624879     Delta-E=       -0.333139101620 Rises=F Damp=F
 DIIS: error= 1.34D-02 at cycle   9 NSaved=   7.
 NSaved= 7 IEnMin= 7 EnMin= -24.8169133624879     IErMin= 4 ErrMin= 1.01D-02
 ErrMax= 1.34D-02  0.00D+00 EMaxC= 1.00D-01 BMatC= 1.88D-03 BMatP= 2.60D-03
 IDIUse=3 WtCom= 8.99D-01 WtEn= 1.01D-01
 Coeff-Com:  0.291D-01-0.317D+01 0.618D+01-0.210D+01-0.144D+00 0.236D+00
 Coeff-Com: -0.389D-01
 Coeff-En:   0.000D+00 0.000D+00 0.000D+00 0.000D+00 0.000D+00 0.138D+00
 Coeff-En:   0.862D+00
 Coeff:      0.261D-01-0.285D+01 0.556D+01-0.189D+01-0.130D+00 0.226D+00
 Coeff:      0.516D-01
 Gap=     0.020 Goal=   None    Shift=    0.000
 RMSDP=4.40D-03 MaxDP=2.01D-01 DE=-3.33D-01 OVMax= 1.80D-02

 Cycle  10  Pass 1  IDiag  1:
 E= -24.4711792974673     Delta-E=        0.345734065021 Rises=F Damp=F
 DIIS: error= 4.45D-02 at cycle  10 NSaved=   8.
 NSaved= 8 IEnMin= 7 EnMin= -24.8169133624879     IErMin= 4 ErrMin= 1.01D-02
 ErrMax= 4.45D-02  0.00D+00 EMaxC= 1.00D-01 BMatC= 2.96D-02 BMatP= 1.88D-03
 IDIUse=2 WtCom= 0.00D+00 WtEn= 1.00D+00
 Rare condition: small coef for last iteration:  0.000D+00
 Coeff-En:   0.000D+00 0.000D+00 0.000D+00 0.000D+00 0.000D+00 0.436D-03
 Coeff-En:   0.864D+00 0.136D+00
 Coeff:      0.000D+00 0.000D+00 0.000D+00 0.000D+00 0.000D+00 0.436D-03
 Coeff:      0.864D+00 0.136D+00
 Gap=     0.001 Goal=   None    Shift=    0.000
 RMSDP=4.38D-03 MaxDP=2.00D-01 DE= 3.46D-01 OVMax= 6.16D-02

 Cycle  11  Pass 1  IDiag  1:
 E= -24.8401976540505     Delta-E=       -0.369018356583 Rises=F Damp=F
 DIIS: error= 1.51D-02 at cycle  11 NSaved=   9.
 NSaved= 9 IEnMin= 9 EnMin= -24.8401976540505     IErMin= 4 ErrMin= 1.01D-02
 ErrMax= 1.51D-02  0.00D+00 EMaxC= 1.00D-01 BMatC= 1.23D-03 BMatP= 1.88D-03
 IDIUse=3 WtCom= 8.99D-01 WtEn= 1.01D-01
 Coeff-Com: -0.181D-01-0.182D+01 0.794D+00 0.707D+01-0.130D+01-0.286D+01
 Coeff-Com: -0.762D+01 0.415D+01 0.261D+01
 Coeff-En:   0.000D+00 0.000D+00 0.000D+00 0.000D+00 0.000D+00 0.000D+00
 Coeff-En:   0.000D+00 0.000D+00 0.100D+01
 Coeff:     -0.162D-01-0.164D+01 0.715D+00 0.636D+01-0.117D+01-0.257D+01
 Coeff:     -0.685D+01 0.373D+01 0.245D+01
 Gap=     0.014 Goal=   None    Shift=    0.000
 RMSDP=2.69D-03 MaxDP=1.20D-01 DE=-3.69D-01 OVMax= 6.11D-01

 Cycle  12  Pass 1  IDiag  1:
 E= -24.7275060134969     Delta-E=        0.112691640554 Rises=F Damp=F
 DIIS: error= 6.42D-02 at cycle  12 NSaved=  10.
 NSaved=10 IEnMin= 9 EnMin= -24.8401976540505     IErMin= 4 ErrMin= 1.01D-02
 ErrMax= 6.42D-02  0.00D+00 EMaxC= 1.00D-01 BMatC= 3.04D-02 BMatP= 1.23D-03
 IDIUse=2 WtCom= 0.00D+00 WtEn= 1.00D+00
 Coeff-En:   0.000D+00 0.000D+00 0.000D+00 0.000D+00 0.000D+00 0.000D+00
 Coeff-En:   0.000D+00 0.000D+00 0.840D+00 0.160D+00
 Coeff:      0.000D+00 0.000D+00 0.000D+00 0.000D+00 0.000D+00 0.000D+00
 Coeff:      0.000D+00 0.000D+00 0.840D+00 0.160D+00
 Gap=     0.053 Goal=   None    Shift=    0.000
 RMSDP=1.43D-03 MaxDP=6.68D-02 DE= 1.13D-01 OVMax= 3.20D-01

 Cycle  13  Pass 1  IDiag  1:
 E= -24.8500895096545     Delta-E=       -0.122583496158 Rises=F Damp=F
 DIIS: error= 1.73D-02 at cycle  13 NSaved=  11.
 NSaved=11 IEnMin=11 EnMin= -24.8500895096545     IErMin= 4 ErrMin= 1.01D-02
 ErrMax= 1.73D-02  0.00D+00 EMaxC= 1.00D-01 BMatC= 2.43D-03 BMatP= 1.23D-03
 IDIUse=2 WtCom= 0.00D+00 WtEn= 1.00D+00
 Coeff-En:   0.000D+00 0.000D+00 0.000D+00 0.000D+00 0.000D+00 0.000D+00
 Coeff-En:   0.000D+00 0.000D+00 0.314D+00 0.000D+00 0.686D+00
 Coeff:      0.000D+00 0.000D+00 0.000D+00 0.000D+00 0.000D+00 0.000D+00
 Coeff:      0.000D+00 0.000D+00 0.314D+00 0.000D+00 0.686D+00
 Gap=     0.094 Goal=   None    Shift=    0.000
 RMSDP=8.20D-04 MaxDP=3.14D-02 DE=-1.23D-01 OVMax= 1.76D-01

 Cycle  14  Pass 1  IDiag  1:
 E= -24.8556112213884     Delta-E=       -0.005521711734 Rises=F Damp=F
 DIIS: error= 9.19D-03 at cycle  14 NSaved=  12.
 NSaved=12 IEnMin=12 EnMin= -24.8556112213884     IErMin=12 ErrMin= 9.19D-03
 ErrMax= 9.19D-03  0.00D+00 EMaxC= 1.00D-01 BMatC= 5.11D-04 BMatP= 1.23D-03
 IDIUse=3 WtCom= 9.08D-01 WtEn= 9.19D-02
 Coeff-Com: -0.686D-02-0.429D+00 0.213D+01-0.176D+01 0.539D-01 0.443D-01
 Coeff-Com: -0.284D+00-0.103D+00 0.141D+00 0.108D-01 0.151D+00 0.105D+01
 Coeff-En:   0.000D+00 0.000D+00 0.000D+00 0.000D+00 0.000D+00 0.000D+00
 Coeff-En:   0.000D+00 0.000D+00 0.000D+00 0.000D+00 0.306D+00 0.694D+00
 Coeff:     -0.623D-02-0.389D+00 0.194D+01-0.160D+01 0.490D-01 0.402D-01
 Coeff:     -0.258D+00-0.933D-01 0.128D+00 0.978D-02 0.165D+00 0.102D+01
 Gap=     0.091 Goal=   None    Shift=    0.000
 RMSDP=4.32D-04 MaxDP=1.51D-02 DE=-5.52D-03 OVMax= 9.58D-02

 Cycle  15  Pass 1  IDiag  1:
 E= -24.8585112617695     Delta-E=       -0.002900040381 Rises=F Damp=F
 DIIS: error= 2.22D-03 at cycle  15 NSaved=  13.
 NSaved=13 IEnMin=13 EnMin= -24.8585112617695     IErMin=13 ErrMin= 2.22D-03
 ErrMax= 2.22D-03  0.00D+00 EMaxC= 1.00D-01 BMatC= 3.63D-05 BMatP= 5.11D-04
 IDIUse=3 WtCom= 9.78D-01 WtEn= 2.22D-02
 Coeff-Com: -0.494D-03 0.219D+00-0.396D+00 0.888D-01-0.593D-02-0.109D-01
 Coeff-Com:  0.202D-01 0.170D-01 0.570D-01 0.179D-02-0.142D+00-0.315D-01
 Coeff-Com:  0.118D+01
 Coeff-En:   0.000D+00 0.000D+00 0.000D+00 0.000D+00 0.000D+00 0.000D+00
 Coeff-En:   0.000D+00 0.000D+00 0.000D+00 0.000D+00 0.000D+00 0.000D+00
 Coeff-En:   0.100D+01
 Coeff:     -0.483D-03 0.215D+00-0.387D+00 0.869D-01-0.580D-02-0.107D-01
 Coeff:      0.198D-01 0.166D-01 0.557D-01 0.175D-02-0.139D+00-0.308D-01
 Coeff:      0.118D+01
 Gap=     0.102 Goal=   None    Shift=    0.000
 RMSDP=1.64D-04 MaxDP=5.60D-03 DE=-2.90D-03 OVMax= 3.13D-02

 Cycle  16  Pass 1  IDiag  1:
 E= -24.8584598082286     Delta-E=        0.000051453541 Rises=F Damp=F
 DIIS: error= 2.60D-03 at cycle  16 NSaved=  14.
 NSaved=14 IEnMin=13 EnMin= -24.8585112617695     IErMin=13 ErrMin= 2.22D-03
 ErrMax= 2.60D-03  0.00D+00 EMaxC= 1.00D-01 BMatC= 6.04D-05 BMatP= 3.63D-05
 IDIUse=3 WtCom= 9.78D-01 WtEn= 2.22D-02
 Coeff-Com:  0.545D-03 0.409D-01-0.140D+00 0.420D-01 0.326D-02 0.328D-01
 Coeff-Com:  0.744D-01-0.338D-01-0.555D-02-0.136D-01 0.193D+00-0.145D+00
 Coeff-Com: -0.160D+00 0.111D+01
 Coeff-En:   0.000D+00 0.000D+00 0.000D+00 0.000D+00 0.000D+00 0.000D+00
 Coeff-En:   0.000D+00 0.000D+00 0.000D+00 0.000D+00 0.000D+00 0.000D+00
 Coeff-En:   0.555D+00 0.445D+00
 Coeff:      0.533D-03 0.400D-01-0.136D+00 0.411D-01 0.319D-02 0.321D-01
 Coeff:      0.727D-01-0.331D-01-0.542D-02-0.133D-01 0.189D+00-0.142D+00
 Coeff:     -0.144D+00 0.110D+01
 Gap=     0.097 Goal=   None    Shift=    0.000
 RMSDP=6.43D-05 MaxDP=1.96D-03 DE= 5.15D-05 OVMax= 8.37D-03

 Cycle  17  Pass 1  IDiag  1:
 E= -24.8586292379518     Delta-E=       -0.000169429723 Rises=F Damp=F
 DIIS: error= 1.24D-03 at cycle  17 NSaved=  15.
 NSaved=15 IEnMin=15 EnMin= -24.8586292379518     IErMin=15 ErrMin= 1.24D-03
 ErrMax= 1.24D-03  0.00D+00 EMaxC= 1.00D-01 BMatC= 1.13D-05 BMatP= 3.63D-05
 IDIUse=3 WtCom= 9.88D-01 WtEn= 1.24D-02
 Coeff-Com:  0.215D-04-0.501D-03 0.845D-02 0.131D-01-0.613D-03 0.667D-03
 Coeff-Com: -0.295D-01 0.125D-03-0.127D-01 0.552D-02-0.770D-01 0.112D-01
 Coeff-Com:  0.255D+00-0.841D+00 0.167D+01
 Coeff-En:   0.000D+00 0.000D+00 0.000D+00 0.000D+00 0.000D+00 0.000D+00
 Coeff-En:   0.000D+00 0.000D+00 0.000D+00 0.000D+00 0.000D+00 0.000D+00
 Coeff-En:   0.255D+00 0.000D+00 0.745D+00
 Coeff:      0.212D-04-0.495D-03 0.835D-02 0.129D-01-0.605D-03 0.659D-03
 Coeff:     -0.291D-01 0.124D-03-0.125D-01 0.545D-02-0.761D-01 0.111D-01
 Coeff:      0.255D+00-0.830D+00 0.166D+01
 Gap=     0.096 Goal=   None    Shift=    0.000
 RMSDP=2.83D-05 MaxDP=9.96D-04 DE=-1.69D-04 OVMax= 5.94D-03

 Cycle  18  Pass 1  IDiag  1:
 E= -24.8586717694037     Delta-E=       -0.000042531452 Rises=F Damp=F
 DIIS: error= 3.48D-04 at cycle  18 NSaved=  16.
 NSaved=16 IEnMin=16 EnMin= -24.8586717694037     IErMin=16 ErrMin= 3.48D-04
 ErrMax= 3.48D-04  0.00D+00 EMaxC= 1.00D-01 BMatC= 9.41D-07 BMatP= 1.13D-05
 IDIUse=3 WtCom= 9.97D-01 WtEn= 3.48D-03
 Coeff-Com: -0.385D-04-0.333D-04-0.472D-03 0.625D-02-0.205D-02-0.435D-02
 Coeff-Com: -0.813D-02 0.639D-02 0.550D-03 0.522D-03-0.340D-02 0.908D-03
 Coeff-Com:  0.927D-02-0.993D-01-0.106D+00 0.120D+01
 Coeff-En:   0.000D+00 0.000D+00 0.000D+00 0.000D+00 0.000D+00 0.000D+00
 Coeff-En:   0.000D+00 0.000D+00 0.000D+00 0.000D+00 0.000D+00 0.000D+00
 Coeff-En:   0.000D+00 0.000D+00 0.000D+00 0.100D+01
 Coeff:     -0.384D-04-0.332D-04-0.470D-03 0.622D-02-0.204D-02-0.434D-02
 Coeff:     -0.810D-02 0.637D-02 0.548D-03 0.521D-03-0.339D-02 0.905D-03
 Coeff:      0.924D-02-0.989D-01-0.105D+00 0.120D+01
 Gap=     0.096 Goal=   None    Shift=    0.000
 RMSDP=1.10D-05 MaxDP=4.35D-04 DE=-4.25D-05 OVMax= 2.15D-03

 Cycle  19  Pass 1  IDiag  1:
 E= -24.8586754305145     Delta-E=       -0.000003661111 Rises=F Damp=F
 DIIS: error= 1.49D-05 at cycle  19 NSaved=  17.
 NSaved=17 IEnMin=17 EnMin= -24.8586754305145     IErMin=17 ErrMin= 1.49D-05
 ErrMax= 1.49D-05  0.00D+00 EMaxC= 1.00D-01 BMatC= 2.10D-09 BMatP= 9.41D-07
 IDIUse=1 WtCom= 1.00D+00 WtEn= 0.00D+00
 Coeff-Com: -0.172D-05 0.331D-03-0.496D-03 0.140D-03 0.779D-04-0.132D-04
 Coeff-Com: -0.493D-03-0.788D-04 0.121D-02-0.145D-03 0.124D-02-0.224D-03
 Coeff-Com: -0.284D-02 0.236D-01 0.830D-02-0.269D+00 0.124D+01
 Coeff:     -0.172D-05 0.331D-03-0.496D-03 0.140D-03 0.779D-04-0.132D-04
 Coeff:     -0.493D-03-0.788D-04 0.121D-02-0.145D-03 0.124D-02-0.224D-03
 Coeff:     -0.284D-02 0.236D-01 0.830D-02-0.269D+00 0.124D+01
 Gap=     0.096 Goal=   None    Shift=    0.000
 RMSDP=7.84D-07 MaxDP=3.94D-05 DE=-3.66D-06 OVMax= 1.35D-04

 Cycle  20  Pass 1  IDiag  1:
 E= -24.8586754368758     Delta-E=       -0.000000006361 Rises=F Damp=F
 DIIS: error= 6.10D-06 at cycle  20 NSaved=  18.
 NSaved=18 IEnMin=18 EnMin= -24.8586754368758     IErMin=18 ErrMin= 6.10D-06
 ErrMax= 6.10D-06  0.00D+00 EMaxC= 1.00D-01 BMatC= 2.24D-10 BMatP= 2.10D-09
 IDIUse=1 WtCom= 1.00D+00 WtEn= 0.00D+00
 Coeff-Com: -0.662D-06 0.921D-04-0.131D-03-0.300D-03 0.829D-04 0.128D-03
 Coeff-Com:  0.455D-03-0.214D-03-0.102D-04-0.144D-04 0.119D-03 0.224D-03
 Coeff-Com: -0.118D-02 0.174D-02-0.576D-02 0.187D-01-0.194D+00 0.118D+01
 Coeff:     -0.662D-06 0.921D-04-0.131D-03-0.300D-03 0.829D-04 0.128D-03
 Coeff:      0.455D-03-0.214D-03-0.102D-04-0.144D-04 0.119D-03 0.224D-03
 Coeff:     -0.118D-02 0.174D-02-0.576D-02 0.187D-01-0.194D+00 0.118D+01
 Gap=     0.096 Goal=   None    Shift=    0.000
 RMSDP=1.65D-07 MaxDP=5.64D-06 DE=-6.36D-09 OVMax= 3.28D-05

 Cycle  21  Pass 1  IDiag  1:
 E= -24.8586754378895     Delta-E=       -0.000000001014 Rises=F Damp=F
 DIIS: error= 2.37D-06 at cycle  21 NSaved=  19.
 NSaved=19 IEnMin=19 EnMin= -24.8586754378895     IErMin=19 ErrMin= 2.37D-06
 ErrMax= 2.37D-06  0.00D+00 EMaxC= 1.00D-01 BMatC= 3.97D-11 BMatP= 2.24D-10
 IDIUse=1 WtCom= 1.00D+00 WtEn= 0.00D+00
 Coeff-Com:  0.338D-06-0.193D-04 0.287D-04 0.241D-05 0.911D-06 0.225D-05
 Coeff-Com: -0.210D-04-0.316D-05 0.429D-04-0.227D-05 0.453D-04-0.400D-04
 Coeff-Com: -0.177D-04 0.129D-02-0.114D-03-0.745D-02 0.580D-01-0.337D+00
 Coeff-Com:  0.129D+01
 Coeff:      0.338D-06-0.193D-04 0.287D-04 0.241D-05 0.911D-06 0.225D-05
 Coeff:     -0.210D-04-0.316D-05 0.429D-04-0.227D-05 0.453D-04-0.400D-04
 Coeff:     -0.177D-04 0.129D-02-0.114D-03-0.745D-02 0.580D-01-0.337D+00
 Coeff:      0.129D+01
 Gap=     0.096 Goal=   None    Shift=    0.000
 RMSDP=6.56D-08 MaxDP=2.72D-06 DE=-1.01D-09 OVMax= 1.43D-05

 Cycle  22  Pass 1  IDiag  1:
 E= -24.8586754380541     Delta-E=       -0.000000000165 Rises=F Damp=F
 DIIS: error= 2.83D-07 at cycle  22 NSaved=  20.
 NSaved=20 IEnMin=20 EnMin= -24.8586754380541     IErMin=20 ErrMin= 2.83D-07
 ErrMax= 2.83D-07  0.00D+00 EMaxC= 1.00D-01 BMatC= 7.24D-13 BMatP= 3.97D-11
 IDIUse=1 WtCom= 1.00D+00 WtEn= 0.00D+00
 Large coefficients: NSaved= 20 BigCof=    0.00 CofMax=   10.00 Det=-2.65D-15
 Inversion failed.  Reducing to 19 matrices.
 Large coefficients: NSaved= 19 BigCof=    0.00 CofMax=   10.00 Det=-2.67D-15
 Inversion failed.  Reducing to 18 matrices.
 Large coefficients: NSaved= 18 BigCof=    0.00 CofMax=   10.00 Det=-2.67D-15
 Inversion failed.  Reducing to 17 matrices.
 Large coefficients: NSaved= 17 BigCof=    0.00 CofMax=   10.00 Det=-2.67D-15
 Inversion failed.  Reducing to 16 matrices.
 Large coefficients: NSaved= 16 BigCof=    0.00 CofMax=   10.00 Det=-2.85D-15
 Inversion failed.  Reducing to 15 matrices.
 Coeff-Com: -0.127D-05-0.117D-06 0.500D-05-0.288D-05-0.179D-05-0.208D-05
 Coeff-Com:  0.596D-06-0.381D-04 0.114D-04-0.202D-03 0.908D-03-0.629D-02
 Coeff-Com:  0.436D-01-0.209D+00 0.117D+01
 Coeff:     -0.127D-05-0.117D-06 0.500D-05-0.288D-05-0.179D-05-0.208D-05
 Coeff:      0.596D-06-0.381D-04 0.114D-04-0.202D-03 0.908D-03-0.629D-02
 Coeff:      0.436D-01-0.209D+00 0.117D+01
 Gap=     0.096 Goal=   None    Shift=    0.000
 RMSDP=1.00D-08 MaxDP=3.79D-07 DE=-1.65D-10 OVMax= 1.57D-06

 Cycle  23  Pass 1  IDiag  1:
 E= -24.8586754380566     Delta-E=       -0.000000000003 Rises=F Damp=F
 DIIS: error= 2.62D-08 at cycle  23 NSaved=  16.
 NSaved=16 IEnMin=16 EnMin= -24.8586754380566     IErMin=16 ErrMin= 2.62D-08
 ErrMax= 2.62D-08  0.00D+00 EMaxC= 1.00D-01 BMatC= 5.78D-15 BMatP= 7.24D-13
 IDIUse=1 WtCom= 1.00D+00 WtEn= 0.00D+00
 Large coefficients: NSaved= 16 BigCof=    0.00 CofMax=   10.00 Det=-1.56D-16
 Inversion failed.  Reducing to 15 matrices.
 Coeff-Com:  0.881D-06-0.207D-05 0.156D-05-0.645D-06 0.547D-06 0.785D-06
 Coeff-Com:  0.194D-05-0.129D-04 0.259D-04 0.183D-05 0.391D-03-0.512D-02
 Coeff-Com:  0.294D-01-0.267D+00 0.124D+01
 Coeff:      0.881D-06-0.207D-05 0.156D-05-0.645D-06 0.547D-06 0.785D-06
 Coeff:      0.194D-05-0.129D-04 0.259D-04 0.183D-05 0.391D-03-0.512D-02
 Coeff:      0.294D-01-0.267D+00 0.124D+01
 Gap=     0.096 Goal=   None    Shift=    0.000
 RMSDP=9.47D-10 MaxDP=3.33D-08 DE=-2.52D-12 OVMax= 1.66D-07

 SCF Done:  E(RHF) =  -24.8586754381     A.U. after   23 cycles
            NFock= 23  Conv=0.95D-09     -V/T= 2.0029
 KE= 2.478568981252D+01 PE=-5.791618001661D+01 EE= 7.830833756943D+00
 Leave Link  502 at Thu May 26 10:22:05 2022, MaxMem=   104857600 cpu:               3.3 elap:               3.3
 (Enter /apps/software/g16/l801.exe)
 ExpMin= 1.88D-02 ExpMax= 2.39D+04 ExpMxC= 2.30D+02 IAcc=3 IRadAn=         5 AccDes= 0.00D+00
 HarFok:  IExCor=  205 AccDes= 0.00D+00 IRadAn=         5 IDoV=-2 UseB2=F ITyADJ=14
 ICtDFT= 12500011 ScaDFX=  1.000000  1.000000  1.000000  1.000000
 DSYEVD-2 returned Info=        3401 IAlg= 4 N=    80 NDim=    80 NE2=     1309686 trying  DSYEV.
 Largest valence mixing into a core orbital is  3.99D-04
 Largest core mixing into a valence orbital is  1.71D-04
 Range of M.O.s used for correlation:     2   126
 NBasis=   126 NAE=     3 NBE=     3 NFC=     1 NFV=     0
 NROrb=    125 NOA=     2 NOB=     2 NVA=   123 NVB=   123

 **** Warning!!: The smallest alpha delta epsilon is  0.95738472D-01

 Leave Link  801 at Thu May 26 10:22:05 2022, MaxMem=   104857600 cpu:               0.1 elap:               0.1
 (Enter /apps/software/g16/l906.exe)
 FulOut=F Deriv=F AODrv=F NAtomX=     2
   MMem=         940  MDisk=           2 MDiskD=           2
  W3Min=       39360 MinDsk=      297938 NBas6D=         160
 NBas2D=       13447    NTT=       12880    LW2=     4508827
    MDV=   104753739 MDiskM=        1427 NBas2p=       11775
 Fully direct method using O(OVN) memory.
 IMap=   1   2
 JobTyp=1 Pass  1:  I=   1 to   2 NPSUse=  1 ParTrn=F ParDer=F DoDerP=F.
 Spin components of T(2) and E(2):
     alpha-alpha T2 =       0.1879242422D-02 E2=     -0.2401396150D-02
     alpha-beta  T2 =       0.5725340072D+00 E2=     -0.1731352934D+00
     beta-beta   T2 =       0.1879242422D-02 E2=     -0.2401396150D-02
 The integrals were generated   1 times.
 ANorm=    0.1255504875D+01
 E2 =    -0.1779380857D+00 EUMP2 =    -0.25036613523710D+02
 Leave Link  906 at Thu May 26 10:22:07 2022, MaxMem=   104857600 cpu:               2.3 elap:               2.3
 (Enter /apps/software/g16/l601.exe)
 Copying SCF densities to generalized density rwf, IOpCl= 0 IROHF=0.

 **********************************************************************

            Population analysis using the SCF density.

 **********************************************************************

 Orbital symmetries:
       Occupied  (SG) (SG) (SG)
       Virtual   (SG) (PI) (PI) (SG) (PI) (PI) (SG) (SG) (DLTA)
                 (DLTA) (PI) (PI) (SG) (PI) (PI) (SG) (PI) (PI)
                 (SG) (SG) (PHI) (PHI) (DLTA) (DLTA) (PI) (PI)
                 (SG) (DLTA) (DLTA) (PI) (PI) (SG) (SG) (DLTA)
                 (DLTA) (PI) (PI) (SG) (PI) (PI) (SG) (PI) (PI)
                 (SG) (SG) (?A) (?A) (PHI) (PHI) (DLTA) (DLTA)
                 (DLTA) (DLTA) (PI) (PI) (SG) (PI) (PI) (SG) (PHI)
                 (PHI) (DLTA) (DLTA) (PI) (PI) (SG) (DLTA) (DLTA)
                 (PHI) (PHI) (PI) (PI) (SG) (SG) (DLTA) (DLTA)
                 (PI) (PI) (SG) (PI) (PI) (SG) (PI) (PI) (SG) (?A)
                 (?A) (DLTA) (DLTA) (PHI) (PHI) (DLTA) (DLTA) (PI)
                 (PI) (PI) (PI) (SG) (SG) (PHI) (PHI) (DLTA) (DLTA)
                 (PI) (PI) (SG) (PHI) (PHI) (DLTA) (DLTA) (PI)
                 (PI) (SG) (SG) (PI) (PI) (SG) (DLTA) (DLTA) (PI)
                 (PI) (SG) (SG)
 The electronic state is 1-SG.
 Alpha  occ. eigenvalues --   -7.89613  -0.63232  -0.20596
 Alpha virt. eigenvalues --   -0.11022  -0.05821  -0.05821   0.01735   0.03573
 Alpha virt. eigenvalues --    0.03573   0.04851   0.10456   0.10843   0.10843
 Alpha virt. eigenvalues --    0.11440   0.11440   0.12673   0.23322   0.23322
 Alpha virt. eigenvalues --    0.23382   0.24277   0.24277   0.26234   0.29024
 Alpha virt. eigenvalues --    0.40380   0.40380   0.41020   0.41020   0.41525
 Alpha virt. eigenvalues --    0.41525   0.42079   0.42131   0.42131   0.42834
 Alpha virt. eigenvalues --    0.42834   0.44706   0.48796   0.69650   0.69650
 Alpha virt. eigenvalues --    0.69826   0.69826   0.70764   0.86053   0.86053
 Alpha virt. eigenvalues --    0.89092   0.93062   0.93062   0.94482   1.27558
 Alpha virt. eigenvalues --    1.28279   1.28279   1.29057   1.29057   1.29101
 Alpha virt. eigenvalues --    1.29101   1.29627   1.29627   1.29971   1.29971
 Alpha virt. eigenvalues --    1.30113   1.30141   1.30141   1.32035   1.33634
 Alpha virt. eigenvalues --    1.33634   1.34596   1.34596   1.35228   1.35228
 Alpha virt. eigenvalues --    1.36201   1.65459   1.65459   1.65464   1.65464
 Alpha virt. eigenvalues --    1.65486   1.65486   1.65580   1.72636   2.56326
 Alpha virt. eigenvalues --    2.56326   2.56436   2.56436   2.56937   2.67784
 Alpha virt. eigenvalues --    2.67784   2.70492   3.57214   3.57214   3.58622
 Alpha virt. eigenvalues --    3.79040   3.79040   3.80015   3.80015   3.80089
 Alpha virt. eigenvalues --    3.80089   3.80844   3.80844   3.81234   3.81234
 Alpha virt. eigenvalues --    3.81327   3.81327   3.81457   3.82543   3.94142
 Alpha virt. eigenvalues --    3.94142   3.95307   3.95307   3.96029   3.96029
 Alpha virt. eigenvalues --    3.96551   6.66266   6.66266   6.66274   6.66274
 Alpha virt. eigenvalues --    6.66286   6.66286   6.66312   7.51306   8.04370
 Alpha virt. eigenvalues --    8.04370   8.06433   8.49886   8.49886   8.49955
 Alpha virt. eigenvalues --    8.49955   8.50339  12.85418
          Condensed to atoms (all electrons):
               1          2
     1  B    4.554178   0.035419
     2  H    0.035419   1.374984
 Mulliken charges:
               1
     1  B    0.410403
     2  H   -0.410403
 Sum of Mulliken charges =  -0.00000
 Mulliken charges with hydrogens summed into heavy atoms:
               1
     1  B   -0.000000
 Electronic spatial extent (au):  <R**2>=            162.7543
 Charge=             -0.0000 electrons
 Dipole moment (field-independent basis, Debye):
    X=              0.0000    Y=              0.0000    Z=             11.9866  Tot=             11.9866
 Quadrupole moment (field-independent basis, Debye-Ang):
   XX=             -9.3126   YY=             -9.3126   ZZ=            -56.1888
   XY=              0.0000   XZ=              0.0000   YZ=              0.0000
 Traceless Quadrupole moment (field-independent basis, Debye-Ang):
   XX=             15.6254   YY=             15.6254   ZZ=            -31.2508
   XY=              0.0000   XZ=              0.0000   YZ=              0.0000
 Octapole moment (field-independent basis, Debye-Ang**2):
  XXX=              0.0000  YYY=              0.0000  ZZZ=            261.0205  XYY=              0.0000
  XXY=              0.0000  XXZ=             14.4652  XZZ=              0.0000  YZZ=              0.0000
  YYZ=             14.4652  XYZ=              0.0000
 Hexadecapole moment (field-independent basis, Debye-Ang**3):
 XXXX=            -22.7327 YYYY=            -22.7327 ZZZZ=          -1714.3020 XXXY=              0.0000
 XXXZ=              0.0000 YYYX=              0.0000 YYYZ=              0.0000 ZZZX=              0.0000
 ZZZY=              0.0000 XXYY=             -7.5776 XXZZ=           -108.1079 YYZZ=           -108.1079
 XXYZ=              0.0000 YYXZ=              0.0000 ZZXY=              0.0000
 N-N= 4.409810091000D-01 E-N=-5.791617960364D+01  KE= 2.478568981252D+01
 Symmetry A1   KE= 2.478568981252D+01
 Symmetry A2   KE= 7.086848487900D-52
 Symmetry B1   KE= 0.000000000000D+00
 Symmetry B2   KE= 0.000000000000D+00
 Leave Link  601 at Thu May 26 10:22:07 2022, MaxMem=   104857600 cpu:               0.0 elap:               0.1
 (Enter /apps/software/g16/l9999.exe)
 1\1\GINC-CNODE03\SP\RMP2-FC\Aug-CC-pVQZ\B1H1\LCZ\26-May-2022\0\\#p RHF
 /aug-cc-pVQZ MP2=FC\\BH RMP2 at 6.0 Angstrom\\0,1\B,0,0.,0.,0.\H,0,6.,
 0.,0.\\Version=ES64L-G16RevA.03\State=1-SG\HF=-24.8586754\MP2=-25.0366
 135\RMSD=9.468e-10\PG=C*V [C*(H1B1)]\\@


 EVERYBODY NEEDS BEAUTY AS WELL AS BREAD, PLACES TO PLAY IN AND PRAY IN,
 WHERE NATURE MAY HEAL AND CHEER AND GIVE STRENGTH TO BODY AND SOUL ALIKE.

                                    -- JOHN MUIR
 Job cpu time:       0 days  0 hours  0 minutes  6.3 seconds.
 Elapsed time:       0 days  0 hours  0 minutes  6.3 seconds.
 File lengths (MBytes):  RWF=     10 Int=      0 D2E=      0 Chk=      3 Scr=      1
 Normal termination of Gaussian 16 at Thu May 26 10:22:08 2022.

Sender: Unischeduler System <lcz@mgt01>
Subject: Job 136179: <#!/bin/bash
#BSUB -J intel
#BSUB -o BH-6.0-MP2-G.out
#BSUB -n 8
#BSUB -q cqueue
#BSUB -R span[hosts=1]
export g16root=/apps/software
source /apps/software/g16/bsd/g16.profile
export GAUSS_SCRDIR=/scratch
/apps/software/g16/g16 < BH-6.0-MP2-G.inp > BH-6.0-MP2-G.out> Done

Job <#!/bin/bash
#BSUB -J intel
#BSUB -o BH-6.0-MP2-G.out
#BSUB -n 8
#BSUB -q cqueue
#BSUB -R span[hosts=1]
export g16root=/apps/software
source /apps/software/g16/bsd/g16.profile
export GAUSS_SCRDIR=/scratch
/apps/software/g16/g16 < BH-6.0-MP2-G.inp > BH-6.0-MP2-G.out> was submitted from host <mgt01> by user <lcz>.
Job was executed on host(s) <8*cnode03>, in queue <cqueue>, as user <lcz>.
</apps/users/lcz> was used as the home directory.
</apps/users/lcz/exe13/GMP2> was used as the working directory.
Started at 2022-05-26 10:22:01
Results reported at 2022-05-26 10:22:08

Your job looked like:

------------------------------------------------------------
# User input
#!/bin/bash
#BSUB -J intel
#BSUB -o BH-6.0-MP2-G.out
#BSUB -n 8
#BSUB -q cqueue
#BSUB -R span[hosts=1]
export g16root=/apps/software
source /apps/software/g16/bsd/g16.profile
export GAUSS_SCRDIR=/scratch
/apps/software/g16/g16 < BH-6.0-MP2-G.inp > BH-6.0-MP2-G.out
------------------------------------------------------------

Successfully completed.

Resource usage summary:

    CPU time   :            0.01 sec.
    Max Memory :                 8 MB
    Max Processes  :               2


The output (if any) follows:

