 Entering Gaussian System, Link 0=/apps/software/g16/g16
 Initial command:
 /apps/software/g16/l1.exe "/scratch/Gau-30699.inp" -scrdir="/scratch/"
 Entering Link 1 = /apps/software/g16/l1.exe PID=     30700.
  
 Copyright (c) 1988,1990,1992,1993,1995,1998,2003,2009,2016,
            Gaussian, Inc.  All Rights Reserved.
  
 This is part of the Gaussian(R) 16 program.  It is based on
 the Gaussian(R) 09 system (copyright 2009, Gaussian, Inc.),
 the Gaussian(R) 03 system (copyright 2003, Gaussian, Inc.),
 the Gaussian(R) 98 system (copyright 1998, Gaussian, Inc.),
 the Gaussian(R) 94 system (copyright 1995, Gaussian, Inc.),
 the Gaussian 92(TM) system (copyright 1992, Gaussian, Inc.),
 the Gaussian 90(TM) system (copyright 1990, Gaussian, Inc.),
 the Gaussian 88(TM) system (copyright 1988, Gaussian, Inc.),
 the Gaussian 86(TM) system (copyright 1986, Carnegie Mellon
 University), and the Gaussian 82(TM) system (copyright 1983,
 Carnegie Mellon University). Gaussian is a federally registered
 trademark of Gaussian, Inc.
  
 This software contains proprietary and confidential information,
 including trade secrets, belonging to Gaussian, Inc.
  
 This software is provided under written license and may be
 used, copied, transmitted, or stored only in accord with that
 written license.
  
 The following legend is applicable only to US Government
 contracts under FAR:
  
                    RESTRICTED RIGHTS LEGEND
  
 Use, reproduction and disclosure by the US Government is
 subject to restrictions as set forth in subparagraphs (a)
 and (c) of the Commercial Computer Software - Restricted
 Rights clause in FAR 52.227-19.
  
 Gaussian, Inc.
 340 Quinnipiac St., Bldg. 40, Wallingford CT 06492
  
  
 ---------------------------------------------------------------
 Warning -- This program may not be used in any manner that
 competes with the business of Gaussian, Inc. or will provide
 assistance to any competitor of Gaussian, Inc.  The licensee
 of this program is prohibited from giving any competitor of
 Gaussian, Inc. access to this program.  By using this program,
 the user acknowledges that Gaussian, Inc. is engaged in the
 business of creating and licensing software in the field of
 computational chemistry and represents and warrants to the
 licensee that it is not a competitor of Gaussian, Inc. and that
 it will not use this program in any manner prohibited above.
 ---------------------------------------------------------------
  

 Cite this work as:
 Gaussian 16, Revision A.03,
 M. J. Frisch, G. W. Trucks, H. B. Schlegel, G. E. Scuseria, 
 M. A. Robb, J. R. Cheeseman, G. Scalmani, V. Barone, 
 G. A. Petersson, H. Nakatsuji, X. Li, M. Caricato, A. V. Marenich, 
 J. Bloino, B. G. Janesko, R. Gomperts, B. Mennucci, H. P. Hratchian, 
 J. V. Ortiz, A. F. Izmaylov, J. L. Sonnenberg, D. Williams-Young, 
 F. Ding, F. Lipparini, F. Egidi, J. Goings, B. Peng, A. Petrone, 
 T. Henderson, D. Ranasinghe, V. G. Zakrzewski, J. Gao, N. Rega, 
 G. Zheng, W. Liang, M. Hada, M. Ehara, K. Toyota, R. Fukuda, 
 J. Hasegawa, M. Ishida, T. Nakajima, Y. Honda, O. Kitao, H. Nakai, 
 T. Vreven, K. Throssell, J. A. Montgomery, Jr., J. E. Peralta, 
 F. Ogliaro, M. J. Bearpark, J. J. Heyd, E. N. Brothers, K. N. Kudin, 
 V. N. Staroverov, T. A. Keith, R. Kobayashi, J. Normand, 
 K. Raghavachari, A. P. Rendell, J. C. Burant, S. S. Iyengar, 
 J. Tomasi, M. Cossi, J. M. Millam, M. Klene, C. Adamo, R. Cammi, 
 J. W. Ochterski, R. L. Martin, K. Morokuma, O. Farkas, 
 J. B. Foresman, and D. J. Fox, Gaussian, Inc., Wallingford CT, 2016.
 
 ******************************************
 Gaussian 16:  ES64L-G16RevA.03 25-Dec-2016
                 4-May-2022 
 ******************************************
 %nproc=8
 Will use up to    8 processors via shared memory.
 %mem=20GB
 %chk=38-dicl-dibenzene.chk
 ---------------
 #p BLYP/cc-pVTZ
 ---------------
 1/38=1,172=1/1;
 2/12=2,17=6,18=5,40=1/2;
 3/5=16,6=1,11=2,25=1,30=1,74=402/1,2,3;
 4//1;
 5/5=2,38=5/2;
 6/7=2,8=2,9=2,10=2,28=1/1;
 99/5=1,9=1/99;
 Leave Link    1 at Wed May  4 15:08:35 2022, MaxMem=  2684354560 cpu:               0.1 elap:               0.0
 (Enter /apps/software/g16/l101.exe)
 --------------------------------------
 3,8-dicl-dibenzene SP RKS BLYP cc-pVTZ
 --------------------------------------
 Symbolic Z-matrix:
 Charge =  0 Multiplicity = 1
 C                    -2.5816    0.85828   0.0008 
 C                    -1.19423   0.86536   0.00098 
 C                    -0.48185   2.06241   0.00027 
 C                    -1.19416   3.2595   -0.00063 
 C                    -2.58153   3.26666  -0.00082 
 C                    -3.26679   2.06249   0.00011 
 H                    -3.1277   -0.07395   0.00131 
 H                    -0.65978  -0.07536   0.00163 
 H                    -0.65966   4.20019  -0.00124 
 H                    -3.12758   4.19892  -0.00156 
 C                     1.01726   2.06237   0.00078 
 C                     1.72979   2.06155  -1.19628 
 C                     1.7294    2.06316   1.19791 
 C                     3.11713   2.0615   -1.20322 
 H                     1.19531   2.06093  -2.13698 
 C                     3.11678   2.06312   1.20519 
 H                     1.19469   2.0638    2.13849 
 C                     3.80213   2.06229   0.00112 
 H                     3.66351   2.06086  -2.13529 
 H                     3.66288   2.06373   2.13744 
 Cl                   -5.00747   2.06254  -0.00044 
 Cl                    5.54285   2.06225   0.00137 
 
 ITRead=  0  0  0  0  0  0  0  0  0  0  0  0  0  0  0  0  0  0  0  0
 ITRead=  0  0
 MicOpt= -1 -1 -1 -1 -1 -1 -1 -1 -1 -1 -1 -1 -1 -1 -1 -1 -1 -1 -1 -1
 MicOpt= -1 -1
 NAtoms=     22 NQM=       22 NQMF=       0 NMMI=      0 NMMIF=      0
                NMic=       0 NMicF=      0.
                    Isotopes and Nuclear Properties:
 (Nuclear quadrupole moments (NQMom) in fm**2, nuclear magnetic moments (NMagM)
  in nuclear magnetons)

  Atom         1           2           3           4           5           6           7           8           9          10
 IAtWgt=          12          12          12          12          12          12           1           1           1           1
 AtmWgt=  12.0000000  12.0000000  12.0000000  12.0000000  12.0000000  12.0000000   1.0078250   1.0078250   1.0078250   1.0078250
 NucSpn=           0           0           0           0           0           0           1           1           1           1
 AtZEff=  -0.0000000  -0.0000000  -0.0000000  -0.0000000  -0.0000000  -0.0000000  -0.0000000  -0.0000000  -0.0000000  -0.0000000
 NQMom=    0.0000000   0.0000000   0.0000000   0.0000000   0.0000000   0.0000000   0.0000000   0.0000000   0.0000000   0.0000000
 NMagM=    0.0000000   0.0000000   0.0000000   0.0000000   0.0000000   0.0000000   2.7928460   2.7928460   2.7928460   2.7928460
 AtZNuc=   6.0000000   6.0000000   6.0000000   6.0000000   6.0000000   6.0000000   1.0000000   1.0000000   1.0000000   1.0000000

  Atom        11          12          13          14          15          16          17          18          19          20
 IAtWgt=          12          12          12          12           1          12           1          12           1           1
 AtmWgt=  12.0000000  12.0000000  12.0000000  12.0000000   1.0078250  12.0000000   1.0078250  12.0000000   1.0078250   1.0078250
 NucSpn=           0           0           0           0           1           0           1           0           1           1
 AtZEff=  -0.0000000  -0.0000000  -0.0000000  -0.0000000  -0.0000000  -0.0000000  -0.0000000  -0.0000000  -0.0000000  -0.0000000
 NQMom=    0.0000000   0.0000000   0.0000000   0.0000000   0.0000000   0.0000000   0.0000000   0.0000000   0.0000000   0.0000000
 NMagM=    0.0000000   0.0000000   0.0000000   0.0000000   2.7928460   0.0000000   2.7928460   0.0000000   2.7928460   2.7928460
 AtZNuc=   6.0000000   6.0000000   6.0000000   6.0000000   1.0000000   6.0000000   1.0000000   6.0000000   1.0000000   1.0000000

  Atom        21          22
 IAtWgt=          35          35
 AtmWgt=  34.9688527  34.9688527
 NucSpn=           3           3
 AtZEff=  -0.0000000  -0.0000000
 NQMom=   -8.1650000  -8.1650000
 NMagM=    0.8218740   0.8218740
 AtZNuc=  17.0000000  17.0000000
 Leave Link  101 at Wed May  4 15:08:35 2022, MaxMem=  2684354560 cpu:               0.6 elap:               0.1
 (Enter /apps/software/g16/l202.exe)
                          Input orientation:                          
 ---------------------------------------------------------------------
 Center     Atomic      Atomic             Coordinates (Angstroms)
 Number     Number       Type             X           Y           Z
 ---------------------------------------------------------------------
      1          6           0       -2.581601    0.858283    0.000802
      2          6           0       -1.194231    0.865363    0.000981
      3          6           0       -0.481848    2.062412    0.000270
      4          6           0       -1.194164    3.259501   -0.000628
      5          6           0       -2.581534    3.266657   -0.000817
      6          6           0       -3.266785    2.062489    0.000110
      7          1           0       -3.127702   -0.073954    0.001307
      8          1           0       -0.659775   -0.075357    0.001630
      9          1           0       -0.659656    4.200191   -0.001243
     10          1           0       -3.127583    4.198924   -0.001565
     11          6           0        1.017257    2.062371    0.000782
     12          6           0        1.729794    2.061546   -1.196277
     13          6           0        1.729396    2.063156    1.197914
     14          6           0        3.117125    2.061502   -1.203218
     15          1           0        1.195309    2.060928   -2.136977
     16          6           0        3.116784    2.063122    1.205193
     17          1           0        1.194686    2.063803    2.138491
     18          6           0        3.802130    2.062293    0.001122
     19          1           0        3.663511    2.060860   -2.135287
     20          1           0        3.662877    2.063734    2.137437
     21         17           0       -5.007471    2.062537   -0.000438
     22         17           0        5.542849    2.062245    0.001369
 ---------------------------------------------------------------------
                    Distance matrix (angstroms):
                    1          2          3          4          5
     1  C    0.000000
     2  C    1.387388   0.000000
     3  C    2.420514   1.392988   0.000000
     4  C    2.773234   2.394138   1.392988   0.000000
     5  C    2.408374   2.773234   2.420514   1.387388   0.000000
     6  C    1.385493   2.393448   2.784937   2.393448   1.385493
     7  H    1.080413   2.149564   3.400677   3.853634   3.384965
     8  H    2.136609   1.081942   2.145161   3.377404   3.855155
     9  H    3.855155   3.377404   2.145161   1.081942   2.136609
    10  H    3.384965   3.853634   3.400677   2.149564   1.080413
    11  C    3.794944   2.514658   1.499105   2.514658   3.794944
    12  C    4.633462   3.378491   2.514575   3.378492   4.633462
    13  C    4.633518   3.378602   2.514747   3.378602   4.633518
    14  C    5.947510   4.633426   3.794864   4.633426   5.947511
    15  H    4.503499   3.422008   2.716741   3.422009   4.503500
    16  C    5.947586   4.633530   3.794996   4.633530   5.947586
    17  H    4.503703   3.422300   2.717123   3.422299   4.503702
    18  C    6.496281   5.137730   4.283979   5.137730   6.496281
    19  H    6.708986   5.439716   4.663112   5.439717   6.708987
    20  H    6.709085   5.439856   4.663285   5.439855   6.709084
    21  Cl   2.708335   3.996753   4.525623   3.996753   2.708335
    22  Cl   8.213173   6.842570   6.024697   6.842570   8.213173
                    6          7          8          9         10
     6  C    0.000000
     7  H    2.140966   0.000000
     8  H    3.371482   2.467927   0.000000
     9  H    3.371482   4.935542   4.275549   0.000000
    10  H    2.140966   4.272879   4.935542   2.467927   0.000000
    11  C    4.284042   4.663107   2.717042   2.717042   4.663107
    12  C    5.137816   5.439654   3.422190   3.422190   5.439655
    13  C    5.137758   5.439716   3.422349   3.422348   5.439715
    14  C    6.496331   6.708869   4.503644   4.503644   6.708870
    15  H    4.947467   5.274316   3.546646   3.546647   5.274317
    16  C    6.496320   6.708952   4.503783   4.503782   6.708952
    17  H    4.947464   5.274524   3.547000   3.546999   5.274523
    18  C    7.068915   7.251630   4.947540   4.947540   7.251630
    19  H    7.251823   7.432567   5.274529   5.274530   7.432567
    20  H    7.251784   7.432679   5.274723   5.274722   7.432679
    21  Cl   1.740686   2.845721   4.844900   4.844900   2.845721
    22  Cl   8.809634   8.929827   6.560632   6.560632   8.929827
                   11         12         13         14         15
    11  C    0.000000
    12  C    1.393076   0.000000
    13  C    1.392935   2.394192   0.000000
    14  C    2.420550   1.387348   2.773307   0.000000
    15  H    2.145161   1.081938   3.377388   2.136652   0.000000
    16  C    2.420459   2.773230   1.387407   2.408411   3.855148
    17  H    2.145061   3.377429   1.081943   3.855230   4.275469
    18  C    2.784874   2.393396   2.393437   1.385521   3.371496
    19  H    3.400803   2.149652   3.853705   1.080413   2.468203
    20  H    3.400677   3.853630   2.149663   3.384940   4.935535
    21  Cl   6.024728   6.842571   6.842619   8.213145   6.560434
    22  Cl   4.525592   3.996716   3.996767   2.708351   4.844959
                   16         17         18         19         20
    16  C    0.000000
    17  H    2.136705   0.000000
    18  C    1.385455   3.371515   0.000000
    19  H    3.384926   4.935615   2.140903   0.000000
    20  H    1.080415   2.468191   2.140849   4.272725   0.000000
    21  Cl   8.213225   6.560623   8.809602   8.929923   8.930030
    22  Cl   2.708318   4.844979   1.740719   2.845560   2.845538
                   21         22
    21  Cl   0.000000
    22  Cl  10.550320   0.000000
 This structure is nearly, but not quite of a higher symmetry.
 Consider Symm=Loose if the higher symmetry is desired.
 Stoichiometry    C12H8Cl2
 Framework group  C1[X(C12H8Cl2)]
 Deg. of freedom    60
 Full point group                 C1      NOp   1
 Largest Abelian subgroup         C1      NOp   1
 Largest concise Abelian subgroup C1      NOp   1
                         Standard orientation:                         
 ---------------------------------------------------------------------
 Center     Atomic      Atomic             Coordinates (Angstroms)
 Number     Number       Type             X           Y           Z
 ---------------------------------------------------------------------
      1          6           0        2.730812   -0.022491    1.452760
      2          6           0        1.349615   -0.011465    1.322312
      3          6           0        0.746550   -0.005826    0.066646
      4          6           0        1.562496   -0.011510   -1.062343
      5          6           0        2.944960   -0.022535   -0.946075
      6          6           0        3.520366   -0.028168    0.314268
      7          1           0        3.191814   -0.026765    2.429874
      8          1           0        0.733622   -0.007147    2.211768
      9          1           0        1.113794   -0.007226   -2.046846
     10          1           0        3.571749   -0.026843   -1.826081
     11          6           0       -0.746572    0.005775   -0.066648
     12          6           0       -1.446629    1.208552   -0.129164
     13          6           0       -1.465504   -1.185565   -0.130806
     14          6           0       -2.828364    1.226701   -0.252514
     15          1           0       -0.906707    2.144903   -0.080981
     16          6           0       -2.847410   -1.181634   -0.254171
     17          1           0       -0.940500   -2.130432   -0.083921
     18          6           0       -3.520327    0.027935   -0.314265
     19          1           0       -3.365065    2.163155   -0.300443
     20          1           0       -3.398825   -2.109435   -0.303380
     21         17           0        5.254105   -0.041683    0.469042
     22         17           0       -5.254096    0.041753   -0.469041
 ---------------------------------------------------------------------
 Rotational constants (GHZ):           2.8843971           0.1749147           0.1749146
 Leave Link  202 at Wed May  4 15:08:35 2022, MaxMem=  2684354560 cpu:               0.1 elap:               0.0
 (Enter /apps/software/g16/l301.exe)
 Standard basis: CC-pVTZ (5D, 7F)
 Ernie: Thresh=  0.10000D-02 Tol=  0.10000D-05 Strict=F.
 Ernie:  62 primitive shells out of 496 were deleted.
 There are   618 symmetry adapted cartesian basis functions of A   symmetry.
 There are   540 symmetry adapted basis functions of A   symmetry.
   540 basis functions,   948 primitive gaussians,   618 cartesian basis functions
    57 alpha electrons       57 beta electrons
       nuclear repulsion energy       927.5445036572 Hartrees.
 IExCor=  402 DFT=T Ex=B Corr=LYP ExCW=0 ScaHFX=  0.000000
 ScaDFX=  1.000000  1.000000  1.000000  1.000000 ScalE2=  1.000000  1.000000
 IRadAn=      5 IRanWt=     -1 IRanGd=            0 ICorTp=0 IEmpDi=  4
 NAtoms=   22 NActive=   22 NUniq=   22 SFac= 1.00D+00 NAtFMM=   60 NAOKFM=F Big=F
 Integral buffers will be    131072 words long.
 Raffenetti 2 integral format.
 Two-electron integral symmetry is turned on.
 Leave Link  301 at Wed May  4 15:08:35 2022, MaxMem=  2684354560 cpu:               0.4 elap:               0.1
 (Enter /apps/software/g16/l302.exe)
 NPDir=0 NMtPBC=     1 NCelOv=     1 NCel=       1 NClECP=     1 NCelD=      1
         NCelK=      1 NCelE2=     1 NClLst=     1 CellRange=     0.0.
 One-electron integrals computed using PRISM.
 One-electron integral symmetry used in STVInt
 NBasis=   540 RedAO= T EigKep=  3.05D-05  NBF=   540
 NBsUse=   540 1.00D-06 EigRej= -1.00D+00 NBFU=   540
 Precomputing XC quadrature grid using
 IXCGrd= 4 IRadAn=           5 IRanWt=          -1 IRanGd=           0 AccXCQ= 0.00D+00.
 Generated NRdTot=       0 NPtTot=           0 NUsed=           0 NTot=          32
 NSgBfM=   612   612   612   612   612 MxSgAt=    22 MxSgA2=    22.
 Leave Link  302 at Wed May  4 15:08:35 2022, MaxMem=  2684354560 cpu:               2.9 elap:               0.4
 (Enter /apps/software/g16/l303.exe)
 DipDrv:  MaxL=1.
 Leave Link  303 at Wed May  4 15:08:36 2022, MaxMem=  2684354560 cpu:               0.5 elap:               0.1
 (Enter /apps/software/g16/l401.exe)
 ExpMin= 1.03D-01 ExpMax= 4.56D+05 ExpMxC= 1.44D+03 IAcc=3 IRadAn=         5 AccDes= 0.00D+00
 Harris functional with IExCor=  402 and IRadAn=       5 diagonalized for initial guess.
 HarFok:  IExCor=  402 AccDes= 0.00D+00 IRadAn=         5 IDoV= 1 UseB2=F ITyADJ=14
 ICtDFT=  3500011 ScaDFX=  1.000000  1.000000  1.000000  1.000000
 FoFCou: FMM=F IPFlag=           0 FMFlag=      100000 FMFlg1=           0
         NFxFlg=           0 DoJE=T BraDBF=F KetDBF=T FulRan=T
         wScrn=  0.000000 ICntrl=       500 IOpCl=  0 I1Cent=   200000004 NGrid=           0
         NMat0=    1 NMatS0=      1 NMatT0=    0 NMatD0=    1 NMtDS0=    0 NMtDT0=    0
 Petite list used in FoFCou.
 Harris En= -1382.64392781387    
 JPrj=0 DoOrth=F DoCkMO=F.
 Leave Link  401 at Wed May  4 15:08:37 2022, MaxMem=  2684354560 cpu:              14.6 elap:               1.8
 (Enter /apps/software/g16/l502.exe)
 Integral symmetry usage will be decided dynamically.
 Closed shell SCF:
 Using DIIS extrapolation, IDIIS=  1040.
 NGot=  2684354560 LenX=  2683580518 LenY=  2683197976
 Requested convergence on RMS density matrix=1.00D-08 within 128 cycles.
 Requested convergence on MAX density matrix=1.00D-06.
 Requested convergence on             energy=1.00D-06.
 No special actions if energy rises.
 Fock matrices will be formed incrementally for  20 cycles.
 Integral accuracy reduced to 1.0D-05 until final iterations.

 Cycle   1  Pass 0  IDiag  1:
 FoFJK:  IHMeth= 1 ICntrl=     500 DoSepK=F KAlg= 0 I1Cent=           0 FoldK=F
 IRaf= 840000000 NMat=       1 IRICut=       1 DoRegI=T DoRafI=F ISym2E= 0 IDoP0=0 IntGTp=1.
 FoFCou: FMM=F IPFlag=           0 FMFlag=      100000 FMFlg1=           0
         NFxFlg=           0 DoJE=T BraDBF=F KetDBF=F FulRan=T
         wScrn=  0.000000 ICntrl=       500 IOpCl=  0 I1Cent=           0 NGrid=           0
         NMat0=    1 NMatS0=      1 NMatT0=    0 NMatD0=    1 NMtDS0=    0 NMtDT0=    0
 Symmetry not used in FoFCou.
 E= -1382.12828697968    
 DIIS: error= 3.30D-02 at cycle   1 NSaved=   1.
 NSaved= 1 IEnMin= 1 EnMin= -1382.12828697968     IErMin= 1 ErrMin= 3.30D-02
 ErrMax= 3.30D-02  0.00D+00 EMaxC= 1.00D-01 BMatC= 3.51D-01 BMatP= 3.51D-01
 IDIUse=3 WtCom= 6.70D-01 WtEn= 3.30D-01
 Coeff-Com:  0.100D+01
 Coeff-En:   0.100D+01
 Coeff:      0.100D+01
 Gap=     0.346 Goal=   None    Shift=    0.000
 GapD=    0.346 DampG=1.000 DampE=0.500 DampFc=0.5000 IDamp=-1.
 Damping current iteration by 5.00D-01
 RMSDP=3.00D-03 MaxDP=9.00D-02              OVMax= 3.13D-01

 Cycle   2  Pass 0  IDiag  1:
 RMSU=  1.50D-03    CP:  9.94D-01
 E= -1382.16757007903     Delta-E=       -0.039283099344 Rises=F Damp=T
 DIIS: error= 1.33D-02 at cycle   2 NSaved=   2.
 NSaved= 2 IEnMin= 2 EnMin= -1382.16757007903     IErMin= 2 ErrMin= 1.33D-02
 ErrMax= 1.33D-02  0.00D+00 EMaxC= 1.00D-01 BMatC= 6.41D-02 BMatP= 3.51D-01
 IDIUse=3 WtCom= 8.67D-01 WtEn= 1.33D-01
 Coeff-Com:  0.256D+00 0.744D+00
 Coeff-En:   0.455D+00 0.545D+00
 Coeff:      0.283D+00 0.717D+00
 Gap=     0.242 Goal=   None    Shift=    0.000
 RMSDP=1.30D-03 MaxDP=3.24D-02 DE=-3.93D-02 OVMax= 3.18D-01

 Cycle   3  Pass 0  IDiag  1:
 RMSU=  9.38D-04    CP:  9.99D-01  4.02D-01
 E= -1382.44217751357     Delta-E=       -0.274607434540 Rises=F Damp=F
 DIIS: error= 2.04D-02 at cycle   3 NSaved=   3.
 NSaved= 3 IEnMin= 3 EnMin= -1382.44217751357     IErMin= 2 ErrMin= 1.33D-02
 ErrMax= 2.04D-02  0.00D+00 EMaxC= 1.00D-01 BMatC= 4.00D-02 BMatP= 6.41D-02
 IDIUse=3 WtCom= 7.96D-01 WtEn= 2.04D-01
 Coeff-Com:  0.111D+00 0.450D+00 0.439D+00
 Coeff-En:   0.000D+00 0.000D+00 0.100D+01
 Coeff:      0.883D-01 0.358D+00 0.553D+00
 Gap=     0.161 Goal=   None    Shift=    0.000
 RMSDP=7.02D-04 MaxDP=2.95D-02 DE=-2.75D-01 OVMax= 1.57D-01

 Cycle   4  Pass 0  IDiag  1:
 RMSU=  5.14D-04    CP:  9.97D-01  5.77D-01  5.73D-01
 E= -1382.42798582708     Delta-E=        0.014191686485 Rises=F Damp=F
 DIIS: error= 2.34D-02 at cycle   4 NSaved=   4.
 NSaved= 4 IEnMin= 3 EnMin= -1382.44217751357     IErMin= 2 ErrMin= 1.33D-02
 ErrMax= 2.34D-02  0.00D+00 EMaxC= 1.00D-01 BMatC= 5.52D-02 BMatP= 4.00D-02
 IDIUse=2 WtCom= 0.00D+00 WtEn= 1.00D+00
 Coeff-En:   0.000D+00 0.000D+00 0.544D+00 0.456D+00
 Coeff:      0.000D+00 0.000D+00 0.544D+00 0.456D+00
 Gap=     0.163 Goal=   None    Shift=    0.000
 RMSDP=3.61D-04 MaxDP=1.49D-02 DE= 1.42D-02 OVMax= 7.25D-02

 Cycle   5  Pass 0  IDiag  1:
 RMSU=  2.22D-04    CP:  9.96D-01  5.66D-01  6.71D-01  4.76D-01
 E= -1382.48629990413     Delta-E=       -0.058314077049 Rises=F Damp=F
 DIIS: error= 3.15D-03 at cycle   5 NSaved=   5.
 NSaved= 5 IEnMin= 5 EnMin= -1382.48629990413     IErMin= 5 ErrMin= 3.15D-03
 ErrMax= 3.15D-03  0.00D+00 EMaxC= 1.00D-01 BMatC= 3.80D-03 BMatP= 4.00D-02
 IDIUse=3 WtCom= 9.69D-01 WtEn= 3.15D-02
 Coeff-Com:  0.197D-01-0.165D-01 0.262D+00 0.232D+00 0.503D+00
 Coeff-En:   0.000D+00 0.000D+00 0.000D+00 0.000D+00 0.100D+01
 Coeff:      0.190D-01-0.160D-01 0.254D+00 0.224D+00 0.519D+00
 Gap=     0.159 Goal=   None    Shift=    0.000
 RMSDP=1.84D-04 MaxDP=9.09D-03 DE=-5.83D-02 OVMax= 1.80D-02

 Cycle   6  Pass 0  IDiag  1:
 RMSU=  4.00D-05    CP:  9.98D-01  5.02D-01  7.46D-01  4.78D-01  3.92D-01
 E= -1382.49038332795     Delta-E=       -0.004083423817 Rises=F Damp=F
 DIIS: error= 5.59D-04 at cycle   6 NSaved=   6.
 NSaved= 6 IEnMin= 6 EnMin= -1382.49038332795     IErMin= 6 ErrMin= 5.59D-04
 ErrMax= 5.59D-04  0.00D+00 EMaxC= 1.00D-01 BMatC= 9.42D-05 BMatP= 3.80D-03
 IDIUse=3 WtCom= 9.94D-01 WtEn= 5.59D-03
 Coeff-Com:  0.870D-02-0.186D-01 0.951D-01 0.894D-01 0.277D+00 0.548D+00
 Coeff-En:   0.000D+00 0.000D+00 0.000D+00 0.000D+00 0.000D+00 0.100D+01
 Coeff:      0.865D-02-0.185D-01 0.946D-01 0.889D-01 0.276D+00 0.551D+00
 Gap=     0.159 Goal=   None    Shift=    0.000
 RMSDP=3.30D-05 MaxDP=1.79D-03 DE=-4.08D-03 OVMax= 2.34D-03

 Cycle   7  Pass 0  IDiag  1:
 RMSU=  1.24D-05    CP:  9.98D-01  5.09D-01  7.32D-01  4.74D-01  4.88D-01
                    CP:  6.38D-01
 E= -1382.49046123923     Delta-E=       -0.000077911281 Rises=F Damp=F
 DIIS: error= 1.83D-04 at cycle   7 NSaved=   7.
 NSaved= 7 IEnMin= 7 EnMin= -1382.49046123923     IErMin= 7 ErrMin= 1.83D-04
 ErrMax= 1.83D-04  0.00D+00 EMaxC= 1.00D-01 BMatC= 1.39D-05 BMatP= 9.42D-05
 IDIUse=3 WtCom= 9.98D-01 WtEn= 1.83D-03
 Coeff-Com:  0.309D-02-0.740D-02 0.240D-01 0.233D-01 0.934D-01 0.321D+00
 Coeff-Com:  0.543D+00
 Coeff-En:   0.000D+00 0.000D+00 0.000D+00 0.000D+00 0.000D+00 0.106D+00
 Coeff-En:   0.894D+00
 Coeff:      0.308D-02-0.739D-02 0.240D-01 0.232D-01 0.932D-01 0.321D+00
 Coeff:      0.543D+00
 Gap=     0.159 Goal=   None    Shift=    0.000
 RMSDP=7.78D-06 MaxDP=3.65D-04 DE=-7.79D-05 OVMax= 9.87D-04

 Initial convergence to 1.0D-05 achieved.  Increase integral accuracy.
 Cycle   8  Pass 1  IDiag  1:
 E= -1382.49044283740     Delta-E=        0.000018401824 Rises=F Damp=F
 DIIS: error= 4.61D-04 at cycle   1 NSaved=   1.
 NSaved= 1 IEnMin= 1 EnMin= -1382.49044283740     IErMin= 1 ErrMin= 4.61D-04
 ErrMax= 4.61D-04  0.00D+00 EMaxC= 1.00D-01 BMatC= 2.03D-05 BMatP= 2.03D-05
 IDIUse=3 WtCom= 9.95D-01 WtEn= 4.61D-03
 Coeff-Com:  0.100D+01
 Coeff-En:   0.100D+01
 Coeff:      0.100D+01
 Gap=     0.159 Goal=   None    Shift=    0.000
 RMSDP=7.78D-06 MaxDP=3.65D-04 DE= 1.84D-05 OVMax= 1.12D-03

 Cycle   9  Pass 1  IDiag  1:
 RMSU=  6.09D-04    CP:  9.96D-01
 E= -1382.49045294630     Delta-E=       -0.000010108894 Rises=F Damp=F
 DIIS: error= 1.50D-04 at cycle   2 NSaved=   2.
 NSaved= 2 IEnMin= 2 EnMin= -1382.49045294630     IErMin= 2 ErrMin= 1.50D-04
 ErrMax= 1.50D-04  0.00D+00 EMaxC= 1.00D-01 BMatC= 7.49D-06 BMatP= 2.03D-05
 IDIUse=3 WtCom= 9.99D-01 WtEn= 1.50D-03
 Coeff-Com:  0.319D+00 0.681D+00
 Coeff-En:   0.445D-01 0.956D+00
 Coeff:      0.319D+00 0.681D+00
 Gap=     0.159 Goal=   None    Shift=    0.000
 RMSDP=8.10D-06 MaxDP=4.69D-04 DE=-1.01D-05 OVMax= 1.14D-03

 Cycle  10  Pass 1  IDiag  1:
 RMSU=  8.10D-06    CP:  9.96D-01  1.00D+00
 E= -1382.49045188400     Delta-E=        0.000001062293 Rises=F Damp=F
 DIIS: error= 1.53D-04 at cycle   3 NSaved=   3.
 NSaved= 3 IEnMin= 2 EnMin= -1382.49045294630     IErMin= 2 ErrMin= 1.50D-04
 ErrMax= 1.53D-04  0.00D+00 EMaxC= 1.00D-01 BMatC= 8.70D-06 BMatP= 7.49D-06
 IDIUse=3 WtCom= 4.47D-01 WtEn= 5.53D-01
 Coeff-Com:  0.116D-01 0.516D+00 0.473D+00
 Coeff-En:   0.000D+00 0.525D+00 0.475D+00
 Coeff:      0.520D-02 0.521D+00 0.474D+00
 Gap=     0.159 Goal=   None    Shift=    0.000
 RMSDP=4.01D-06 MaxDP=1.89D-04 DE= 1.06D-06 OVMax= 6.17D-04

 Cycle  11  Pass 1  IDiag  1:
 RMSU=  1.57D-06    CP:  9.96D-01  1.00D+00  5.45D-01
 E= -1382.49046010254     Delta-E=       -0.000008218532 Rises=F Damp=F
 DIIS: error= 2.21D-05 at cycle   4 NSaved=   4.
 NSaved= 4 IEnMin= 4 EnMin= -1382.49046010254     IErMin= 4 ErrMin= 2.21D-05
 ErrMax= 2.21D-05  0.00D+00 EMaxC= 1.00D-01 BMatC= 1.65D-07 BMatP= 7.49D-06
 IDIUse=1 WtCom= 1.00D+00 WtEn= 0.00D+00
 Coeff-Com:  0.963D-03 0.307D+00 0.286D+00 0.406D+00
 Coeff:      0.963D-03 0.307D+00 0.286D+00 0.406D+00
 Gap=     0.159 Goal=   None    Shift=    0.000
 RMSDP=1.01D-06 MaxDP=4.88D-05 DE=-8.22D-06 OVMax= 1.11D-04

 Cycle  12  Pass 1  IDiag  1:
 RMSU=  3.19D-07    CP:  9.96D-01  1.00D+00  5.22D-01  4.04D-01
 E= -1382.49046023378     Delta-E=       -0.000000131239 Rises=F Damp=F
 DIIS: error= 1.56D-05 at cycle   5 NSaved=   5.
 NSaved= 5 IEnMin= 5 EnMin= -1382.49046023378     IErMin= 5 ErrMin= 1.56D-05
 ErrMax= 1.56D-05  0.00D+00 EMaxC= 1.00D-01 BMatC= 2.73D-08 BMatP= 1.65D-07
 IDIUse=1 WtCom= 1.00D+00 WtEn= 0.00D+00
 Coeff-Com:  0.508D-04 0.205D+00 0.191D+00 0.311D+00 0.293D+00
 Coeff:      0.508D-04 0.205D+00 0.191D+00 0.311D+00 0.293D+00
 Gap=     0.159 Goal=   None    Shift=    0.000
 RMSDP=2.73D-07 MaxDP=1.29D-05 DE=-1.31D-07 OVMax= 6.15D-05

 Cycle  13  Pass 1  IDiag  1:
 RMSU=  7.61D-08    CP:  9.96D-01  1.00D+00  5.13D-01  4.00D-01  2.12D-01
 E= -1382.49046026351     Delta-E=       -0.000000029738 Rises=F Damp=F
 DIIS: error= 1.57D-06 at cycle   6 NSaved=   6.
 NSaved= 6 IEnMin= 6 EnMin= -1382.49046026351     IErMin= 6 ErrMin= 1.57D-06
 ErrMax= 1.57D-06  0.00D+00 EMaxC= 1.00D-01 BMatC= 3.39D-10 BMatP= 2.73D-08
 IDIUse=1 WtCom= 1.00D+00 WtEn= 0.00D+00
 Coeff-Com: -0.696D-05 0.108D+00 0.101D+00 0.165D+00 0.180D+00 0.446D+00
 Coeff:     -0.696D-05 0.108D+00 0.101D+00 0.165D+00 0.180D+00 0.446D+00
 Gap=     0.159 Goal=   None    Shift=    0.000
 RMSDP=5.43D-08 MaxDP=2.10D-06 DE=-2.97D-08 OVMax= 8.31D-06

 Cycle  14  Pass 1  IDiag  1:
 RMSU=  2.10D-08    CP:  9.96D-01  1.00D+00  5.13D-01  4.17D-01  2.90D-01
                    CP:  5.50D-01
 E= -1382.49046026394     Delta-E=       -0.000000000427 Rises=F Damp=F
 DIIS: error= 2.80D-07 at cycle   7 NSaved=   7.
 NSaved= 7 IEnMin= 7 EnMin= -1382.49046026394     IErMin= 7 ErrMin= 2.80D-07
 ErrMax= 2.80D-07  0.00D+00 EMaxC= 1.00D-01 BMatC= 2.24D-11 BMatP= 3.39D-10
 IDIUse=1 WtCom= 1.00D+00 WtEn= 0.00D+00
 Coeff-Com: -0.813D-05 0.480D-01 0.448D-01 0.741D-01 0.856D-01 0.270D+00
 Coeff-Com:  0.477D+00
 Coeff:     -0.813D-05 0.480D-01 0.448D-01 0.741D-01 0.856D-01 0.270D+00
 Coeff:      0.477D+00
 Gap=     0.159 Goal=   None    Shift=    0.000
 RMSDP=8.45D-09 MaxDP=3.10D-07 DE=-4.27D-10 OVMax= 1.10D-06

 SCF Done:  E(RB-LYP) =  -1382.49046026     A.U. after   14 cycles
            NFock= 14  Conv=0.85D-08     -V/T= 2.0037
 KE= 1.377439467522D+03 PE=-5.114138746633D+03 EE= 1.426664315190D+03
 Leave Link  502 at Wed May  4 15:10:25 2022, MaxMem=  2684354560 cpu:             858.1 elap:             107.6
 (Enter /apps/software/g16/l601.exe)
 Copying SCF densities to generalized density rwf, IOpCl= 0 IROHF=0.

 **********************************************************************

            Population analysis using the SCF density.

 **********************************************************************

 Orbital symmetries:
       Occupied  (A) (A) (A) (A) (A) (A) (A) (A) (A) (A) (A) (A)
                 (A) (A) (A) (A) (A) (A) (A) (A) (A) (A) (A) (A)
                 (A) (A) (A) (A) (A) (A) (A) (A) (A) (A) (A) (A)
                 (A) (A) (A) (A) (A) (A) (A) (A) (A) (A) (A) (A)
                 (A) (A) (A) (A) (A) (A) (A) (A) (A)
       Virtual   (A) (A) (A) (A) (A) (A) (A) (A) (A) (A) (A) (A)
                 (A) (A) (A) (A) (A) (A) (A) (A) (A) (A) (A) (A)
                 (A) (A) (A) (A) (A) (A) (A) (A) (A) (A) (A) (A)
                 (A) (A) (A) (A) (A) (A) (A) (A) (A) (A) (A) (A)
                 (A) (A) (A) (A) (A) (A) (A) (A) (A) (A) (A) (A)
                 (A) (A) (A) (A) (A) (A) (A) (A) (A) (A) (A) (A)
                 (A) (A) (A) (A) (A) (A) (A) (A) (A) (A) (A) (A)
                 (A) (A) (A) (A) (A) (A) (A) (A) (A) (A) (A) (A)
                 (A) (A) (A) (A) (A) (A) (A) (A) (A) (A) (A) (A)
                 (A) (A) (A) (A) (A) (A) (A) (A) (A) (A) (A) (A)
                 (A) (A) (A) (A) (A) (A) (A) (A) (A) (A) (A) (A)
                 (A) (A) (A) (A) (A) (A) (A) (A) (A) (A) (A) (A)
                 (A) (A) (A) (A) (A) (A) (A) (A) (A) (A) (A) (A)
                 (A) (A) (A) (A) (A) (A) (A) (A) (A) (A) (A) (A)
                 (A) (A) (A) (A) (A) (A) (A) (A) (A) (A) (A) (A)
                 (A) (A) (A) (A) (A) (A) (A) (A) (A) (A) (A) (A)
                 (A) (A) (A) (A) (A) (A) (A) (A) (A) (A) (A) (A)
                 (A) (A) (A) (A) (A) (A) (A) (A) (A) (A) (A) (A)
                 (A) (A) (A) (A) (A) (A) (A) (A) (A) (A) (A) (A)
                 (A) (A) (A) (A) (A) (A) (A) (A) (A) (A) (A) (A)
                 (A) (A) (A) (A) (A) (A) (A) (A) (A) (A) (A) (A)
                 (A) (A) (A) (A) (A) (A) (A) (A) (A) (A) (A) (A)
                 (A) (A) (A) (A) (A) (A) (A) (A) (A) (A) (A) (A)
                 (A) (A) (A) (A) (A) (A) (A) (A) (A) (A) (A) (A)
                 (A) (A) (A) (A) (A) (A) (A) (A) (A) (A) (A) (A)
                 (A) (A) (A) (A) (A) (A) (A) (A) (A) (A) (A) (A)
                 (A) (A) (A) (A) (A) (A) (A) (A) (A) (A) (A) (A)
                 (A) (A) (A) (A) (A) (A) (A) (A) (A) (A) (A) (A)
                 (A) (A) (A) (A) (A) (A) (A) (A) (A) (A) (A) (A)
                 (A) (A) (A) (A) (A) (A) (A) (A) (A) (A) (A) (A)
                 (A) (A) (A) (A) (A) (A) (A) (A) (A) (A) (A) (A)
                 (A) (A) (A) (A) (A) (A) (A) (A) (A) (A) (A) (A)
                 (A) (A) (A) (A) (A) (A) (A) (A) (A) (A) (A) (A)
                 (A) (A) (A) (A) (A) (A) (A) (A) (A) (A) (A) (A)
                 (A) (A) (A) (A) (A) (A) (A) (A) (A) (A) (A) (A)
                 (A) (A) (A) (A) (A) (A) (A) (A) (A) (A) (A) (A)
                 (A) (A) (A) (A) (A) (A) (A) (A) (A) (A) (A) (A)
                 (A) (A) (A) (A) (A) (A) (A) (A) (A) (A) (A) (A)
                 (A) (A) (A) (A) (A) (A) (A) (A) (A) (A) (A) (A)
                 (A) (A) (A) (A) (A) (A) (A) (A) (A) (A) (A) (A)
                 (A) (A) (A)
 The electronic state is 1-A.
 Alpha  occ. eigenvalues -- -100.76795-100.76795  -9.97423  -9.97422  -9.93285
 Alpha  occ. eigenvalues --   -9.93267  -9.92644  -9.92644  -9.92643  -9.92643
 Alpha  occ. eigenvalues --   -9.92545  -9.92545  -9.92544  -9.92544  -9.18382
 Alpha  occ. eigenvalues --   -9.18382  -7.01695  -7.01695  -7.00687  -7.00687
 Alpha  occ. eigenvalues --   -7.00626  -7.00626  -0.81772  -0.81275  -0.77702
 Alpha  occ. eigenvalues --   -0.75534  -0.69216  -0.68847  -0.68847  -0.64235
 Alpha  occ. eigenvalues --   -0.56286  -0.56285  -0.55682  -0.52763  -0.48521
 Alpha  occ. eigenvalues --   -0.44962  -0.42932  -0.42932  -0.42108  -0.40819
 Alpha  occ. eigenvalues --   -0.38814  -0.38813  -0.38696  -0.35711  -0.35711
 Alpha  occ. eigenvalues --   -0.35179  -0.32326  -0.32325  -0.31056  -0.29416
 Alpha  occ. eigenvalues --   -0.29416  -0.27098  -0.27098  -0.24377  -0.23849
 Alpha  occ. eigenvalues --   -0.21930  -0.21929
 Alpha virt. eigenvalues --   -0.06031  -0.04776  -0.04776  -0.04098  -0.00705
 Alpha virt. eigenvalues --   -0.00684   0.03897   0.04350   0.04691   0.04691
 Alpha virt. eigenvalues --    0.06612   0.07279   0.08926   0.08926   0.09321
 Alpha virt. eigenvalues --    0.09322   0.13557   0.13839   0.18691   0.18909
 Alpha virt. eigenvalues --    0.18910   0.19264   0.20854   0.22561   0.22561
 Alpha virt. eigenvalues --    0.23146   0.23726   0.23727   0.24718   0.25087
 Alpha virt. eigenvalues --    0.26007   0.26867   0.26868   0.26949   0.28879
 Alpha virt. eigenvalues --    0.29272   0.29273   0.31125   0.31257   0.32392
 Alpha virt. eigenvalues --    0.32393   0.32537   0.32607   0.32608   0.33775
 Alpha virt. eigenvalues --    0.33775   0.34395   0.34395   0.34454   0.34478
 Alpha virt. eigenvalues --    0.35546   0.35848   0.36473   0.38099   0.39088
 Alpha virt. eigenvalues --    0.39088   0.40099   0.40154   0.42157   0.42425
 Alpha virt. eigenvalues --    0.42426   0.43649   0.44055   0.44055   0.44768
 Alpha virt. eigenvalues --    0.46150   0.46487   0.46488   0.47688   0.49342
 Alpha virt. eigenvalues --    0.49343   0.51600   0.55269   0.55269   0.55817
 Alpha virt. eigenvalues --    0.56452   0.56988   0.56989   0.58617   0.58617
 Alpha virt. eigenvalues --    0.59041   0.59536   0.61892   0.61984   0.62257
 Alpha virt. eigenvalues --    0.63635   0.65088   0.65867   0.68707   0.68707
 Alpha virt. eigenvalues --    0.69263   0.70146   0.70147   0.70620   0.71659
 Alpha virt. eigenvalues --    0.72210   0.73058   0.73133   0.73134   0.73322
 Alpha virt. eigenvalues --    0.76544   0.77148   0.77150   0.78078   0.78954
 Alpha virt. eigenvalues --    0.78956   0.79078   0.83702   0.83702   0.86418
 Alpha virt. eigenvalues --    0.86585   0.89885   0.90463   0.90584   0.90586
 Alpha virt. eigenvalues --    0.91200   0.91493   0.91493   0.95957   0.95960
 Alpha virt. eigenvalues --    0.96519   1.00066   1.00832   1.01557   1.03212
 Alpha virt. eigenvalues --    1.03482   1.03482   1.04798   1.07291   1.07324
 Alpha virt. eigenvalues --    1.07324   1.07428   1.10312   1.12518   1.13429
 Alpha virt. eigenvalues --    1.13431   1.17966   1.17969   1.19629   1.20016
 Alpha virt. eigenvalues --    1.20952   1.20956   1.21707   1.23505   1.25426
 Alpha virt. eigenvalues --    1.25426   1.26268   1.26270   1.27034   1.27909
 Alpha virt. eigenvalues --    1.28690   1.28690   1.30473   1.31182   1.31504
 Alpha virt. eigenvalues --    1.33152   1.34108   1.36327   1.36328   1.39007
 Alpha virt. eigenvalues --    1.39008   1.39012   1.43104   1.44915   1.46366
 Alpha virt. eigenvalues --    1.46367   1.50052   1.54609   1.55150   1.56253
 Alpha virt. eigenvalues --    1.56253   1.57056   1.57762   1.62210   1.64648
 Alpha virt. eigenvalues --    1.67207   1.67213   1.77193   1.77788   1.82394
 Alpha virt. eigenvalues --    1.82474   1.83752   1.83753   1.84695   1.84697
 Alpha virt. eigenvalues --    1.85115   1.85127   1.87387   1.87403   1.94829
 Alpha virt. eigenvalues --    1.95132   1.95133   1.95687   1.95689   1.96396
 Alpha virt. eigenvalues --    1.96663   1.97102   1.97568   2.01396   2.01397
 Alpha virt. eigenvalues --    2.01880   2.02289   2.03451   2.03452   2.03882
 Alpha virt. eigenvalues --    2.04251   2.04254   2.05886   2.05888   2.06166
 Alpha virt. eigenvalues --    2.07196   2.09661   2.10586   2.11680   2.14450
 Alpha virt. eigenvalues --    2.14450   2.17790   2.17792   2.19509   2.19510
 Alpha virt. eigenvalues --    2.21051   2.22014   2.24178   2.24467   2.24706
 Alpha virt. eigenvalues --    2.24707   2.25569   2.28759   2.28760   2.29789
 Alpha virt. eigenvalues --    2.29922   2.29981   2.33633   2.33635   2.34194
 Alpha virt. eigenvalues --    2.35577   2.38208   2.38910   2.38910   2.39970
 Alpha virt. eigenvalues --    2.42310   2.42313   2.44333   2.45321   2.45321
 Alpha virt. eigenvalues --    2.45493   2.49274   2.49275   2.49772   2.56644
 Alpha virt. eigenvalues --    2.57004   2.57006   2.58627   2.59046   2.61328
 Alpha virt. eigenvalues --    2.61329   2.63686   2.63688   2.65610   2.66559
 Alpha virt. eigenvalues --    2.67228   2.67483   2.67928   2.67928   2.71202
 Alpha virt. eigenvalues --    2.72425   2.72426   2.74710   2.76359   2.77841
 Alpha virt. eigenvalues --    2.77841   2.78265   2.79947   2.81913   2.81914
 Alpha virt. eigenvalues --    2.83445   2.85124   2.85126   2.86795   2.89087
 Alpha virt. eigenvalues --    2.89366   2.89493   2.91276   2.91279   2.93510
 Alpha virt. eigenvalues --    2.93848   2.93850   2.94194   2.96688   2.97412
 Alpha virt. eigenvalues --    2.97414   2.97667   2.97893   2.99069   2.99901
 Alpha virt. eigenvalues --    3.00543   3.00545   3.01099   3.02245   3.02507
 Alpha virt. eigenvalues --    3.02508   3.03605   3.06031   3.06396   3.10306
 Alpha virt. eigenvalues --    3.10308   3.10981   3.13343   3.13715   3.13908
 Alpha virt. eigenvalues --    3.13910   3.14777   3.14780   3.16133   3.17356
 Alpha virt. eigenvalues --    3.17357   3.20573   3.22344   3.23603   3.23607
 Alpha virt. eigenvalues --    3.24475   3.24641   3.24643   3.24736   3.28329
 Alpha virt. eigenvalues --    3.30273   3.30274   3.32903   3.33058   3.33061
 Alpha virt. eigenvalues --    3.33479   3.34652   3.38138   3.38139   3.42475
 Alpha virt. eigenvalues --    3.42908   3.42972   3.43218   3.43220   3.43601
 Alpha virt. eigenvalues --    3.46852   3.49922   3.49925   3.50675   3.52667
 Alpha virt. eigenvalues --    3.54491   3.57825   3.59853   3.60820   3.61612
 Alpha virt. eigenvalues --    3.62983   3.62984   3.65964   3.67096   3.67100
 Alpha virt. eigenvalues --    3.67938   3.69249   3.69250   3.70081   3.71048
 Alpha virt. eigenvalues --    3.71052   3.72079   3.72081   3.74237   3.76330
 Alpha virt. eigenvalues --    3.77729   3.79925   3.79928   3.80220   3.81073
 Alpha virt. eigenvalues --    3.85468   3.86398   3.86405   3.89077   3.90765
 Alpha virt. eigenvalues --    3.92940   3.94659   3.94661   3.98276   3.99395
 Alpha virt. eigenvalues --    3.99396   4.00344   4.00584   4.00586   4.00932
 Alpha virt. eigenvalues --    4.01880   4.03189   4.07815   4.07817   4.09974
 Alpha virt. eigenvalues --    4.12013   4.12014   4.13341   4.13509   4.14218
 Alpha virt. eigenvalues --    4.16451   4.16581   4.16585   4.20916   4.22658
 Alpha virt. eigenvalues --    4.23142   4.25174   4.25538   4.26820   4.26825
 Alpha virt. eigenvalues --    4.28509   4.28514   4.28612   4.28714   4.31869
 Alpha virt. eigenvalues --    4.31874   4.35812   4.39576   4.40397   4.40398
 Alpha virt. eigenvalues --    4.44086   4.48342   4.48345   4.51992   4.53330
 Alpha virt. eigenvalues --    4.60533   4.62523   4.62526   4.66455   4.66456
 Alpha virt. eigenvalues --    4.68277   4.68283   4.69123   4.69127   4.71300
 Alpha virt. eigenvalues --    4.73619   4.73623   4.78912   4.79191   4.80663
 Alpha virt. eigenvalues --    4.89009   4.91561   4.94409   4.94806   4.95251
 Alpha virt. eigenvalues --    4.95254   5.00765   5.03578   5.04783   5.04791
 Alpha virt. eigenvalues --    5.08270   5.08270   5.11721   5.17602   5.17605
 Alpha virt. eigenvalues --    5.33905   5.33909   5.38433   5.39860   5.43666
 Alpha virt. eigenvalues --    5.48534   5.58969   5.73414   5.74817   5.74819
 Alpha virt. eigenvalues --    5.82748   5.83757   5.83759   5.88220   5.88221
 Alpha virt. eigenvalues --    5.94018   5.96112   6.21617   6.25492   6.55694
 Alpha virt. eigenvalues --    6.55701   8.08791   8.72341  11.77949  11.89644
 Alpha virt. eigenvalues --   12.32254  12.61151  12.61152  12.90038  13.20150
 Alpha virt. eigenvalues --   13.20164  15.09148  15.22695
          Condensed to atoms (all electrons):
               1          2          3          4          5          6
     1  C    5.006931   0.438949  -0.028669  -0.062570   0.024920   0.386741
     2  C    0.438949   4.927559   0.455819  -0.014584  -0.062562  -0.012622
     3  C   -0.028669   0.455819   5.012466   0.455763  -0.028676  -0.064776
     4  C   -0.062570  -0.014584   0.455763   4.927539   0.438970  -0.012622
     5  C    0.024920  -0.062562  -0.028676   0.438970   5.006908   0.386748
     6  C    0.386741  -0.012622  -0.064776  -0.012622   0.386748   5.075044
     7  H    0.430367  -0.048413   0.010584  -0.001236   0.008779  -0.062888
     8  H   -0.053038   0.425433  -0.057802   0.007781  -0.000505   0.009348
     9  H   -0.000505   0.007782  -0.057800   0.425438  -0.053033   0.009348
    10  H    0.008781  -0.001237   0.010587  -0.048417   0.430362  -0.062890
    11  C    0.008038  -0.052616   0.364023  -0.052607   0.008032   0.000390
    12  C   -0.000302   0.003063  -0.052649   0.003065  -0.000303  -0.000104
    13  C   -0.000303   0.003063  -0.052622   0.003066  -0.000303  -0.000104
    14  C    0.000023  -0.000303   0.008031  -0.000303   0.000023  -0.000005
    15  H   -0.000238   0.002743   0.000190   0.002743  -0.000238  -0.000054
    16  C    0.000023  -0.000302   0.008028  -0.000302   0.000023  -0.000005
    17  H   -0.000238   0.002742   0.000173   0.002743  -0.000238  -0.000054
    18  C   -0.000005  -0.000104   0.000389  -0.000104  -0.000005   0.000001
    19  H   -0.000000   0.000002  -0.000286   0.000002  -0.000000   0.000000
    20  H   -0.000000   0.000002  -0.000286   0.000002  -0.000000   0.000000
    21  Cl  -0.061671   0.009578  -0.001013   0.009577  -0.061664   0.274579
    22  Cl   0.000000  -0.000000  -0.000030  -0.000000   0.000000   0.000000
               7          8          9         10         11         12
     1  C    0.430367  -0.053038  -0.000505   0.008781   0.008038  -0.000302
     2  C   -0.048413   0.425433   0.007782  -0.001237  -0.052616   0.003063
     3  C    0.010584  -0.057802  -0.057800   0.010587   0.364023  -0.052649
     4  C   -0.001236   0.007781   0.425438  -0.048417  -0.052607   0.003065
     5  C    0.008779  -0.000505  -0.053033   0.430362   0.008032  -0.000303
     6  C   -0.062888   0.009348   0.009348  -0.062890   0.000390  -0.000104
     7  H    0.569274  -0.010637   0.000122  -0.000394  -0.000286   0.000002
     8  H   -0.010637   0.582962  -0.000519   0.000122   0.000180   0.002743
     9  H    0.000122  -0.000519   0.582955  -0.010638   0.000174   0.002743
    10  H   -0.000394   0.000122  -0.010638   0.569282  -0.000286   0.000002
    11  C   -0.000286   0.000180   0.000174  -0.000286   5.012455   0.455718
    12  C    0.000002   0.002743   0.002743   0.000002   0.455718   4.927618
    13  C    0.000002   0.002742   0.002742   0.000002   0.455804  -0.014595
    14  C   -0.000000  -0.000238  -0.000238  -0.000000  -0.028672   0.438982
    15  H    0.000013   0.000477   0.000477   0.000013  -0.057810   0.425437
    16  C   -0.000000  -0.000238  -0.000238  -0.000000  -0.028671  -0.062548
    17  H    0.000013   0.000477   0.000477   0.000013  -0.057801   0.007784
    18  C    0.000000  -0.000054  -0.000054   0.000000  -0.064772  -0.012632
    19  H    0.000000   0.000013   0.000013   0.000000   0.010584  -0.048410
    20  H    0.000000   0.000013   0.000013   0.000000   0.010585  -0.001237
    21  Cl   0.003467  -0.000434  -0.000434   0.003469  -0.000030  -0.000000
    22  Cl  -0.000000  -0.000001  -0.000001  -0.000000  -0.001013   0.009575
              13         14         15         16         17         18
     1  C   -0.000303   0.000023  -0.000238   0.000023  -0.000238  -0.000005
     2  C    0.003063  -0.000303   0.002743  -0.000302   0.002742  -0.000104
     3  C   -0.052622   0.008031   0.000190   0.008028   0.000173   0.000389
     4  C    0.003066  -0.000303   0.002743  -0.000302   0.002743  -0.000104
     5  C   -0.000303   0.000023  -0.000238   0.000023  -0.000238  -0.000005
     6  C   -0.000104  -0.000005  -0.000054  -0.000005  -0.000054   0.000001
     7  H    0.000002  -0.000000   0.000013  -0.000000   0.000013   0.000000
     8  H    0.002742  -0.000238   0.000477  -0.000238   0.000477  -0.000054
     9  H    0.002742  -0.000238   0.000477  -0.000238   0.000477  -0.000054
    10  H    0.000002  -0.000000   0.000013  -0.000000   0.000013   0.000000
    11  C    0.455804  -0.028672  -0.057810  -0.028671  -0.057801  -0.064772
    12  C   -0.014595   0.438982   0.425437  -0.062548   0.007784  -0.012632
    13  C    4.927585  -0.062542   0.007780   0.438920   0.425427  -0.012620
    14  C   -0.062542   5.006900  -0.053035   0.024904  -0.000506   0.386754
    15  H    0.007780  -0.053035   0.582968  -0.000505  -0.000519   0.009348
    16  C    0.438920   0.024904  -0.000505   5.006942  -0.053029   0.386785
    17  H    0.425427  -0.000506  -0.000519  -0.053029   0.582976   0.009346
    18  C   -0.012620   0.386754   0.009348   0.386785   0.009346   5.074940
    19  H   -0.001238   0.430363  -0.010637   0.008780   0.000122  -0.062894
    20  H   -0.048415   0.008781   0.000122   0.430370  -0.010635  -0.062897
    21  Cl  -0.000000   0.000000  -0.000001   0.000000  -0.000001   0.000000
    22  Cl   0.009578  -0.061664  -0.000434  -0.061672  -0.000434   0.274574
              19         20         21         22
     1  C   -0.000000  -0.000000  -0.061671   0.000000
     2  C    0.000002   0.000002   0.009578  -0.000000
     3  C   -0.000286  -0.000286  -0.001013  -0.000030
     4  C    0.000002   0.000002   0.009577  -0.000000
     5  C   -0.000000  -0.000000  -0.061664   0.000000
     6  C    0.000000   0.000000   0.274579   0.000000
     7  H    0.000000   0.000000   0.003467  -0.000000
     8  H    0.000013   0.000013  -0.000434  -0.000001
     9  H    0.000013   0.000013  -0.000434  -0.000001
    10  H    0.000000   0.000000   0.003469  -0.000000
    11  C    0.010584   0.010585  -0.000030  -0.001013
    12  C   -0.048410  -0.001237  -0.000000   0.009575
    13  C   -0.001238  -0.048415  -0.000000   0.009578
    14  C    0.430363   0.008781   0.000000  -0.061664
    15  H   -0.010637   0.000122  -0.000001  -0.000434
    16  C    0.008780   0.430370   0.000000  -0.061672
    17  H    0.000122  -0.010635  -0.000001  -0.000434
    18  C   -0.062894  -0.062897   0.000000   0.274574
    19  H    0.569289  -0.000394  -0.000000   0.003474
    20  H   -0.000394   0.569291  -0.000000   0.003470
    21  Cl  -0.000000  -0.000000  16.939461   0.000000
    22  Cl   0.003474   0.003470   0.000000  16.939482
 Mulliken charges:
               1
     1  C   -0.097233
     2  C   -0.083993
     3  C    0.018557
     4  C   -0.083945
     5  C   -0.097237
     6  C    0.073926
     7  H    0.101233
     8  H    0.091173
     9  H    0.091175
    10  H    0.101230
    11  C    0.018583
    12  C   -0.083950
    13  C   -0.083968
    14  C   -0.097254
    15  H    0.091159
    16  C   -0.097263
    17  H    0.091158
    18  C    0.074004
    19  H    0.101218
    20  H    0.101216
    21  Cl  -0.114884
    22  Cl  -0.114904
 Sum of Mulliken charges =  -0.00000
 Mulliken charges with hydrogens summed into heavy atoms:
               1
     1  C    0.004000
     2  C    0.007180
     3  C    0.018557
     4  C    0.007230
     5  C    0.003992
     6  C    0.073926
    11  C    0.018583
    12  C    0.007209
    13  C    0.007190
    14  C    0.003964
    16  C    0.003953
    18  C    0.074004
    21  Cl  -0.114884
    22  Cl  -0.114904
 Electronic spatial extent (au):  <R**2>=           5590.2355
 Charge=             -0.0000 electrons
 Dipole moment (field-independent basis, Debye):
    X=              0.0002    Y=              0.0001    Z=              0.0000  Tot=              0.0002
 Quadrupole moment (field-independent basis, Debye-Ang):
   XX=           -110.5039   YY=            -91.7222   ZZ=            -91.8701
   XY=              0.1496   XZ=             -1.6768   YZ=              0.0134
 Traceless Quadrupole moment (field-independent basis, Debye-Ang):
   XX=            -12.4718   YY=              6.3099   ZZ=              6.1619
   XY=              0.1496   XZ=             -1.6768   YZ=              0.0134
 Octapole moment (field-independent basis, Debye-Ang**2):
  XXX=              0.3927  YYY=              0.3922  ZZZ=              4.3830  XYY=            -16.4911
  XXY=             -0.2583  XXZ=             -2.9103  XZZ=             16.1048  YZZ=             -0.1305
  YYZ=             -1.4722  XYZ=             -0.0109
 Hexadecapole moment (field-independent basis, Debye-Ang**3):
 XXXX=          -7021.9819 YYYY=           -337.9673 ZZZZ=           -387.4139 XXXY=             28.2640
 XXXZ=           -317.6643 YYYX=             24.8183 YYYZ=              2.2144 ZZZX=           -279.3708
 ZZZY=              2.1776 XXYY=          -1154.7708 XXZZ=          -1166.2736 YYZZ=           -140.7433
 XXYZ=              1.0740 YYXZ=            -91.2509 ZZXY=              8.1477
 N-N= 9.275445036572D+02 E-N=-5.114138841923D+03  KE= 1.377439467522D+03
 No NMR shielding tensors so no spin-rotation constants.
 Leave Link  601 at Wed May  4 15:10:25 2022, MaxMem=  2684354560 cpu:               1.7 elap:               0.3
 (Enter /apps/software/g16/l9999.exe)
 1\1\GINC-CNODE12\SP\RBLYP\CC-pVTZ\C12H8Cl2\LCZ\04-May-2022\0\\#p BLYP/
 cc-pVTZ\\3,8-dicl-dibenzene SP RKS BLYP cc-pVTZ\\0,1\C,0,-2.5816008418
 ,0.858283184,0.0008015685\C,0,-1.1942307521,0.8653626942,0.0009805434\
 C,0,-0.4818482166,2.0624118955,0.0002696943\C,0,-1.1941642345,3.259500
 5578,-0.0006284677\C,0,-2.5815339267,3.2666569157,-0.0008169716\C,0,-3
 .2667850308,2.0624891666,0.0001104888\H,0,-3.1277021325,-0.0739539917,
 0.0013068031\H,0,-0.6597752577,-0.0753574606,0.0016302582\H,0,-0.65965
 64649,4.2001910355,-0.0012431726\H,0,-3.1275834138,4.1989242727,-0.001
 5647805\C,0,1.0172566181,2.0623705989,0.0007816441\C,0,1.7297944005,2.
 0615456939,-1.1962774011\C,0,1.7293959808,2.0631559259,1.1979140145\C,
 0,3.117125426,2.0615024087,-1.2032177964\H,0,1.1953094309,2.0609278449
 ,-2.1369770743\C,0,3.1167839126,2.0631222706,1.2051929893\H,0,1.194685
 8394,2.0638033807,2.138491302\C,0,3.8021303247,2.062293378,0.001122298
 4\H,0,3.6635114239,2.0608602856,-2.1352874129\H,0,3.662876597,2.063734
 0867,2.1374365962\Cl,0,-5.0074713331,2.0625371637,-0.0004379395\Cl,0,5
 .5428489004,2.0622451127,0.0013688058\\Version=ES64L-G16RevA.03\State=
 1-A\HF=-1382.4904603\RMSD=8.454e-09\Dipole=-0.0000915,0.,-0.0000249\Qu
 adrupole=-9.3846501,4.6925264,4.6921237,0.0004222,-0.002065,0.\PG=C01 
 [X(C12H8Cl2)]\\@


 ERWIN WITH HIS PSI CAN DO
 CALCULATIONS QUITE A FEW.
 BUT ONE THING HAS NOT BEEN SEEN
 JUST WHAT DOES PSI REALLY MEAN.
 -- WALTER HUCKEL, TRANS. BY FELIX BLOCH
 Job cpu time:       0 days  0 hours 14 minutes 39.3 seconds.
 Elapsed time:       0 days  0 hours  1 minutes 50.4 seconds.
 File lengths (MBytes):  RWF=    163 Int=      0 D2E=      0 Chk=     19 Scr=      1
 Normal termination of Gaussian 16 at Wed May  4 15:10:25 2022.

Sender: Unischeduler System <lcz@mgt01>
Subject: Job 127862: <#!/bin/bash
#BSUB -J intel
#BSUB -o 3,8-dicl-dibenzene.out
#BSUB -n 8
#BSUB -q cqueue
#BSUB -R span[hosts=1]
export g16root=/apps/software
source /apps/software/g16/bsd/g16.profile
export GAUSS_SCRDIR=/scratch
/apps/software/g16/g16 < 3,8-dicl-dibenzene.inp > 3,8-dicl-dibenzene.out> Done

Job <#!/bin/bash
#BSUB -J intel
#BSUB -o 3,8-dicl-dibenzene.out
#BSUB -n 8
#BSUB -q cqueue
#BSUB -R span[hosts=1]
export g16root=/apps/software
source /apps/software/g16/bsd/g16.profile
export GAUSS_SCRDIR=/scratch
/apps/software/g16/g16 < 3,8-dicl-dibenzene.inp > 3,8-dicl-dibenzene.out> was submitted from host <mgt01> by user <lcz>.
Job was executed on host(s) <8*cnode12>, in queue <cqueue>, as user <lcz>.
</apps/users/lcz> was used as the home directory.
</apps/users/lcz/task2/section2/isomer2/BLYP_cc-pVTZ/Gaussian> was used as the working directory.
Started at 2022-05-04 15:08:35
Results reported at 2022-05-04 15:10:25

Your job looked like:

------------------------------------------------------------
# User input
#!/bin/bash
#BSUB -J intel
#BSUB -o 3,8-dicl-dibenzene.out
#BSUB -n 8
#BSUB -q cqueue
#BSUB -R span[hosts=1]
export g16root=/apps/software
source /apps/software/g16/bsd/g16.profile
export GAUSS_SCRDIR=/scratch
/apps/software/g16/g16 < 3,8-dicl-dibenzene.inp > 3,8-dicl-dibenzene.out
------------------------------------------------------------

Successfully completed.

Resource usage summary:

    CPU time   :          854.24 sec.
    Max Memory :               763 MB
    Max Processes  :               5


The output (if any) follows:

