
                                        *****************
                                        * O   R   C   A *
                                        *****************

                                            #,                                       
                                            ###                                      
                                            ####                                     
                                            #####                                    
                                            ######                                   
                                           ########,                                 
                                     ,,################,,,,,                         
                               ,,#################################,,                 
                          ,,##########################################,,             
                       ,#########################################, ''#####,          
                    ,#############################################,,   '####,        
                  ,##################################################,,,,####,       
                ,###########''''           ''''###############################       
              ,#####''   ,,,,##########,,,,          '''####'''          '####       
            ,##' ,,,,###########################,,,                        '##       
           ' ,,###''''                  '''############,,,                           
         ,,##''                                '''############,,,,        ,,,,,,###''
      ,#''                                            '''#######################'''  
     '                                                          ''''####''''         
             ,#######,   #######,   ,#######,      ##                                
            ,#'     '#,  ##    ##  ,#'     '#,    #''#        ######   ,####,        
            ##       ##  ##   ,#'  ##            #'  '#       #        #'  '#        
            ##       ##  #######   ##           ,######,      #####,   #    #        
            '#,     ,#'  ##    ##  '#,     ,#' ,#      #,         ##   #,  ,#        
             '#######'   ##     ##  '#######'  #'      '#     #####' # '####'        



                  #######################################################
                  #                        -***-                        #
                  #          Department of theory and spectroscopy      #
                  #    Directorship and core code : Frank Neese         #
                  #        Max Planck Institute fuer Kohlenforschung    #
                  #                Kaiser Wilhelm Platz 1               #
                  #                 D-45470 Muelheim/Ruhr               #
                  #                      Germany                        #
                  #                                                     #
                  #                  All rights reserved                #
                  #                        -***-                        #
                  #######################################################


                         Program Version 5.0.0 -  RELEASE  -
                                (SVN: $Rev: 19529$)
                ($Date: 2021-06-28 11:36:33 +0200 (Mo, 28 Jun 2021) $)


 With contributions from (in alphabetic order):
   Daniel Aravena         : Magnetic Suceptibility
   Michael Atanasov       : Ab Initio Ligand Field Theory (pilot matlab implementation)
   Alexander A. Auer      : GIAO ZORA, VPT2 properties, NMR spectrum
   Ute Becker             : Parallelization
   Giovanni Bistoni       : ED, misc. LED, open-shell LED, HFLD
   Martin Brehm           : Molecular dynamics
   Dmytro Bykov           : SCF Hessian
   Vijay G. Chilkuri      : MRCI spin determinant printing, contributions to CSF-ICE
   Dipayan Datta          : RHF DLPNO-CCSD density
   Achintya Kumar Dutta   : EOM-CC, STEOM-CC
   Dmitry Ganyushin       : Spin-Orbit,Spin-Spin,Magnetic field MRCI
   Miquel Garcia          : C-PCM Hessian, Gaussian charge scheme
   Yang Guo               : DLPNO-NEVPT2, F12-NEVPT2, CIM, IAO-localization
   Andreas Hansen         : Spin unrestricted coupled pair/coupled cluster methods
   Benjamin Helmich-Paris : MC-RPA, TRAH-SCF, COSX integrals
   Lee Huntington         : MR-EOM, pCC
   Robert Izsak           : Overlap fitted RIJCOSX, COSX-SCS-MP3, EOM
   Marcus Kettner         : VPT2
   Christian Kollmar      : KDIIS, OOCD, Brueckner-CCSD(T), CCSD density, CASPT2, CASPT2-K
   Simone Kossmann        : Meta GGA functionals, TD-DFT gradient, OOMP2, MP2 Hessian
   Martin Krupicka        : Initial AUTO-CI
   Lucas Lang             : DCDCAS
   Marvin Lechner         : AUTO-CI (C++ implementation), FIC-MRCC
   Dagmar Lenk            : GEPOL surface, SMD
   Dimitrios Liakos       : Extrapolation schemes; Compound Job, initial MDCI parallelization
   Dimitrios Manganas     : Further ROCIS development; embedding schemes
   Dimitrios Pantazis     : SARC Basis sets
   Anastasios Papadopoulos: AUTO-CI, single reference methods and gradients
   Taras Petrenko         : DFT Hessian,TD-DFT gradient, ASA, ECA, R-Raman, ABS, FL, XAS/XES, NRVS
   Peter Pinski           : DLPNO-MP2, DLPNO-MP2 Gradient
   Christoph Reimann      : Effective Core Potentials
   Marius Retegan         : Local ZFS, SOC
   Christoph Riplinger    : Optimizer, TS searches, QM/MM, DLPNO-CCSD(T), (RO)-DLPNO pert. Triples
   Tobias Risthaus        : Range-separated hybrids, TD-DFT gradient, RPA, STAB
   Michael Roemelt        : Original ROCIS implementation
   Masaaki Saitow         : Open-shell DLPNO-CCSD energy and density
   Barbara Sandhoefer     : DKH picture change effects
   Avijit Sen             : IP-ROCIS
   Kantharuban Sivalingam : CASSCF convergence, NEVPT2, FIC-MRCI
   Bernardo de Souza      : ESD, SOC TD-DFT
   Georgi Stoychev        : AutoAux, RI-MP2 NMR
   Willem Van den Heuvel  : Paramagnetic NMR
   Boris Wezisla          : Elementary symmetry handling
   Frank Wennmohs         : Technical directorship


 We gratefully acknowledge several colleagues who have allowed us to
 interface, adapt or use parts of their codes:
   Stefan Grimme, W. Hujo, H. Kruse, P. Pracht,  : VdW corrections, initial TS optimization,
                  C. Bannwarth, S. Ehlert          DFT functionals, gCP, sTDA/sTD-DF
   Ed Valeev, F. Pavosevic, A. Kumar             : LibInt (2-el integral package), F12 methods
   Garnet Chan, S. Sharma, J. Yang, R. Olivares  : DMRG
   Ulf Ekstrom                                   : XCFun DFT Library
   Mihaly Kallay                                 : mrcc  (arbitrary order and MRCC methods)
   Jiri Pittner, Ondrej Demel                    : Mk-CCSD
   Frank Weinhold                                : gennbo (NPA and NBO analysis)
   Christopher J. Cramer and Donald G. Truhlar   : smd solvation model
   Lars Goerigk                                  : TD-DFT with DH, B97 family of functionals
   V. Asgeirsson, H. Jonsson                     : NEB implementation
   FAccTs GmbH                                   : IRC, NEB, NEB-TS, DLPNO-Multilevel, CI-OPT
                                                   MM, QMMM, 2- and 3-layer-ONIOM, Crystal-QMMM,
                                                   LR-CPCM, SF, NACMEs, symmetry and pop. for TD-DFT,
                                                   nearIR, NL-DFT gradient (VV10), updates on ESD,
                                                   ML-optimized integration grids
   S Lehtola, MJT Oliveira, MAL Marques          : LibXC Library
   Liviu Ungur et al                             : ANISO software


 Your calculation uses the libint2 library for the computation of 2-el integrals
 For citations please refer to: http://libint.valeyev.net

 Your ORCA version has been built with support for libXC version: 5.1.0
 For citations please refer to: https://tddft.org/programs/libxc/

 This ORCA versions uses:
   CBLAS   interface :  Fast vector & matrix operations
   LAPACKE interface :  Fast linear algebra routines
   SCALAPACK package :  Parallel linear algebra routines
   Shared memory     :  Shared parallel matrices
   BLAS/LAPACK       :  OpenBLAS 0.3.15  USE64BITINT DYNAMIC_ARCH NO_AFFINITY SkylakeX SINGLE_THREADED
        Core in use  :  SkylakeX
   Copyright (c) 2011-2014, The OpenBLAS Project


================================================================================

----- Orbital basis set information -----
Your calculation utilizes the basis: def2-SVP
   F. Weigend and R. Ahlrichs, Phys. Chem. Chem. Phys. 7, 3297 (2005).

================================================================================
                                        WARNINGS
                       Please study these warnings very carefully!
================================================================================


WARNING: Geometry Optimization
  ===> : Switching off AutoStart
         For restart on a previous wavefunction, please use MOREAD

INFO   : the flag for use of the SHARK integral package has been found!

================================================================================
                                       INPUT FILE
================================================================================
NAME = /scratch/FeH2O62+-Opt_973/FeH2O62+-Opt.inp
|  1> ! RHF def2-SVP Opt Freq
|  2> 
|  3> %pal
|  4>     nprocs 16
|  5> end
|  6> 
|  7> *xyz 2 1 
|  8>  Fe                 6.20397196    1.03714637    0.17096759
|  9>  O                  8.02343961    0.99562593    0.15635557
| 10>  O                  6.24694430   -0.78162449    0.11972374
| 11>  O                  6.22607513    1.15774049   -1.64489818
| 12>  O                  4.38440248    1.01816527    0.20570458
| 13>  O                  6.16557932    2.85626904    0.21242489
| 14>  O                  6.16850601    1.06001114    1.99047834
| 15>  H                  4.06545864    1.78648828    0.68482314
| 16>  H                  4.08101507    0.21943896    0.64341723
| 17>  H                  6.97846238    3.18466572    0.60354733
| 18>  H                  5.41693185    3.14865831    0.73743487
| 19>  H                  6.90726982    0.55047930    2.33136739
| 20>  H                  5.34491271    0.67543823    2.29934360
| 21>  H                  8.36474659    1.75961228    0.62692374
| 22>  H                  8.32866067    0.19290442    0.58539903
| 23>  H                  7.07410906   -1.09285932    0.49459883
| 24>  H                  5.51267410   -1.13351772    0.62826915
| 25>  H                  6.97521418    0.66593956   -1.98916919
| 26>  H                  5.41263500    0.79176715   -1.99983292
| 27> *
| 28> 
| 29> 
| 30>                          ****END OF INPUT****
================================================================================

                       *****************************
                       * Geometry Optimization Run *
                       *****************************

Geometry optimization settings:
Update method            Update   .... BFGS
Choice of coordinates    CoordSys .... Z-matrix Internals
Initial Hessian          InHess   .... Almoef's Model

Convergence Tolerances:
Energy Change            TolE     ....  5.0000e-06 Eh
Max. Gradient            TolMAXG  ....  3.0000e-04 Eh/bohr
RMS Gradient             TolRMSG  ....  1.0000e-04 Eh/bohr
Max. Displacement        TolMAXD  ....  4.0000e-03 bohr
RMS Displacement         TolRMSD  ....  2.0000e-03 bohr
Strict Convergence                ....  False
------------------------------------------------------------------------------
                        ORCA OPTIMIZATION COORDINATE SETUP
------------------------------------------------------------------------------

The optimization will be done in new redundant internal coordinates
Making redundant internal coordinates   ...  (new redundants) done
Evaluating the initial hessian          ...  (Almloef) done
Evaluating the coordinates              ...  done
Calculating the B-matrix                .... done
Calculating the G-matrix                .... done
Diagonalizing the G-matrix              .... done
The first mode is                       ....   57
The number of degrees of freedom        ....   51

    -----------------------------------------------------------------
                    Redundant Internal Coordinates


    -----------------------------------------------------------------
         Definition                    Initial Value    Approx d2E/dq
    -----------------------------------------------------------------
      1. B(O   1,Fe  0)                  1.8200         1.166709   
      2. B(O   2,Fe  0)                  1.8200         1.166709   
      3. B(O   3,Fe  0)                  1.8200         1.166709   
      4. B(O   4,Fe  0)                  1.8200         1.166709   
      5. B(O   5,Fe  0)                  1.8200         1.166709   
      6. B(O   6,Fe  0)                  1.8200         1.166709   
      7. B(H   7,O   4)                  0.9600         0.519956   
      8. B(H   8,O   4)                  0.9600         0.519956   
      9. B(H   9,O   5)                  0.9600         0.519956   
     10. B(H  10,O   5)                  0.9600         0.519956   
     11. B(H  11,O   6)                  0.9600         0.519956   
     12. B(H  12,O   6)                  0.9600         0.519956   
     13. B(H  13,O   1)                  0.9600         0.519956   
     14. B(H  14,O   1)                  0.9600         0.519956   
     15. B(H  15,O   2)                  0.9600         0.519956   
     16. B(H  16,O   2)                  0.9600         0.519956   
     17. B(H  17,O   3)                  0.9600         0.519956   
     18. B(H  18,O   3)                  0.9600         0.519956   
     19. A(O   4,Fe  0,O   5)           89.3640         0.694653   
     20. A(O   2,Fe  0,O   3)           92.1684         0.694653   
     21. A(O   3,Fe  0,O   4)           91.8267         0.694653   
     22. A(O   1,Fe  0,O   6)           91.5927         0.694653   
     23. A(O   1,Fe  0,O   3)           88.9320         0.694653   
     24. A(O   5,Fe  0,O   6)           87.9518         0.694653   
     25. A(O   1,Fe  0,O   5)           92.5261         0.694653   
     26. A(O   3,Fe  0,O   5)           87.5214         0.694653   
     27. A(O   1,Fe  0,O   2)           87.3274         0.694653   
     28. A(O   4,Fe  0,O   6)           87.7975         0.694653   
     29. A(O   2,Fe  0,O   4)           90.7862         0.694653   
     30. A(O   2,Fe  0,O   6)           92.3591         0.694653   
     31. A(Fe  0,O   1,H  14)          109.4712         0.464522   
     32. A(H  13,O   1,H  14)          109.4712         0.321834   
     33. A(Fe  0,O   1,H  13)          109.4712         0.464522   
     34. A(Fe  0,O   2,H  16)          109.4712         0.464522   
     35. A(Fe  0,O   2,H  15)          109.4712         0.464522   
     36. A(H  15,O   2,H  16)          109.4712         0.321834   
     37. A(Fe  0,O   3,H  17)          109.4712         0.464522   
     38. A(H  17,O   3,H  18)          109.4712         0.321834   
     39. A(Fe  0,O   3,H  18)          109.4712         0.464522   
     40. A(H   7,O   4,H   8)          109.4712         0.321834   
     41. A(Fe  0,O   4,H   8)          109.4712         0.464522   
     42. A(Fe  0,O   4,H   7)          109.4712         0.464522   
     43. A(H   9,O   5,H  10)          109.4712         0.321834   
     44. A(Fe  0,O   5,H  10)          109.4712         0.464522   
     45. A(Fe  0,O   5,H   9)          109.4712         0.464522   
     46. A(H  11,O   6,H  12)          109.4712         0.321834   
     47. A(Fe  0,O   6,H  12)          109.4712         0.464522   
     48. A(Fe  0,O   6,H  11)          109.4712         0.464522   
     49. D(H  13,O   1,Fe  0,O   6)    -57.7877         0.008835   
     50. D(H  14,O   1,Fe  0,O   2)    -30.0759         0.008835   
     51. D(H  13,O   1,Fe  0,O   3)    117.7031         0.008835   
     52. D(H  13,O   1,Fe  0,O   2)   -150.0759         0.008835   
     53. D(H  14,O   1,Fe  0,O   5)    150.2316         0.008835   
     54. D(H  14,O   1,Fe  0,O   3)   -122.2969         0.008835   
     55. D(H  14,O   1,Fe  0,O   6)     62.2123         0.008835   
     56. D(H  13,O   1,Fe  0,O   5)     30.2316         0.008835   
     57. D(H  16,O   2,Fe  0,O   1)    145.4921         0.008835   
     58. D(H  16,O   2,Fe  0,O   4)    -33.8213         0.008835   
     59. D(H  16,O   2,Fe  0,O   3)   -125.6792         0.008835   
     60. D(H  15,O   2,Fe  0,O   4)   -153.8213         0.008835   
     61. D(H  15,O   2,Fe  0,O   3)    114.3208         0.008835   
     62. D(H  15,O   2,Fe  0,O   1)     25.4921         0.008835   
     63. D(H  16,O   2,Fe  0,O   6)     54.0065         0.008835   
     64. D(H  15,O   2,Fe  0,O   6)    -65.9935         0.008835   
     65. D(H  18,O   3,Fe  0,O   5)   -114.1922         0.008835   
     66. D(H  18,O   3,Fe  0,O   4)    -24.9083         0.008835   
     67. D(H  18,O   3,Fe  0,O   1)    153.2326         0.008835   
     68. D(H  17,O   3,Fe  0,O   5)    125.8078         0.008835   
     69. D(H  18,O   3,Fe  0,O   2)     65.9481         0.008835   
     70. D(H  17,O   3,Fe  0,O   4)   -144.9083         0.008835   
     71. D(H  17,O   3,Fe  0,O   2)    -54.0519         0.008835   
     72. D(H  17,O   3,Fe  0,O   1)     33.2326         0.008835   
     73. D(H   8,O   4,Fe  0,O   3)    122.2799         0.008835   
     74. D(H   7,O   4,Fe  0,O   6)     57.7543         0.008835   
     75. D(H   7,O   4,Fe  0,O   5)    -30.2204         0.008835   
     76. D(H   7,O   4,Fe  0,O   3)   -117.7201         0.008835   
     77. D(H   7,O   4,Fe  0,O   2)    150.0851         0.008835   
     78. D(H   8,O   4,Fe  0,O   5)   -150.2204         0.008835   
     79. D(H   8,O   4,Fe  0,O   2)     30.0851         0.008835   
     80. D(H   8,O   4,O   1,H  14)      0.0298         0.001500   
     81. D(H   8,O   4,O   1,H  13)   -119.7534         0.001500   
     82. D(H   7,O   4,O   1,H  14)    119.8133         0.001500   
     83. D(H   7,O   4,O   1,H  13)      0.0301         0.001500   
     84. D(H   8,O   4,Fe  0,O   6)    -62.2457         0.008835   
     85. D(H  10,O   5,O   2,H  16)      0.0036         0.001500   
     86. D(H   9,O   5,O   2,H  16)    120.0940         0.001500   
     87. D(H   9,O   5,O   2,H  15)      0.0036         0.001500   
     88. D(H  10,O   5,Fe  0,O   6)    -53.9976         0.008835   
     89. D(H  10,O   5,Fe  0,O   4)     33.8211         0.008835   
     90. D(H  10,O   5,Fe  0,O   3)    125.6771         0.008835   
     91. D(H  10,O   5,Fe  0,O   1)   -145.5024         0.008835   
     92. D(H   9,O   5,Fe  0,O   6)     66.0024         0.008835   
     93. D(H   9,O   5,Fe  0,O   4)    153.8211         0.008835   
     94. D(H  10,O   5,O   2,H  15)   -120.0868         0.001500   
     95. D(H   9,O   5,Fe  0,O   3)   -114.3229         0.008835   
     96. D(H   9,O   5,Fe  0,O   1)    -25.5024         0.008835   
     97. D(H  12,O   6,O   3,H  18)      0.0531         0.001500   
     98. D(H  11,O   6,O   3,H  18)    121.4682         0.001500   
     99. D(H  11,O   6,O   3,H  17)      0.0534         0.001500   
    100. D(H  12,O   6,Fe  0,O   5)    114.2439         0.008835   
    101. D(H  12,O   6,Fe  0,O   4)     24.8020         0.008835   
    102. D(H  12,O   6,Fe  0,O   2)    -65.8946         0.008835   
    103. D(H  12,O   6,Fe  0,O   1)   -153.2844         0.008835   
    104. D(H  11,O   6,Fe  0,O   5)   -125.7561         0.008835   
    105. D(H  11,O   6,Fe  0,O   4)    144.8020         0.008835   
    106. D(H  12,O   6,O   3,H  17)   -121.3616         0.001500   
    107. D(H  11,O   6,Fe  0,O   2)     54.1054         0.008835   
    108. D(H  11,O   6,Fe  0,O   1)    -33.2844         0.008835   
    -----------------------------------------------------------------

Number of atoms                         .... 19
Number of degrees of freedom            .... 108

         *************************************************************
         *                GEOMETRY OPTIMIZATION CYCLE   1            *
         *************************************************************
---------------------------------
CARTESIAN COORDINATES (ANGSTROEM)
---------------------------------
  Fe     6.203972    1.037146    0.170968
  O      8.023440    0.995626    0.156356
  O      6.246944   -0.781624    0.119724
  O      6.226075    1.157740   -1.644898
  O      4.384402    1.018165    0.205705
  O      6.165579    2.856269    0.212425
  O      6.168506    1.060011    1.990478
  H      4.065459    1.786488    0.684823
  H      4.081015    0.219439    0.643417
  H      6.978462    3.184666    0.603547
  H      5.416932    3.148658    0.737435
  H      6.907270    0.550479    2.331367
  H      5.344913    0.675438    2.299344
  H      8.364747    1.759612    0.626924
  H      8.328661    0.192904    0.585399
  H      7.074109   -1.092859    0.494599
  H      5.512674   -1.133518    0.628269
  H      6.975214    0.665940   -1.989169
  H      5.412635    0.791767   -1.999833

----------------------------
CARTESIAN COORDINATES (A.U.)
----------------------------
  NO LB      ZA    FRAG     MASS         X           Y           Z
   0 Fe   26.0000    0    55.850   11.723808    1.959923    0.323082
   1 O     8.0000    0    15.999   15.162104    1.881460    0.295469
   2 O     8.0000    0    15.999   11.805014   -1.477056    0.226245
   3 O     8.0000    0    15.999   11.765577    2.187812   -3.108407
   4 O     8.0000    0    15.999    8.285320    1.924054    0.388725
   5 O     8.0000    0    15.999   11.651256    5.397566    0.401425
   6 O     8.0000    0    15.999   11.656787    2.003131    3.761459
   7 H     1.0000    0     1.008    7.682603    3.375974    1.294128
   8 H     1.0000    0     1.008    7.712001    0.414680    1.215882
   9 H     1.0000    0     1.008   13.187383    6.018146    1.140539
  10 H     1.0000    0     1.008   10.236518    5.950102    1.393550
  11 H     1.0000    0     1.008   13.052848    1.040255    4.405646
  12 H     1.0000    0     1.008   10.100421    1.276393    4.345130
  13 H     1.0000    0     1.008   15.807080    3.325185    1.184714
  14 H     1.0000    0     1.008   15.738888    0.364537    1.106244
  15 H     1.0000    0     1.008   13.368129   -2.065205    0.934656
  16 H     1.0000    0     1.008   10.417444   -2.142038    1.187257
  17 H     1.0000    0     1.008   13.181245    1.258443   -3.758985
  18 H     1.0000    0     1.008   10.228398    1.496223   -3.779137

--------------------------------
INTERNAL COORDINATES (ANGSTROEM)
--------------------------------
 Fe     0   0   0     0.000000000000     0.00000000     0.00000000
 O      1   0   0     1.819999996556     0.00000000     0.00000000
 O      1   2   0     1.819999998723    87.32742365     0.00000000
 O      1   2   3     1.819999996308    88.93195843   267.77894440
 O      1   2   3     1.820000009115   177.99262569    20.00473223
 O      1   2   3     1.819999997538    92.52607242   180.30750819
 O      1   2   3     1.820000000187    91.59269068    92.28819468
 H      5   1   4     0.960000007972   109.47122029   242.27991320
 H      5   1   4     0.960000001460   109.47122035   122.27991362
 H      6   1   2     0.960000006115   109.47122050   334.49762204
 H      6   1   2     0.959999999296   109.47122063   214.49762256
 H      7   1   2     0.960000003828   109.47122063   326.71556765
 H      7   1   2     0.959999997784   109.47122098   206.71556775
 H      2   1   3     0.960000000104   109.47122095   209.92412478
 H      2   1   3     0.960000004507   109.47122070   329.92412509
 H      3   1   2     0.959999996195   109.47122079    25.49205148
 H      3   1   2     0.960000003104   109.47122125   145.49205180
 H      4   1   2     0.959999999641   109.47122034    33.23261025
 H      4   1   2     0.960000000179   109.47122090   153.23260990

---------------------------
INTERNAL COORDINATES (A.U.)
---------------------------
 Fe     0   0   0     0.000000000000     0.00000000     0.00000000
 O      1   0   0     3.439301557228     0.00000000     0.00000000
 O      1   2   0     3.439301561324    87.32742365     0.00000000
 O      1   2   3     3.439301556759    88.93195843   267.77894440
 O      1   2   3     3.439301580962   177.99262569    20.00473223
 O      1   2   3     3.439301559084    92.52607242   180.30750819
 O      1   2   3     3.439301564091    91.59269068    92.28819468
 H      5   1   4     1.814137103629   109.47122029   242.27991320
 H      5   1   4     1.814137091323   109.47122035   122.27991362
 H      6   1   2     1.814137100121   109.47122050   334.49762204
 H      6   1   2     1.814137087234   109.47122063   214.49762256
 H      7   1   2     1.814137095798   109.47122063   326.71556765
 H      7   1   2     1.814137084377   109.47122098   206.71556775
 H      2   1   3     1.814137088761   109.47122095   209.92412478
 H      2   1   3     1.814137097081   109.47122070   329.92412509
 H      3   1   2     1.814137081373   109.47122079    25.49205148
 H      3   1   2     1.814137094430   109.47122125   145.49205180
 H      4   1   2     1.814137087885   109.47122034    33.23261025
 H      4   1   2     1.814137088903   109.47122090   153.23260990

---------------------
BASIS SET INFORMATION
---------------------
There are 3 groups of distinct atoms

 Group   1 Type Fe  : 14s9p5d1f contracted to 5s3p2d1f pattern {63311/531/41/1}
 Group   2 Type O   : 7s4p1d contracted to 3s2p1d pattern {511/31/1}
 Group   3 Type H   : 4s1p contracted to 2s1p pattern {31/1}

Atom   0Fe   basis set group =>   1
Atom   1O    basis set group =>   2
Atom   2O    basis set group =>   2
Atom   3O    basis set group =>   2
Atom   4O    basis set group =>   2
Atom   5O    basis set group =>   2
Atom   6O    basis set group =>   2
Atom   7H    basis set group =>   3
Atom   8H    basis set group =>   3
Atom   9H    basis set group =>   3
Atom  10H    basis set group =>   3
Atom  11H    basis set group =>   3
Atom  12H    basis set group =>   3
Atom  13H    basis set group =>   3
Atom  14H    basis set group =>   3
Atom  15H    basis set group =>   3
Atom  16H    basis set group =>   3
Atom  17H    basis set group =>   3
Atom  18H    basis set group =>   3
--------------------------------------------------------------------------
WARNING: There was an error initializing an OpenFabrics device.

  Local host:   cnode08
  Local device: mlx5_0
--------------------------------------------------------------------------


           ************************************************************
           *        Program running with 16 parallel MPI-processes    *
           *              working on a common directory               *
           ************************************************************
------------------------------------------------------------------------------
                           ORCA GTO INTEGRAL CALCULATION
------------------------------------------------------------------------------
------------------------------------------------------------------------------
                   ___                                                        
                  /   \      - P O W E R E D   B Y -                         
                 /     \                                                     
                 |  |  |   _    _      __       _____    __    __             
                 |  |  |  | |  | |    /  \     |  _  \  |  |  /  |          
                  \  \/   | |  | |   /    \    | | | |  |  | /  /          
                 / \  \   | |__| |  /  /\  \   | |_| |  |  |/  /          
                |  |  |   |  __  | /  /__\  \  |    /   |      \           
                |  |  |   | |  | | |   __   |  |    \   |  |\   \          
                \     /   | |  | | |  |  |  |  | |\  \  |  | \   \       
                 \___/    |_|  |_| |__|  |__|  |_| \__\ |__|  \__/        
                                                                              
                      - O R C A' S   B I G   F R I E N D -                    
                                      &                                       
                       - I N T E G R A L  F E E D E R -                       
                                                                              
 v1 FN, 2020, v2 2021                                                         
------------------------------------------------------------------------------


Reading SHARK input file /scratch/FeH2O62+-Opt_973/FeH2O62+-Opt.SHARKINP.tmp ... ok
----------------------
SHARK INTEGRAL PACKAGE
----------------------

Number of atoms                             ...     19
Number of basis functions                   ...    175
Number of shells                            ...     83
Maximum angular momentum                    ...      3
Integral batch strategy                     ... SHARK/LIBINT Hybrid
RI-J (if used) integral strategy            ... SPLIT-RIJ (Revised 2003 algorithm where possible)
Printlevel                                  ...      1
Contraction scheme used                     ... SEGMENTED contraction
Coulomb Range Separation                    ... NOT USED
Exchange Range Separation                   ... NOT USED
Finite Nucleus Model                        ... NOT USED
Auxiliary Coulomb fitting basis             ... NOT available
Auxiliary J/K fitting basis                 ... NOT available
Auxiliary Correlation fitting basis         ... NOT available
Auxiliary 'external' fitting basis          ... NOT available
Integral threshold                          ...     2.500000e-11
Primitive cut-off                           ...     2.500000e-12
Primitive pair pre-selection threshold      ...     2.500000e-12

Calculating pre-screening integrals         ... done (  0.2 sec) Dimension = 83
Organizing shell pair data                  ... done (  0.0 sec)
Shell pair information
Total number of shell pairs                 ...      3486
Shell pairs after pre-screening             ...      3410
Total number of primitive shell pairs       ...     13195
Primitive shell pairs kept                  ...      9535
          la=0 lb=0:   1095 shell pairs
          la=1 lb=0:   1232 shell pairs
          la=1 lb=1:    378 shell pairs
          la=2 lb=0:    370 shell pairs
          la=2 lb=1:    216 shell pairs
          la=2 lb=2:     36 shell pairs
          la=3 lb=0:     47 shell pairs
          la=3 lb=1:     27 shell pairs
          la=3 lb=2:      8 shell pairs
          la=3 lb=3:      1 shell pairs

Calculating one electron integrals          ... done (  0.0 sec)
Calculating Nuclear repulsion               ... done (  0.0 sec) ENN=    767.815501670606 Eh

SHARK setup successfully completed in   0.3 seconds

Maximum memory used throughout the entire GTOINT-calculation: 12.5 MB
[cnode08:146004] 15 more processes have sent help message help-mpi-btl-openib.txt / error in device init
[cnode08:146004] Set MCA parameter "orte_base_help_aggregate" to 0 to see all help / error messages
--------------------------------------------------------------------------
WARNING: There was an error initializing an OpenFabrics device.

  Local host:   cnode08
  Local device: mlx5_0
--------------------------------------------------------------------------


           ************************************************************
           *        Program running with 16 parallel MPI-processes    *
           *              working on a common directory               *
           ************************************************************
-------------------------------------------------------------------------------
                                 ORCA SCF
-------------------------------------------------------------------------------

------------
SCF SETTINGS
------------
Hamiltonian:
 Ab initio Hamiltonian  Method          .... Hartree-Fock(GTOs)


General Settings:
 Integral files         IntName         .... /scratch/FeH2O62+-Opt_973/FeH2O62+-Opt
 Hartree-Fock type      HFTyp           .... RHF
 Total Charge           Charge          ....    2
 Multiplicity           Mult            ....    1
 Number of Electrons    NEL             ....   84
 Basis Dimension        Dim             ....  175
 Nuclear Repulsion      ENuc            ....    767.8155016706 Eh

Convergence Acceleration:
 DIIS                   CNVDIIS         .... on
   Start iteration      DIISMaxIt       ....    12
   Startup error        DIISStart       ....  0.200000
   # of expansion vecs  DIISMaxEq       ....     5
   Bias factor          DIISBfac        ....   1.050
   Max. coefficient     DIISMaxC        ....  10.000
 Trust-Rad. Augm. Hess. CNVTRAH         .... auto
   Auto Start mean grad. ratio tolernc. ....  1.125000
   Auto Start start iteration           ....    20
   Auto Start num. interpolation iter.  ....    10
   Max. Number of Micro iterations      ....    16
   Max. Number of Macro iterations      .... Maxiter - #DIIS iter
   Number of Davidson start vectors     ....     2
   Converg. threshold I  (grad. norm)   ....   1.000e-05
   Converg. threshold II (energy diff.) ....   1.000e-08
   Grad. Scal. Fac. for Micro threshold ....   0.100
   Minimum threshold for Micro iter.    ....   0.010
   NR start threshold (gradient norm)   ....   0.001
   Initial trust radius                 ....   0.400
   Minimum AH scaling param. (alpha)    ....   1.000
   Maximum AH scaling param. (alpha)    .... 1000.000
   Orbital update algorithm             .... Taylor
   White noise on init. David. guess    .... on
   Maximum white noise                  ....   0.010
   Quad. conv. algorithm                .... NR
 SOSCF                  CNVSOSCF        .... off
 Level Shifting         CNVShift        .... on
   Level shift para.    LevelShift      ....    0.2500
   Turn off err/grad.   ShiftErr        ....    0.0010
 Zerner damping         CNVZerner       .... off
 Static damping         CNVDamp         .... on
   Fraction old density DampFac         ....    0.7000
   Max. Damping (<1)    DampMax         ....    0.9800
   Min. Damping (>=0)   DampMin         ....    0.0000
   Turn off err/grad.   DampErr         ....    0.1000
 Fernandez-Rico         CNVRico         .... off

SCF Procedure:
 Maximum # iterations   MaxIter         ....   125
 SCF integral mode      SCFMode         .... Direct
   Integral package                     .... SHARK and LIBINT hybrid scheme
 Reset frequency        DirectResetFreq ....    20
 Integral Threshold     Thresh          ....  2.500e-11 Eh
 Primitive CutOff       TCut            ....  2.500e-12 Eh

Convergence Tolerance:
 Convergence Check Mode ConvCheckMode   .... Total+1el-Energy
 Convergence forced     ConvForced      .... 0
 Energy Change          TolE            ....  1.000e-08 Eh
 1-El. energy change                    ....  1.000e-05 Eh
 DIIS Error             TolErr          ....  5.000e-07


Diagonalization of the overlap matrix:
Smallest eigenvalue                        ... 6.973e-03
Time for diagonalization                   ...    0.004 sec
Threshold for overlap eigenvalues          ... 1.000e-08
Number of eigenvalues below threshold      ... 0
Time for construction of square roots      ...    0.003 sec
Total time needed                          ...    0.008 sec

Time for model grid setup =    0.057 sec

------------------------------
INITIAL GUESS: MODEL POTENTIAL
------------------------------
Loading Hartree-Fock densities                     ... done
Calculating cut-offs                               ... done
Initializing the effective Hamiltonian             ... done
Setting up the integral package (SHARK)            ... done
Starting the Coulomb interaction                   ... done (   0.2 sec)
Reading the grid                                   ... done
Mapping shells                                     ... done
Starting the XC term evaluation                    ... done (   0.0 sec)
Transforming the Hamiltonian                       ... done (   0.0 sec)
Diagonalizing the Hamiltonian                      ... done (   0.0 sec)
Back transforming the eigenvectors                 ... done (   0.0 sec)
Now organizing SCF variables                       ... done
                      ------------------
                      INITIAL GUESS DONE (   0.3 sec)
                      ------------------
--------------
SCF ITERATIONS
--------------
ITER       Energy         Delta-E        Max-DP      RMS-DP      [F,P]     Damp
               ***  Starting incremental Fock matrix formation  ***
  0  -1716.9254563387   0.000000000000 0.06177190  0.00215340  0.2559040 0.7000
  1  -1717.0923172605  -0.166860921772 0.04419382  0.00151819  0.1592309 0.7000
                               ***Turning on DIIS***
  2  -1717.1917794699  -0.099462209380 0.03009407  0.00093958  0.1054863 0.7000
  3  -1718.7078502587  -1.516070788851 0.06716656  0.00194628  0.0830118 0.0000
  4  -1717.4592541138   1.248596144928 0.01552405  0.00044225  0.0245635 0.0000
  5  -1717.4825694420  -0.023315328243 0.00693917  0.00022126  0.0097481 0.0000
  6  -1717.4247731394   0.057796302589 0.00214011  0.00006917  0.0026568 0.0000
  7  -1717.4266876717  -0.001914532277 0.00115467  0.00003148  0.0008302 0.0000
  8  -1717.4214721714   0.005215500300 0.00047294  0.00000870  0.0005181 0.0000
  9  -1717.4189514633   0.002520708089 0.00040880  0.00000540  0.0003993 0.0000
 10  -1717.4198504508  -0.000898987500 0.00063101  0.00000725  0.0002989 0.0000
[cnode08:146131] 15 more processes have sent help message help-mpi-btl-openib.txt / error in device init
[cnode08:146131] Set MCA parameter "orte_base_help_aggregate" to 0 to see all help / error messages
 11  -1717.4199881573  -0.000137706429 0.00042714  0.00000476  0.0001482 0.0000
 12  -1717.4201193308  -0.000131173552 0.00012329  0.00000134  0.0000462 0.0000
 13  -1717.4199710891   0.000148241702 0.00004165  0.00000043  0.0000172 0.0000
 14  -1717.4200387951  -0.000067706018 0.00001113  0.00000012  0.0000077 0.0000
 15  -1717.4199994763   0.000039318843 0.00000754  0.00000010  0.0000055 0.0000
 16  -1717.4200068753  -0.000007399000 0.00000740  0.00000011  0.0000043 0.0000
 17  -1717.4200008195   0.000006055825 0.00001022  0.00000015  0.0000032 0.0000
 18  -1717.4200016185  -0.000000799014 0.00000763  0.00000011  0.0000021 0.0000
 19  -1717.4200025565  -0.000000938069 0.00000439  0.00000006  0.0000014 0.0000
               *** Restarting incremental Fock matrix formation ***
                                   *** Resetting DIIS ***
 20  -1717.4200029137  -0.000000357194 0.00000100  0.00000001  0.0000012 0.0000
                            ***DIIS convergence achieved***

               *****************************************************
               *                     SUCCESS                       *
               *           SCF CONVERGED AFTER  21 CYCLES          *
               *****************************************************


----------------
TOTAL SCF ENERGY
----------------

Total Energy       :        -1717.42000076 Eh          -46733.37410 eV

Components:
Nuclear Repulsion  :          767.81550167 Eh           20893.32200 eV
Electronic Energy  :        -2485.23550243 Eh          -67626.69610 eV
One Electron Energy:        -3876.34280816 Eh         -105480.65034 eV
Two Electron Energy:         1391.10730573 Eh           37853.95425 eV

Virial components:
Potential Energy   :        -3434.96996023 Eh          -93470.28456 eV
Kinetic Energy     :         1717.54995947 Eh           46736.91046 eV
Virial Ratio       :            1.99992433


---------------
SCF CONVERGENCE
---------------

  Last Energy change         ...    2.1512e-06  Tolerance :   1.0000e-08
  Last MAX-Density change    ...    1.3297e-06  Tolerance :   1.0000e-07
  Last RMS-Density change    ...    1.5688e-08  Tolerance :   5.0000e-09
  Last DIIS Error            ...    9.3117e-07  Tolerance :   5.0000e-07

             **** THE GBW FILE WAS UPDATED (/scratch/FeH2O62+-Opt_973/FeH2O62+-Opt.gbw) ****
             **** DENSITY /scratch/FeH2O62+-Opt_973/FeH2O62+-Opt.scfp WAS UPDATED ****
             **** ENERGY FILE WAS UPDATED (/scratch/FeH2O62+-Opt_973/FeH2O62+-Opt.en.tmp) ****
             **** THE GBW FILE WAS UPDATED (/scratch/FeH2O62+-Opt_973/FeH2O62+-Opt.gbw) ****
             **** DENSITY /scratch/FeH2O62+-Opt_973/FeH2O62+-Opt.scfp WAS UPDATED ****
----------------
ORBITAL ENERGIES
----------------

  NO   OCC          E(Eh)            E(eV) 
   0   2.0000    -261.589400     -7118.2094 
   1   2.0000     -32.165003      -875.2542 
   2   2.0000     -27.653774      -752.4974 
   3   2.0000     -27.653082      -752.4786 
   4   2.0000     -27.652479      -752.4622 
   5   2.0000     -20.974894      -570.7559 
   6   2.0000     -20.970805      -570.6446 
   7   2.0000     -20.966186      -570.5189 
   8   2.0000     -20.965756      -570.5072 
   9   2.0000     -20.928309      -569.4882 
  10   2.0000     -20.891810      -568.4951 
  11   2.0000      -4.406160      -119.8977 
  12   2.0000      -2.995072       -81.5001 
  13   2.0000      -2.992921       -81.4415 
  14   2.0000      -2.991184       -81.3942 
  15   2.0000      -1.784942       -48.5708 
  16   2.0000      -1.757792       -47.8319 
  17   2.0000      -1.751734       -47.6671 
  18   2.0000      -1.748330       -47.5745 
  19   2.0000      -1.716820       -46.7171 
  20   2.0000      -1.680284       -45.7228 
  21   2.0000      -1.191952       -32.4347 
  22   2.0000      -1.165343       -31.7106 
  23   2.0000      -1.147476       -31.2244 
  24   2.0000      -1.130966       -30.7751 
  25   2.0000      -1.092239       -29.7213 
  26   2.0000      -1.084499       -29.5107 
  27   2.0000      -1.068979       -29.0884 
  28   2.0000      -1.044521       -28.4229 
  29   2.0000      -1.026849       -27.9420 
  30   2.0000      -1.009260       -27.4634 
  31   2.0000      -0.997646       -27.1473 
  32   2.0000      -0.983947       -26.7746 
  33   2.0000      -0.953369       -25.9425 
  34   2.0000      -0.941596       -25.6221 
  35   2.0000      -0.933170       -25.3929 
  36   2.0000      -0.917799       -24.9746 
  37   2.0000      -0.895589       -24.3702 
  38   2.0000      -0.865400       -23.5487 
  39   2.0000      -0.806361       -21.9422 
  40   2.0000      -0.791960       -21.5503 
  41   2.0000      -0.778437       -21.1823 
  42   0.0000      -0.246394        -6.7047 
  43   0.0000      -0.183240        -4.9862 
  44   0.0000      -0.162909        -4.4330 
  45   0.0000      -0.132245        -3.5986 
  46   0.0000      -0.126465        -3.4413 
  47   0.0000      -0.102403        -2.7865 
  48   0.0000      -0.078364        -2.1324 
  49   0.0000      -0.063514        -1.7283 
  50   0.0000      -0.030116        -0.8195 
  51   0.0000      -0.022770        -0.6196 
  52   0.0000      -0.012481        -0.3396 
  53   0.0000      -0.005868        -0.1597 
  54   0.0000       0.034284         0.9329 
  55   0.0000       0.068734         1.8703 
  56   0.0000       0.070005         1.9049 
  57   0.0000       0.259227         7.0539 
  58   0.0000       0.275016         7.4836 
  59   0.0000       0.309501         8.4220 
  60   0.0000       0.347314         9.4509 
  61   0.0000       0.384854        10.4724 
  62   0.0000       0.422000        11.4832 
  63   0.0000       0.428819        11.6688 
  64   0.0000       0.457613        12.4523 
  65   0.0000       0.474691        12.9170 
  66   0.0000       0.476452        12.9649 
  67   0.0000       0.522193        14.2096 
  68   0.0000       0.527000        14.3404 
  69   0.0000       0.531669        14.4674 
  70   0.0000       0.549107        14.9420 
  71   0.0000       0.561891        15.2898 
  72   0.0000       0.594193        16.1688 
  73   0.0000       0.669502        18.2181 
  74   0.0000       0.694604        18.9011 
  75   0.0000       0.724219        19.7070 
  76   0.0000       0.798655        21.7325 
  77   0.0000       0.845164        22.9981 
  78   0.0000       0.872870        23.7520 
  79   0.0000       0.888198        24.1691 
  80   0.0000       0.901606        24.5339 
  81   0.0000       0.919455        25.0197 
  82   0.0000       0.933020        25.3888 
  83   0.0000       0.950790        25.8723 
  84   0.0000       0.958379        26.0788 
  85   0.0000       0.984987        26.8029 
  86   0.0000       0.998905        27.1816 
  87   0.0000       0.999976        27.2107 
  88   0.0000       1.021292        27.7908 
  89   0.0000       1.038789        28.2669 
  90   0.0000       1.047523        28.5045 
  91   0.0000       1.061623        28.8882 
  92   0.0000       1.100699        29.9515 
  93   0.0000       1.111020        30.2324 
  94   0.0000       1.138034        30.9675 
  95   0.0000       1.213646        33.0250 
  96   0.0000       1.233461        33.5642 
  97   0.0000       1.276010        34.7220 
  98   0.0000       1.327183        36.1145 
  99   0.0000       1.351738        36.7827 
 100   0.0000       1.355383        36.8818 
 101   0.0000       1.388714        37.7888 
 102   0.0000       1.407716        38.3059 
 103   0.0000       1.408799        38.3354 
 104   0.0000       1.418986        38.6126 
 105   0.0000       1.452530        39.5254 
 106   0.0000       1.464912        39.8623 
 107   0.0000       1.508267        41.0420 
 108   0.0000       1.544181        42.0193 
 109   0.0000       1.603159        43.6242 
 110   0.0000       1.618416        44.0393 
 111   0.0000       1.655228        45.0411 
 112   0.0000       1.668502        45.4022 
 113   0.0000       1.683782        45.8180 
 114   0.0000       1.690842        46.0102 
 115   0.0000       1.696429        46.1622 
 116   0.0000       1.717060        46.7236 
 117   0.0000       1.762857        47.9698 
 118   0.0000       1.778098        48.3845 
 119   0.0000       1.809311        49.2338 
 120   0.0000       1.824002        49.6336 
 121   0.0000       1.919484        52.2318 
 122   0.0000       2.012047        54.7506 
 123   0.0000       2.059210        56.0339 
 124   0.0000       2.069492        56.3138 
 125   0.0000       2.128051        57.9072 
 126   0.0000       2.172572        59.1187 
 127   0.0000       2.183544        59.4172 
 128   0.0000       2.195414        59.7402 
 129   0.0000       2.199016        59.8383 
 130   0.0000       2.222049        60.4650 
 131   0.0000       2.245911        61.1143 
 132   0.0000       2.266998        61.6881 
 133   0.0000       2.272573        61.8399 
 134   0.0000       2.280345        62.0513 
 135   0.0000       2.316780        63.0428 
 136   0.0000       2.403784        65.4103 
 137   0.0000       2.428299        66.0774 
 138   0.0000       2.853452        77.6464 
 139   0.0000       2.866929        78.0131 
 140   0.0000       2.906931        79.1016 
 141   0.0000       2.959788        80.5399 
 142   0.0000       2.995347        81.5075 
 143   0.0000       3.008415        81.8631 
 144   0.0000       3.046061        82.8875 
 145   0.0000       3.084160        83.9243 
 146   0.0000       3.094199        84.1974 
 147   0.0000       3.107994        84.5728 
 148   0.0000       3.119065        84.8741 
 149   0.0000       3.131754        85.2194 
 150   0.0000       3.152589        85.7863 
 151   0.0000       3.163718        86.0891 
 152   0.0000       3.191374        86.8417 
 153   0.0000       3.219939        87.6190 
 154   0.0000       3.269650        88.9717 
 155   0.0000       3.368515        91.6620 
 156   0.0000       3.522616        95.8552 
 157   0.0000       3.565800        97.0304 
 158   0.0000       3.587545        97.6221 
 159   0.0000       3.606103        98.1270 
 160   0.0000       3.675127       100.0053 
 161   0.0000       3.717508       101.1585 
 162   0.0000       3.766374       102.4883 
 163   0.0000       3.823405       104.0401 
 164   0.0000       3.850064       104.7656 
 165   0.0000       3.895969       106.0147 
 166   0.0000       3.928591       106.9024 
 167   0.0000       3.941942       107.2657 
 168   0.0000       4.184578       113.8682 
 169   0.0000       4.259344       115.9026 
 170   0.0000       4.278343       116.4196 
 171   0.0000       4.295929       116.8982 
 172   0.0000       4.502861       122.5291 
 173   0.0000       4.507507       122.6555 
 174   0.0000       4.510247       122.7301 

                    ********************************
                    * MULLIKEN POPULATION ANALYSIS *
                    ********************************

-----------------------
MULLIKEN ATOMIC CHARGES
-----------------------
   0 Fe:    0.885502
   1 O :   -0.299999
   2 O :   -0.293878
   3 O :   -0.300905
   4 O :   -0.300187
   5 O :   -0.277562
   6 O :   -0.309758
   7 H :    0.250725
   8 H :    0.234713
   9 H :    0.241673
  10 H :    0.235380
  11 H :    0.236562
  12 H :    0.231408
  13 H :    0.255604
  14 H :    0.229306
  15 H :    0.234270
  16 H :    0.236549
  17 H :    0.253424
  18 H :    0.257172
Sum of atomic charges:    2.0000000

--------------------------------
MULLIKEN REDUCED ORBITAL CHARGES
--------------------------------
  0 Fes       :     6.204598  s :     6.204598
      pz      :     4.128743  p :    12.379467
      px      :     4.122395
      py      :     4.128329
      dz2     :     0.276130  d :     6.525192
      dxz     :     1.997985
      dyz     :     1.998076
      dx2y2   :     0.262904
      dxy     :     1.990097
      f0      :     0.001634  f :     0.005241
      f+1     :     0.000646
      f-1     :     0.000756
      f+2     :     0.000229
      f-2     :     0.000005
      f+3     :     0.000976
      f-3     :     0.000993
  1 O s       :     3.638575  s :     3.638575
      pz      :     1.712125  p :     4.650206
      px      :     1.726628
      py      :     1.211453
      dz2     :     0.000620  d :     0.011218
      dxz     :     0.002076
      dyz     :     0.005496
      dx2y2   :     0.000889
      dxy     :     0.002137
  2 O s       :     3.635296  s :     3.635296
      pz      :     1.717316  p :     4.647260
      px      :     1.210306
      py      :     1.719638
      dz2     :     0.000720  d :     0.011322
      dxz     :     0.005282
      dyz     :     0.002174
      dx2y2   :     0.000886
      dxy     :     0.002259
  3 O s       :     3.642755  s :     3.642755
      pz      :     1.689418  p :     4.647605
      px      :     1.223949
      py      :     1.734238
      dz2     :     0.001035  d :     0.010545
      dxz     :     0.002243
      dyz     :     0.002049
      dx2y2   :     0.000389
      dxy     :     0.004829
  4 O s       :     3.640477  s :     3.640477
      pz      :     1.701619  p :     4.648439
      px      :     1.737269
      py      :     1.209551
      dz2     :     0.000668  d :     0.011271
      dxz     :     0.001968
      dyz     :     0.005698
      dx2y2   :     0.000942
      dxy     :     0.001995
  5 O s       :     3.635356  s :     3.635356
      pz      :     1.694612  p :     4.631055
      px      :     1.210040
      py      :     1.726402
      dz2     :     0.000816  d :     0.011150
      dxz     :     0.005604
      dyz     :     0.001903
      dx2y2   :     0.000945
      dxy     :     0.001883
  6 O s       :     3.632751  s :     3.632751
      pz      :     1.726973  p :     4.666109
      px      :     1.221338
      py      :     1.717798
      dz2     :     0.001127  d :     0.010897
      dxz     :     0.002211
      dyz     :     0.002075
      dx2y2   :     0.000377
      dxy     :     0.005107
  7 H s       :     0.675844  s :     0.675844
      pz      :     0.020727  p :     0.073430
      px      :     0.017190
      py      :     0.035514
  8 H s       :     0.691445  s :     0.691445
      pz      :     0.019914  p :     0.073842
      px      :     0.017659
      py      :     0.036269
  9 H s       :     0.684492  s :     0.684492
      pz      :     0.019151  p :     0.073835
      px      :     0.036846
      py      :     0.017838
 10 H s       :     0.690942  s :     0.690942
      pz      :     0.022899  p :     0.073678
      px      :     0.033684
      py      :     0.017094
 11 H s       :     0.690425  s :     0.690425
      pz      :     0.017527  p :     0.073013
      px      :     0.033718
      py      :     0.021768
 12 H s       :     0.695237  s :     0.695237
      pz      :     0.016878  p :     0.073355
      px      :     0.037969
      py      :     0.018508
 13 H s       :     0.670995  s :     0.670995
      pz      :     0.020608  p :     0.073401
      px      :     0.017484
      py      :     0.035309
 14 H s       :     0.696735  s :     0.696735
      pz      :     0.020053  p :     0.073959
      px      :     0.017750
      py      :     0.036156
 15 H s       :     0.691891  s :     0.691891
      pz      :     0.018641  p :     0.073840
      px      :     0.037665
      py      :     0.017533
 16 H s       :     0.689846  s :     0.689846
      pz      :     0.022000  p :     0.073604
      px      :     0.033292
      py      :     0.018313
 17 H s       :     0.673515  s :     0.673515
      pz      :     0.016380  p :     0.073061
      px      :     0.035109
      py      :     0.021572
 18 H s       :     0.669636  s :     0.669636
      pz      :     0.016625  p :     0.073191
      px      :     0.038247
      py      :     0.018320


                     *******************************
                     * LOEWDIN POPULATION ANALYSIS *
                     *******************************

----------------------
LOEWDIN ATOMIC CHARGES
----------------------
   0 Fe:    0.150685
   1 O :    0.072785
   2 O :    0.068120
   3 O :    0.058754
   4 O :    0.074908
   5 O :    0.072619
   6 O :    0.053529
   7 H :    0.127151
   8 H :    0.115402
   9 H :    0.121826
  10 H :    0.117191
  11 H :    0.119115
  12 H :    0.115950
  13 H :    0.130624
  14 H :    0.112930
  15 H :    0.117234
  16 H :    0.119167
  17 H :    0.124758
  18 H :    0.127250

-------------------------------
LOEWDIN REDUCED ORBITAL CHARGES
-------------------------------
  0 Fes       :     6.250500  s :     6.250500
      pz      :     4.248354  p :    12.719326
      px      :     4.230155
      py      :     4.240817
      dz2     :     0.437037  d :     6.870806
      dxz     :     2.004024
      dyz     :     2.013972
      dx2y2   :     0.428171
      dxy     :     1.987602
      f0      :     0.002781  f :     0.008683
      f+1     :     0.001020
      f-1     :     0.001286
      f+2     :     0.000380
      f-2     :     0.000005
      f+3     :     0.001599
      f-3     :     0.001610
  1 O s       :     3.316286  s :     3.316286
      pz      :     1.691654  p :     4.588667
      px      :     1.641026
      py      :     1.255987
      dz2     :     0.000298  d :     0.022262
      dxz     :     0.002969
      dyz     :     0.010213
      dx2y2   :     0.003406
      dxy     :     0.005376
  2 O s       :     3.317624  s :     3.317624
      pz      :     1.698088  p :     4.591705
      px      :     1.256588
      py      :     1.637029
      dz2     :     0.000519  d :     0.022550
      dxz     :     0.009795
      dyz     :     0.003194
      dx2y2   :     0.003398
      dxy     :     0.005646
  3 O s       :     3.319453  s :     3.319453
      pz      :     1.614022  p :     4.600758
      px      :     1.270346
      py      :     1.716389
      dz2     :     0.002296  d :     0.021035
      dxz     :     0.005684
      dyz     :     0.002808
      dx2y2   :     0.001333
      dxy     :     0.008915
  4 O s       :     3.315856  s :     3.315856
      pz      :     1.681410  p :     4.586860
      px      :     1.649423
      py      :     1.256027
      dz2     :     0.000296  d :     0.022376
      dxz     :     0.002817
      dyz     :     0.010683
      dx2y2   :     0.003496
      dxy     :     0.005084
  5 O s       :     3.317364  s :     3.317364
      pz      :     1.687676  p :     4.587965
      px      :     1.257231
      py      :     1.643058
      dz2     :     0.000512  d :     0.022051
      dxz     :     0.010458
      dyz     :     0.002643
      dx2y2   :     0.003548
      dxy     :     0.004891
  6 O s       :     3.319435  s :     3.319435
      pz      :     1.643179  p :     4.605009
      px      :     1.265224
      py      :     1.696607
      dz2     :     0.002482  d :     0.022028
      dxz     :     0.005520
      dyz     :     0.003086
      dx2y2   :     0.001370
      dxy     :     0.009570
  7 H s       :     0.689094  s :     0.689094
      pz      :     0.059268  p :     0.183754
      px      :     0.052541
      py      :     0.071945
  8 H s       :     0.700551  s :     0.700551
      pz      :     0.057288  p :     0.184046
      px      :     0.052724
      py      :     0.074034
  9 H s       :     0.695288  s :     0.695288
      pz      :     0.053984  p :     0.182886
      px      :     0.075571
      py      :     0.053332
 10 H s       :     0.700013  s :     0.700013
      pz      :     0.063412  p :     0.182797
      px      :     0.067857
      py      :     0.051528
 11 H s       :     0.696871  s :     0.696871
      pz      :     0.053587  p :     0.184013
      px      :     0.068045
      py      :     0.062382
 12 H s       :     0.699489  s :     0.699489
      pz      :     0.051791  p :     0.184561
      px      :     0.078599
      py      :     0.054171
 13 H s       :     0.685668  s :     0.685668
      pz      :     0.059129  p :     0.183707
      px      :     0.053227
      py      :     0.071352
 14 H s       :     0.702840  s :     0.702840
      pz      :     0.057456  p :     0.184229
      px      :     0.052400
      py      :     0.074374
 15 H s       :     0.698867  s :     0.698867
      pz      :     0.053863  p :     0.183899
      px      :     0.077964
      py      :     0.052073
 16 H s       :     0.697323  s :     0.697323
      pz      :     0.062551  p :     0.183510
      px      :     0.066733
      py      :     0.054225
 17 H s       :     0.691977  s :     0.691977
      pz      :     0.051506  p :     0.183265
      px      :     0.069953
      py      :     0.061806
 18 H s       :     0.689358  s :     0.689358
      pz      :     0.052113  p :     0.183392
      px      :     0.077697
      py      :     0.053582


                      *****************************
                      * MAYER POPULATION ANALYSIS *
                      *****************************

  NA   - Mulliken gross atomic population
  ZA   - Total nuclear charge
  QA   - Mulliken gross atomic charge
  VA   - Mayer's total valence
  BVA  - Mayer's bonded valence
  FA   - Mayer's free valence

  ATOM       NA         ZA         QA         VA         BVA        FA
  0 Fe    25.1145    26.0000     0.8855     2.1041     2.1041    -0.0000
  1 O      8.3000     8.0000    -0.3000     2.2096     2.2096    -0.0000
  2 O      8.2939     8.0000    -0.2939     2.2003     2.2003     0.0000
  3 O      8.3009     8.0000    -0.3009     2.2297     2.2297     0.0000
  4 O      8.3002     8.0000    -0.3002     2.2107     2.2107    -0.0000
  5 O      8.2776     8.0000    -0.2776     2.2264     2.2264     0.0000
  6 O      8.3098     8.0000    -0.3098     2.1788     2.1788    -0.0000
  7 H      0.7493     1.0000     0.2507     0.9678     0.9678    -0.0000
  8 H      0.7653     1.0000     0.2347     0.9771     0.9771    -0.0000
  9 H      0.7583     1.0000     0.2417     0.9703     0.9703     0.0000
 10 H      0.7646     1.0000     0.2354     0.9743     0.9743    -0.0000
 11 H      0.7634     1.0000     0.2366     0.9866     0.9866    -0.0000
 12 H      0.7686     1.0000     0.2314     0.9927     0.9927    -0.0000
 13 H      0.7444     1.0000     0.2556     0.9643     0.9643    -0.0000
 14 H      0.7707     1.0000     0.2293     0.9814     0.9814    -0.0000
 15 H      0.7657     1.0000     0.2343     0.9800     0.9800    -0.0000
 16 H      0.7635     1.0000     0.2365     0.9788     0.9788    -0.0000
 17 H      0.7466     1.0000     0.2534     0.9599     0.9599     0.0000
 18 H      0.7428     1.0000     0.2572     0.9566     0.9566     0.0000

  Mayer bond orders larger than 0.100000
B(  0-Fe,  1-O ) :   0.3176 B(  0-Fe,  2-O ) :   0.3137 B(  0-Fe,  3-O ) :   0.3653 
B(  0-Fe,  4-O ) :   0.3123 B(  0-Fe,  5-O ) :   0.3458 B(  0-Fe,  6-O ) :   0.3101 
B(  1-O , 13-H ) :   0.9355 B(  1-O , 14-H ) :   0.9499 B(  2-O , 15-H ) :   0.9462 
B(  2-O , 16-H ) :   0.9435 B(  3-O , 17-H ) :   0.9371 B(  3-O , 18-H ) :   0.9359 
B(  4-O ,  7-H ) :   0.9389 B(  4-O ,  8-H ) :   0.9473 B(  5-O ,  9-H ) :   0.9440 
B(  5-O , 10-H ) :   0.9463 B(  6-O , 11-H ) :   0.9405 B(  6-O , 12-H ) :   0.9423 


-------
TIMINGS
-------

Total SCF time: 0 days 0 hours 0 min 7 sec 

Total time                  ....       7.758 sec
Sum of individual times     ....       7.560 sec  ( 97.5%)

Fock matrix formation       ....       7.042 sec  ( 90.8%)
Diagonalization             ....       0.139 sec  (  1.8%)
Density matrix formation    ....       0.006 sec  (  0.1%)
Population analysis         ....       0.009 sec  (  0.1%)
Initial guess               ....       0.201 sec  (  2.6%)
Orbital Transformation      ....       0.000 sec  (  0.0%)
Orbital Orthonormalization  ....       0.000 sec  (  0.0%)
DIIS solution               ....       0.108 sec  (  1.4%)

Maximum memory used throughout the entire SCF-calculation: 229.3 MB

-------------------------   --------------------
FINAL SINGLE POINT ENERGY     -1717.420000762549
-------------------------   --------------------

--------------------------------------------------------------------------
WARNING: There was an error initializing an OpenFabrics device.

  Local host:   cnode08
  Local device: mlx5_0
--------------------------------------------------------------------------


           ************************************************************
           *        Program running with 16 parallel MPI-processes    *
           *              working on a common directory               *
           ************************************************************
------------------------------------------------------------------------------
                         ORCA SCF GRADIENT CALCULATION
------------------------------------------------------------------------------

Gradient of the Hartree-Fock SCF energy:
Hartree-Fock type                ... RHF
Number of operators              ...    1
Number of atoms                  ...   19
Basis set dimensions             ...  175
Integral neglect threshold       ... 2.5e-11
Integral primitive cutoff        ... 2.5e-12
SHARK Integral package           ... ON

Nuc. rep. gradient       (SHARK) ... done (  0.0 sec)
HCore & Overlap gradient (SHARK) ... done (  0.0 sec)
Two-Electron gradient    (SHARK) ... done (  2.6 sec)

------------------
CARTESIAN GRADIENT
------------------

   1   Fe  :    0.000660169   -0.019209191    0.035029480
   2   O   :   -0.065548773    0.001643812   -0.021609793
   3   O   :   -0.000182859    0.067735462   -0.018671540
   4   O   :    0.001510548    0.019684265    0.062509121
   5   O   :    0.065894192    0.005121096   -0.018846335
   6   O   :   -0.000869619   -0.064100338   -0.018899491
   7   O   :   -0.001038034    0.023826962   -0.071970496
   8   H   :    0.019019253    0.015295553    0.009761960
   9   H   :    0.021197170   -0.018215756    0.010284695
  10   H   :    0.021293188   -0.018061320    0.004366733
  11   H   :   -0.021800734   -0.019025777    0.005893099
  12   H   :    0.015756356   -0.008959463   -0.018009458
  13   H   :   -0.017443649   -0.006210320   -0.018310651
  14   H   :   -0.018462034    0.015238222    0.008357384
  15   H   :   -0.022131457   -0.021819348    0.008268585
  16   H   :    0.021258039    0.021640369    0.008352685
  17   H   :   -0.018782508    0.019687136    0.010326685
  18   H   :    0.012859758   -0.008167012    0.011745445
  19   H   :   -0.013189007   -0.006104352    0.011421893

Difference to translation invariance:
           :   -0.0000000001   -0.0000000000    0.0000000000

Difference to rotation invariance:
           :   -0.0000025848   -0.0000022124    0.0000001850

Norm of the cartesian gradient     ...    0.1983454431
RMS gradient                       ...    0.0262714957
MAX gradient                       ...    0.0719704960

-------
TIMINGS
-------

Total SCF gradient time            ...        2.643 sec

One electron gradient       ....       0.025 sec  (  1.0%)
Two electron gradient       ....       2.557 sec  ( 96.8%)

Maximum memory used throughout the entire SCFGRAD-calculation: 29.6 MB
[cnode08:146263] 15 more processes have sent help message help-mpi-btl-openib.txt / error in device init
[cnode08:146263] Set MCA parameter "orte_base_help_aggregate" to 0 to see all help / error messages
------------------------------------------------------------------------------
                         ORCA GEOMETRY RELAXATION STEP
------------------------------------------------------------------------------

Reading the OPT-File                    .... done
Getting information on internals        .... done
Copying old internal coords+grads       .... done
Making the new internal coordinates     .... (new redundants).... done
Validating the new internal coordinates .... (new redundants).... done
Calculating the B-matrix                .... done
Calculating the G,G- and P matrices     .... done
Transforming gradient to internals      .... done
Projecting the internal gradient        .... done
Number of atoms                         ....  19
Number of internal coordinates          .... 108
Current Energy                          .... -1717.420000763 Eh
Current gradient norm                   ....     0.198345443 Eh/bohr
Maximum allowed component of the step   ....  0.300
Current trust radius                    ....  0.300
Evaluating the initial hessian          ....  (Almloef) done
Projecting the Hessian                  .... done
Forming the augmented Hessian           .... done
Diagonalizing the augmented Hessian     .... done
Last element of RFO vector              ....  0.939153276
Lowest eigenvalues of augmented Hessian:
 -0.089723222  0.005144604  0.005167897  0.005180870  0.008834792
Length of the computed step             ....  0.365753248
Warning: the length of the step is outside the trust region - taking restricted step instead
The input lambda is                     ....    -0.089723
   iter:   1  x=   -0.156668  g=    0.653907 f(x)=     0.043775
   iter:   2  x=   -0.191889  g=    0.347751 f(x)=     0.012248
   iter:   3  x=   -0.196831  g=    0.275475 f(x)=     0.001361
   iter:   4  x=   -0.196905  g=    0.267450 f(x)=     0.000020
   iter:   5  x=   -0.196905  g=    0.267332 f(x)=     0.000000
   iter:   6  x=   -0.196905  g=    0.267331 f(x)=     0.000000
The output lambda is                    ....    -0.196905 (6 iterations)
The final length of the internal step   ....  0.300000000
Converting the step to cartesian space:
 Initial RMS(Int)=    0.0288675135
Transforming coordinates:
 Iter   0:  RMS(Cart)=    0.0863954415 RMS(Int)=    0.0291564972
 Iter   1:  RMS(Cart)=    0.0022071382 RMS(Int)=    0.0014345047
 Iter   2:  RMS(Cart)=    0.0000908960 RMS(Int)=    0.0000763070
 Iter   3:  RMS(Cart)=    0.0000099410 RMS(Int)=    0.0000056058
 Iter   4:  RMS(Cart)=    0.0000006269 RMS(Int)=    0.0000004977
 Iter   5:  RMS(Cart)=    0.0000000403 RMS(Int)=    0.0000000249
done
Storing new coordinates                 .... done

                                .--------------------.
          ----------------------|Geometry convergence|-------------------------
          Item                value                   Tolerance       Converged
          ---------------------------------------------------------------------
          RMS gradient        0.0275877632            0.0001000000      NO
          MAX gradient        0.1089358750            0.0003000000      NO
          RMS step            0.0288675135            0.0020000000      NO
          MAX step            0.0798874731            0.0040000000      NO
          ........................................................
          Max(Bonds)      0.0423      Max(Angles)    3.55
          Max(Dihed)        1.81      Max(Improp)    0.00
          ---------------------------------------------------------------------

The optimization has not yet converged - more geometry cycles are needed


    ---------------------------------------------------------------------------
                         Redundant Internal Coordinates
                            (Angstroem and degrees)

        Definition                    Value    dE/dq     Step     New-Value
    ----------------------------------------------------------------------------
     1. B(O   1,Fe  0)                1.8200 -0.105958  0.0411    1.8611   
     2. B(O   2,Fe  0)                1.8200 -0.108936  0.0423    1.8623   
     3. B(O   3,Fe  0)                1.8200 -0.085102  0.0330    1.8530   
     4. B(O   4,Fe  0)                1.8200 -0.106086  0.0412    1.8612   
     5. B(O   5,Fe  0)                1.8200 -0.101306  0.0393    1.8593   
     6. B(O   6,Fe  0)                1.8200 -0.108107  0.0420    1.8620   
     7. B(H   7,O   4)                0.9600  0.010795 -0.0080    0.9520   
     8. B(H   8,O   4)                0.9600  0.013146 -0.0097    0.9503   
     9. B(H   9,O   5)                0.9600  0.013631 -0.0101    0.9499   
    10. B(H  10,O   5)                0.9600  0.014429 -0.0107    0.9493   
    11. B(H  11,O   6)                0.9600  0.010486 -0.0077    0.9523   
    12. B(H  12,O   6)                0.9600  0.011562 -0.0085    0.9515   
    13. B(H  13,O   1)                0.9600  0.009660 -0.0071    0.9529   
    14. B(H  14,O   1)                0.9600  0.014904 -0.0110    0.9490   
    15. B(H  15,O   2)                0.9600  0.014562 -0.0107    0.9493   
    16. B(H  16,O   2)                0.9600  0.012620 -0.0093    0.9507   
    17. B(H  17,O   3)                0.9600  0.010007 -0.0074    0.9526   
    18. B(H  18,O   3)                0.9600  0.009280 -0.0069    0.9531   
    19. A(O   4,Fe  0,O   5)           89.36 -0.000374   -0.08     89.29   
    20. A(O   2,Fe  0,O   3)           92.17  0.006677   -0.83     91.33   
    21. A(O   3,Fe  0,O   4)           91.83  0.008453   -1.08     90.75   
    22. A(O   1,Fe  0,O   6)           91.59 -0.000987    0.28     91.87   
    23. A(O   1,Fe  0,O   3)           88.93  0.003799   -0.62     88.31   
    24. A(O   5,Fe  0,O   6)           87.95 -0.002539    0.39     88.34   
    25. A(O   1,Fe  0,O   5)           92.53  0.006125   -0.68     91.85   
    26. A(O   3,Fe  0,O   5)           87.52  0.000474   -0.19     87.33   
    27. A(O   1,Fe  0,O   2)           87.33 -0.008042    0.96     88.28   
    28. A(O   4,Fe  0,O   6)           87.80 -0.010750    1.36     89.15   
    29. A(O   2,Fe  0,O   4)           90.79  0.002269   -0.20     90.59   
    30. A(O   2,Fe  0,O   6)           92.36 -0.004595    0.63     92.99   
    31. A(Fe  0,O   1,H  14)          109.47 -0.037085    3.55    113.02   
    32. A(H  13,O   1,H  14)          109.47  0.028380   -2.28    107.19   
    33. A(Fe  0,O   1,H  13)          109.47 -0.028465    2.79    112.27   
    34. A(Fe  0,O   2,H  16)          109.47 -0.032648    3.17    112.65   
    35. A(Fe  0,O   2,H  15)          109.47 -0.035713    3.44    112.91   
    36. A(H  15,O   2,H  16)          109.47  0.029400   -2.36    107.11   
    37. A(Fe  0,O   3,H  17)          109.47 -0.020847    2.02    111.50   
    38. A(H  17,O   3,H  18)          109.47  0.017388   -1.38    108.09   
    39. A(Fe  0,O   3,H  18)          109.47 -0.020066    1.96    111.43   
    40. A(H   7,O   4,H   8)          109.47  0.027061   -2.05    107.42   
    41. A(Fe  0,O   4,H   8)          109.47 -0.034899    3.39    112.86   
    42. A(Fe  0,O   4,H   7)          109.47 -0.030067    2.97    112.44   
    43. A(H   9,O   5,H  10)          109.47  0.027798   -2.41    107.06   
    44. A(Fe  0,O   5,H  10)          109.47 -0.030795    2.93    112.40   
    45. A(Fe  0,O   5,H   9)          109.47 -0.030232    2.88    112.35   
    46. A(H  11,O   6,H  12)          109.47  0.025101   -2.01    107.46   
    47. A(Fe  0,O   6,H  12)          109.47 -0.029299    2.85    112.32   
    48. A(Fe  0,O   6,H  11)          109.47 -0.029388    2.85    112.32   
    49. D(H  13,O   1,Fe  0,O   6)    -57.79  0.002938   -0.64    -58.43   
    50. D(H  14,O   1,Fe  0,O   2)    -30.08  0.002320   -0.20    -30.27   
    51. D(H  13,O   1,Fe  0,O   3)    117.70  0.001034   -0.46    117.25   
    52. D(H  13,O   1,Fe  0,O   2)   -150.08  0.007703   -1.28   -151.36   
    53. D(H  14,O   1,Fe  0,O   5)    150.23 -0.004868    0.83    151.07   
    54. D(H  14,O   1,Fe  0,O   3)   -122.30 -0.004349    0.63   -121.67   
    55. D(H  14,O   1,Fe  0,O   6)     62.21 -0.002445    0.45     62.66   
    56. D(H  13,O   1,Fe  0,O   5)     30.23  0.000515   -0.25     29.98   
    57. D(H  16,O   2,Fe  0,O   1)    145.49 -0.006730    1.14    146.63   
    58. D(H  16,O   2,Fe  0,O   4)    -33.82  0.005094   -0.51    -34.33   
    59. D(H  16,O   2,Fe  0,O   3)   -125.68 -0.003552    0.59   -125.09   
    60. D(H  15,O   2,Fe  0,O   4)   -153.82  0.010949   -1.66   -155.48   
    61. D(H  15,O   2,Fe  0,O   3)    114.32  0.002303   -0.56    113.76   
    62. D(H  15,O   2,Fe  0,O   1)     25.49 -0.000875   -0.01     25.48   
    63. D(H  16,O   2,Fe  0,O   6)     54.01 -0.005629    0.85     54.86   
    64. D(H  15,O   2,Fe  0,O   6)    -65.99  0.000226   -0.31    -66.30   
    65. D(H  18,O   3,Fe  0,O   5)   -114.19 -0.000834    0.32   -113.87   
    66. D(H  18,O   3,Fe  0,O   4)    -24.91 -0.001563    0.28    -24.63   
    67. D(H  18,O   3,Fe  0,O   1)    153.23 -0.006789    0.97    154.20   
    68. D(H  17,O   3,Fe  0,O   5)    125.81  0.002924   -0.43    125.37   
    69. D(H  18,O   3,Fe  0,O   2)     65.95  0.001250    0.02     65.96   
    70. D(H  17,O   3,Fe  0,O   4)   -144.91  0.002196   -0.47   -145.38   
    71. D(H  17,O   3,Fe  0,O   2)    -54.05  0.005008   -0.74    -54.79   
    72. D(H  17,O   3,Fe  0,O   1)     33.23 -0.003030    0.21     33.45   
    73. D(H   8,O   4,Fe  0,O   3)    122.28  0.005222   -0.85    121.43   
    74. D(H   7,O   4,Fe  0,O   6)     57.75 -0.003485    0.73     58.48   
    75. D(H   7,O   4,Fe  0,O   5)    -30.22 -0.001063    0.35    -29.87   
    76. D(H   7,O   4,Fe  0,O   3)   -117.72 -0.001419    0.53   -117.19   
    77. D(H   7,O   4,Fe  0,O   2)    150.09 -0.008300    1.38    151.47   
    78. D(H   8,O   4,Fe  0,O   5)   -150.22  0.005578   -1.03   -151.25   
    79. D(H   8,O   4,Fe  0,O   2)     30.09 -0.001659    0.00     30.09   
    80. D(H   8,O   4,O   1,H  14)      0.03  0.001066   -0.25     -0.22   
    81. D(H   8,O   4,O   1,H  13)   -119.75  0.009818   -1.81   -121.57   
    82. D(H   7,O   4,O   1,H  14)    119.81 -0.008907    1.61    121.42   
    83. D(H   7,O   4,O   1,H  13)      0.03 -0.000155    0.04      0.07   
    84. D(H   8,O   4,Fe  0,O   6)    -62.25  0.003156   -0.65    -62.90   
    85. D(H  10,O   5,O   2,H  16)      0.00 -0.001607    0.37      0.37   
    86. D(H   9,O   5,O   2,H  16)    120.09 -0.007342    1.30    121.40   
    87. D(H   9,O   5,O   2,H  15)      0.00  0.000942   -0.19     -0.19   
    88. D(H  10,O   5,Fe  0,O   6)    -54.00  0.004104   -0.49    -54.49   
    89. D(H  10,O   5,Fe  0,O   4)     33.82 -0.006615    0.86     34.68   
    90. D(H  10,O   5,Fe  0,O   3)    125.68  0.001857   -0.21    125.47   
    91. D(H  10,O   5,Fe  0,O   1)   -145.50  0.005414   -0.81   -146.32   
    92. D(H   9,O   5,Fe  0,O   6)     66.00  0.000779    0.11     66.11   
    93. D(H   9,O   5,Fe  0,O   4)    153.82 -0.009941    1.46    155.28   
    94. D(H  10,O   5,O   2,H  15)   -120.09  0.006676   -1.13   -121.21   
    95. D(H   9,O   5,Fe  0,O   3)   -114.32 -0.001469    0.39   -113.94   
    96. D(H   9,O   5,Fe  0,O   1)    -25.50  0.002088   -0.22    -25.72   
    97. D(H  12,O   6,O   3,H  18)      0.05  0.000960   -0.15     -0.09   
    98. D(H  11,O   6,O   3,H  18)    121.47 -0.005859    1.06    122.52   
    99. D(H  11,O   6,O   3,H  17)      0.05 -0.001002    0.20      0.25   
   100. D(H  12,O   6,Fe  0,O   5)    114.24  0.001495   -0.43    113.81   
   101. D(H  12,O   6,Fe  0,O   4)     24.80  0.001392   -0.29     24.51   
   102. D(H  12,O   6,Fe  0,O   2)    -65.89 -0.000617   -0.12    -66.02   
   103. D(H  12,O   6,Fe  0,O   1)   -153.28  0.007593   -1.11   -154.39   
   104. D(H  11,O   6,Fe  0,O   5)   -125.76 -0.003701    0.60   -125.15   
   105. D(H  11,O   6,Fe  0,O   4)    144.80 -0.003803    0.74    145.54   
   106. D(H  12,O   6,O   3,H  17)   -121.36  0.005817   -1.00   -122.37   
   107. D(H  11,O   6,Fe  0,O   2)     54.11 -0.005812    0.91     55.01   
   108. D(H  11,O   6,Fe  0,O   1)    -33.28  0.002398   -0.08    -33.36   
    ----------------------------------------------------------------------------
--------------------------------------------------------------------------
WARNING: There was an error initializing an OpenFabrics device.

  Local host:   cnode08
  Local device: mlx5_0
--------------------------------------------------------------------------
[cnode08:146389] 15 more processes have sent help message help-mpi-btl-openib.txt / error in device init
[cnode08:146389] Set MCA parameter "orte_base_help_aggregate" to 0 to see all help / error messages

         *************************************************************
         *                GEOMETRY OPTIMIZATION CYCLE   2            *
         *************************************************************
---------------------------------
CARTESIAN COORDINATES (ANGSTROEM)
---------------------------------
  Fe     6.204513    1.030222    0.192046
  O      8.065171    1.007548    0.157385
  O      6.236461   -0.830309    0.118074
  O      6.225804    1.147524   -1.657141
  O      4.343394    1.016917    0.194457
  O      6.167930    2.888919    0.222958
  O      6.178920    1.052737    2.053686
  H      3.976362    1.770448    0.645946
  H      3.981451    0.239247    0.603467
  H      6.959570    3.258795    0.595625
  H      5.439487    3.227177    0.729134
  H      6.904200    0.564095    2.430509
  H      5.375398    0.686186    2.407635
  H      8.442700    1.760179    0.603454
  H      8.433301    0.231541    0.560982
  H      7.039211   -1.199074    0.465466
  H      5.518459   -1.226967    0.598631
  H      6.962933    0.671694   -2.028219
  H      5.425743    0.795469   -2.037214

----------------------------
CARTESIAN COORDINATES (A.U.)
----------------------------
  NO LB      ZA    FRAG     MASS         X           Y           Z
   0 Fe   26.0000    0    55.850   11.724831    1.946837    0.362914
   1 O     8.0000    0    15.999   15.240965    1.903990    0.297414
   2 O     8.0000    0    15.999   11.785204   -1.569056    0.223128
   3 O     8.0000    0    15.999   11.765064    2.168505   -3.131543
   4 O     8.0000    0    15.999    8.207825    1.921695    0.367470
   5 O     8.0000    0    15.999   11.655699    5.459265    0.421330
   6 O     8.0000    0    15.999   11.676466    1.989384    3.880904
   7 H     1.0000    0     1.008    7.514236    3.345663    1.220662
   8 H     1.0000    0     1.008    7.523852    0.452112    1.140387
   9 H     1.0000    0     1.008   13.151682    6.158229    1.125569
  10 H     1.0000    0     1.008   10.279140    6.098480    1.377864
  11 H     1.0000    0     1.008   13.047048    1.065985    4.592996
[...]
     40       0.050372  -0.064608  -0.237481   0.341457  -0.191806  -0.032678
     41       0.003769  -0.004633  -0.015780   0.023491  -0.012705  -0.003700
     42       0.037001  -0.040904  -0.165163  -0.249674   0.140364   0.024536
     43      -0.052316   0.061317   0.237192   0.340090  -0.191168  -0.033373
     44       0.000764  -0.000519  -0.001212  -0.002735   0.001085  -0.001186
     45       0.011157   0.017766  -0.012125   0.007549   0.016841  -0.000454
     46      -0.140882  -0.229739   0.156625  -0.119782  -0.219637   0.011293
     47      -0.221354  -0.356092   0.241653  -0.175035  -0.320845   0.016515
     48      -0.009523  -0.015210   0.010321   0.006080   0.014280  -0.001129
     49      -0.159680  -0.248567   0.171530   0.130340   0.238889  -0.012243
     50       0.215522   0.339723  -0.231779  -0.167234  -0.306325   0.015682
     51      -0.358863   0.219568  -0.244831   0.030713   0.000511   0.331315
     52      -0.009524   0.005165  -0.006341   0.000470  -0.001465   0.008986
     53       0.222085  -0.135770   0.152951  -0.020271  -0.000346  -0.218761
     54       0.336782  -0.206321   0.229205   0.028354   0.000027   0.309731
     55      -0.006087   0.003073  -0.003977  -0.001610  -0.001083  -0.005683
     56       0.255306  -0.156559   0.174979   0.022787   0.000014   0.249064
                 54         55         56    
      0       0.000002   0.000003  -0.000082
      1      -0.000082  -0.000015  -0.000003
      2       0.000015  -0.000081  -0.000003
      3      -0.000159  -0.000035  -0.000158
      4       0.050914   0.010944   0.001579
      5       0.001544   0.000434   0.000000
      6       0.000565  -0.002583   0.000130
      7       0.000217  -0.001708   0.000017
      8      -0.012086   0.054506  -0.000667
      9      -0.001727   0.000345   0.059219
     10       0.000082   0.000049   0.000296
     11      -0.000048  -0.000135   0.002797
     12      -0.000199  -0.000052  -0.000160
     13       0.048417   0.010327   0.001574
     14       0.001572   0.000438   0.000082
     15       0.000405  -0.001995   0.000120
     16       0.000098  -0.001264   0.000009
     17      -0.008948   0.044278  -0.000471
     18      -0.001644   0.000109   0.040626
     19       0.000098   0.000004   0.000164
     20      -0.000037  -0.000144   0.001895
     21       0.281083   0.060051   0.010859
     22      -0.382898  -0.081743  -0.015228
     23      -0.000459  -0.000869  -0.000288
     24      -0.277964  -0.059221  -0.007354
     25      -0.384315  -0.081895  -0.009714
     26      -0.024454  -0.006070  -0.000893
     27      -0.002889   0.014878  -0.001018
     28      -0.051927   0.266143  -0.002804
     29       0.066663  -0.344023   0.003571
     30      -0.003530   0.016733  -0.000892
     31       0.051333  -0.245904   0.002687
     32       0.075132  -0.357537   0.003893
     33       0.011964   0.001861  -0.311165
     34      -0.001040  -0.000049   0.005144
     35       0.009643   0.001150  -0.249474
     36       0.014100  -0.003629  -0.332483
     37      -0.000494  -0.000093  -0.007733
     38      -0.009259   0.002074   0.219448
     39      -0.292603  -0.062903  -0.007375
     40      -0.404214  -0.086924  -0.009719
     41      -0.027514  -0.006679  -0.000405
     42       0.295094   0.063463   0.010858
     43      -0.402584  -0.086501  -0.015302
     44       0.003051  -0.000199   0.000371
     45      -0.005005   0.022199  -0.001138
     46       0.068550  -0.301596   0.003759
     47       0.100791  -0.441245   0.005480
     48      -0.003957   0.018738  -0.000934
     49      -0.071019   0.328859  -0.003995
     50       0.090783  -0.422514   0.005084
     51       0.014722  -0.005624  -0.485046
     52      -0.000348  -0.000461  -0.013117
     53      -0.009652   0.003376   0.319698
     54       0.012649   0.000108  -0.453446
     55      -0.000961  -0.000308   0.008424
     56       0.010205  -0.000270  -0.364019


-----------
IR SPECTRUM
-----------

 Mode   freq       eps      Int      T**2         TX        TY        TZ
       cm**-1   L/(mol*cm) km/mol    a.u.
----------------------------------------------------------------------------
  6:    135.19   0.000037    0.19  0.000085  ( 0.008057  0.002361 -0.003814)
  7:    135.24   0.000044    0.22  0.000103  (-0.003279  0.005756 -0.007667)
  8:    135.29   0.000044    0.22  0.000101  ( 0.003335  0.005882 -0.007413)
  9:    135.66   0.001581    7.99  0.003636  (-0.005329 -0.051726 -0.030537)
 10:    135.68   0.001526    7.71  0.003510  ( 0.054784  0.006786 -0.021502)
 11:    135.82   0.001513    7.65  0.003477  ( 0.022788 -0.029014  0.045997)
 12:    180.75   0.000004    0.02  0.000008  ( 0.001579 -0.002238  0.000502)
 13:    180.81   0.000004    0.02  0.000008  (-0.002020 -0.001177  0.001469)
 14:    180.85   0.000004    0.02  0.000007  (-0.000591 -0.001327 -0.002263)
 15:    211.51   0.000000    0.00  0.000000  (-0.000159  0.000100 -0.000131)
 16:    211.72   0.000001    0.00  0.000001  (-0.000288  0.000890  0.000085)
 17:    272.36   0.000001    0.01  0.000001  (-0.000605 -0.000475  0.000780)
 18:    272.40   0.000000    0.00  0.000000  (-0.000676 -0.000117 -0.000117)
 19:    272.81   0.000000    0.00  0.000000  ( 0.000088  0.000086  0.000068)
 20:    304.80   0.000000    0.00  0.000000  ( 0.000105 -0.000007 -0.000290)
 21:    305.31   0.000000    0.00  0.000000  ( 0.000018  0.000248 -0.000028)
 22:    352.96   0.000002    0.01  0.000002  ( 0.000144 -0.000222 -0.001252)
 23:    377.23   0.019323   97.65  0.015985  (-0.000674  0.126408  0.002301)
 24:    377.89   0.019204   97.05  0.015858  ( 0.125927  0.000704  0.000602)
 25:    378.32   0.019707   99.59  0.016256  ( 0.001423  0.002497 -0.127466)
 26:    393.16   0.000001    0.01  0.000001  ( 0.000357 -0.000702  0.000658)
 27:    393.69   0.000001    0.01  0.000001  ( 0.000084 -0.000265  0.000942)
 28:    394.11   0.000001    0.01  0.000001  (-0.000924  0.000244 -0.000362)
 29:    410.83   0.000071    0.36  0.000054  ( 0.003178  0.005318  0.003918)
 30:    423.11   0.091883  464.34  0.067768  ( 0.018567  0.253946  0.054175)
 31:    423.76   0.092069  465.28  0.067801  (-0.222285 -0.012798  0.135007)
 32:    423.81   0.091855  464.20  0.067636  (-0.134644  0.057126 -0.215043)
 33:    598.51   0.000002    0.01  0.000001  (-0.000858  0.000658  0.000086)
 34:    598.65   0.000001    0.00  0.000000  (-0.000480 -0.000387  0.000122)
 35:    598.94   0.000006    0.03  0.000003  (-0.001659  0.000504 -0.000386)
 36:    632.76   0.068146  344.38  0.033608  ( 0.020831 -0.102166  0.150787)
 37:    633.02   0.068199  344.65  0.033621  ( 0.013400 -0.150405 -0.104018)
 38:    633.16   0.068119  344.25  0.033574  ( 0.181536  0.022997 -0.009451)
 39:   1764.55   0.053879  272.28  0.009529  ( 0.001323 -0.006524  0.097387)
 40:   1764.76   0.055274  279.33  0.009774  ( 0.098857  0.000812 -0.000953)
 41:   1764.79   0.054765  276.76  0.009684  (-0.000781  0.098131  0.007313)
 42:   1766.29   0.001401    7.08  0.000248  (-0.001748 -0.003692  0.015194)
 43:   1766.38   0.000537    2.72  0.000095  (-0.001042  0.009223 -0.002962)
 44:   1771.27   0.000055    0.28  0.000010  ( 0.000130  0.001560  0.002682)
 45:   4074.32   0.000027    0.14  0.000002  ( 0.001411  0.000117  0.000302)
 46:   4074.34   0.000003    0.02  0.000000  ( 0.000098  0.000026 -0.000499)
 47:   4076.05   0.072437  366.07  0.005546  ( 0.073674 -0.004104 -0.010053)
 48:   4076.08   0.072491  366.34  0.005550  ( 0.006149 -0.041328  0.061677)
 49:   4076.08   0.072404  365.90  0.005543  (-0.008953 -0.061819 -0.040515)
 50:   4088.28   0.000001    0.00  0.000000  (-0.000171 -0.000052 -0.000101)
 51:   4158.29   0.000359    1.82  0.000027  (-0.001573 -0.002526  0.004256)
 52:   4158.29   0.000957    4.84  0.000072  (-0.000425  0.000234  0.008463)
 53:   4158.39   0.003668   18.54  0.000275  (-0.016545 -0.000298 -0.001210)
 54:   4159.17   0.109816  554.97  0.008240  ( 0.002441 -0.089299  0.016104)
 55:   4159.20   0.109069  551.19  0.008183  ( 0.003758 -0.016424 -0.088879)
 56:   4159.35   0.106494  538.18  0.007990  (-0.089267 -0.003253 -0.003280)

* The epsilon (eps) is given for a Dirac delta lineshape.
** The dipole moment derivative (T) already includes vibrational overlap.

The first frequency considered to be a vibration is 6
The total number of vibrations considered is 51


--------------------------
THERMOCHEMISTRY AT 298.15K
--------------------------

Temperature         ... 298.15 K
Pressure            ... 1.00 atm
Total Mass          ... 163.94 AMU

Throughout the following assumptions are being made:
  (1) The electronic state is orbitally nondegenerate
  (2) There are no thermally accessible electronically excited states
  (3) Hindered rotations indicated by low frequency modes are not
      treated as such but are treated as vibrations and this may
      cause some error
  (4) All equations used are the standard statistical mechanics
      equations for an ideal gas
  (5) All vibrations are strictly harmonic

freq.     135.19  E(vib)   ...       0.42 
freq.     135.24  E(vib)   ...       0.42 
freq.     135.29  E(vib)   ...       0.42 
freq.     135.66  E(vib)   ...       0.42 
freq.     135.68  E(vib)   ...       0.42 
freq.     135.82  E(vib)   ...       0.42 
freq.     180.75  E(vib)   ...       0.37 
freq.     180.81  E(vib)   ...       0.37 
freq.     180.85  E(vib)   ...       0.37 
freq.     211.51  E(vib)   ...       0.34 
freq.     211.72  E(vib)   ...       0.34 
freq.     272.36  E(vib)   ...       0.29 
freq.     272.40  E(vib)   ...       0.29 
freq.     272.81  E(vib)   ...       0.29 
freq.     304.80  E(vib)   ...       0.26 
freq.     305.31  E(vib)   ...       0.26 
freq.     352.96  E(vib)   ...       0.22 
freq.     377.23  E(vib)   ...       0.21 
freq.     377.89  E(vib)   ...       0.21 
freq.     378.32  E(vib)   ...       0.21 
freq.     393.16  E(vib)   ...       0.20 
freq.     393.69  E(vib)   ...       0.20 
freq.     394.11  E(vib)   ...       0.20 
freq.     410.83  E(vib)   ...       0.19 
freq.     423.11  E(vib)   ...       0.18 
freq.     423.76  E(vib)   ...       0.18 
freq.     423.81  E(vib)   ...       0.18 
freq.     598.51  E(vib)   ...       0.10 
freq.     598.65  E(vib)   ...       0.10 
freq.     598.94  E(vib)   ...       0.10 
freq.     632.76  E(vib)   ...       0.09 
freq.     633.02  E(vib)   ...       0.09 
freq.     633.16  E(vib)   ...       0.09 
freq.    1764.55  E(vib)   ...       0.00 
freq.    1764.76  E(vib)   ...       0.00 
freq.    1764.79  E(vib)   ...       0.00 
freq.    1766.29  E(vib)   ...       0.00 
freq.    1766.38  E(vib)   ...       0.00 
freq.    1771.27  E(vib)   ...       0.00 
freq.    4074.32  E(vib)   ...       0.00 
freq.    4074.34  E(vib)   ...       0.00 
freq.    4076.05  E(vib)   ...       0.00 
freq.    4076.08  E(vib)   ...       0.00 
freq.    4076.08  E(vib)   ...       0.00 
freq.    4088.28  E(vib)   ...       0.00 
freq.    4158.29  E(vib)   ...       0.00 
freq.    4158.29  E(vib)   ...       0.00 
freq.    4158.39  E(vib)   ...       0.00 
freq.    4159.17  E(vib)   ...       0.00 
freq.    4159.20  E(vib)   ...       0.00 
freq.    4159.35  E(vib)   ...       0.00 

------------
INNER ENERGY
------------

The inner energy is: U= E(el) + E(ZPE) + E(vib) + E(rot) + E(trans)
    E(el)   - is the total energy from the electronic structure calculation
              = E(kin-el) + E(nuc-el) + E(el-el) + E(nuc-nuc)
    E(ZPE)  - the the zero temperature vibrational energy from the frequency calculation
    E(vib)  - the the finite temperature correction to E(ZPE) due to population
              of excited vibrational states
    E(rot)  - is the rotational thermal energy
    E(trans)- is the translational thermal energy

Summary of contributions to the inner energy U:
Electronic energy                ...  -1717.63927210 Eh
Zero point energy                ...      0.16235585 Eh     101.88 kcal/mol
Thermal vibrational correction   ...      0.01344827 Eh       8.44 kcal/mol
Thermal rotational correction    ...      0.00141627 Eh       0.89 kcal/mol
Thermal translational correction ...      0.00141627 Eh       0.89 kcal/mol
-----------------------------------------------------------------------
Total thermal energy                  -1717.46063543 Eh


Summary of corrections to the electronic energy:
(perhaps to be used in another calculation)
Total thermal correction                  0.01628082 Eh      10.22 kcal/mol
Non-thermal (ZPE) correction              0.16235585 Eh     101.88 kcal/mol
-----------------------------------------------------------------------
Total correction                          0.17863666 Eh     112.10 kcal/mol


--------
ENTHALPY
--------

The enthalpy is H = U + kB*T
                kB is Boltzmann's constant
Total free energy                 ...  -1717.46063543 Eh 
Thermal Enthalpy correction       ...      0.00094421 Eh       0.59 kcal/mol
-----------------------------------------------------------------------
Total Enthalpy                    ...  -1717.45969122 Eh


Note: Only C1 symmetry has been detected, increase convergence thresholds 
      if your molecule has a higher symmetry. Symmetry factor of 1.0 is   
      used for the rotational entropy correction. 
 

Note: Rotational entropy computed according to Herzberg 
Infrared and Raman Spectra, Chapter V,1, Van Nostrand Reinhold, 1945 
Point Group:  C1, Symmetry Number:   1  
Rotational constants in cm-1:     0.049753     0.049747     0.049718 

Vibrational entropy computed according to the QRRHO of S. Grimme
Chem.Eur.J. 2012 18 9955


-------
ENTROPY
-------

The entropy contributions are T*S = T*(S(el)+S(vib)+S(rot)+S(trans))
     S(el)   - electronic entropy
     S(vib)  - vibrational entropy
     S(rot)  - rotational entropy
     S(trans)- translational entropy
The entropies will be listed as multiplied by the temperature to get
units of energy

Electronic entropy                ...      0.00000000 Eh      0.00 kcal/mol
Vibrational entropy               ...      0.02315720 Eh     14.53 kcal/mol
Rotational entropy                ...      0.01376099 Eh      8.64 kcal/mol
Translational entropy             ...      0.01957135 Eh     12.28 kcal/mol
-----------------------------------------------------------------------
Final entropy term                ...      0.05648953 Eh     35.45 kcal/mol

In case the symmetry of your molecule has not been determined correctly
or in case you have a reason to use a different symmetry number we print 
out the resulting rotational entropy values for sn=1,12 :
 --------------------------------------------------------
|  sn= 1 | S(rot)=       0.01376099 Eh      8.64 kcal/mol|
|  sn= 2 | S(rot)=       0.01310653 Eh      8.22 kcal/mol|
|  sn= 3 | S(rot)=       0.01272370 Eh      7.98 kcal/mol|
|  sn= 4 | S(rot)=       0.01245207 Eh      7.81 kcal/mol|
|  sn= 5 | S(rot)=       0.01224139 Eh      7.68 kcal/mol|
|  sn= 6 | S(rot)=       0.01206924 Eh      7.57 kcal/mol|
|  sn= 7 | S(rot)=       0.01192369 Eh      7.48 kcal/mol|
|  sn= 8 | S(rot)=       0.01179762 Eh      7.40 kcal/mol|
|  sn= 9 | S(rot)=       0.01168641 Eh      7.33 kcal/mol|
|  sn=10 | S(rot)=       0.01158693 Eh      7.27 kcal/mol|
|  sn=11 | S(rot)=       0.01149694 Eh      7.21 kcal/mol|
|  sn=12 | S(rot)=       0.01141478 Eh      7.16 kcal/mol|
 --------------------------------------------------------


-------------------
GIBBS FREE ENERGY
-------------------

The Gibbs free energy is G = H - T*S

Total enthalpy                    ...  -1717.45969122 Eh 
Total entropy correction          ...     -0.05648953 Eh    -35.45 kcal/mol
-----------------------------------------------------------------------
Final Gibbs free energy         ...  -1717.51618075 Eh

For completeness - the Gibbs free energy minus the electronic energy
G-E(el)                           ...      0.12309134 Eh     77.24 kcal/mol

--------------------------------------------------------------------------
WARNING: There was an error initializing an OpenFabrics device.

  Local host:   cnode08
  Local device: mlx5_0
--------------------------------------------------------------------------
[cnode08:170101] 15 more processes have sent help message help-mpi-btl-openib.txt / error in device init
[cnode08:170101] Set MCA parameter "orte_base_help_aggregate" to 0 to see all help / error messages

Timings for individual modules:

Sum of individual times         ...      495.621 sec (=   8.260 min)
GTO integral calculation        ...       37.183 sec (=   0.620 min)   7.5 %
SCF iterations                  ...      266.613 sec (=   4.444 min)  53.8 %
SCF Gradient evaluation         ...      130.216 sec (=   2.170 min)  26.3 %
Geometry relaxation             ...        1.792 sec (=   0.030 min)   0.4 %
Analytical frequency calculation...       59.817 sec (=   0.997 min)  12.1 %
                             ****ORCA TERMINATED NORMALLY****
TOTAL RUN TIME: 0 days 0 hours 8 minutes 46 seconds 570 msec

Sender: Unischeduler System <lcz@mgt01>
Subject: Job 131918: <#!/bin/bash
#BSUB -J intel
#BSUB -o FeH2O62+-Opt.out
#BSUB -n 16
#BSUB -q cqueue
export LD_LIBRARY_PATH=/apps/software/openmpi-4.1.1/lib:/apps/software/orca_5_0_0:$LD_LIBRARY_PATH
export PATH=/apps/software/openmpi-4.1.1/bin:/apps/software/orca_5_0_0:$PATH
mkdir /scratch/FeH2O62+-Opt_973
scp $USER@mgt01:/apps/users/lcz/exe5/task1/ORCA/RHF/FeH2O62+-Opt.inp /scratch/FeH2O62+-Opt_973
/apps/software/orca_5_0_0/orca /scratch/FeH2O62+-Opt_973/FeH2O62+-Opt.inp >& FeH2O62+-Opt.out
scp /scratch/FeH2O62+-Opt_973/*.gbw $USER@mgt01:/apps/users/lcz/exe5/task1/ORCA/RHF
scp /scratch/FeH2O62+-Opt_973/*.xyz $USER@mgt01:/apps/users/lcz/exe5/task1/ORCA/RHF
scp /scratch/FeH2O62+-Opt_973/*.trj $USER@mgt01:/apps/users/lcz/exe5/task1/ORCA/RHF> Exited

Job <#!/bin/bash
#BSUB -J intel
#BSUB -o FeH2O62+-Opt.out
#BSUB -n 16
#BSUB -q cqueue
export LD_LIBRARY_PATH=/apps/software/openmpi-4.1.1/lib:/apps/software/orca_5_0_0:$LD_LIBRARY_PATH
export PATH=/apps/software/openmpi-4.1.1/bin:/apps/software/orca_5_0_0:$PATH
mkdir /scratch/FeH2O62+-Opt_973
scp $USER@mgt01:/apps/users/lcz/exe5/task1/ORCA/RHF/FeH2O62+-Opt.inp /scratch/FeH2O62+-Opt_973
/apps/software/orca_5_0_0/orca /scratch/FeH2O62+-Opt_973/FeH2O62+-Opt.inp >& FeH2O62+-Opt.out
scp /scratch/FeH2O62+-Opt_973/*.gbw $USER@mgt01:/apps/users/lcz/exe5/task1/ORCA/RHF
scp /scratch/FeH2O62+-Opt_973/*.xyz $USER@mgt01:/apps/users/lcz/exe5/task1/ORCA/RHF
scp /scratch/FeH2O62+-Opt_973/*.trj $USER@mgt01:/apps/users/lcz/exe5/task1/ORCA/RHF> was submitted from host <mgt01> by user <lcz>.
Job was executed on host(s) <16*cnode08>, in queue <cqueue>, as user <lcz>.
</apps/users/lcz> was used as the home directory.
</apps/users/lcz/exe5/task1/ORCA/RHF> was used as the working directory.
Started at 2022-05-13 22:42:24
Results reported at 2022-05-13 22:51:13

Your job looked like:

------------------------------------------------------------
# User input
#!/bin/bash
#BSUB -J intel
#BSUB -o FeH2O62+-Opt.out
#BSUB -n 16
#BSUB -q cqueue
export LD_LIBRARY_PATH=/apps/software/openmpi-4.1.1/lib:/apps/software/orca_5_0_0:$LD_LIBRARY_PATH
export PATH=/apps/software/openmpi-4.1.1/bin:/apps/software/orca_5_0_0:$PATH
mkdir /scratch/FeH2O62+-Opt_973
scp $USER@mgt01:/apps/users/lcz/exe5/task1/ORCA/RHF/FeH2O62+-Opt.inp /scratch/FeH2O62+-Opt_973
/apps/software/orca_5_0_0/orca /scratch/FeH2O62+-Opt_973/FeH2O62+-Opt.inp >& FeH2O62+-Opt.out
scp /scratch/FeH2O62+-Opt_973/*.gbw $USER@mgt01:/apps/users/lcz/exe5/task1/ORCA/RHF
scp /scratch/FeH2O62+-Opt_973/*.xyz $USER@mgt01:/apps/users/lcz/exe5/task1/ORCA/RHF
scp /scratch/FeH2O62+-Opt_973/*.trj $USER@mgt01:/apps/users/lcz/exe5/task1/ORCA/RHF
------------------------------------------------------------

Exited with exit code 1.

Resource usage summary:

    CPU time   :         7615.82 sec.
    Max Memory :              2778 MB
    Max Processes  :              21


The output (if any) follows:

/scratch/FeH2O62+-Opt_973/*.trj: No such file or directory
