 Entering Gaussian System, Link 0=/apps/software/g16/g16
 Initial command:
 /apps/software/g16/l1.exe "/scratch/Gau-313243.inp" -scrdir="/scratch/"
 Entering Link 1 = /apps/software/g16/l1.exe PID=    313244.
  
 Copyright (c) 1988,1990,1992,1993,1995,1998,2003,2009,2016,
            Gaussian, Inc.  All Rights Reserved.
  
 This is part of the Gaussian(R) 16 program.  It is based on
 the Gaussian(R) 09 system (copyright 2009, Gaussian, Inc.),
 the Gaussian(R) 03 system (copyright 2003, Gaussian, Inc.),
 the Gaussian(R) 98 system (copyright 1998, Gaussian, Inc.),
 the Gaussian(R) 94 system (copyright 1995, Gaussian, Inc.),
 the Gaussian 92(TM) system (copyright 1992, Gaussian, Inc.),
 the Gaussian 90(TM) system (copyright 1990, Gaussian, Inc.),
 the Gaussian 88(TM) system (copyright 1988, Gaussian, Inc.),
 the Gaussian 86(TM) system (copyright 1986, Carnegie Mellon
 University), and the Gaussian 82(TM) system (copyright 1983,
 Carnegie Mellon University). Gaussian is a federally registered
 trademark of Gaussian, Inc.
  
 This software contains proprietary and confidential information,
 including trade secrets, belonging to Gaussian, Inc.
  
 This software is provided under written license and may be
 used, copied, transmitted, or stored only in accord with that
 written license.
  
 The following legend is applicable only to US Government
 contracts under FAR:
  
                    RESTRICTED RIGHTS LEGEND
  
 Use, reproduction and disclosure by the US Government is
 subject to restrictions as set forth in subparagraphs (a)
 and (c) of the Commercial Computer Software - Restricted
 Rights clause in FAR 52.227-19.
  
 Gaussian, Inc.
 340 Quinnipiac St., Bldg. 40, Wallingford CT 06492
  
  
 ---------------------------------------------------------------
 Warning -- This program may not be used in any manner that
 competes with the business of Gaussian, Inc. or will provide
 assistance to any competitor of Gaussian, Inc.  The licensee
 of this program is prohibited from giving any competitor of
 Gaussian, Inc. access to this program.  By using this program,
 the user acknowledges that Gaussian, Inc. is engaged in the
 business of creating and licensing software in the field of
 computational chemistry and represents and warrants to the
 licensee that it is not a competitor of Gaussian, Inc. and that
 it will not use this program in any manner prohibited above.
 ---------------------------------------------------------------
  

 Cite this work as:
 Gaussian 16, Revision A.03,
 M. J. Frisch, G. W. Trucks, H. B. Schlegel, G. E. Scuseria, 
 M. A. Robb, J. R. Cheeseman, G. Scalmani, V. Barone, 
 G. A. Petersson, H. Nakatsuji, X. Li, M. Caricato, A. V. Marenich, 
 J. Bloino, B. G. Janesko, R. Gomperts, B. Mennucci, H. P. Hratchian, 
 J. V. Ortiz, A. F. Izmaylov, J. L. Sonnenberg, D. Williams-Young, 
 F. Ding, F. Lipparini, F. Egidi, J. Goings, B. Peng, A. Petrone, 
 T. Henderson, D. Ranasinghe, V. G. Zakrzewski, J. Gao, N. Rega, 
 G. Zheng, W. Liang, M. Hada, M. Ehara, K. Toyota, R. Fukuda, 
 J. Hasegawa, M. Ishida, T. Nakajima, Y. Honda, O. Kitao, H. Nakai, 
 T. Vreven, K. Throssell, J. A. Montgomery, Jr., J. E. Peralta, 
 F. Ogliaro, M. J. Bearpark, J. J. Heyd, E. N. Brothers, K. N. Kudin, 
 V. N. Staroverov, T. A. Keith, R. Kobayashi, J. Normand, 
 K. Raghavachari, A. P. Rendell, J. C. Burant, S. S. Iyengar, 
 J. Tomasi, M. Cossi, J. M. Millam, M. Klene, C. Adamo, R. Cammi, 
 J. W. Ochterski, R. L. Martin, K. Morokuma, O. Farkas, 
 J. B. Foresman, and D. J. Fox, Gaussian, Inc., Wallingford CT, 2016.
 
 ******************************************
 Gaussian 16:  ES64L-G16RevA.03 25-Dec-2016
                14-May-2022 
 ******************************************
 %nprocshared=16
 Will use up to   16 processors via shared memory.
 -------------------------------
 #p RHF/cc-pVTZ stable guess=mix
 -------------------------------
 1/38=1,172=1/1;
 2/12=2,17=6,18=5,40=1/2;
 3/5=16,6=1,11=1,25=1,30=1,116=1/1,2,3;
 4/13=-1/1;
 5/5=2,38=5/2;
 8/6=1,10=90,11=11/1;
 9/8=-1,42=1/14;
 6/7=2,8=2,9=2,10=2,28=1/1;
 99/5=1,9=1/99;
 Leave Link    1 at Sat May 14 11:05:15 2022, MaxMem=           0 cpu:               0.3 elap:               0.0
 (Enter /apps/software/g16/l101.exe)
 ------------
 [Fe(H2O)6]2+
 ------------
 Symbolic Z-matrix:
 Charge =  2 Multiplicity = 1
 Fe                   -0.64257   0.51804   0.11515 
 O                     0.11175   2.15027  -0.78003 
 H                     0.70767   2.71591  -0.25347 
 O                    -1.31194  -0.30254  -1.59154 
 H                    -1.93648   0.13093  -2.20091 
 O                     0.02721   1.33941   1.82123 
 H                     0.65259   0.90687   2.4304 
 O                    -1.39648  -1.11445   1.01024 
 H                    -1.99331  -1.6794    0.48397 
 O                    -2.28682   1.63341   0.41005 
 H                    -2.35377   2.47291  -0.08302 
 O                     1.00194  -0.59712  -0.1795 
 H                     1.06808  -1.43759   0.31203 
 H                    -3.18922   1.2728    0.48036 
 H                    -0.66522  -0.78352  -2.14179 
 H                     1.90455  -0.23678  -0.24845 
 H                     0.43777   2.17114  -1.69794 
 H                    -0.61876   1.82124   2.3716 
 H                    -1.72126  -1.13595   1.92857 
 
 ITRead=  0  0  0  0  0  0  0  0  0  0  0  0  0  0  0  0  0  0  0
 MicOpt= -1 -1 -1 -1 -1 -1 -1 -1 -1 -1 -1 -1 -1 -1 -1 -1 -1 -1 -1
 NAtoms=     19 NQM=       19 NQMF=       0 NMMI=      0 NMMIF=      0
                NMic=       0 NMicF=      0.
                    Isotopes and Nuclear Properties:
 (Nuclear quadrupole moments (NQMom) in fm**2, nuclear magnetic moments (NMagM)
  in nuclear magnetons)

  Atom         1           2           3           4           5           6           7           8           9          10
 IAtWgt=          56          16           1          16           1          16           1          16           1          16
 AtmWgt=  55.9349393  15.9949146   1.0078250  15.9949146   1.0078250  15.9949146   1.0078250  15.9949146   1.0078250  15.9949146
 NucSpn=           0           0           1           0           1           0           1           0           1           0
 AtZEff=  -0.0000000  -0.0000000  -0.0000000  -0.0000000  -0.0000000  -0.0000000  -0.0000000  -0.0000000  -0.0000000  -0.0000000
 NQMom=    0.0000000   0.0000000   0.0000000   0.0000000   0.0000000   0.0000000   0.0000000   0.0000000   0.0000000   0.0000000
 NMagM=    0.0000000   0.0000000   2.7928460   0.0000000   2.7928460   0.0000000   2.7928460   0.0000000   2.7928460   0.0000000
 AtZNuc=  26.0000000   8.0000000   1.0000000   8.0000000   1.0000000   8.0000000   1.0000000   8.0000000   1.0000000   8.0000000

  Atom        11          12          13          14          15          16          17          18          19
 IAtWgt=           1          16           1           1           1           1           1           1           1
 AtmWgt=   1.0078250  15.9949146   1.0078250   1.0078250   1.0078250   1.0078250   1.0078250   1.0078250   1.0078250
 NucSpn=           1           0           1           1           1           1           1           1           1
 AtZEff=  -0.0000000  -0.0000000  -0.0000000  -0.0000000  -0.0000000  -0.0000000  -0.0000000  -0.0000000  -0.0000000
 NQMom=    0.0000000   0.0000000   0.0000000   0.0000000   0.0000000   0.0000000   0.0000000   0.0000000   0.0000000
 NMagM=    2.7928460   0.0000000   2.7928460   2.7928460   2.7928460   2.7928460   2.7928460   2.7928460   2.7928460
 AtZNuc=   1.0000000   8.0000000   1.0000000   1.0000000   1.0000000   1.0000000   1.0000000   1.0000000   1.0000000
 Leave Link  101 at Sat May 14 11:05:15 2022, MaxMem=   104857600 cpu:               2.4 elap:               0.2
 (Enter /apps/software/g16/l202.exe)
                          Input orientation:                          
 ---------------------------------------------------------------------
 Center     Atomic      Atomic             Coordinates (Angstroms)
 Number     Number       Type             X           Y           Z
 ---------------------------------------------------------------------
      1         26           0       -0.642572    0.518039    0.115153
      2          8           0        0.111747    2.150274   -0.780033
      3          1           0        0.707668    2.715906   -0.253469
      4          8           0       -1.311938   -0.302544   -1.591540
      5          1           0       -1.936484    0.130931   -2.200908
      6          8           0        0.027209    1.339406    1.821227
      7          1           0        0.652588    0.906869    2.430403
      8          8           0       -1.396481   -1.114448    1.010239
      9          1           0       -1.993314   -1.679405    0.483975
     10          8           0       -2.286820    1.633408    0.410054
     11          1           0       -2.353770    2.472911   -0.083018
     12          8           0        1.001944   -0.597123   -0.179502
     13          1           0        1.068078   -1.437588    0.312025
     14          1           0       -3.189221    1.272802    0.480364
     15          1           0       -0.665220   -0.783520   -2.141795
     16          1           0        1.904546   -0.236783   -0.248450
     17          1           0        0.437767    2.171136   -1.697943
     18          1           0       -0.618756    1.821240    2.371599
     19          1           0       -1.721260   -1.135950    1.928569
 ---------------------------------------------------------------------
                    Distance matrix (angstroms):
                    1          2          3          4          5
     1  Fe   0.000000
     2  O    2.008617   0.000000
     3  H    2.605695   0.975875   0.000000
     4  O    2.008534   2.949871   3.870438   0.000000
     5  H    2.681081   3.208095   4.179253   0.974314   0.000000
     6  O    2.008467   2.726024   2.581112   4.017000   4.636169
     7  H    2.681233   3.485034   3.237100   4.636601   5.362314
     8  O    2.008625   4.017242   4.549287   2.726828   3.486264
     9  H    2.605627   4.549223   5.211323   2.582204   3.238694
    10  O    2.008623   2.727009   3.252541   2.950370   3.032704
    11  H    2.605570   2.582382   3.075793   3.326289   3.185035
    12  O    2.008691   2.949793   3.326896   2.726661   3.640124
    13  H    2.605678   3.870389   4.207279   3.252132   4.219298
    14  H    2.681132   3.640734   4.219811   3.209158   3.172135
    15  H    2.605452   3.326442   4.206731   0.975891   1.567108
    16  H    2.681376   3.032285   3.186051   3.486257   4.324444
    17  H    2.680891   0.974312   1.567204   3.031812   3.170563
    18  H    2.605849   3.251873   3.074216   4.549442   5.049887
    19  H    2.680994   4.636346   5.049532   3.640505   4.324799
                    6          7          8          9         10
     6  O    0.000000
     7  H    0.974311   0.000000
     8  O    2.950592   3.209559   0.000000
     9  H    3.870914   4.180692   0.975879   0.000000
    10  O    2.726276   3.640026   2.950194   3.326611   0.000000
    11  H    3.252698   4.219948   3.870498   4.206321   0.975893
    12  O    2.950113   3.032432   2.726820   3.253168   4.017314
    13  H    3.327581   3.186948   2.581854   3.075737   4.549282
    14  H    3.485365   4.323893   3.032103   3.185237   0.974324
    15  H    4.548825   5.049656   3.252626   3.075892   3.870796
    16  H    3.208166   3.170425   3.640244   4.220299   4.636680
    17  H    3.639353   4.322935   4.636138   5.049513   3.486571
    18  H    0.975881   1.567114   3.328125   4.207974   2.581739
    19  H    3.032499   3.171766   0.974307   1.567229   3.208597
                   11         12         13         14         15
    11  H    0.000000
    12  O    4.549201   0.000000
    13  H    5.211248   0.975886   0.000000
    14  H    1.567047   4.636584   5.049668   0.000000
    15  H    4.206436   2.581622   3.074632   4.180282   0.000000
    16  H    5.050056   0.974316   1.567082   5.362507   3.238421
    17  H    3.239094   3.207370   4.178536   4.325167   3.184898
    18  H    3.075726   3.870822   4.207994   3.238030   5.211300
    19  H    4.179764   3.485704   3.237994   3.170851   4.219868
                   16         17         18         19
    16  H    0.000000
    17  H    3.170260   0.000000
    18  H    4.179374   4.218986   0.000000
    19  H    4.323701   5.361884   3.186967   0.000000
 Stoichiometry    FeH12O6(2+)
 Framework group  C1[X(FeH12O6)]
 Deg. of freedom    51
 Full point group                 C1      NOp   1
 Largest Abelian subgroup         C1      NOp   1
 Largest concise Abelian subgroup C1      NOp   1
                         Standard orientation:                         
 ---------------------------------------------------------------------
 Center     Atomic      Atomic             Coordinates (Angstroms)
 Number     Number       Type             X           Y           Z
 ---------------------------------------------------------------------
      1         26           0        0.000065    0.000163   -0.000017
      2          8           0       -1.246719   -1.256779    0.948755
      3          1           0       -1.906773   -1.728539    0.406440
      4          8           0        1.248166    0.192856    1.561816
      5          1           0        0.978517    0.504619    2.444641
      6          8           0       -1.248574   -0.193244   -1.561244
      7          1           0       -0.979714   -0.505995   -2.443958
      8          8           0        1.247144    1.256732   -0.948912
      9          1           0        1.906411    1.729332   -0.406365
     10          8           0       -1.247341    1.449656    0.614407
     11          1           0       -1.905699    1.215874    1.295786
     12          8           0        1.247217   -1.449530   -0.614705
     13          1           0        1.906902   -1.215343   -1.294651
     14          1           0       -0.977458    2.370268    0.784533
     15          1           0        1.907641   -0.513331    1.698765
     16          1           0        0.977196   -2.369840   -0.786194
     17          1           0       -0.975734   -1.865439    1.659658
     18          1           0       -1.908858    0.512144   -1.698350
     19          1           0        0.976718    1.864477   -1.660803
 ---------------------------------------------------------------------
 Rotational constants (GHZ):           1.7156112           1.5579535           1.5576482
 Leave Link  202 at Sat May 14 11:05:15 2022, MaxMem=   104857600 cpu:               0.0 elap:               0.0
 (Enter /apps/software/g16/l301.exe)
 Standard basis: CC-pVTZ (5D, 7F)
 Ernie: Thresh=  0.10000D-02 Tol=  0.10000D-05 Strict=F.
 Ernie:  99 primitive shells out of 468 were deleted.
 There are   474 symmetry adapted cartesian basis functions of A   symmetry.
 There are   416 symmetry adapted basis functions of A   symmetry.
   416 basis functions,   867 primitive gaussians,   474 cartesian basis functions
    42 alpha electrons       42 beta electrons
       nuclear repulsion energy       695.7934702665 Hartrees.
 IExCor=    0 DFT=F Ex=HF Corr=None ExCW=0 ScaHFX=  1.000000
 ScaDFX=  1.000000  1.000000  1.000000  1.000000 ScalE2=  1.000000  1.000000
 IRadAn=      5 IRanWt=     -1 IRanGd=            0 ICorTp=0 IEmpDi=  4
 NAtoms=   19 NActive=   19 NUniq=   19 SFac= 1.00D+00 NAtFMM=   60 NAOKFM=F Big=F
 Integral buffers will be    131072 words long.
 Raffenetti 1 integral format.
 Two-electron integral symmetry is turned on.
 Leave Link  301 at Sat May 14 11:05:15 2022, MaxMem=   104857600 cpu:               0.7 elap:               0.0
 (Enter /apps/software/g16/l302.exe)
 NPDir=0 NMtPBC=     1 NCelOv=     1 NCel=       1 NClECP=     1 NCelD=      1
         NCelK=      1 NCelE2=     1 NClLst=     1 CellRange=     0.0.
 One-electron integrals computed using PRISM.
 One-electron integral symmetry used in STVInt
 PrsmSu:  requested number of processors reduced to:   4 ShMem   1 Linda.
 NBasis=   416 RedAO= T EigKep=  9.40D-04  NBF=   416
 NBsUse=   416 1.00D-06 EigRej= -1.00D+00 NBFU=   416
 Leave Link  302 at Sat May 14 11:05:15 2022, MaxMem=   104857600 cpu:               4.5 elap:               0.3
 (Enter /apps/software/g16/l303.exe)
 DipDrv:  MaxL=1.
 Leave Link  303 at Sat May 14 11:05:15 2022, MaxMem=   104857600 cpu:               1.1 elap:               0.1
 (Enter /apps/software/g16/l401.exe)
 ExpMin= 3.14D-02 ExpMax= 4.32D+06 ExpMxC= 4.91D+03 IAcc=3 IRadAn=         5 AccDes= 0.00D+00
 Harris functional with IExCor=  205 and IRadAn=       5 diagonalized for initial guess.
 HarFok:  IExCor=  205 AccDes= 0.00D+00 IRadAn=         5 IDoV= 1 UseB2=F ITyADJ=14
 ICtDFT=  3500011 ScaDFX=  1.000000  1.000000  1.000000  1.000000
 FoFCou: FMM=F IPFlag=           0 FMFlag=      100000 FMFlg1=           0
         NFxFlg=           0 DoJE=T BraDBF=F KetDBF=T FulRan=T
         wScrn=  0.000000 ICntrl=       500 IOpCl=  0 I1Cent=   200000004 NGrid=           0
         NMat0=    1 NMatS0=      1 NMatT0=    0 NMatD0=    1 NMtDS0=    0 NMtDT0=    0
 Petite list used in FoFCou.
 Harris En= -1718.44877198161    
 JPrj=0 DoOrth=F DoCkMO=T.
 Mixing orbitals, IMix= 1 IMixAn=  0 NRI=1 NE=   42 Coef=  7.07106781D-01  7.07106781D-01
 Leave Link  401 at Sat May 14 11:05:16 2022, MaxMem=   104857600 cpu:              12.4 elap:               0.8
 (Enter /apps/software/g16/l502.exe)
 Integral symmetry usage will be decided dynamically.
 Closed shell SCF:
 Using DIIS extrapolation, IDIIS=  1040.
 NGot=   104857600 LenX=   104396415 LenY=   104171265
 Requested convergence on RMS density matrix=1.00D-08 within 128 cycles.
 Requested convergence on MAX density matrix=1.00D-06.
 Requested convergence on             energy=1.00D-06.
 No special actions if energy rises.
 Fock matrices will be formed incrementally for  20 cycles.

 Cycle   1  Pass 0  IDiag  1:
 FoFJK:  IHMeth= 1 ICntrl=       0 DoSepK=F KAlg= 0 I1Cent=           0 FoldK=F
 IRaf= 960000000 NMat=       1 IRICut=       1 DoRegI=T DoRafI=F ISym2E= 0 IDoP0=0 IntGTp=1.
 FoFCou: FMM=F IPFlag=           0 FMFlag=      100000 FMFlg1=           0
         NFxFlg=           0 DoJE=F BraDBF=F KetDBF=F FulRan=T
         wScrn=  0.000000 ICntrl=         0 IOpCl=  0 I1Cent=           0 NGrid=           0
         NMat0=    1 NMatS0=      1 NMatT0=    0 NMatD0=    1 NMtDS0=    0 NMtDT0=    0
 Symmetry not used in FoFCou.
 E= -1717.79108731866    
 DIIS: error= 4.60D-02 at cycle   1 NSaved=   1.
 NSaved= 1 IEnMin= 1 EnMin= -1717.79108731866     IErMin= 1 ErrMin= 4.60D-02
 ErrMax= 4.60D-02  0.00D+00 EMaxC= 1.00D-01 BMatC= 1.18D+00 BMatP= 1.18D+00
 IDIUse=3 WtCom= 5.40D-01 WtEn= 4.60D-01
 Coeff-Com:  0.100D+01
 Coeff-En:   0.100D+01
 Coeff:      0.100D+01
 Gap=     0.644 Goal=   None    Shift=    0.000
 GapD=    0.644 DampG=2.000 DampE=0.250 DampFc=0.5000 IDamp=-1.
 Damping current iteration by 5.00D-01
 RMSDP=1.45D-03 MaxDP=1.49D-01              OVMax= 1.06D-01

 Cycle   2  Pass 0  IDiag  1:
 RMSU=  7.23D-04    CP:  9.96D-01
 E= -1718.01736836267     Delta-E=       -0.226281044002 Rises=F Damp=T
 DIIS: error= 2.37D-02 at cycle   2 NSaved=   2.
 NSaved= 2 IEnMin= 2 EnMin= -1718.01736836267     IErMin= 2 ErrMin= 2.37D-02
 ErrMax= 2.37D-02  0.00D+00 EMaxC= 1.00D-01 BMatC= 2.46D-01 BMatP= 1.18D+00
 IDIUse=3 WtCom= 7.63D-01 WtEn= 2.37D-01
 Coeff-Com: -0.577D+00 0.158D+01
 Coeff-En:   0.000D+00 0.100D+01
 Coeff:     -0.440D+00 0.144D+01
 Gap=     0.518 Goal=   None    Shift=    0.000
 RMSDP=6.14D-04 MaxDP=6.11D-02 DE=-2.26D-01 OVMax= 5.00D-02

 Cycle   3  Pass 0  IDiag  1:
 RMSU=  5.11D-04    CP:  9.97D-01  1.47D+00
 E= -1718.25813252989     Delta-E=       -0.240764167223 Rises=F Damp=F
 DIIS: error= 8.00D-03 at cycle   3 NSaved=   3.
 NSaved= 3 IEnMin= 3 EnMin= -1718.25813252989     IErMin= 3 ErrMin= 8.00D-03
 ErrMax= 8.00D-03  0.00D+00 EMaxC= 1.00D-01 BMatC= 1.27D-02 BMatP= 2.46D-01
 IDIUse=3 WtCom= 9.20D-01 WtEn= 8.00D-02
 Coeff-Com: -0.155D+00 0.250D+00 0.905D+00
 Coeff-En:   0.000D+00 0.000D+00 0.100D+01
 Coeff:     -0.143D+00 0.230D+00 0.913D+00
 Gap=     0.538 Goal=   None    Shift=    0.000
 RMSDP=2.03D-04 MaxDP=1.49D-02 DE=-2.41D-01 OVMax= 4.53D-02

 Cycle   4  Pass 0  IDiag  1:
 RMSU=  1.65D-04    CP:  9.97D-01  1.56D+00  1.19D+00
 E= -1718.27987648066     Delta-E=       -0.021743950773 Rises=F Damp=F
 DIIS: error= 7.50D-03 at cycle   4 NSaved=   4.
 NSaved= 4 IEnMin= 4 EnMin= -1718.27987648066     IErMin= 4 ErrMin= 7.50D-03
 ErrMax= 7.50D-03  0.00D+00 EMaxC= 1.00D-01 BMatC= 3.85D-03 BMatP= 1.27D-02
 IDIUse=3 WtCom= 9.25D-01 WtEn= 7.50D-02
 Coeff-Com:  0.352D-01-0.660D-01-0.852D-01 0.112D+01
 Coeff-En:   0.000D+00 0.000D+00 0.000D+00 0.100D+01
 Coeff:      0.326D-01-0.611D-01-0.788D-01 0.111D+01
 Gap=     0.531 Goal=   None    Shift=    0.000
 RMSDP=1.55D-04 MaxDP=1.49D-02 DE=-2.17D-02 OVMax= 4.97D-02

 Cycle   5  Pass 0  IDiag  1:
 RMSU=  9.01D-05    CP:  9.96D-01  1.59D+00  1.34D+00  1.61D+00
 E= -1718.29442570113     Delta-E=       -0.014549220466 Rises=F Damp=F
 DIIS: error= 6.98D-03 at cycle   5 NSaved=   5.
 NSaved= 5 IEnMin= 5 EnMin= -1718.29442570113     IErMin= 5 ErrMin= 6.98D-03
 ErrMax= 6.98D-03  0.00D+00 EMaxC= 1.00D-01 BMatC= 2.96D-03 BMatP= 3.85D-03
 IDIUse=3 WtCom= 9.30D-01 WtEn= 6.98D-02
 Coeff-Com:  0.689D-01-0.111D+00-0.360D+00 0.404D+00 0.997D+00
 Coeff-En:   0.000D+00 0.000D+00 0.000D+00 0.000D+00 0.100D+01
 Coeff:      0.640D-01-0.103D+00-0.335D+00 0.376D+00 0.998D+00
 Gap=     0.551 Goal=   None    Shift=    0.000
 RMSDP=1.65D-04 MaxDP=1.66D-02 DE=-1.45D-02 OVMax= 6.03D-02

 Cycle   6  Pass 0  IDiag  1:
 RMSU=  4.87D-05    CP:  9.96D-01  1.59D+00  1.47D+00  2.30D+00  1.95D+00
 E= -1718.30815090244     Delta-E=       -0.013725201310 Rises=F Damp=F
 DIIS: error= 6.24D-03 at cycle   6 NSaved=   6.
 NSaved= 6 IEnMin= 6 EnMin= -1718.30815090244     IErMin= 6 ErrMin= 6.24D-03
 ErrMax= 6.24D-03  0.00D+00 EMaxC= 1.00D-01 BMatC= 2.00D-03 BMatP= 2.96D-03
 IDIUse=3 WtCom= 9.38D-01 WtEn= 6.24D-02
 Coeff-Com: -0.108D+00 0.199D+00 0.496D+00-0.140D+01-0.122D+01 0.303D+01
 Coeff-En:   0.000D+00 0.000D+00 0.000D+00 0.000D+00 0.000D+00 0.100D+01
 Coeff:     -0.101D+00 0.187D+00 0.465D+00-0.131D+01-0.115D+01 0.291D+01
 Gap=     0.573 Goal=   None    Shift=    0.000
 RMSDP=3.70D-04 MaxDP=3.45D-02 DE=-1.37D-02 OVMax= 1.37D-01

 Cycle   7  Pass 0  IDiag  1:
 RMSU=  1.96D-04    CP:  9.93D-01  1.61D+00  1.65D+00  3.00D+00  3.00D+00
                    CP:  3.00D+00
 E= -1718.33127772660     Delta-E=       -0.023126824159 Rises=F Damp=F
 DIIS: error= 3.54D-03 at cycle   7 NSaved=   7.
 NSaved= 7 IEnMin= 7 EnMin= -1718.33127772660     IErMin= 7 ErrMin= 3.54D-03
 ErrMax= 3.54D-03  0.00D+00 EMaxC= 1.00D-01 BMatC= 8.78D-04 BMatP= 2.00D-03
 IDIUse=3 WtCom= 9.65D-01 WtEn= 3.54D-02
 Coeff-Com: -0.176D-01 0.251D-01 0.950D-01 0.107D+00 0.437D+00-0.122D+01
 Coeff-Com:  0.158D+01
 Coeff-En:   0.000D+00 0.000D+00 0.000D+00 0.000D+00 0.000D+00 0.000D+00
 Coeff-En:   0.100D+01
 Coeff:     -0.170D-01 0.242D-01 0.917D-01 0.103D+00 0.421D+00-0.118D+01
 Coeff:      0.156D+01
 Gap=     0.575 Goal=   None    Shift=    0.000
 RMSDP=1.34D-04 MaxDP=1.26D-02 DE=-2.31D-02 OVMax= 5.78D-02

 Cycle   8  Pass 0  IDiag  1:
 RMSU=  5.33D-05    CP:  9.92D-01  1.63D+00  1.66D+00  3.00D+00  3.00D+00
                    CP:  3.00D+00  1.62D+00
 E= -1718.33670274523     Delta-E=       -0.005425018631 Rises=F Damp=F
 DIIS: error= 2.63D-03 at cycle   8 NSaved=   8.
 NSaved= 8 IEnMin= 8 EnMin= -1718.33670274523     IErMin= 8 ErrMin= 2.63D-03
 ErrMax= 2.63D-03  0.00D+00 EMaxC= 1.00D-01 BMatC= 4.17D-04 BMatP= 8.78D-04
 IDIUse=3 WtCom= 9.74D-01 WtEn= 2.63D-02
 Coeff-Com:  0.145D-01-0.263D-01-0.706D-01 0.215D+00-0.370D-02-0.652D+00
 Coeff-Com:  0.728D-01 0.145D+01
 Coeff-En:   0.000D+00 0.000D+00 0.000D+00 0.000D+00 0.000D+00 0.000D+00
 Coeff-En:   0.000D+00 0.100D+01
 Coeff:      0.141D-01-0.256D-01-0.688D-01 0.209D+00-0.360D-02-0.635D+00
 Coeff:      0.709D-01 0.144D+01
 Gap=     0.594 Goal=   None    Shift=    0.000
 RMSDP=2.14D-04 MaxDP=1.87D-02 DE=-5.43D-03 OVMax= 8.72D-02

 Cycle   9  Pass 0  IDiag  1:
 RMSU=  6.77D-05    CP:  9.90D-01  1.64D+00  1.73D+00  3.00D+00  3.00D+00
                    CP:  3.00D+00  2.59D+00  2.02D+00
 E= -1718.34161627611     Delta-E=       -0.004913530881 Rises=F Damp=F
 DIIS: error= 1.59D-03 at cycle   9 NSaved=   9.
 NSaved= 9 IEnMin= 9 EnMin= -1718.34161627611     IErMin= 9 ErrMin= 1.59D-03
 ErrMax= 1.59D-03  0.00D+00 EMaxC= 1.00D-01 BMatC= 3.15D-04 BMatP= 4.17D-04
 IDIUse=3 WtCom= 9.84D-01 WtEn= 1.59D-02
 Coeff-Com:  0.170D-01-0.285D-01-0.875D-01 0.856D-01 0.179D+00 0.523D-01
 Coeff-Com: -0.736D+00 0.462D+00 0.106D+01
 Coeff-En:   0.000D+00 0.000D+00 0.000D+00 0.000D+00 0.000D+00 0.000D+00
 Coeff-En:   0.000D+00 0.000D+00 0.100D+01
 Coeff:      0.168D-01-0.280D-01-0.861D-01 0.843D-01 0.177D+00 0.515D-01
 Coeff:     -0.725D+00 0.454D+00 0.106D+01
 Gap=     0.585 Goal=   None    Shift=    0.000
 RMSDP=4.77D-05 MaxDP=4.48D-03 DE=-4.91D-03 OVMax= 1.42D-02

 Cycle  10  Pass 0  IDiag  1:
 RMSU=  3.42D-05    CP:  9.90D-01  1.63D+00  1.73D+00  3.00D+00  3.00D+00
                    CP:  3.00D+00  2.61D+00  2.63D+00  9.39D-01
 E= -1718.34255561753     Delta-E=       -0.000939341425 Rises=F Damp=F
 DIIS: error= 1.22D-03 at cycle  10 NSaved=  10.
 NSaved=10 IEnMin=10 EnMin= -1718.34255561753     IErMin=10 ErrMin= 1.22D-03
 ErrMax= 1.22D-03  0.00D+00 EMaxC= 1.00D-01 BMatC= 1.50D-04 BMatP= 3.15D-04
 IDIUse=3 WtCom= 9.88D-01 WtEn= 1.22D-02
 Coeff-Com: -0.137D-01 0.244D-01 0.738D-01-0.129D+00-0.626D-02 0.436D+00
 Coeff-Com:  0.382D-01-0.144D+01 0.318D+00 0.169D+01
 Coeff-En:   0.000D+00 0.000D+00 0.000D+00 0.000D+00 0.000D+00 0.000D+00
 Coeff-En:   0.000D+00 0.000D+00 0.000D+00 0.100D+01
 Coeff:     -0.135D-01 0.241D-01 0.729D-01-0.128D+00-0.618D-02 0.431D+00
 Coeff:      0.377D-01-0.142D+01 0.314D+00 0.169D+01
 Gap=     0.567 Goal=   None    Shift=    0.000
 RMSDP=9.49D-05 MaxDP=9.50D-03 DE=-9.39D-04 OVMax= 3.24D-02

 Cycle  11  Pass 0  IDiag  1:
 RMSU=  4.08D-05    CP:  9.90D-01  1.63D+00  1.73D+00  3.00D+00  3.00D+00
                    CP:  3.00D+00  2.84D+00  3.00D+00  1.30D+00  2.56D+00
 E= -1718.34420639146     Delta-E=       -0.001650773930 Rises=F Damp=F
 DIIS: error= 9.57D-04 at cycle  11 NSaved=  11.
 NSaved=11 IEnMin=11 EnMin= -1718.34420639146     IErMin=11 ErrMin= 9.57D-04
 ErrMax= 9.57D-04  0.00D+00 EMaxC= 1.00D-01 BMatC= 1.95D-04 BMatP= 1.50D-04
 IDIUse=3 WtCom= 9.88D-01 WtEn= 1.22D-02
 Coeff-Com: -0.214D-02 0.291D-02 0.143D-01 0.349D-01 0.165D+00-0.176D+00
 Coeff-Com:  0.389D+00-0.850D+00 0.657D+00-0.909D+00 0.167D+01
 Coeff-En:   0.000D+00 0.000D+00 0.000D+00 0.000D+00 0.000D+00 0.000D+00
 Coeff-En:   0.000D+00 0.000D+00 0.000D+00 0.000D+00 0.100D+01
 Coeff:     -0.211D-02 0.287D-02 0.141D-01 0.345D-01 0.163D+00-0.174D+00
 Coeff:      0.384D+00-0.839D+00 0.649D+00-0.898D+00 0.167D+01
 Gap=     0.573 Goal=   None    Shift=    0.000
 RMSDP=7.66D-05 MaxDP=8.03D-03 DE=-1.65D-03 OVMax= 2.38D-02

 Cycle  12  Pass 0  IDiag  1:
 RMSU=  3.21D-05    CP:  9.89D-01  1.63D+00  1.73D+00  3.00D+00  3.00D+00
                    CP:  3.00D+00  2.99D+00  3.00D+00  1.69D+00  3.00D+00
                    CP:  2.15D+00
 E= -1718.34533119469     Delta-E=       -0.001124803224 Rises=F Damp=F
 DIIS: error= 7.88D-04 at cycle  12 NSaved=  12.
 NSaved=12 IEnMin=12 EnMin= -1718.34533119469     IErMin=12 ErrMin= 7.88D-04
 ErrMax= 7.88D-04  0.00D+00 EMaxC= 1.00D-01 BMatC= 1.16D-04 BMatP= 1.50D-04
 IDIUse=3 WtCom= 9.92D-01 WtEn= 7.88D-03
 Coeff-Com:  0.146D-01-0.258D-01-0.779D-01 0.126D+00 0.226D+00-0.436D+00
 Coeff-Com:  0.232D-01 0.647D+00 0.663D+00-0.233D+01-0.397D+00 0.257D+01
 Coeff-En:   0.000D+00 0.000D+00 0.000D+00 0.000D+00 0.000D+00 0.000D+00
 Coeff-En:   0.000D+00 0.000D+00 0.000D+00 0.000D+00 0.000D+00 0.100D+01
 Coeff:      0.145D-01-0.256D-01-0.773D-01 0.125D+00 0.224D+00-0.432D+00
 Coeff:      0.230D-01 0.642D+00 0.658D+00-0.231D+01-0.393D+00 0.255D+01
 Gap=     0.588 Goal=   None    Shift=    0.000
 RMSDP=1.52D-04 MaxDP=1.61D-02 DE=-1.12D-03 OVMax= 5.91D-02

 Cycle  13  Pass 0  IDiag  1:
 RMSU=  7.61D-05    CP:  9.89D-01  1.62D+00  1.73D+00  3.00D+00  3.00D+00
                    CP:  3.00D+00  3.00D+00  3.00D+00  2.52D+00  3.00D+00
                    CP:  3.00D+00  3.00D+00
 E= -1718.34677857981     Delta-E=       -0.001447385121 Rises=F Damp=F
 DIIS: error= 5.26D-04 at cycle  13 NSaved=  13.
 NSaved=13 IEnMin=13 EnMin= -1718.34677857981     IErMin=13 ErrMin= 5.26D-04
 ErrMax= 5.26D-04  0.00D+00 EMaxC= 1.00D-01 BMatC= 2.57D-05 BMatP= 1.16D-04
 IDIUse=3 WtCom= 9.95D-01 WtEn= 5.26D-03
 Coeff-Com: -0.507D-02 0.940D-02 0.235D-01-0.723D-01-0.782D-01 0.391D-01
 Coeff-Com: -0.372D-01 0.347D+00-0.503D+00 0.652D+00-0.513D+00-0.256D+00
 Coeff-Com:  0.139D+01
 Coeff-En:   0.000D+00 0.000D+00 0.000D+00 0.000D+00 0.000D+00 0.000D+00
 Coeff-En:   0.000D+00 0.000D+00 0.000D+00 0.000D+00 0.000D+00 0.000D+00
 Coeff-En:   0.100D+01
 Coeff:     -0.504D-02 0.935D-02 0.234D-01-0.719D-01-0.777D-01 0.389D-01
 Coeff:     -0.370D-01 0.345D+00-0.500D+00 0.648D+00-0.511D+00-0.254D+00
 Coeff:      0.139D+01
 Gap=     0.586 Goal=   None    Shift=    0.000
 RMSDP=4.43D-05 MaxDP=4.24D-03 DE=-1.45D-03 OVMax= 1.33D-02

 Cycle  14  Pass 0  IDiag  1:
 RMSU=  1.82D-05    CP:  9.88D-01  1.62D+00  1.73D+00  3.00D+00  3.00D+00
                    CP:  3.00D+00  3.00D+00  3.00D+00  2.78D+00  3.00D+00
                    CP:  3.00D+00  3.00D+00  1.48D+00
 E= -1718.34701864058     Delta-E=       -0.000240060777 Rises=F Damp=F
 DIIS: error= 4.27D-04 at cycle  14 NSaved=  14.
 NSaved=14 IEnMin=14 EnMin= -1718.34701864058     IErMin=14 ErrMin= 4.27D-04
 ErrMax= 4.27D-04  0.00D+00 EMaxC= 1.00D-01 BMatC= 3.89D-05 BMatP= 2.57D-05
 IDIUse=3 WtCom= 9.95D-01 WtEn= 5.26D-03
 Coeff-Com:  0.398D-02-0.743D-02-0.228D-01 0.525D-01-0.609D-01-0.136D+00
 Coeff-Com:  0.547D-01 0.544D+00-0.274D+00-0.844D+00 0.776D+00 0.117D+00
 Coeff-Com: -0.120D+01 0.200D+01
 Coeff-En:   0.000D+00 0.000D+00 0.000D+00 0.000D+00 0.000D+00 0.000D+00
 Coeff-En:   0.000D+00 0.000D+00 0.000D+00 0.000D+00 0.000D+00 0.000D+00
 Coeff-En:   0.000D+00 0.100D+01
 Coeff:      0.396D-02-0.740D-02-0.227D-01 0.522D-01-0.606D-01-0.135D+00
 Coeff:      0.544D-01 0.541D+00-0.272D+00-0.840D+00 0.772D+00 0.116D+00
 Coeff:     -0.119D+01 0.199D+01
 Gap=     0.586 Goal=   None    Shift=    0.000
 RMSDP=3.94D-05 MaxDP=3.50D-03 DE=-2.40D-04 OVMax= 1.26D-02

 Cycle  15  Pass 0  IDiag  1:
 RMSU=  6.21D-06    CP:  9.88D-01  1.62D+00  1.72D+00  3.00D+00  3.00D+00
                    CP:  3.00D+00  3.00D+00  3.00D+00  2.99D+00  3.00D+00
                    CP:  3.00D+00  3.00D+00  1.90D+00  1.88D+00
 E= -1718.34717346651     Delta-E=       -0.000154825925 Rises=F Damp=F
 DIIS: error= 3.20D-04 at cycle  15 NSaved=  15.
 NSaved=15 IEnMin=15 EnMin= -1718.34717346651     IErMin=15 ErrMin= 3.20D-04
 ErrMax= 3.20D-04  0.00D+00 EMaxC= 1.00D-01 BMatC= 4.00D-05 BMatP= 2.57D-05
 IDIUse=3 WtCom= 9.95D-01 WtEn= 5.26D-03
 Coeff-Com:  0.512D-02-0.963D-02-0.262D-01 0.776D-01 0.103D+00-0.325D+00
 Coeff-Com:  0.222D+00 0.259D+00 0.988D-01-0.120D+01 0.728D+00 0.716D+00
 Coeff-Com: -0.560D+00-0.261D+01 0.353D+01
 Coeff-En:   0.000D+00 0.000D+00 0.000D+00 0.000D+00 0.000D+00 0.000D+00
 Coeff-En:   0.000D+00 0.000D+00 0.000D+00 0.000D+00 0.000D+00 0.000D+00
 Coeff-En:   0.000D+00 0.000D+00 0.100D+01
 Coeff:      0.509D-02-0.958D-02-0.261D-01 0.771D-01 0.103D+00-0.324D+00
 Coeff:      0.220D+00 0.258D+00 0.983D-01-0.120D+01 0.724D+00 0.712D+00
 Coeff:     -0.557D+00-0.260D+01 0.351D+01
 Gap=     0.585 Goal=   None    Shift=    0.000
 RMSDP=4.34D-05 MaxDP=3.01D-03 DE=-1.55D-04 OVMax= 1.73D-02

 Cycle  16  Pass 0  IDiag  1:
 RMSU=  1.23D-05    CP:  9.88D-01  1.62D+00  1.72D+00  3.00D+00  3.00D+00
                    CP:  3.00D+00  3.00D+00  3.00D+00  3.00D+00  3.00D+00
                    CP:  3.00D+00  3.00D+00  2.29D+00  3.00D+00  3.00D+00
 E= -1718.34730595235     Delta-E=       -0.000132485840 Rises=F Damp=F
 DIIS: error= 8.74D-05 at cycle  16 NSaved=  16.
 NSaved=16 IEnMin=16 EnMin= -1718.34730595235     IErMin=16 ErrMin= 8.74D-05
 ErrMax= 8.74D-05  0.00D+00 EMaxC= 1.00D-01 BMatC= 1.14D-06 BMatP= 2.57D-05
 IDIUse=1 WtCom= 1.00D+00 WtEn= 0.00D+00
 Coeff-Com: -0.146D-03 0.448D-03 0.102D-02-0.439D-02-0.767D-02 0.325D-01
 Coeff-Com: -0.473D-01-0.357D-02-0.174D-01 0.233D+00-0.255D+00-0.525D-01
 Coeff-Com:  0.375D+00-0.501D+00-0.162D-01 0.126D+01
 Coeff:     -0.146D-03 0.448D-03 0.102D-02-0.439D-02-0.767D-02 0.325D-01
 Coeff:     -0.473D-01-0.357D-02-0.174D-01 0.233D+00-0.255D+00-0.525D-01
 Coeff:      0.375D+00-0.501D+00-0.162D-01 0.126D+01
 Gap=     0.585 Goal=   None    Shift=    0.000
 RMSDP=2.11D-05 MaxDP=1.66D-03 DE=-1.32D-04 OVMax= 7.90D-03

 Cycle  17  Pass 0  IDiag  1:
 RMSU=  9.31D-06    CP:  9.88D-01  1.62D+00  1.72D+00  3.00D+00  3.00D+00
                    CP:  3.00D+00  3.00D+00  3.00D+00  3.00D+00  3.00D+00
                    CP:  3.00D+00  3.00D+00  2.50D+00  3.00D+00  3.00D+00
                    CP:  1.76D+00
 E= -1718.34732043412     Delta-E=       -0.000014481767 Rises=F Damp=F
 DIIS: error= 2.13D-05 at cycle  17 NSaved=  17.
 NSaved=17 IEnMin=17 EnMin= -1718.34732043412     IErMin=17 ErrMin= 2.13D-05
 ErrMax= 2.13D-05  0.00D+00 EMaxC= 1.00D-01 BMatC= 1.10D-07 BMatP= 1.14D-06
 IDIUse=1 WtCom= 1.00D+00 WtEn= 0.00D+00
 Coeff-Com: -0.216D-03 0.464D-03 0.113D-02-0.399D-02-0.266D-02 0.208D-01
 Coeff-Com: -0.210D-01-0.236D-01 0.145D-02 0.104D+00-0.851D-01-0.536D-01
 Coeff-Com:  0.850D-01 0.102D+00-0.241D+00 0.225D+00 0.891D+00
 Coeff:     -0.216D-03 0.464D-03 0.113D-02-0.399D-02-0.266D-02 0.208D-01
 Coeff:     -0.210D-01-0.236D-01 0.145D-02 0.104D+00-0.851D-01-0.536D-01
 Coeff:      0.850D-01 0.102D+00-0.241D+00 0.225D+00 0.891D+00
 Gap=     0.585 Goal=   None    Shift=    0.000
 RMSDP=2.76D-06 MaxDP=2.31D-04 DE=-1.45D-05 OVMax= 9.32D-04

 Initial convergence to 1.0D-05 achieved.  Increase integral accuracy.
 Cycle  18  Pass 1  IDiag  1:
 E= -1718.34732076151     Delta-E=       -0.000000327389 Rises=F Damp=F
 DIIS: error= 2.05D-05 at cycle   1 NSaved=   1.
 NSaved= 1 IEnMin= 1 EnMin= -1718.34732076151     IErMin= 1 ErrMin= 2.05D-05
 ErrMax= 2.05D-05  0.00D+00 EMaxC= 1.00D-01 BMatC= 6.24D-08 BMatP= 6.24D-08
 IDIUse=1 WtCom= 1.00D+00 WtEn= 0.00D+00
 Coeff-Com:  0.100D+01
 Coeff:      0.100D+01
 Gap=     0.585 Goal=   None    Shift=    0.000
 RMSDP=2.76D-06 MaxDP=2.31D-04 DE=-3.27D-07 OVMax= 1.26D-04

 Cycle  19  Pass 1  IDiag  1:
 RMSU=  4.55D-07    CP:  1.00D+00
 E= -1718.34732088453     Delta-E=       -0.000000123023 Rises=F Damp=F
 DIIS: error= 1.79D-05 at cycle   2 NSaved=   2.
 NSaved= 2 IEnMin= 2 EnMin= -1718.34732088453     IErMin= 2 ErrMin= 1.79D-05
 ErrMax= 1.79D-05  0.00D+00 EMaxC= 1.00D-01 BMatC= 2.78D-08 BMatP= 6.24D-08
 IDIUse=1 WtCom= 1.00D+00 WtEn= 0.00D+00
 Coeff-Com:  0.649D-01 0.935D+00
 Coeff:      0.649D-01 0.935D+00
 Gap=     0.585 Goal=   None    Shift=    0.000
 RMSDP=3.24D-07 MaxDP=2.71D-05 DE=-1.23D-07 OVMax= 1.05D-04

 Cycle  20  Pass 1  IDiag  1:
 RMSU=  1.98D-07    CP:  1.00D+00  1.56D+00
 E= -1718.34732097311     Delta-E=       -0.000000088580 Rises=F Damp=F
 DIIS: error= 1.65D-05 at cycle   3 NSaved=   3.
 NSaved= 3 IEnMin= 3 EnMin= -1718.34732097311     IErMin= 3 ErrMin= 1.65D-05
 ErrMax= 1.65D-05  0.00D+00 EMaxC= 1.00D-01 BMatC= 2.26D-08 BMatP= 2.78D-08
 IDIUse=1 WtCom= 1.00D+00 WtEn= 0.00D+00
 Coeff-Com: -0.149D+00 0.115D+00 0.103D+01
 Coeff:     -0.149D+00 0.115D+00 0.103D+01
 Gap=     0.585 Goal=   None    Shift=    0.000
 RMSDP=3.76D-07 MaxDP=3.20D-05 DE=-8.86D-08 OVMax= 1.20D-04

 Cycle  21  Pass 1  IDiag  1:
 RMSU=  1.10D-07    CP:  1.00D+00  2.25D+00  1.89D+00
 E= -1718.34732107073     Delta-E=       -0.000000097617 Rises=F Damp=F
 DIIS: error= 1.50D-05 at cycle   4 NSaved=   4.
 NSaved= 4 IEnMin= 4 EnMin= -1718.34732107073     IErMin= 4 ErrMin= 1.50D-05
 ErrMax= 1.50D-05  0.00D+00 EMaxC= 1.00D-01 BMatC= 1.87D-08 BMatP= 2.26D-08
 IDIUse=1 WtCom= 1.00D+00 WtEn= 0.00D+00
 Coeff-Com:  0.812D-01-0.153D+01-0.123D+01 0.368D+01
 Coeff:      0.812D-01-0.153D+01-0.123D+01 0.368D+01
 Gap=     0.585 Goal=   None    Shift=    0.000
 RMSDP=1.62D-06 MaxDP=1.34D-04 DE=-9.76D-08 OVMax= 5.36D-04

 Cycle  22  Pass 1  IDiag  1:
 RMSU=  1.18D-06    CP:  1.00D+00  3.00D+00  3.00D+00  3.00D+00
 E= -1718.34732140942     Delta-E=       -0.000000338693 Rises=F Damp=F
 DIIS: error= 9.80D-06 at cycle   5 NSaved=   5.
 NSaved= 5 IEnMin= 5 EnMin= -1718.34732140942     IErMin= 5 ErrMin= 9.80D-06
 ErrMax= 9.80D-06  0.00D+00 EMaxC= 1.00D-01 BMatC= 9.52D-09 BMatP= 1.87D-08
 IDIUse=1 WtCom= 1.00D+00 WtEn= 0.00D+00
 Coeff-Com:  0.132D+00-0.368D-01-0.995D+00 0.129D+00 0.177D+01
 Coeff:      0.132D+00-0.368D-01-0.995D+00 0.129D+00 0.177D+01
 Gap=     0.585 Goal=   None    Shift=    0.000
 RMSDP=1.61D-06 MaxDP=1.30D-04 DE=-3.39D-07 OVMax= 5.80D-04

 Cycle  23  Pass 1  IDiag  1:
 RMSU=  2.51D-07    CP:  1.00D+00  3.00D+00  3.00D+00  3.00D+00  2.35D+00
 E= -1718.34732161871     Delta-E=       -0.000000209289 Rises=F Damp=F
 DIIS: error= 7.21D-06 at cycle   6 NSaved=   6.
 NSaved= 6 IEnMin= 6 EnMin= -1718.34732161871     IErMin= 6 ErrMin= 7.21D-06
 ErrMax= 7.21D-06  0.00D+00 EMaxC= 1.00D-01 BMatC= 4.10D-09 BMatP= 9.52D-09
 IDIUse=1 WtCom= 1.00D+00 WtEn= 0.00D+00
 Coeff-Com:  0.641D-02 0.792D+00 0.301D+00-0.186D+01 0.511D+00 0.125D+01
 Coeff:      0.641D-02 0.792D+00 0.301D+00-0.186D+01 0.511D+00 0.125D+01
 Gap=     0.585 Goal=   None    Shift=    0.000
 RMSDP=1.03D-06 MaxDP=8.61D-05 DE=-2.09D-07 OVMax= 3.84D-04

 Cycle  24  Pass 1  IDiag  1:
 RMSU=  2.53D-07    CP:  1.00D+00  3.00D+00  3.00D+00  3.00D+00  3.00D+00
                    CP:  1.76D+00
 E= -1718.34732169155     Delta-E=       -0.000000072842 Rises=F Damp=F
 DIIS: error= 5.08D-06 at cycle   7 NSaved=   7.
 NSaved= 7 IEnMin= 7 EnMin= -1718.34732169155     IErMin= 7 ErrMin= 5.08D-06
 ErrMax= 5.08D-06  0.00D+00 EMaxC= 1.00D-01 BMatC= 1.92D-09 BMatP= 4.10D-09
 IDIUse=1 WtCom= 1.00D+00 WtEn= 0.00D+00
 Coeff-Com: -0.504D-01-0.996D+00 0.692D-02 0.225D+01-0.123D+01-0.158D+01
 Coeff-Com:  0.261D+01
 Coeff:     -0.504D-01-0.996D+00 0.692D-02 0.225D+01-0.123D+01-0.158D+01
 Coeff:      0.261D+01
 Gap=     0.585 Goal=   None    Shift=    0.000
 RMSDP=5.45D-07 MaxDP=4.73D-05 DE=-7.28D-08 OVMax= 1.97D-04

 Cycle  25  Pass 1  IDiag  1:
 RMSU=  1.15D-07    CP:  1.00D+00  3.00D+00  3.00D+00  3.00D+00  3.00D+00
                    CP:  2.37D+00  3.00D+00
 E= -1718.34732171987     Delta-E=       -0.000000028321 Rises=F Damp=F
 DIIS: error= 3.02D-06 at cycle   8 NSaved=   8.
 NSaved= 8 IEnMin= 8 EnMin= -1718.34732171987     IErMin= 8 ErrMin= 3.02D-06
 ErrMax= 3.02D-06  0.00D+00 EMaxC= 1.00D-01 BMatC= 7.68D-10 BMatP= 1.92D-09
 IDIUse=1 WtCom= 1.00D+00 WtEn= 0.00D+00
 Coeff-Com:  0.101D-01-0.111D+00-0.292D+00 0.367D+00 0.245D+00-0.122D+00
 Coeff-Com: -0.155D+01 0.246D+01
 Coeff:      0.101D-01-0.111D+00-0.292D+00 0.367D+00 0.245D+00-0.122D+00
 Coeff:     -0.155D+01 0.246D+01
 Gap=     0.585 Goal=   None    Shift=    0.000
 RMSDP=5.82D-07 MaxDP=4.85D-05 DE=-2.83D-08 OVMax= 1.78D-04

 Cycle  26  Pass 1  IDiag  1:
 RMSU=  5.19D-07    CP:  1.00D+00  3.00D+00  3.00D+00  3.00D+00  3.00D+00
                    CP:  3.00D+00  3.00D+00  2.72D+00
 E= -1718.34732173419     Delta-E=       -0.000000014318 Rises=F Damp=F
 DIIS: error= 5.59D-07 at cycle   9 NSaved=   9.
 NSaved= 9 IEnMin= 9 EnMin= -1718.34732173419     IErMin= 9 ErrMin= 5.59D-07
 ErrMax= 5.59D-07  0.00D+00 EMaxC= 1.00D-01 BMatC= 3.71D-11 BMatP= 7.68D-10
 IDIUse=1 WtCom= 1.00D+00 WtEn= 0.00D+00
 Coeff-Com:  0.523D-02 0.182D+00 0.390D-01-0.436D+00 0.203D+00 0.273D+00
 Coeff-Com: -0.337D+00-0.154D+00 0.123D+01
 Coeff:      0.523D-02 0.182D+00 0.390D-01-0.436D+00 0.203D+00 0.273D+00
 Coeff:     -0.337D+00-0.154D+00 0.123D+01
 Gap=     0.585 Goal=   None    Shift=    0.000
 RMSDP=1.04D-07 MaxDP=8.47D-06 DE=-1.43D-08 OVMax= 3.18D-05

 Cycle  27  Pass 1  IDiag  1:
 RMSU=  3.02D-08    CP:  1.00D+00  3.00D+00  3.00D+00  3.00D+00  3.00D+00
                    CP:  3.00D+00  3.00D+00  3.00D+00  1.18D+00
 E= -1718.34732173460     Delta-E=       -0.000000000409 Rises=F Damp=F
 DIIS: error= 1.80D-07 at cycle  10 NSaved=  10.
 NSaved=10 IEnMin=10 EnMin= -1718.34732173460     IErMin=10 ErrMin= 1.80D-07
 ErrMax= 1.80D-07  0.00D+00 EMaxC= 1.00D-01 BMatC= 3.38D-12 BMatP= 3.71D-11
 IDIUse=1 WtCom= 1.00D+00 WtEn= 0.00D+00
 Coeff-Com: -0.847D-03-0.139D-01 0.282D-02 0.347D-01-0.304D-01-0.212D-01
 Coeff-Com:  0.859D-01-0.662D-01-0.136D+00 0.115D+01
 Coeff:     -0.847D-03-0.139D-01 0.282D-02 0.347D-01-0.304D-01-0.212D-01
 Coeff:      0.859D-01-0.662D-01-0.136D+00 0.115D+01
 Gap=     0.585 Goal=   None    Shift=    0.000
 RMSDP=6.96D-09 MaxDP=6.57D-07 DE=-4.09D-10 OVMax= 1.96D-06

 SCF Done:  E(RHF) =  -1718.34732173     A.U. after   27 cycles
            NFock= 27  Conv=0.70D-08     -V/T= 2.0003
 KE= 1.717906681234D+03 PE=-5.454914320377D+03 EE= 1.322866847142D+03
 Leave Link  502 at Sat May 14 11:08:27 2022, MaxMem=   104857600 cpu:            3047.2 elap:             190.9
 (Enter /apps/software/g16/l801.exe)
 Range of M.O.s used for correlation:     1   416
 NBasis=   416 NAE=    42 NBE=    42 NFC=     0 NFV=     0
 NROrb=    416 NOA=    42 NOB=    42 NVA=   374 NVB=   374
 Leave Link  801 at Sat May 14 11:08:27 2022, MaxMem=   104857600 cpu:               0.5 elap:               0.0
 (Enter /apps/software/g16/l914.exe)
 RHF ground state
 Doing stability rather than CIS.
 Two-electron integrals replicated using symmetry.
 MDV=   104857600 DFT=F DoStab=T Mixed=F DoRPA=F DoScal=F NonHer=F
 Making orbital integer symmetry assigments:
 Orbital symmetries:
       Occupied  (A) (A) (A) (A) (A) (A) (A) (A) (A) (A) (A) (A)
                 (A) (A) (A) (A) (A) (A) (A) (A) (A) (A) (A) (A)
                 (A) (A) (A) (A) (A) (A) (A) (A) (A) (A) (A) (A)
                 (A) (A) (A) (A) (A) (A)
       Virtual   (A) (A) (A) (A) (A) (A) (A) (A) (A) (A) (A) (A)
                 (A) (A) (A) (A) (A) (A) (A) (A) (A) (A) (A) (A)
                 (A) (A) (A) (A) (A) (A) (A) (A) (A) (A) (A) (A)
                 (A) (A) (A) (A) (A) (A) (A) (A) (A) (A) (A) (A)
                 (A) (A) (A) (A) (A) (A) (A) (A) (A) (A) (A) (A)
                 (A) (A) (A) (A) (A) (A) (A) (A) (A) (A) (A) (A)
                 (A) (A) (A) (A) (A) (A) (A) (A) (A) (A) (A) (A)
                 (A) (A) (A) (A) (A) (A) (A) (A) (A) (A) (A) (A)
                 (A) (A) (A) (A) (A) (A) (A) (A) (A) (A) (A) (A)
                 (A) (A) (A) (A) (A) (A) (A) (A) (A) (A) (A) (A)
                 (A) (A) (A) (A) (A) (A) (A) (A) (A) (A) (A) (A)
                 (A) (A) (A) (A) (A) (A) (A) (A) (A) (A) (A) (A)
                 (A) (A) (A) (A) (A) (A) (A) (A) (A) (A) (A) (A)
                 (A) (A) (A) (A) (A) (A) (A) (A) (A) (A) (A) (A)
                 (A) (A) (A) (A) (A) (A) (A) (A) (A) (A) (A) (A)
                 (A) (A) (A) (A) (A) (A) (A) (A) (A) (A) (A) (A)
                 (A) (A) (A) (A) (A) (A) (A) (A) (A) (A) (A) (A)
                 (A) (A) (A) (A) (A) (A) (A) (A) (A) (A) (A) (A)
                 (A) (A) (A) (A) (A) (A) (A) (A) (A) (A) (A) (A)
                 (A) (A) (A) (A) (A) (A) (A) (A) (A) (A) (A) (A)
                 (A) (A) (A) (A) (A) (A) (A) (A) (A) (A) (A) (A)
                 (A) (A) (A) (A) (A) (A) (A) (A) (A) (A) (A) (A)
                 (A) (A) (A) (A) (A) (A) (A) (A) (A) (A) (A) (A)
                 (A) (A) (A) (A) (A) (A) (A) (A) (A) (A) (A) (A)
                 (A) (A) (A) (A) (A) (A) (A) (A) (A) (A) (A) (A)
                 (A) (A) (A) (A) (A) (A) (A) (A) (A) (A) (A) (A)
                 (A) (A) (A) (A) (A) (A) (A) (A) (A) (A) (A) (A)
                 (A) (A) (A) (A) (A) (A) (A) (A) (A) (A) (A) (A)
                 (A) (A) (A) (A) (A) (A) (A) (A) (A) (A) (A) (A)
                 (A) (A) (A) (A) (A) (A) (A) (A) (A) (A) (A) (A)
                 (A) (A) (A) (A) (A) (A) (A) (A) (A) (A) (A) (A)
                 (A) (A)
 FoFJK:  IHMeth= 1 ICntrl=       0 DoSepK=F KAlg= 0 I1Cent=           0 FoldK=F
 IRaf=         0 NMat=       1 IRICut=       1 DoRegI=T DoRafI=F ISym2E= 1 IDoP0=0 IntGTp=1.
 FoFCou: FMM=F IPFlag=           0 FMFlag=      100000 FMFlg1=           0
         NFxFlg=           0 DoJE=F BraDBF=F KetDBF=F FulRan=T
         wScrn=  0.000000 ICntrl=         0 IOpCl=  1 I1Cent=           0 NGrid=           0
         NMat0=    1 NMatS0=      1 NMatT0=    0 NMatD0=    1 NMtDS0=    0 NMtDT0=    0
 Petite list used in FoFCou.
    24 initial guesses have been made.
 Convergence on wavefunction:    0.001000000000000
 Davidson Disk Diagonalization:  ConvIn= 1.00D-03 SkipCon=T Conv= 1.00D-03.
 Max sub-space:  2000 roots to seek:    24 dimension of matrix:        31416
 Iteration     1 Dimension    24 NMult     0 NNew     24
 CISAX will form     1 AO SS matrices at one time.
 NMat=     1 NSing=     1 JSym2X= 0.
 NMat=     1 NSing=     1 JSym2X= 0.
 NMat=     1 NSing=     1 JSym2X= 0.
 NMat=     1 NSing=     1 JSym2X= 0.
 NMat=     1 NSing=     1 JSym2X= 0.
 NMat=     1 NSing=     1 JSym2X= 0.
 NMat=     1 NSing=     1 JSym2X= 0.
 NMat=     1 NSing=     1 JSym2X= 0.
 NMat=     1 NSing=     1 JSym2X= 0.
 NMat=     1 NSing=     1 JSym2X= 0.
 NMat=     1 NSing=     1 JSym2X= 0.
 NMat=     1 NSing=     1 JSym2X= 0.
 NMat=     1 NSing=     0 JSym2X= 0.
 NMat=     1 NSing=     0 JSym2X= 0.
 NMat=     1 NSing=     0 JSym2X= 0.
 NMat=     1 NSing=     0 JSym2X= 0.
 NMat=     1 NSing=     0 JSym2X= 0.
 NMat=     1 NSing=     0 JSym2X= 0.
 NMat=     1 NSing=     0 JSym2X= 0.
 NMat=     1 NSing=     0 JSym2X= 0.
 NMat=     1 NSing=     0 JSym2X= 0.
 NMat=     1 NSing=     0 JSym2X= 0.
 NMat=     1 NSing=     0 JSym2X= 0.
 NMat=     1 NSing=     0 JSym2X= 0.
 New state      1 was old state      4
 New state      2 was old state     10
 New state      3 was old state     12
 New state      4 was old state      8
 New state      5 was old state      2
 New state      7 was old state      3
 New state      8 was old state      9
 New state      9 was old state     11
 New state     10 was old state      7
 New state     11 was old state      1
 New state     12 was old state      5
 Excitation Energies [eV] at current iteration:
 Root      1 :     2.794893552319150
 Root      2 :     2.847763639878031
 Root      3 :     2.848772552065705
 Root      4 :     3.318289738399826
 Root      5 :     3.338277537358016
 Root      6 :     3.339324169027873
 Root      7 :     4.410886239524572
 Root      8 :     4.434054346350964
 Root      9 :     4.434892343624835
 Root     10 :     6.503625989668389
 Root     11 :     6.580355126097719
 Root     12 :     6.581290456311114
 Root     13 :    11.093497906167796
 Root     14 :    11.093720444810698
 Root     15 :    11.196375583464723
 Root     16 :    11.196595411706367
 Root     17 :    11.227984614419142
 Root     18 :    11.334357018590412
 Root     19 :    16.480683068770976
 Root     20 :    16.618072544577124
 Root     21 :    16.834897747216321
 Root     22 :    16.867241787280562
 Root     23 :    17.102276310439827
 Root     24 :    17.284356890953031
 Iteration     2 Dimension    48 NMult    24 NNew     24
 CISAX will form     1 AO SS matrices at one time.
 NMat=     1 NSing=     1 JSym2X= 0.
 NMat=     1 NSing=     1 JSym2X= 0.
 NMat=     1 NSing=     1 JSym2X= 0.
 NMat=     1 NSing=     1 JSym2X= 0.
 NMat=     1 NSing=     1 JSym2X= 0.
 NMat=     1 NSing=     1 JSym2X= 0.
 NMat=     1 NSing=     1 JSym2X= 0.
 NMat=     1 NSing=     1 JSym2X= 0.
 NMat=     1 NSing=     1 JSym2X= 0.
 NMat=     1 NSing=     1 JSym2X= 0.
 NMat=     1 NSing=     1 JSym2X= 0.
 NMat=     1 NSing=     1 JSym2X= 0.
 NMat=     1 NSing=     0 JSym2X= 0.
 NMat=     1 NSing=     0 JSym2X= 0.
 NMat=     1 NSing=     0 JSym2X= 0.
 NMat=     1 NSing=     0 JSym2X= 0.
 NMat=     1 NSing=     0 JSym2X= 0.
 NMat=     1 NSing=     0 JSym2X= 0.
 NMat=     1 NSing=     0 JSym2X= 0.
 NMat=     1 NSing=     0 JSym2X= 0.
 NMat=     1 NSing=     0 JSym2X= 0.
 NMat=     1 NSing=     0 JSym2X= 0.
 NMat=     1 NSing=     0 JSym2X= 0.
 NMat=     1 NSing=     0 JSym2X= 0.
 Root      1 not converged, maximum delta is    0.175206199196310
 New state      2 was old state      3
 Root      2 not converged, maximum delta is    0.247493182228160
 New state      3 was old state      2
 Root      3 not converged, maximum delta is    0.247778994681383
 Root      4 not converged, maximum delta is    0.180751882441001
 Root      5 not converged, maximum delta is    0.313367978352905
 Root      6 not converged, maximum delta is    0.313164716034467
 New state      7 was old state      9
 Root      7 not converged, maximum delta is    0.247397215819598
 Root      8 not converged, maximum delta is    0.247491212128631
 New state      9 was old state      7
 Root      9 not converged, maximum delta is    0.168888257665729
 Root     10 not converged, maximum delta is    0.164969669976904
 Root     11 not converged, maximum delta is    0.180941348638302
 Root     12 not converged, maximum delta is    0.180809001982016
 Excitation Energies [eV] at current iteration:
 Root      1 :    -1.130721348039520   Change is   -3.925614900358671
 Root      2 :    -1.081349231126141   Change is   -3.930121783191846
 Root      3 :    -1.081270815576273   Change is   -3.929034455454304
 Root      4 :    -0.422152522907618   Change is   -3.740442261307444
 Root      5 :    -0.334597702506691   Change is   -3.672875239864707
 Root      6 :    -0.334228650416201   Change is   -3.673552819444074
 Root      7 :     1.325201866397643   Change is   -3.109690477227192
 Root      8 :     1.325278326065520   Change is   -3.108776020285443
 Root      9 :     1.344040008536106   Change is   -3.066846230988466
 Root     10 :     3.890115988474934   Change is   -2.613510001193456
 Root     11 :     4.011738288146518   Change is   -2.568616837951201
 Root     12 :     4.012228033855175   Change is   -2.569062422455939
 Root     13 :    10.262061220777472   Change is   -0.831436685390324
 Root     14 :    10.262373778136279   Change is   -0.831346666674419
 Root     15 :    10.411664370992897   Change is   -0.816320243426247
 Root     16 :    10.908232513429533   Change is   -0.288143070035191
 Root     17 :    10.908511644689483   Change is   -0.288083767016885
 Root     18 :    11.077588426543725   Change is   -0.256768592046687
 Root     19 :    12.091881570434245   Change is   -4.388801498336732
 Root     20 :    12.772177799710189   Change is   -3.845894744866935
 Root     21 :    13.472493863988467   Change is   -3.629782446451362
 Root     22 :    13.611586991663717   Change is   -3.672769899289316
 Root     23 :    14.465655608098769   Change is   -2.401586179181793
 Root     24 :    14.652678312974249   Change is   -2.182219434242072
 Iteration     3 Dimension    54 NMult    48 NNew      6
 CISAX will form     1 AO SS matrices at one time.
 NMat=     1 NSing=     1 JSym2X= 0.
 NMat=     1 NSing=     1 JSym2X= 0.
 NMat=     1 NSing=     1 JSym2X= 0.
 NMat=     1 NSing=     0 JSym2X= 0.
 NMat=     1 NSing=     0 JSym2X= 0.
 NMat=     1 NSing=     0 JSym2X= 0.
 Root      1 not converged, maximum delta is    0.005375784290678
 Root      2 not converged, maximum delta is    0.014549472854313
 Root      3 not converged, maximum delta is    0.014558592726754
 New state      4 was old state      9
 Root      4 not converged, maximum delta is    0.010007060139465
 New state      5 was old state      8
 Root      5 not converged, maximum delta is    0.042661181790553
 New state      6 was old state      7
 Root      6 not converged, maximum delta is    0.042628018357193
 Excitation Energies [eV] at current iteration:
 Root      1 :    -1.177548920865185   Change is   -0.046827572825665
 Root      2 :    -1.123079626953015   Change is   -0.041730395826873
 Root      3 :    -1.122990099793535   Change is   -0.041719284217262
 Root      4 :     1.236395380698856   Change is   -0.107644627837250
 Root      5 :     1.287168614905065   Change is   -0.038109711160456
 Root      6 :     1.287190942279244   Change is   -0.038010924118399
 Iteration     4 Dimension    60 NMult    54 NNew      6
 CISAX will form     1 AO SS matrices at one time.
 NMat=     1 NSing=     1 JSym2X= 0.
 NMat=     1 NSing=     1 JSym2X= 0.
 NMat=     1 NSing=     1 JSym2X= 0.
 NMat=     1 NSing=     0 JSym2X= 0.
 NMat=     1 NSing=     0 JSym2X= 0.
 NMat=     1 NSing=     0 JSym2X= 0.
 Root      1 not converged, maximum delta is    0.002050475178201
 Root      2 not converged, maximum delta is    0.001410700928508
 Root      3 not converged, maximum delta is    0.001410345349216
 Root      4 not converged, maximum delta is    0.002326994379856
 New state      5 was old state      6
 Root      5 not converged, maximum delta is    0.051846791364155
 New state      6 was old state      5
 Root      6 not converged, maximum delta is    0.051889282349229
 Excitation Energies [eV] at current iteration:
 Root      1 :    -1.179435466445157   Change is   -0.001886545579972
 Root      2 :    -1.124572080928050   Change is   -0.001492453975036
 Root      3 :    -1.124481935368439   Change is   -0.001491835574904
 Root      4 :     1.226126183983423   Change is   -0.010269196715433
 Root      5 :     1.282042528915866   Change is   -0.005148413363378
 Root      6 :     1.282121928980696   Change is   -0.005046685924369
 Iteration     5 Dimension    66 NMult    60 NNew      6
 CISAX will form     1 AO SS matrices at one time.
 NMat=     1 NSing=     1 JSym2X= 0.
 NMat=     1 NSing=     1 JSym2X= 0.
 NMat=     1 NSing=     1 JSym2X= 0.
 NMat=     1 NSing=     0 JSym2X= 0.
 NMat=     1 NSing=     0 JSym2X= 0.
 NMat=     1 NSing=     0 JSym2X= 0.
 Root      1 has converged.
 Root      2 has converged.
 Root      3 has converged.
 Root      4 has converged.
 Root      5 not converged, maximum delta is    0.001402548446553
 Root      6 not converged, maximum delta is    0.001405653047737
 Excitation Energies [eV] at current iteration:
 Root      1 :    -1.179550970086551   Change is   -0.000115503641394
 Root      2 :    -1.124664521722492   Change is   -0.000092440794442
 Root      3 :    -1.124574329023774   Change is   -0.000092393655335
 Root      4 :     1.225555256774916   Change is   -0.000570927208508
 Root      5 :     1.281559366866257   Change is   -0.000483162049609
 Root      6 :     1.281653433944413   Change is   -0.000468495036282
 Iteration     6 Dimension    68 NMult    66 NNew      2
 CISAX will form     2 AO SS matrices at one time.
 NMat=     2 NSing=     2 JSym2X= 0.
 Root      1 has converged.
 Root      2 has converged.
 Root      3 has converged.
 Root      4 has converged.
 Root      5 has converged.
 Root      6 has converged.
 Excitation Energies [eV] at current iteration:
 Root      1 :    -1.179550970086545   Change is    0.000000000000006
 Root      2 :    -1.124664521722483   Change is    0.000000000000009
 Root      3 :    -1.124574329023774   Change is    0.000000000000000
 Root      4 :     1.225555256512844   Change is   -0.000000000262072
 Root      5 :     1.281538369595037   Change is   -0.000020997271219
 Root      6 :     1.281632906645743   Change is   -0.000020527298670
 Convergence achieved on expansion vectors.
 ***********************************************************************
 Stability analysis using <AA,BB:AA,BB> singles matrix:
 ***********************************************************************
 1PDM for each excited state written to RWF  633
 Ground to excited state transition densities written to RWF  633

 Eigenvectors of the stability matrix:
 
 Eigenvector   1:      Triplet-A    Eigenvalue=-0.0433477  <S**2>=2.000
      34 -> 60        -0.17957
      35 -> 59        -0.18006
      41 -> 59         0.37970
      41 -> 60         0.20587
      42 -> 59         0.20690
      42 -> 60        -0.37879
 
 Eigenvector   2:      Triplet-A    Eigenvalue=-0.0413307  <S**2>=2.000
      34 -> 60         0.10562
      35 -> 59        -0.10492
      36 -> 59         0.16913
      40 -> 48         0.10704
      40 -> 59         0.39209
      41 -> 59         0.16248
      41 -> 60        -0.27989
      42 -> 59         0.27878
      42 -> 60         0.16383
 
 Eigenvector   3:      Triplet-A    Eigenvalue=-0.0413273  <S**2>=2.000
      34 -> 59         0.10532
      35 -> 60         0.10523
      36 -> 60         0.16907
      40 -> 47         0.10706
      40 -> 60         0.39173
      41 -> 59        -0.27941
      41 -> 60        -0.16260
      42 -> 59         0.16301
      42 -> 60        -0.27995
 
 Eigenvector   4:      Singlet-A    Eigenvalue= 0.0450383  <S**2>=0.000
      34 -> 60        -0.17745
      35 -> 59        -0.17784
      41 -> 47         0.10079
      41 -> 59         0.38144
      41 -> 60         0.20660
      42 -> 48         0.10090
      42 -> 59         0.20748
      42 -> 60        -0.38070
 
 Eigenvector   5:      Singlet-A    Eigenvalue= 0.0470957  <S**2>=0.000
      36 -> 59         0.18019
      40 -> 48         0.11598
      40 -> 59         0.42384
      41 -> 59         0.13736
      41 -> 60        -0.27632
      42 -> 59         0.27520
      42 -> 60         0.13850
 
 Eigenvector   6:      Singlet-A    Eigenvalue= 0.0470991  <S**2>=0.000
      36 -> 60         0.18017
      40 -> 47         0.11600
      40 -> 60         0.42352
      41 -> 59        -0.27577
      41 -> 60        -0.13738
      42 -> 59         0.13779
      42 -> 60        -0.27643
 The wavefunction has an RHF -> UHF instability.
 Leave Link  914 at Sat May 14 11:17:48 2022, MaxMem=   104857600 cpu:            8928.0 elap:             560.4
 (Enter /apps/software/g16/l601.exe)
 Copying SCF densities to generalized density rwf, IOpCl= 0 IROHF=0.

 **********************************************************************

            Population analysis using the SCF density.

 **********************************************************************

 Orbital symmetries:
       Occupied  (A) (A) (A) (A) (A) (A) (A) (A) (A) (A) (A) (A)
                 (A) (A) (A) (A) (A) (A) (A) (A) (A) (A) (A) (A)
                 (A) (A) (A) (A) (A) (A) (A) (A) (A) (A) (A) (A)
                 (A) (A) (A) (A) (A) (A)
       Virtual   (A) (A) (A) (A) (A) (A) (A) (A) (A) (A) (A) (A)
                 (A) (A) (A) (A) (A) (A) (A) (A) (A) (A) (A) (A)
                 (A) (A) (A) (A) (A) (A) (A) (A) (A) (A) (A) (A)
                 (A) (A) (A) (A) (A) (A) (A) (A) (A) (A) (A) (A)
                 (A) (A) (A) (A) (A) (A) (A) (A) (A) (A) (A) (A)
                 (A) (A) (A) (A) (A) (A) (A) (A) (A) (A) (A) (A)
                 (A) (A) (A) (A) (A) (A) (A) (A) (A) (A) (A) (A)
                 (A) (A) (A) (A) (A) (A) (A) (A) (A) (A) (A) (A)
                 (A) (A) (A) (A) (A) (A) (A) (A) (A) (A) (A) (A)
                 (A) (A) (A) (A) (A) (A) (A) (A) (A) (A) (A) (A)
                 (A) (A) (A) (A) (A) (A) (A) (A) (A) (A) (A) (A)
                 (A) (A) (A) (A) (A) (A) (A) (A) (A) (A) (A) (A)
                 (A) (A) (A) (A) (A) (A) (A) (A) (A) (A) (A) (A)
                 (A) (A) (A) (A) (A) (A) (A) (A) (A) (A) (A) (A)
                 (A) (A) (A) (A) (A) (A) (A) (A) (A) (A) (A) (A)
                 (A) (A) (A) (A) (A) (A) (A) (A) (A) (A) (A) (A)
                 (A) (A) (A) (A) (A) (A) (A) (A) (A) (A) (A) (A)
                 (A) (A) (A) (A) (A) (A) (A) (A) (A) (A) (A) (A)
                 (A) (A) (A) (A) (A) (A) (A) (A) (A) (A) (A) (A)
                 (A) (A) (A) (A) (A) (A) (A) (A) (A) (A) (A) (A)
                 (A) (A) (A) (A) (A) (A) (A) (A) (A) (A) (A) (A)
                 (A) (A) (A) (A) (A) (A) (A) (A) (A) (A) (A) (A)
                 (A) (A) (A) (A) (A) (A) (A) (A) (A) (A) (A) (A)
                 (A) (A) (A) (A) (A) (A) (A) (A) (A) (A) (A) (A)
                 (A) (A) (A) (A) (A) (A) (A) (A) (A) (A) (A) (A)
                 (A) (A) (A) (A) (A) (A) (A) (A) (A) (A) (A) (A)
                 (A) (A) (A) (A) (A) (A) (A) (A) (A) (A) (A) (A)
                 (A) (A) (A) (A) (A) (A) (A) (A) (A) (A) (A) (A)
                 (A) (A) (A) (A) (A) (A) (A) (A) (A) (A) (A) (A)
                 (A) (A) (A) (A) (A) (A) (A) (A) (A) (A) (A) (A)
                 (A) (A) (A) (A) (A) (A) (A) (A) (A) (A) (A) (A)
                 (A) (A)
 The electronic state is 1-A.
 Alpha  occ. eigenvalues -- -261.61592 -32.18003 -27.66060 -27.65978 -27.65977
 Alpha  occ. eigenvalues --  -20.91211 -20.91211 -20.91210 -20.91210 -20.91209
 Alpha  occ. eigenvalues --  -20.91208  -4.40804  -2.99028  -2.98874  -2.98874
 Alpha  occ. eigenvalues --   -1.71022  -1.69929  -1.69480  -1.69480  -1.69267
 Alpha  occ. eigenvalues --   -1.69266  -1.07423  -1.06744  -1.06345  -1.06343
 Alpha  occ. eigenvalues --   -1.05981  -1.05979  -1.01022  -0.96503  -0.95634
 Alpha  occ. eigenvalues --   -0.95631  -0.95179  -0.95177  -0.88629  -0.88626
 Alpha  occ. eigenvalues --   -0.87832  -0.87139  -0.87138  -0.85303  -0.80379
 Alpha  occ. eigenvalues --   -0.79898  -0.79897
 Alpha virt. eigenvalues --   -0.21388  -0.17474  -0.17473  -0.16108  -0.11100
 Alpha virt. eigenvalues --   -0.11099  -0.06782  -0.06782  -0.06665  -0.06662
 Alpha virt. eigenvalues --   -0.05338  -0.05338   0.00053   0.01596   0.02160
 Alpha virt. eigenvalues --    0.02162   0.02794   0.02795   0.09009   0.11545
 Alpha virt. eigenvalues --    0.11551   0.11662   0.11664   0.12434   0.15107
 Alpha virt. eigenvalues --    0.16994   0.16999   0.22208   0.24071   0.25205
 Alpha virt. eigenvalues --    0.25211   0.32164   0.32383   0.32386   0.36638
 Alpha virt. eigenvalues --    0.37209   0.37214   0.37238   0.37239   0.40753
 Alpha virt. eigenvalues --    0.43112   0.47980   0.47996   0.47997   0.49837
 Alpha virt. eigenvalues --    0.49841   0.50482   0.51205   0.52065   0.52072
 Alpha virt. eigenvalues --    0.53586   0.53589   0.53725   0.54664   0.54670
 Alpha virt. eigenvalues --    0.58481   0.60297   0.60300   0.60518   0.60520
 Alpha virt. eigenvalues --    0.63271   0.64296   0.64299   0.72195   0.78602
 Alpha virt. eigenvalues --    0.80773   0.81410   0.81418   0.84586   0.90352
 Alpha virt. eigenvalues --    0.90356   0.92523   0.92775   0.92781   0.95629
 Alpha virt. eigenvalues --    0.95634   0.95978   0.95981   0.95991   0.99569
 Alpha virt. eigenvalues --    0.99574   1.03733   1.05271   1.15783   1.15792
 Alpha virt. eigenvalues --    1.18412   1.18413   1.18702   1.21664   1.23996
 Alpha virt. eigenvalues --    1.23999   1.25074   1.25077   1.27288   1.28401
 Alpha virt. eigenvalues --    1.28406   1.29805   1.29809   1.31163   1.35017
 Alpha virt. eigenvalues --    1.38377   1.38389   1.46263   1.49094   1.51211
 Alpha virt. eigenvalues --    1.51223   1.58430   1.58440   1.62312   1.62319
 Alpha virt. eigenvalues --    1.65530   1.67650   1.67656   1.72341   1.75514
 Alpha virt. eigenvalues --    1.75521   1.75578   1.82879   1.85699   1.89904
 Alpha virt. eigenvalues --    1.89918   1.92310   1.92316   1.93525   2.03310
 Alpha virt. eigenvalues --    2.03324   2.07120   2.07768   2.07773   2.08317
 Alpha virt. eigenvalues --    2.09695   2.09702   2.10737   2.11438   2.11446
 Alpha virt. eigenvalues --    2.20937   2.24378   2.34334   2.35664   2.35674
 Alpha virt. eigenvalues --    2.44091   2.44103   2.48600   2.48621   2.48958
 Alpha virt. eigenvalues --    2.49087   2.61523   2.67163   2.67175   2.69348
 Alpha virt. eigenvalues --    2.69362   2.70900   2.74426   2.76719   2.76730
 Alpha virt. eigenvalues --    2.78717   2.78736   3.06552   3.09182   3.09189
 Alpha virt. eigenvalues --    3.11490   3.11823   3.11835   3.18080   3.18086
 Alpha virt. eigenvalues --    3.19831   3.20749   3.21795   3.21797   3.25868
 Alpha virt. eigenvalues --    3.26110   3.26112   3.28566   3.29292   3.29296
 Alpha virt. eigenvalues --    3.29905   3.29909   3.30279   3.32455   3.32719
 Alpha virt. eigenvalues --    3.32721   3.40444   3.40449   3.42134   3.50237
 Alpha virt. eigenvalues --    3.52029   3.52036   3.53508   3.53509   3.53961
 Alpha virt. eigenvalues --    3.54947   3.59789   3.61312   3.61316   3.61929
 Alpha virt. eigenvalues --    3.61933   3.62777   3.65395   3.73014   3.73223
 Alpha virt. eigenvalues --    3.73227   3.74196   3.74199   3.77737   3.79698
 Alpha virt. eigenvalues --    3.80271   3.80279   3.82410   3.82418   3.87017
 Alpha virt. eigenvalues --    3.87021   3.87388   3.87393   3.87864   3.87922
 Alpha virt. eigenvalues --    3.90773   3.92112   3.92118   3.96781   3.96783
 Alpha virt. eigenvalues --    3.98003   3.98928   3.98941   4.01192   4.01195
 Alpha virt. eigenvalues --    4.02425   4.03900   4.04593   4.04599   4.12217
 Alpha virt. eigenvalues --    4.12225   4.14040   4.17219   4.20780   4.20785
 Alpha virt. eigenvalues --    4.22381   4.23296   4.23298   4.23830   4.25450
 Alpha virt. eigenvalues --    4.25465   4.30469   4.30476   4.30549   4.35992
 Alpha virt. eigenvalues --    4.42090   4.42094   4.44253   4.44260   4.44524
 Alpha virt. eigenvalues --    4.48378   4.58210   4.64620   4.64629   4.65832
 Alpha virt. eigenvalues --    4.65833   4.68537   4.78883   4.78886   4.80459
 Alpha virt. eigenvalues --    4.85363   4.88708   4.88714   5.03879   5.08716
 Alpha virt. eigenvalues --    5.08728   5.10688   5.10703   5.16920   5.19497
 Alpha virt. eigenvalues --    5.19501   5.24700   5.25020   5.25029   5.25601
 Alpha virt. eigenvalues --    5.35515   5.35530   5.35562   5.66280   5.66289
 Alpha virt. eigenvalues --    5.68487   5.72137   5.72223   5.72225   6.06230
 Alpha virt. eigenvalues --    6.06250   6.16069   6.18580   6.18679   6.18696
 Alpha virt. eigenvalues --    6.26295   6.26312   6.55304   6.55316   6.55781
 Alpha virt. eigenvalues --    6.56494   6.58224   6.58231   6.59361   6.59364
 Alpha virt. eigenvalues --    6.59562   6.60038   6.61548   6.61550   6.68637
 Alpha virt. eigenvalues --    6.70847   6.70850   6.70857   6.75003   6.75122
 Alpha virt. eigenvalues --    6.75133   6.75144   6.75157   6.75748   6.80646
 Alpha virt. eigenvalues --    6.80651   6.84614   6.84762   6.84924   6.84931
 Alpha virt. eigenvalues --    6.86274   6.86281   6.91052   6.91064   6.91165
 Alpha virt. eigenvalues --    6.98116   7.03521   7.03529   7.07982   7.11156
 Alpha virt. eigenvalues --    7.11162   7.15672   7.15677   7.15702   7.20716
 Alpha virt. eigenvalues --    7.21598   7.21612   7.24959   7.41885   7.41901
 Alpha virt. eigenvalues --    7.47051   7.47058   7.47460   7.47465   7.52607
 Alpha virt. eigenvalues --    7.58895   7.88556   7.95837   7.95849   7.99353
 Alpha virt. eigenvalues --    7.99362   7.99860   8.64961   8.65220   8.65221
 Alpha virt. eigenvalues --    8.65869   8.66484   8.66486   8.76659   8.76670
 Alpha virt. eigenvalues --    8.80056   9.06424   9.16271   9.20266   9.20270
 Alpha virt. eigenvalues --    9.47357   9.53908   9.53932  13.19649  13.54007
 Alpha virt. eigenvalues --   13.54025  13.58946  13.59010  13.74616
          Condensed to atoms (all electrons):
               1          2          3          4          5          6
     1  Fe  24.346034   0.078336  -0.008151   0.078317  -0.006255   0.078282
     2  O    0.078336   7.846735   0.314353  -0.007948  -0.000367  -0.014795
     3  H   -0.008151   0.314353   0.386931  -0.000399  -0.000036   0.001453
     4  O    0.078317  -0.007948  -0.000399   7.846743   0.312062  -0.000528
     5  H   -0.006255  -0.000367  -0.000036   0.312062   0.394557   0.000009
     6  O    0.078282  -0.014795   0.001453  -0.000528   0.000009   7.846983
     7  H   -0.006255   0.000057  -0.000236   0.000009   0.000006   0.312037
     8  O    0.078318  -0.000527   0.000009  -0.014744   0.000057  -0.007923
     9  H   -0.008150   0.000009   0.000008   0.001437  -0.000236  -0.000399
    10  O    0.078331  -0.014735   0.000306  -0.007933   0.001518  -0.014774
    11  H   -0.008157   0.001436  -0.000193  -0.000171   0.000042   0.000309
    12  O    0.078304  -0.007951  -0.000172  -0.014756  -0.000427  -0.007939
    13  H   -0.008152  -0.000399  -0.000051   0.000309   0.000000  -0.000173
    14  H   -0.006258  -0.000426   0.000000  -0.000367   0.000066   0.000057
    15  H   -0.008159  -0.000171  -0.000052   0.314339  -0.011907   0.000009
    16  H   -0.006249   0.001522   0.000042   0.000057   0.000015  -0.000366
    17  H   -0.006255   0.312069  -0.011910   0.001523   0.000067  -0.000429
    18  H   -0.008148   0.000310  -0.000194   0.000009  -0.000010   0.314329
    19  H   -0.006259   0.000009  -0.000010  -0.000427   0.000015   0.001516
               7          8          9         10         11         12
     1  Fe  -0.006255   0.078318  -0.008150   0.078331  -0.008157   0.078304
     2  O    0.000057  -0.000527   0.000009  -0.014735   0.001436  -0.007951
     3  H   -0.000236   0.000009   0.000008   0.000306  -0.000193  -0.000172
     4  O    0.000009  -0.014744   0.001437  -0.007933  -0.000171  -0.014756
     5  H    0.000006   0.000057  -0.000236   0.001518   0.000042  -0.000427
     6  O    0.312037  -0.007923  -0.000399  -0.014774   0.000309  -0.007939
     7  H    0.394537  -0.000366  -0.000036  -0.000427   0.000000   0.001520
     8  O   -0.000366   7.846785   0.314328  -0.007939  -0.000399  -0.014752
     9  H   -0.000036   0.314328   0.386941  -0.000172  -0.000052   0.000308
    10  O   -0.000427  -0.007939  -0.000172   7.846731   0.314337  -0.000527
    11  H    0.000000  -0.000399  -0.000052   0.314337   0.386969   0.000009
    12  O    0.001520  -0.014752   0.000308  -0.000527   0.000009   7.846871
    13  H    0.000041   0.001444  -0.000193   0.000009   0.000008   0.314337
    14  H    0.000015   0.001521   0.000042   0.312048  -0.011903   0.000009
    15  H   -0.000010   0.000307  -0.000193  -0.000399  -0.000052   0.001444
    16  H    0.000067  -0.000428   0.000000   0.000009  -0.000010   0.312031
    17  H    0.000015   0.000009  -0.000010   0.000057  -0.000236  -0.000367
    18  H   -0.011899  -0.000173  -0.000051   0.001443  -0.000194  -0.000399
    19  H    0.000066   0.312059  -0.011905  -0.000366  -0.000036   0.000056
              13         14         15         16         17         18
     1  Fe  -0.008152  -0.006258  -0.008159  -0.006249  -0.006255  -0.008148
     2  O   -0.000399  -0.000426  -0.000171   0.001522   0.312069   0.000310
     3  H   -0.000051   0.000000  -0.000052   0.000042  -0.011910  -0.000194
     4  O    0.000309  -0.000367   0.314339   0.000057   0.001523   0.000009
     5  H    0.000000   0.000066  -0.011907   0.000015   0.000067  -0.000010
     6  O   -0.000173   0.000057   0.000009  -0.000366  -0.000429   0.314329
     7  H    0.000041   0.000015  -0.000010   0.000067   0.000015  -0.011899
     8  O    0.001444   0.001521   0.000307  -0.000428   0.000009  -0.000173
     9  H   -0.000193   0.000042  -0.000193   0.000000  -0.000010  -0.000051
    10  O    0.000009   0.312048  -0.000399   0.000009   0.000057   0.001443
    11  H    0.000008  -0.011903  -0.000052  -0.000010  -0.000236  -0.000194
    12  O    0.314337   0.000009   0.001444   0.312031  -0.000367  -0.000399
    13  H    0.386926  -0.000010  -0.000193  -0.011903  -0.000036  -0.000051
    14  H   -0.000010   0.394582  -0.000036   0.000006   0.000015  -0.000236
    15  H   -0.000193  -0.000036   0.386963  -0.000236   0.000042   0.000008
    16  H   -0.011903   0.000006  -0.000236   0.394564   0.000067  -0.000036
    17  H   -0.000036   0.000015   0.000042   0.000067   0.394566   0.000000
    18  H   -0.000051  -0.000236   0.000008  -0.000036   0.000000   0.386883
    19  H   -0.000236   0.000067   0.000000   0.000015   0.000006   0.000041
              19
     1  Fe  -0.006259
     2  O    0.000009
     3  H   -0.000010
     4  O   -0.000427
     5  H    0.000015
     6  O    0.001516
     7  H    0.000066
     8  O    0.312059
     9  H   -0.011905
    10  O   -0.000366
    11  H   -0.000036
    12  O    0.000056
    13  H   -0.000236
    14  H    0.000067
    15  H    0.000000
    16  H    0.000015
    17  H    0.000006
    18  H    0.000041
    19  H    0.394549
 Mulliken charges:
               1
     1  Fe   1.270528
     2  O   -0.507518
     3  H    0.318302
     4  O   -0.507531
     5  H    0.310824
     6  O   -0.507658
     7  H    0.310859
     8  O   -0.507583
     9  H    0.318324
    10  O   -0.507516
    11  H    0.318291
    12  O   -0.507601
    13  H    0.318325
    14  H    0.310809
    15  H    0.318297
    16  H    0.310834
    17  H    0.310808
    18  H    0.318369
    19  H    0.310839
 Sum of Mulliken charges =   2.00000
 Mulliken charges with hydrogens summed into heavy atoms:
               1
     1  Fe   1.270528
     2  O    0.121591
     4  O    0.121590
     6  O    0.121570
     8  O    0.121579
    10  O    0.121584
    12  O    0.121557
 Electronic spatial extent (au):  <R**2>=           1030.5553
 Charge=              2.0000 electrons
 Dipole moment (field-independent basis, Debye):
    X=             -0.0011    Y=             -0.0013    Z=             -0.0018  Tot=              0.0025
 Quadrupole moment (field-independent basis, Debye-Ang):
   XX=            -22.6677   YY=            -15.2353   ZZ=            -15.2437
   XY=             -0.0016   XZ=              0.0121   YZ=              0.0057
 Traceless Quadrupole moment (field-independent basis, Debye-Ang):
   XX=             -4.9521   YY=              2.4803   ZZ=              2.4719
   XY=             -0.0016   XZ=              0.0121   YZ=              0.0057
 Octapole moment (field-independent basis, Debye-Ang**2):
  XXX=             -0.0099  YYY=              0.0116  ZZZ=              0.0060  XYY=              0.0027
  XXY=             -0.0080  XXZ=             -0.0324  XZZ=             -0.0078  YZZ=             -0.0121
  YYZ=             -0.0096  XYZ=             -0.0194
 Hexadecapole moment (field-independent basis, Debye-Ang**3):
 XXXX=           -284.3108 YYYY=           -158.8253 ZZZZ=           -158.8726 XXXY=             -0.0133
 XXXZ=              0.0947 YYYX=              8.8293 YYYZ=             -0.0007 ZZZX=             38.3720
 ZZZY=              0.0466 XXYY=            -58.5107 XXZZ=            -58.3964 YYZZ=            -52.9086
 XXYZ=              0.0209 YYXZ=            -38.3407 ZZXY=             -8.8380
 N-N= 6.957934702665D+02 E-N=-5.454914316692D+03  KE= 1.717906681234D+03
 No NMR shielding tensors so no spin-rotation constants.
 Leave Link  601 at Sat May 14 11:17:48 2022, MaxMem=   104857600 cpu:               3.7 elap:               0.3
 (Enter /apps/software/g16/l9999.exe)
 1\1\GINC-CNODE08\Stability\RHF\CC-pVTZ\Fe1H12O6(2+)\LCZ\14-May-2022\0\
 \#p RHF/cc-pVTZ stable guess=mix\\[Fe(H2O)6]2+\\2,1\Fe,0,-0.6425717605
 ,0.5180392056,0.1151525948\O,0,0.111746875,2.1502736296,-0.7800330766\
 H,0,0.7076677542,2.7159064382,-0.2534686021\O,0,-1.3119384494,-0.30254
 43721,-1.5915397432\H,0,-1.9364836681,0.1309313599,-2.2009076077\O,0,0
 .027209188,1.3394057211,1.8212267689\H,0,0.6525876562,0.9068687008,2.4
 304031155\O,0,-1.3964805353,-1.1144480791,1.0102391629\H,0,-1.99331392
 68,-1.6794048423,0.4839749089\O,0,-2.2868202362,1.6334082837,0.4100537
 249\H,0,-2.353770211,2.4729106521,-0.0830180882\O,0,1.0019437293,-0.59
 71233562,-0.1795016516\H,0,1.0680776668,-1.4375884294,0.3120254585\H,0
 ,-3.1892209847,1.2728024717,0.4803641716\H,0,-0.6652199156,-0.78352006
 3,-2.1417946811\H,0,1.9045464642,-0.2367828976,-0.2484504359\H,0,0.437
 766506,2.171136038,-1.697943468\H,0,-0.6187560453,1.8212395471,2.37159
 86615\H,0,-1.7212601067,-1.1359500081,1.9285687869\\Version=ES64L-G16R
 evA.03\State=1-A\HF=-1718.3473217\RMSD=6.963e-09\Dipole=0.0006993,0.00
 03135,0.0006048\Quadrupole=1.8266906,-3.1840734,1.3573828,0.3120159,0.
 0974201,-1.5495735\PG=C01 [X(Fe1H12O6)]\\@


 HE THAT WALD REACHE THE SWEITE ROSE
 SULD NOW AND THEN BE SCRATCHED WT THE SCHARPE BREERES.
 -- PROVERBS AND REASONS OF THE YEAR 1585
           AS REPRINTED IN PAISLEY MAGAZINE 1828.
 Job cpu time:       0 days  3 hours 20 minutes  2.2 seconds.
 Elapsed time:       0 days  0 hours 12 minutes 33.1 seconds.
 File lengths (MBytes):  RWF=    739 Int=      0 D2E=      0 Chk=     44 Scr=      1
 Normal termination of Gaussian 16 at Sat May 14 11:17:48 2022.
