
                                        *****************
                                        * O   R   C   A *
                                        *****************

                                            #,                                       
                                            ###                                      
                                            ####                                     
                                            #####                                    
                                            ######                                   
                                           ########,                                 
                                     ,,################,,,,,                         
                               ,,#################################,,                 
                          ,,##########################################,,             
                       ,#########################################, ''#####,          
                    ,#############################################,,   '####,        
                  ,##################################################,,,,####,       
                ,###########''''           ''''###############################       
              ,#####''   ,,,,##########,,,,          '''####'''          '####       
            ,##' ,,,,###########################,,,                        '##       
           ' ,,###''''                  '''############,,,                           
         ,,##''                                '''############,,,,        ,,,,,,###''
      ,#''                                            '''#######################'''  
     '                                                          ''''####''''         
             ,#######,   #######,   ,#######,      ##                                
            ,#'     '#,  ##    ##  ,#'     '#,    #''#        ######   ,####,        
            ##       ##  ##   ,#'  ##            #'  '#       #        #'  '#        
            ##       ##  #######   ##           ,######,      #####,   #    #        
            '#,     ,#'  ##    ##  '#,     ,#' ,#      #,         ##   #,  ,#        
             '#######'   ##     ##  '#######'  #'      '#     #####' # '####'        



                  #######################################################
                  #                        -***-                        #
                  #          Department of theory and spectroscopy      #
                  #    Directorship and core code : Frank Neese         #
                  #        Max Planck Institute fuer Kohlenforschung    #
                  #                Kaiser Wilhelm Platz 1               #
                  #                 D-45470 Muelheim/Ruhr               #
                  #                      Germany                        #
                  #                                                     #
                  #                  All rights reserved                #
                  #                        -***-                        #
                  #######################################################


                         Program Version 5.0.0 -  RELEASE  -
                                (SVN: $Rev: 19529$)
                ($Date: 2021-06-28 11:36:33 +0200 (Mo, 28 Jun 2021) $)


 With contributions from (in alphabetic order):
   Daniel Aravena         : Magnetic Suceptibility
   Michael Atanasov       : Ab Initio Ligand Field Theory (pilot matlab implementation)
   Alexander A. Auer      : GIAO ZORA, VPT2 properties, NMR spectrum
   Ute Becker             : Parallelization
   Giovanni Bistoni       : ED, misc. LED, open-shell LED, HFLD
   Martin Brehm           : Molecular dynamics
   Dmytro Bykov           : SCF Hessian
   Vijay G. Chilkuri      : MRCI spin determinant printing, contributions to CSF-ICE
   Dipayan Datta          : RHF DLPNO-CCSD density
   Achintya Kumar Dutta   : EOM-CC, STEOM-CC
   Dmitry Ganyushin       : Spin-Orbit,Spin-Spin,Magnetic field MRCI
   Miquel Garcia          : C-PCM Hessian, Gaussian charge scheme
   Yang Guo               : DLPNO-NEVPT2, F12-NEVPT2, CIM, IAO-localization
   Andreas Hansen         : Spin unrestricted coupled pair/coupled cluster methods
   Benjamin Helmich-Paris : MC-RPA, TRAH-SCF, COSX integrals
   Lee Huntington         : MR-EOM, pCC
   Robert Izsak           : Overlap fitted RIJCOSX, COSX-SCS-MP3, EOM
   Marcus Kettner         : VPT2
   Christian Kollmar      : KDIIS, OOCD, Brueckner-CCSD(T), CCSD density, CASPT2, CASPT2-K
   Simone Kossmann        : Meta GGA functionals, TD-DFT gradient, OOMP2, MP2 Hessian
   Martin Krupicka        : Initial AUTO-CI
   Lucas Lang             : DCDCAS
   Marvin Lechner         : AUTO-CI (C++ implementation), FIC-MRCC
   Dagmar Lenk            : GEPOL surface, SMD
   Dimitrios Liakos       : Extrapolation schemes; Compound Job, initial MDCI parallelization
   Dimitrios Manganas     : Further ROCIS development; embedding schemes
   Dimitrios Pantazis     : SARC Basis sets
   Anastasios Papadopoulos: AUTO-CI, single reference methods and gradients
   Taras Petrenko         : DFT Hessian,TD-DFT gradient, ASA, ECA, R-Raman, ABS, FL, XAS/XES, NRVS
   Peter Pinski           : DLPNO-MP2, DLPNO-MP2 Gradient
   Christoph Reimann      : Effective Core Potentials
   Marius Retegan         : Local ZFS, SOC
   Christoph Riplinger    : Optimizer, TS searches, QM/MM, DLPNO-CCSD(T), (RO)-DLPNO pert. Triples
   Tobias Risthaus        : Range-separated hybrids, TD-DFT gradient, RPA, STAB
   Michael Roemelt        : Original ROCIS implementation
   Masaaki Saitow         : Open-shell DLPNO-CCSD energy and density
   Barbara Sandhoefer     : DKH picture change effects
   Avijit Sen             : IP-ROCIS
   Kantharuban Sivalingam : CASSCF convergence, NEVPT2, FIC-MRCI
   Bernardo de Souza      : ESD, SOC TD-DFT
   Georgi Stoychev        : AutoAux, RI-MP2 NMR
   Willem Van den Heuvel  : Paramagnetic NMR
   Boris Wezisla          : Elementary symmetry handling
   Frank Wennmohs         : Technical directorship


 We gratefully acknowledge several colleagues who have allowed us to
 interface, adapt or use parts of their codes:
   Stefan Grimme, W. Hujo, H. Kruse, P. Pracht,  : VdW corrections, initial TS optimization,
                  C. Bannwarth, S. Ehlert          DFT functionals, gCP, sTDA/sTD-DF
   Ed Valeev, F. Pavosevic, A. Kumar             : LibInt (2-el integral package), F12 methods
   Garnet Chan, S. Sharma, J. Yang, R. Olivares  : DMRG
   Ulf Ekstrom                                   : XCFun DFT Library
   Mihaly Kallay                                 : mrcc  (arbitrary order and MRCC methods)
   Jiri Pittner, Ondrej Demel                    : Mk-CCSD
   Frank Weinhold                                : gennbo (NPA and NBO analysis)
   Christopher J. Cramer and Donald G. Truhlar   : smd solvation model
   Lars Goerigk                                  : TD-DFT with DH, B97 family of functionals
   V. Asgeirsson, H. Jonsson                     : NEB implementation
   FAccTs GmbH                                   : IRC, NEB, NEB-TS, DLPNO-Multilevel, CI-OPT
                                                   MM, QMMM, 2- and 3-layer-ONIOM, Crystal-QMMM,
                                                   LR-CPCM, SF, NACMEs, symmetry and pop. for TD-DFT,
                                                   nearIR, NL-DFT gradient (VV10), updates on ESD,
                                                   ML-optimized integration grids
   S Lehtola, MJT Oliveira, MAL Marques          : LibXC Library
   Liviu Ungur et al                             : ANISO software


 Your calculation uses the libint2 library for the computation of 2-el integrals
 For citations please refer to: http://libint.valeyev.net

 Your ORCA version has been built with support for libXC version: 5.1.0
 For citations please refer to: https://tddft.org/programs/libxc/

 This ORCA versions uses:
   CBLAS   interface :  Fast vector & matrix operations
   LAPACKE interface :  Fast linear algebra routines
   SCALAPACK package :  Parallel linear algebra routines
   Shared memory     :  Shared parallel matrices
   BLAS/LAPACK       :  OpenBLAS 0.3.15  USE64BITINT DYNAMIC_ARCH NO_AFFINITY SkylakeX SINGLE_THREADED
        Core in use  :  SkylakeX
   Copyright (c) 2011-2014, The OpenBLAS Project


================================================================================

----- Orbital basis set information -----
Your calculation utilizes the basis: cc-pVTZ 
       H, B-Ne : Obtained from the ccRepo (grant-hill.group.shef.ac.uk/ccrepo) Feb. 2017
                 T. H. Dunning, Jr., J. Chem. Phys. 90, 1007 (1989)
            He : Obtained from the ccRepo (grant-hill.group.shef.ac.uk/ccrepo) Feb. 2017
                 D. E. Woon, T. H. Dunning, Jr., J. Chem. Phys. 100, 2975 (1994)
  Li-Be, Na-Mg : Obtained from the ccRepo (grant-hill.group.shef.ac.uk/ccrepo) Feb. 2017
                 B. P. Prascher, D. E. Woon, K. A. Peterson, T. H. Dunning, Jr., A. K. Wilson, Theor. Chem. Acc. 128, 69 (2011)
         Al-Ar : Obtained from the ccRepo (grant-hill.group.shef.ac.uk/ccrepo) Feb. 2017
                 D. E. Woon, T. H. Dunning, Jr., J. Chem. Phys. 98, 1358 (1993)
            Ca : Obtained from the Peterson Research Group Website (tyr0.chem.wsu.edu/~kipeters) Feb. 2017
                 J. Koput, K. A. Peterson, J. Phys. Chem. 106, 9595 (2002)
         Sc-Zn : Obtained from the ccRepo (grant-hill.group.shef.ac.uk/ccrepo) Feb. 2017
                 N. B. Balabanov, K. A. Peterson, J. Chem. Phys. 123, 064107 (2005)
                 N. B. Balabanov, K. A. Peterson, J. Chem. Phys. 125, 074110 (2006)
         Ga-Kr : Obtained from the ccRepo (grant-hill.group.shef.ac.uk/ccrepo) Feb. 2017
                 A. K. Wilson, D. E. Woon, K. A. Peterson, T. H. Dunning, Jr., J. Chem. Phys. 110, 7667 (1999)
             Y : Obtained from the ccRepo (grant-hill.group.shef.ac.uk/ccrepo) Feb. 2017
                 K. A. Peterson, D. Figgen, M. Dolg, H. Stoll, J. Chem. Phys. 126, 124101 (2007)
        Ag, Au : Obtained from the Peterson Research Group Website (tyr0.chem.wsu.edu/~kipeters) Feb. 2017
                 K. A. Peterson, C. Puzzarini, Theor. Chem. Acc. 114, 283 (2005)

================================================================================
                                        WARNINGS
                       Please study these warnings very carefully!
================================================================================


WARNING: No MP2 level density has been requested!
         To caclulate MP2 level properties use
         %mp2 Density relaxed end
         or
         %mp2 Density unrelaxed end

WARNING: Post HF methods need fully converged wavefunctions
  ===> : Setting SCFConvForced true
         You can overwrite this default with %scf ConvForced false 


INFO   : the flag for use of the SHARK integral package has been found!

================================================================================
                                       INPUT FILE
================================================================================
NAME = 2,7-dicl-dibenzene.inp
|  1> ! RHF MP2 cc-pVTZ pal8
|  2> ! NoFrozenCore            
|  3> 
|  4> *xyz 0 1
|  5>   C   -0.84533195991773      0.95631204799741      0.86695688758137
|  6>   C   0.46296917953950      0.89055132107898      0.41153738968092
|  7>   C   1.06498249109929      2.05041746604826     -0.04872626223504
|  8>   C   0.38682375533153      3.25825741761093     -0.05957630313133
|  9>   C   -0.92916629483352      3.32496446678289      0.39786117470048
| 10>   C   -1.53691904595740      2.15806885302784      0.86178357772044
| 11>   H   -1.33177779310003      0.05786162666320      1.22288286662819
| 12>   H   1.00911644617855     -0.04137764481499      0.41174217012473
| 13>   H   0.89340943637666      4.14652768979640     -0.40661874558071
| 14>   H   -2.56260459262502      2.18503471734340      1.20271069002731
| 15>   C   -1.66709331376272      4.62322731007777      0.38662794093699
| 16>   C   -2.42161858132883      5.01473379007752      1.49250102782185
| 17>   C   -1.61923201631221      5.46623475990715     -0.72389685760276
| 18>   C   -3.10577169358506      6.21908872396761      1.47479389475736
| 19>   H   -2.46369194088787      4.39499072034369      2.37581764658229
| 20>   C   -2.30901947987771      6.66904435935388     -0.72694800403690
| 21>   H   -1.05555752795261      5.17208444276276     -1.59838613456934
| 22>   C   -3.05941590604282      7.05751618377553      0.37275066068088
| 23>   H   -2.26865845182014      7.30948735218955     -1.59800079723894
| 24>   H   -3.60007805771479      7.99261925989212      0.37887337421372
| 25>   Cl  2.70997882629083      1.99495162290832     -0.61716762133114
| 26>   Cl  -4.03387825909787      6.68923511320967      2.87110846426962
| 27> **                         ****END OF INPUT****
================================================================================

                       ****************************
                       * Single Point Calculation *
                       ****************************

---------------------------------
CARTESIAN COORDINATES (ANGSTROEM)
---------------------------------
  C     -0.845332    0.956312    0.866957
  C      0.462969    0.890551    0.411537
  C      1.064982    2.050417   -0.048726
  C      0.386824    3.258257   -0.059576
  C     -0.929166    3.324964    0.397861
  C     -1.536919    2.158069    0.861784
  H     -1.331778    0.057862    1.222883
  H      1.009116   -0.041378    0.411742
  H      0.893409    4.146528   -0.406619
  H     -2.562605    2.185035    1.202711
  C     -1.667093    4.623227    0.386628
  C     -2.421619    5.014734    1.492501
  C     -1.619232    5.466235   -0.723897
  C     -3.105772    6.219089    1.474794
  H     -2.463692    4.394991    2.375818
  C     -2.309019    6.669044   -0.726948
  H     -1.055558    5.172084   -1.598386
  C     -3.059416    7.057516    0.372751
  H     -2.268658    7.309487   -1.598001
  H     -3.600078    7.992619    0.378873
  Cl     2.709979    1.994952   -0.617168
  Cl    -4.033878    6.689235    2.871108

----------------------------
CARTESIAN COORDINATES (A.U.)
----------------------------
  NO LB      ZA    FRAG     MASS         X           Y           Z
   0 C     6.0000    0    12.011   -1.597446    1.807168    1.638311
   1 C     6.0000    0    12.011    0.874885    1.682898    0.777693
   2 C     6.0000    0    12.011    2.012525    3.874727   -0.092079
   3 C     6.0000    0    12.011    0.730991    6.157214   -0.112583
   4 C     6.0000    0    12.011   -1.755870    6.283272    0.751849
   5 C     6.0000    0    12.011   -2.904356    4.078159    1.628535
   6 H     1.0000    0     1.008   -2.516695    0.109343    2.310914
   7 H     1.0000    0     1.008    1.906954   -0.078192    0.778080
   8 H     1.0000    0     1.008    1.688299    7.835802   -0.768398
   9 H     1.0000    0     1.008   -4.842621    4.129117    2.272794
  10 C     6.0000    0    12.011   -3.150350    8.736633    0.730621
  11 C     6.0000    0    12.011   -4.576196    9.476473    2.820418
  12 C     6.0000    0    12.011   -3.059905   10.329687   -1.367967
  13 C     6.0000    0    12.011   -5.869058   11.752374    2.786957
  14 H     1.0000    0     1.008   -4.655703    8.305329    4.489645
  15 C     6.0000    0    12.011   -4.363414   12.602667   -1.373733
  16 H     1.0000    0     1.008   -1.994715    9.773823   -3.020512
  17 C     6.0000    0    12.011   -5.781458   13.336773    0.704397
  18 H     1.0000    0     1.008   -4.287143   13.812929   -3.019784
  19 H     1.0000    0     1.008   -6.803162   15.103861    0.715967
  20 Cl   17.0000    0    35.453    5.121118    3.769912   -1.166278
  21 Cl   17.0000    0    35.453   -7.622925   12.640822    5.425609

--------------------------------
INTERNAL COORDINATES (ANGSTROEM)
--------------------------------
 C      0   0   0     0.000000000000     0.00000000     0.00000000
 C      1   0   0     1.386860938875     0.00000000     0.00000000
 C      2   1   0     1.385479025758   118.63952714     0.00000000
 C      3   2   1     1.385241618952   121.32071476     0.00000000
 C      4   3   2     1.394822099290   120.06766846   359.96103452
 C      1   2   3     1.386556482495   120.69038160     0.00000000
 H      1   2   3     1.081908503884   119.52502475   179.56072184
 H      2   1   3     1.080170577393   121.18603541   180.01212109
 H      4   3   2     1.079857206092   119.34652679   178.77523602
 H      6   1   2     1.081198082863   119.57822093   178.80183793
 C      5   4   3     1.493368300550   120.35248133   180.11475760
 C     11   5   4     1.394826508055   120.35463753   224.79175713
 C     11   5   4     1.395069027838   120.95497549    44.87155408
 C     12  11   5     1.385225552160   120.07080458   180.11861286
 H     12  11   5     1.079861050805   120.56554825     1.31974039
 C     13  11   5     1.386566618273   120.58913713   179.89988759
 H     13  11   5     1.081196019893   119.82373189     1.10118951
 C     14  12  11     1.385499460185   121.31703547   359.96109820
 H     16  13  11     1.081909981562   119.78316654   180.44560859
 H     18  14  12     1.080171658966   120.17331808   180.00336495
 Cl     3   2   1     1.741325639069   119.48917474   179.65393631
 Cl    14  12  11     1.741296586253   119.19196488   180.32217609

---------------------------
INTERNAL COORDINATES (A.U.)
---------------------------
 C      0   0   0     0.000000000000     0.00000000     0.00000000
 C      1   0   0     2.620787360307     0.00000000     0.00000000
 C      2   1   0     2.618175922975   118.63952714     0.00000000
 C      3   2   1     2.617727289129   121.32071476     0.00000000
 C      4   3   2     2.635831773199   120.06766846   359.96103452
 C      1   2   3     2.620212021129   120.69038160     0.00000000
 H      1   2   3     2.044510774301   119.52502475   179.56072184
 H      2   1   3     2.041226569191   121.18603541   180.01212109
 H      4   3   2     2.040634383256   119.34652679   178.77523602
 H      6   1   2     2.043168273132   119.57822093   178.80183793
 C      5   4   3     2.822057105118   120.35248133   180.11475760
 C     11   5   4     2.635840104558   120.35463753   224.79175713
 C     11   5   4     2.636298400530   120.95497549    44.87155408
 C     12  11   5     2.617696927292   120.07080458   180.11861286
 H     12  11   5     2.040641648710   120.56554825     1.31974039
 C     13  11   5     2.620231174973   120.58913713   179.89988759
 H     13  11   5     2.043164374684   119.82373189     1.10118951
 C     14  12  11     2.618214538445   121.31703547   359.96109820
 H     16  13  11     2.044513566708   119.78316654   180.44560859
 H     18  14  12     2.041228613070   120.17331808   180.00336495
 Cl     3   2   1     3.290628567816   119.48917474   179.65393631
 Cl    14  12  11     3.290573665951   119.19196488   180.32217609

---------------------
BASIS SET INFORMATION
---------------------
There are 3 groups of distinct atoms

 Group   1 Type C   : 18s5p2d1f contracted to 4s3p2d1f pattern {8811/311/11/1}
 Group   2 Type H   : 5s2p1d contracted to 3s2p1d pattern {311/11/1}
 Group   3 Type Cl  : 41s16p2d1f contracted to 5s4p2d1f pattern {13131311/7711/11/1}

Atom   0C    basis set group =>   1
Atom   1C    basis set group =>   1
Atom   2C    basis set group =>   1
Atom   3C    basis set group =>   1
Atom   4C    basis set group =>   1
Atom   5C    basis set group =>   1
Atom   6H    basis set group =>   2
Atom   7H    basis set group =>   2
Atom   8H    basis set group =>   2
Atom   9H    basis set group =>   2
Atom  10C    basis set group =>   1
Atom  11C    basis set group =>   1
Atom  12C    basis set group =>   1
Atom  13C    basis set group =>   1
Atom  14H    basis set group =>   2
Atom  15C    basis set group =>   1
Atom  16H    basis set group =>   2
Atom  17C    basis set group =>   1
Atom  18H    basis set group =>   2
Atom  19H    basis set group =>   2
Atom  20Cl   basis set group =>   3
Atom  21Cl   basis set group =>   3
--------------------------------------------------------------------------
WARNING: There was an error initializing an OpenFabrics device.

  Local host:   cnode13
  Local device: mlx5_0
--------------------------------------------------------------------------


           ************************************************************
           *        Program running with 8 parallel MPI-processes     *
           *              working on a common directory               *
           ************************************************************
------------------------------------------------------------------------------
                           ORCA GTO INTEGRAL CALCULATION
------------------------------------------------------------------------------
------------------------------------------------------------------------------
                   ___                                                        
                  /   \      - P O W E R E D   B Y -                         
                 /     \                                                     
                 |  |  |   _    _      __       _____    __    __             
                 |  |  |  | |  | |    /  \     |  _  \  |  |  /  |          
                  \  \/   | |  | |   /    \    | | | |  |  | /  /          
                 / \  \   | |__| |  /  /\  \   | |_| |  |  |/  /          
                |  |  |   |  __  | /  /__\  \  |    /   |      \           
                |  |  |   | |  | | |   __   |  |    \   |  |\   \          
                \     /   | |  | | |  |  |  |  | |\  \  |  | \   \       
                 \___/    |_|  |_| |__|  |__|  |_| \__\ |__|  \__/        
                                                                              
                      - O R C A' S   B I G   F R I E N D -                    
                                      &                                       
                       - I N T E G R A L  F E E D E R -                       
                                                                              
 v1 FN, 2020, v2 2021                                                         
------------------------------------------------------------------------------


Reading SHARK input file 2,7-dicl-dibenzene.SHARKINP.tmp ... ok
----------------------
SHARK INTEGRAL PACKAGE
----------------------

Number of atoms                             ...     22
Number of basis functions                   ...    540
Number of shells                            ...    192
Maximum angular momentum                    ...      3
Integral batch strategy                     ... SHARK/LIBINT Hybrid
RI-J (if used) integral strategy            ... SPLIT-RIJ (Revised 2003 algorithm where possible)
Printlevel                                  ...      1
Contraction scheme used                     ... SEGMENTED contraction
Coulomb Range Separation                    ... NOT USED
Exchange Range Separation                   ... NOT USED
Finite Nucleus Model                        ... NOT USED
Auxiliary Coulomb fitting basis             ... NOT available
Auxiliary J/K fitting basis                 ... NOT available
Auxiliary Correlation fitting basis         ... NOT available
Auxiliary 'external' fitting basis          ... NOT available
Integral threshold                          ...     1.000000e-10
Primitive cut-off                           ...     1.000000e-11
Primitive pair pre-selection threshold      ...     1.000000e-11

Calculating pre-screening integrals         ... done (  0.4 sec) Dimension = 192
Organizing shell pair data                  ... done (  0.1 sec)
Shell pair information
Total number of shell pairs                 ...     18528
Shell pairs after pre-screening             ...     14915
Total number of primitive shell pairs       ...    124540
Primitive shell pairs kept                  ...     53765
          la=0 lb=0:   2812 shell pairs
          la=1 lb=0:   4044 shell pairs
          la=1 lb=1:   1506 shell pairs
          la=2 lb=0:   2332 shell pairs
          la=2 lb=1:   1689 shell pairs
          la=2 lb=2:    501 shell pairs
          la=3 lb=0:    920 shell pairs
          la=3 lb=1:    658 shell pairs
          la=3 lb=2:    374 shell pairs
          la=3 lb=3:     79 shell pairs

Calculating one electron integrals          ... done (  0.0 sec)
Calculating Nuclear repulsion               ... done (  0.0 sec) ENN=    944.819064205746 Eh

SHARK setup successfully completed in   0.6 seconds

Maximum memory used throughout the entire GTOINT-calculation: 46.8 MB
[cnode13:338952] 7 more processes have sent help message help-mpi-btl-openib.txt / error in device init
[cnode13:338952] Set MCA parameter "orte_base_help_aggregate" to 0 to see all help / error messages
--------------------------------------------------------------------------
WARNING: There was an error initializing an OpenFabrics device.

  Local host:   cnode13
  Local device: mlx5_0
--------------------------------------------------------------------------


           ************************************************************
           *        Program running with 8 parallel MPI-processes     *
           *              working on a common directory               *
           ************************************************************
-------------------------------------------------------------------------------
                                 ORCA SCF
-------------------------------------------------------------------------------

------------
SCF SETTINGS
------------
Hamiltonian:
 Ab initio Hamiltonian  Method          .... Hartree-Fock(GTOs)


General Settings:
 Integral files         IntName         .... 2,7-dicl-dibenzene
 Hartree-Fock type      HFTyp           .... RHF
 Total Charge           Charge          ....    0
 Multiplicity           Mult            ....    1
 Number of Electrons    NEL             ....  114
 Basis Dimension        Dim             ....  540
 Nuclear Repulsion      ENuc            ....    944.8190642057 Eh

Convergence Acceleration:
 DIIS                   CNVDIIS         .... on
   Start iteration      DIISMaxIt       ....    12
   Startup error        DIISStart       ....  0.200000
   # of expansion vecs  DIISMaxEq       ....     5
   Bias factor          DIISBfac        ....   1.050
   Max. coefficient     DIISMaxC        ....  10.000
 Trust-Rad. Augm. Hess. CNVTRAH         .... auto
   Auto Start mean grad. ratio tolernc. ....  1.125000
   Auto Start start iteration           ....    20
   Auto Start num. interpolation iter.  ....    10
   Max. Number of Micro iterations      ....    16
   Max. Number of Macro iterations      .... Maxiter - #DIIS iter
   Number of Davidson start vectors     ....     2
   Converg. threshold I  (grad. norm)   ....   5.000e-05
   Converg. threshold II (energy diff.) ....   1.000e-06
   Grad. Scal. Fac. for Micro threshold ....   0.100
   Minimum threshold for Micro iter.    ....   0.010
   NR start threshold (gradient norm)   ....   0.001
   Initial trust radius                 ....   0.400
   Minimum AH scaling param. (alpha)    ....   1.000
   Maximum AH scaling param. (alpha)    .... 1000.000
   Orbital update algorithm             .... Taylor
   White noise on init. David. guess    .... on
   Maximum white noise                  ....   0.010
   Quad. conv. algorithm                .... NR
 SOSCF                  CNVSOSCF        .... on
   Start iteration      SOSCFMaxIt      ....   150
   Startup grad/error   SOSCFStart      ....  0.003300
 Level Shifting         CNVShift        .... on
   Level shift para.    LevelShift      ....    0.2500
   Turn off err/grad.   ShiftErr        ....    0.0010
 Zerner damping         CNVZerner       .... off
 Static damping         CNVDamp         .... on
   Fraction old density DampFac         ....    0.7000
   Max. Damping (<1)    DampMax         ....    0.9800
   Min. Damping (>=0)   DampMin         ....    0.0000
   Turn off err/grad.   DampErr         ....    0.1000
 Fernandez-Rico         CNVRico         .... off

SCF Procedure:
 Maximum # iterations   MaxIter         ....   125
 SCF integral mode      SCFMode         .... Direct
   Integral package                     .... SHARK and LIBINT hybrid scheme
 Reset frequency        DirectResetFreq ....    20
 Integral Threshold     Thresh          ....  1.000e-10 Eh
 Primitive CutOff       TCut            ....  1.000e-11 Eh

Convergence Tolerance:
 Convergence Check Mode ConvCheckMode   .... Total+1el-Energy
 Convergence forced     ConvForced      .... 1
 Energy Change          TolE            ....  1.000e-06 Eh
 1-El. energy change                    ....  1.000e-03 Eh
 Orbital Gradient       TolG            ....  5.000e-05
 Orbital Rotation angle TolX            ....  5.000e-05
 DIIS Error             TolErr          ....  1.000e-06


Diagonalization of the overlap matrix:
Smallest eigenvalue                        ... 3.248e-05
Time for diagonalization                   ...    0.035 sec
Threshold for overlap eigenvalues          ... 1.000e-08
Number of eigenvalues below threshold      ... 0
Time for construction of square roots      ...    0.054 sec
Total time needed                          ...    0.090 sec

Time for model grid setup =    0.124 sec

------------------------------
INITIAL GUESS: MODEL POTENTIAL
------------------------------
Loading Hartree-Fock densities                     ... done
Calculating cut-offs                               ... done
Initializing the effective Hamiltonian             ... done
Setting up the integral package (SHARK)            ... done
Starting the Coulomb interaction                   ... done (   0.2 sec)
Reading the grid                                   ... done
Mapping shells                                     ... done
Starting the XC term evaluation                    ... done (   0.1 sec)
Transforming the Hamiltonian                       ... done (   0.0 sec)
Diagonalizing the Hamiltonian                      ... done (   0.0 sec)
Back transforming the eigenvectors                 ... done (   0.0 sec)
Now organizing SCF variables                       ... done
                      ------------------
                      INITIAL GUESS DONE (   0.4 sec)
                      ------------------
--------------
SCF ITERATIONS
--------------
ITER       Energy         Delta-E        Max-DP      RMS-DP      [F,P]     Damp
               ***  Starting incremental Fock matrix formation  ***
[cnode13:339012] 7 more processes have sent help message help-mpi-btl-openib.txt / error in device init
[cnode13:339012] Set MCA parameter "orte_base_help_aggregate" to 0 to see all help / error messages
  0  -1377.7451322136   0.000000000000 0.05000954  0.00053635  0.1857333 0.7000
  1  -1377.9210991360  -0.175966922377 0.03575974  0.00043595  0.1277403 0.7000
                               ***Turning on DIIS***
  2  -1378.0320268916  -0.110927755649 0.08376577  0.00102310  0.0935494 0.0000
  3  -1377.4285575105   0.603469381079 0.01252434  0.00027539  0.0251647 0.0000
  4  -1378.2708212924  -0.842263781820 0.00744439  0.00012417  0.0049780 0.0000
                      *** Initiating the SOSCF procedure ***
                           *** Shutting down DIIS ***
                      *** Re-Reading the Fockian *** 
                      *** Removing any level shift *** 
ITER      Energy       Delta-E        Grad      Rot      Max-DP    RMS-DP
  5  -1378.24572080   0.0251004922  0.001948  0.001948  0.005551  0.000067
               *** Restarting incremental Fock matrix formation ***
  6  -1378.27038154  -0.0246607408  0.000935  0.002010  0.003071  0.000035
  7  -1378.27041760  -0.0000360638  0.000483  0.002157  0.002512  0.000028
  8  -1378.27043101  -0.0000134022  0.000121  0.000471  0.000180  0.000003
  9  -1378.27043204  -0.0000010357  0.000108  0.000454  0.000262  0.000004
 10  -1378.27043245  -0.0000004063  0.000030  0.000080  0.000073  0.000001
                 **** Energy Check signals convergence ****
              ***Rediagonalizing the Fockian in SOSCF/NRSCF***

               *****************************************************
               *                     SUCCESS                       *
               *           SCF CONVERGED AFTER  11 CYCLES          *
               *****************************************************


----------------
TOTAL SCF ENERGY
----------------

Total Energy       :        -1378.27043248 Eh          -37504.64517 eV

Components:
Nuclear Repulsion  :          944.81906421 Eh           25709.83380 eV
Electronic Energy  :        -2323.08949669 Eh          -63214.47897 eV
One Electron Energy:        -3769.07556118 Eh         -102561.76016 eV
Two Electron Energy:         1445.98606449 Eh           39347.28119 eV

Virial components:
Potential Energy   :        -2756.03753167 Eh          -74995.59394 eV
Kinetic Energy     :         1377.76709919 Eh           37490.94877 eV
Virial Ratio       :            2.00036533


---------------
SCF CONVERGENCE
---------------

  Last Energy change         ...   -3.2386e-08  Tolerance :   1.0000e-06
  Last MAX-Density change    ...    1.1426e-05  Tolerance :   1.0000e-05
  Last RMS-Density change    ...    3.3568e-07  Tolerance :   1.0000e-06
  Last Orbital Gradient      ...    1.0129e-05  Tolerance :   5.0000e-05
  Last Orbital Rotation      ...    1.6249e-05  Tolerance :   5.0000e-05

             **** THE GBW FILE WAS UPDATED (2,7-dicl-dibenzene.gbw) ****
             **** DENSITY 2,7-dicl-dibenzene.scfp WAS UPDATED ****
             **** ENERGY FILE WAS UPDATED (2,7-dicl-dibenzene.en.tmp) ****
             **** THE GBW FILE WAS UPDATED (2,7-dicl-dibenzene.gbw) ****
             **** DENSITY 2,7-dicl-dibenzene.scfp WAS UPDATED ****
----------------
ORBITAL ENERGIES
----------------

  NO   OCC          E(Eh)            E(eV) 
   0   2.0000    -104.842224     -2852.9019 
   1   2.0000    -104.842219     -2852.9018 
   2   2.0000     -11.308175      -307.7111 
   3   2.0000     -11.308174      -307.7111 
   4   2.0000     -11.266097      -306.5661 
   5   2.0000     -11.265387      -306.5468 
   6   2.0000     -11.253041      -306.2108 
   7   2.0000     -11.253038      -306.2107 
   8   2.0000     -11.252637      -306.1998 
   9   2.0000     -11.252634      -306.1997 
  10   2.0000     -11.251447      -306.1674 
  11   2.0000     -11.251445      -306.1674 
  12   2.0000     -11.248026      -306.0743 
  13   2.0000     -11.248023      -306.0743 
  14   2.0000     -10.567263      -287.5498 
  15   2.0000     -10.567258      -287.5497 
  16   2.0000      -8.034151      -218.6204 
  17   2.0000      -8.034145      -218.6202 
  18   2.0000      -8.032251      -218.5687 
  19   2.0000      -8.032246      -218.5685 
  20   2.0000      -8.032229      -218.5681 
  21   2.0000      -8.032224      -218.5679 
  22   2.0000      -1.206809       -32.8389 
  23   2.0000      -1.193418       -32.4746 
  24   2.0000      -1.139939       -31.0193 
  25   2.0000      -1.117794       -30.4167 
  26   2.0000      -1.065694       -28.9990 
  27   2.0000      -1.023714       -27.8567 
  28   2.0000      -1.002457       -27.2782 
  29   2.0000      -0.996373       -27.1127 
  30   2.0000      -0.877843       -23.8873 
  31   2.0000      -0.851736       -23.1769 
  32   2.0000      -0.821450       -22.3528 
  33   2.0000      -0.799991       -21.7689 
  34   2.0000      -0.724496       -19.7145 
  35   2.0000      -0.699842       -19.0437 
  36   2.0000      -0.672978       -18.3127 
  37   2.0000      -0.659735       -17.9523 
  38   2.0000      -0.644314       -17.5327 
  39   2.0000      -0.626362       -17.0442 
  40   2.0000      -0.606412       -16.5013 
  41   2.0000      -0.597049       -16.2465 
  42   2.0000      -0.590681       -16.0732 
  43   2.0000      -0.556978       -15.1561 
  44   2.0000      -0.548459       -14.9243 
  45   2.0000      -0.545677       -14.8486 
  46   2.0000      -0.524162       -14.2632 
  47   2.0000      -0.511164       -13.9095 
  48   2.0000      -0.508096       -13.8260 
  49   2.0000      -0.482466       -13.1286 
  50   2.0000      -0.467738       -12.7278 
  51   2.0000      -0.459978       -12.5166 
  52   2.0000      -0.456287       -12.4162 
  53   2.0000      -0.381779       -10.3887 
  54   2.0000      -0.347193        -9.4476 
  55   2.0000      -0.345845        -9.4109 
  56   2.0000      -0.322942        -8.7877 
  57   0.0000       0.080821         2.1993 
  58   0.0000       0.107817         2.9338 
  59   0.0000       0.107899         2.9361 
  60   0.0000       0.135379         3.6838 
  61   0.0000       0.142196         3.8693 
  62   0.0000       0.145394         3.9564 
  63   0.0000       0.162988         4.4351 
  64   0.0000       0.169697         4.6177 
  65   0.0000       0.185269         5.0414 
  66   0.0000       0.196640         5.3509 
  67   0.0000       0.207021         5.6333 
  68   0.0000       0.208396         5.6708 
  69   0.0000       0.219256         5.9663 
  70   0.0000       0.227681         6.1955 
  71   0.0000       0.305647         8.3171 
  72   0.0000       0.307334         8.3630 
  73   0.0000       0.308341         8.3904 
  74   0.0000       0.313480         8.5302 
  75   0.0000       0.341858         9.3024 
  76   0.0000       0.349587         9.5128 
  77   0.0000       0.362157         9.8548 
  78   0.0000       0.369581        10.0568 
  79   0.0000       0.384470        10.4619 
  80   0.0000       0.404099        10.9961 
  81   0.0000       0.408605        11.1187 
  82   0.0000       0.409701        11.1485 
  83   0.0000       0.419604        11.4180 
  84   0.0000       0.420049        11.4301 
  85   0.0000       0.427474        11.6322 
  86   0.0000       0.433222        11.7886 
  87   0.0000       0.438766        11.9394 
  88   0.0000       0.446413        12.1475 
  89   0.0000       0.458490        12.4762 
  90   0.0000       0.467134        12.7114 
  91   0.0000       0.477075        12.9819 
  92   0.0000       0.485329        13.2065 
  93   0.0000       0.487432        13.2637 
  94   0.0000       0.497083        13.5263 
  95   0.0000       0.498828        13.5738 
  96   0.0000       0.514870        14.0103 
  97   0.0000       0.515894        14.0382 
  98   0.0000       0.524020        14.2593 
  99   0.0000       0.527028        14.3411 
 100   0.0000       0.529756        14.4154 
 101   0.0000       0.532979        14.5031 
 102   0.0000       0.543150        14.7799 
 103   0.0000       0.546222        14.8634 
 104   0.0000       0.547516        14.8987 
 105   0.0000       0.555947        15.1281 
 106   0.0000       0.562987        15.3197 
 107   0.0000       0.573811        15.6142 
 108   0.0000       0.582802        15.8589 
 109   0.0000       0.583466        15.8769 
 110   0.0000       0.589896        16.0519 
 111   0.0000       0.597329        16.2541 
 112   0.0000       0.603843        16.4314 
 113   0.0000       0.608530        16.5589 
 114   0.0000       0.614730        16.7277 
 115   0.0000       0.616367        16.7722 
 116   0.0000       0.625538        17.0218 
 117   0.0000       0.632334        17.2067 
 118   0.0000       0.640114        17.4184 
 119   0.0000       0.648864        17.6565 
 120   0.0000       0.658001        17.9051 
 121   0.0000       0.665682        18.1141 
 122   0.0000       0.666241        18.1293 
 123   0.0000       0.674523        18.3547 
 124   0.0000       0.688355        18.7311 
 125   0.0000       0.708312        19.2741 
 126   0.0000       0.717238        19.5170 
 127   0.0000       0.718488        19.5510 
 128   0.0000       0.736577        20.0433 
 129   0.0000       0.737213        20.0606 
 130   0.0000       0.755433        20.5564 
 131   0.0000       0.759485        20.6666 
 132   0.0000       0.791101        21.5269 
 133   0.0000       0.796452        21.6726 
 134   0.0000       0.801888        21.8205 
 135   0.0000       0.811445        22.0805 
 136   0.0000       0.813957        22.1489 
 137   0.0000       0.820059        22.3149 
 138   0.0000       0.833773        22.6881 
 139   0.0000       0.839818        22.8526 
 140   0.0000       0.854189        23.2437 
 141   0.0000       0.874242        23.7893 
 142   0.0000       0.884002        24.0549 
 143   0.0000       0.884453        24.0672 
 144   0.0000       0.889258        24.1979 
 145   0.0000       0.902942        24.5703 
 146   0.0000       0.914575        24.8869 
 147   0.0000       0.924997        25.1704 
 148   0.0000       0.927976        25.2515 
 149   0.0000       0.936079        25.4720 
 150   0.0000       0.939979        25.5781 
 151   0.0000       0.952608        25.9218 
 152   0.0000       0.959196        26.1010 
 153   0.0000       0.968474        26.3535 
 154   0.0000       0.973256        26.4836 
 155   0.0000       0.987409        26.8688 
 156   0.0000       1.005981        27.3741 
 157   0.0000       1.007105        27.4047 
 158   0.0000       1.012389        27.5485 
 159   0.0000       1.026939        27.9444 
 160   0.0000       1.037152        28.2223 
 161   0.0000       1.039738        28.2927 
 162   0.0000       1.046721        28.4827 
 163   0.0000       1.048031        28.5184 
 164   0.0000       1.056045        28.7364 
 165   0.0000       1.075872        29.2760 
 166   0.0000       1.101793        29.9813 
 167   0.0000       1.106882        30.1198 
 168   0.0000       1.114949        30.3393 
 169   0.0000       1.136764        30.9329 
 170   0.0000       1.141181        31.0531 
 171   0.0000       1.160712        31.5846 
 172   0.0000       1.171155        31.8688 
 173   0.0000       1.177569        32.0433 
 174   0.0000       1.182253        32.1707 
 175   0.0000       1.189871        32.3780 
 176   0.0000       1.203268        32.7426 
 177   0.0000       1.230951        33.4959 
 178   0.0000       1.239091        33.7174 
 179   0.0000       1.247750        33.9530 
 180   0.0000       1.264341        34.4045 
 181   0.0000       1.269814        34.5534 
 182   0.0000       1.271814        34.6078 
 183   0.0000       1.289372        35.0856 
 184   0.0000       1.298817        35.3426 
 185   0.0000       1.307295        35.5733 
 186   0.0000       1.314298        35.7639 
 187   0.0000       1.340604        36.4797 
 188   0.0000       1.354293        36.8522 
 189   0.0000       1.379174        37.5292 
 190   0.0000       1.381415        37.5902 
 191   0.0000       1.399186        38.0738 
 192   0.0000       1.413819        38.4720 
 193   0.0000       1.416927        38.5566 
 194   0.0000       1.421596        38.6836 
 195   0.0000       1.456597        39.6360 
 196   0.0000       1.463476        39.8232 
 197   0.0000       1.476130        40.1675 
 198   0.0000       1.477767        40.2121 
 199   0.0000       1.481473        40.3129 
 200   0.0000       1.496764        40.7290 
 201   0.0000       1.501983        40.8710 
 202   0.0000       1.529264        41.6134 
 203   0.0000       1.535968        41.7958 
 204   0.0000       1.547968        42.1224 
 205   0.0000       1.558061        42.3970 
 206   0.0000       1.563852        42.5546 
 207   0.0000       1.564338        42.5678 
 208   0.0000       1.576871        42.9088 
 209   0.0000       1.582031        43.0493 
 210   0.0000       1.595478        43.4152 
 211   0.0000       1.595862        43.4256 
 212   0.0000       1.606786        43.7229 
 213   0.0000       1.623237        44.1705 
 214   0.0000       1.651725        44.9457 
 215   0.0000       1.657940        45.1148 
 216   0.0000       1.667438        45.3733 
 217   0.0000       1.667622        45.3783 
 218   0.0000       1.676863        45.6297 
 219   0.0000       1.695735        46.1433 
 220   0.0000       1.700037        46.2603 
 221   0.0000       1.749605        47.6092 
 222   0.0000       1.757386        47.8209 
 223   0.0000       1.771144        48.1953 
 224   0.0000       1.801583        49.0236 
 225   0.0000       1.837131        49.9909 
 226   0.0000       1.844775        50.1989 
 227   0.0000       1.863964        50.7210 
 228   0.0000       1.872206        50.9453 
 229   0.0000       1.887610        51.3645 
 230   0.0000       1.954203        53.1766 
 231   0.0000       1.980076        53.8806 
 232   0.0000       2.019192        54.9450 
 233   0.0000       2.034306        55.3563 
 234   0.0000       2.104104        57.2556 
 235   0.0000       2.104496        57.2663 
 236   0.0000       2.133438        58.0538 
 237   0.0000       2.169973        59.0480 
 238   0.0000       2.226873        60.5963 
 239   0.0000       2.229643        60.6717 
 240   0.0000       2.236625        60.8617 
 241   0.0000       2.245592        61.1057 
 242   0.0000       2.249630        61.2155 
 243   0.0000       2.251921        61.2779 
 244   0.0000       2.253039        61.3083 
 245   0.0000       2.266269        61.6683 
 246   0.0000       2.295744        62.4704 
 247   0.0000       2.308834        62.8266 
 248   0.0000       2.319201        63.1087 
 249   0.0000       2.329742        63.3955 
 250   0.0000       2.344761        63.8042 
 251   0.0000       2.360540        64.2335 
 252   0.0000       2.371199        64.5236 
 253   0.0000       2.383251        64.8516 
 254   0.0000       2.383624        64.8617 
 255   0.0000       2.395748        65.1916 
 256   0.0000       2.410462        65.5920 
 257   0.0000       2.411058        65.6082 
 258   0.0000       2.420563        65.8669 
 259   0.0000       2.421163        65.8832 
 260   0.0000       2.430389        66.1342 
 261   0.0000       2.433531        66.2198 
 262   0.0000       2.436772        66.3079 
 263   0.0000       2.442817        66.4724 
 264   0.0000       2.451000        66.6951 
 265   0.0000       2.470940        67.2377 
 266   0.0000       2.486266        67.6547 
 267   0.0000       2.490838        67.7792 
 268   0.0000       2.514544        68.4242 
 269   0.0000       2.525010        68.7090 
 270   0.0000       2.563598        69.7591 
 271   0.0000       2.567725        69.8713 
 272   0.0000       2.577817        70.1460 
 273   0.0000       2.578439        70.1629 
 274   0.0000       2.583087        70.2894 
 275   0.0000       2.586741        70.3888 
 276   0.0000       2.597771        70.6889 
 277   0.0000       2.620307        71.3022 
 278   0.0000       2.634089        71.6772 
 279   0.0000       2.641988        71.8921 
 280   0.0000       2.644110        71.9499 
 281   0.0000       2.663200        72.4694 
 282   0.0000       2.670172        72.6591 
 283   0.0000       2.677101        72.8476 
 284   0.0000       2.683217        73.0140 
 285   0.0000       2.685705        73.0817 
 286   0.0000       2.694280        73.3151 
 287   0.0000       2.715943        73.9046 
 288   0.0000       2.717707        73.9526 
 289   0.0000       2.737672        74.4958 
 290   0.0000       2.747961        74.7758 
 291   0.0000       2.757104        75.0246 
 292   0.0000       2.762228        75.1641 
 293   0.0000       2.768566        75.3365 
 294   0.0000       2.777006        75.5662 
 295   0.0000       2.797383        76.1207 
 296   0.0000       2.817508        76.6683 
 297   0.0000       2.821147        76.7673 
 298   0.0000       2.832739        77.0827 
 299   0.0000       2.833203        77.0954 
 300   0.0000       2.839818        77.2754 
 301   0.0000       2.849644        77.5427 
 302   0.0000       2.861794        77.8734 
 303   0.0000       2.871420        78.1353 
 304   0.0000       2.887677        78.5777 
 305   0.0000       2.908871        79.1544 
 306   0.0000       2.921840        79.5073 
 307   0.0000       2.926194        79.6258 
 308   0.0000       2.944192        80.1155 
 309   0.0000       2.968404        80.7744 
 310   0.0000       2.974575        80.9423 
 311   0.0000       2.993379        81.4540 
 312   0.0000       3.000767        81.6550 
 313   0.0000       3.008738        81.8719 
 314   0.0000       3.019566        82.1666 
 315   0.0000       3.023674        82.2784 
 316   0.0000       3.044525        82.8457 
 317   0.0000       3.055120        83.1340 
 318   0.0000       3.059542        83.2544 
 319   0.0000       3.065084        83.4052 
 320   0.0000       3.078729        83.7765 
 321   0.0000       3.097206        84.2793 
 322   0.0000       3.110939        84.6529 
 323   0.0000       3.125407        85.0466 
 324   0.0000       3.135297        85.3158 
 325   0.0000       3.139540        85.4312 
 326   0.0000       3.153909        85.8222 
 327   0.0000       3.173551        86.3567 
 328   0.0000       3.186514        86.7095 
 329   0.0000       3.195680        86.9589 
 330   0.0000       3.217219        87.5450 
 331   0.0000       3.230955        87.9187 
 332   0.0000       3.243954        88.2725 
 333   0.0000       3.253727        88.5384 
 334   0.0000       3.254558        88.5610 
 335   0.0000       3.269216        88.9599 
 336   0.0000       3.271408        89.0195 
 337   0.0000       3.286445        89.4287 
 338   0.0000       3.300020        89.7981 
 339   0.0000       3.311307        90.1053 
 340   0.0000       3.315185        90.2108 
 341   0.0000       3.319763        90.3353 
 342   0.0000       3.326069        90.5069 
 343   0.0000       3.338470        90.8444 
 344   0.0000       3.350627        91.1752 
 345   0.0000       3.354610        91.2836 
 346   0.0000       3.357647        91.3662 
 347   0.0000       3.374160        91.8156 
 348   0.0000       3.375213        91.8442 
 349   0.0000       3.385469        92.1233 
 350   0.0000       3.392117        92.3042 
 351   0.0000       3.406537        92.6966 
 352   0.0000       3.408378        92.7467 
 353   0.0000       3.414455        92.9120 
 354   0.0000       3.422286        93.1251 
 355   0.0000       3.437119        93.5288 
 356   0.0000       3.442274        93.6690 
 357   0.0000       3.448469        93.8376 
 358   0.0000       3.450813        93.9014 
 359   0.0000       3.473499        94.5187 
 360   0.0000       3.480106        94.6985 
 361   0.0000       3.489149        94.9446 
 362   0.0000       3.501056        95.2686 
 363   0.0000       3.505843        95.3988 
 364   0.0000       3.508491        95.4709 
 365   0.0000       3.514804        95.6427 
 366   0.0000       3.528092        96.0043 
 367   0.0000       3.543925        96.4351 
 368   0.0000       3.553612        96.6987 
 369   0.0000       3.568677        97.1086 
 370   0.0000       3.569857        97.1407 
 371   0.0000       3.578957        97.3884 
 372   0.0000       3.598213        97.9124 
 373   0.0000       3.598973        97.9330 
 374   0.0000       3.611194        98.2656 
 375   0.0000       3.624068        98.6159 
 376   0.0000       3.628631        98.7401 
 377   0.0000       3.641055        99.0782 
 378   0.0000       3.642848        99.1269 
 379   0.0000       3.671471        99.9058 
 380   0.0000       3.683504       100.2332 
 381   0.0000       3.691550       100.4522 
 382   0.0000       3.693451       100.5039 
 383   0.0000       3.706694       100.8643 
 384   0.0000       3.717867       101.1683 
 385   0.0000       3.723766       101.3288 
 386   0.0000       3.729293       101.4792 
 387   0.0000       3.749178       102.0203 
 388   0.0000       3.752751       102.1175 
 389   0.0000       3.771108       102.6171 
 390   0.0000       3.786109       103.0253 
 391   0.0000       3.789321       103.1127 
 392   0.0000       3.801815       103.4527 
 393   0.0000       3.814105       103.7871 
 394   0.0000       3.830352       104.2292 
 395   0.0000       3.863385       105.1281 
 396   0.0000       3.880883       105.6042 
 397   0.0000       3.883707       105.6810 
 398   0.0000       3.903835       106.2287 
 399   0.0000       3.935616       107.0935 
 400   0.0000       3.962047       107.8128 
 401   0.0000       3.964581       107.8817 
 402   0.0000       3.979000       108.2741 
 403   0.0000       3.983468       108.3957 
 404   0.0000       3.996681       108.7552 
 405   0.0000       4.008195       109.0685 
 406   0.0000       4.030619       109.6787 
 407   0.0000       4.032125       109.7197 
 408   0.0000       4.056171       110.3740 
 409   0.0000       4.072418       110.8161 
 410   0.0000       4.086361       111.1955 
 411   0.0000       4.089617       111.2841 
 412   0.0000       4.100814       111.5888 
 413   0.0000       4.100871       111.5904 
 414   0.0000       4.118909       112.0812 
 415   0.0000       4.138950       112.6266 
 416   0.0000       4.143053       112.7382 
 417   0.0000       4.149178       112.9049 
 418   0.0000       4.151049       112.9558 
 419   0.0000       4.160707       113.2186 
 420   0.0000       4.161135       113.2302 
 421   0.0000       4.169346       113.4537 
 422   0.0000       4.174869       113.6040 
 423   0.0000       4.189288       113.9963 
 424   0.0000       4.207626       114.4953 
 425   0.0000       4.213279       114.6491 
 426   0.0000       4.230015       115.1046 
 427   0.0000       4.243937       115.4834 
 428   0.0000       4.249041       115.6223 
 429   0.0000       4.277669       116.4013 
 430   0.0000       4.277791       116.4046 
 431   0.0000       4.303149       117.0946 
 432   0.0000       4.345166       118.2380 
 433   0.0000       4.352524       118.4382 
 434   0.0000       4.361459       118.6813 
 435   0.0000       4.364676       118.7689 
 436   0.0000       4.379504       119.1724 
 437   0.0000       4.391155       119.4894 
 438   0.0000       4.406187       119.8984 
 439   0.0000       4.415223       120.1443 
 440   0.0000       4.433379       120.6384 
 441   0.0000       4.448536       121.0508 
 442   0.0000       4.468055       121.5820 
 443   0.0000       4.495269       122.3225 
 444   0.0000       4.501097       122.4811 
 445   0.0000       4.505192       122.5925 
 446   0.0000       4.522733       123.0698 
 447   0.0000       4.540806       123.5616 
 448   0.0000       4.547129       123.7337 
 449   0.0000       4.548377       123.7676 
 450   0.0000       4.566142       124.2510 
 451   0.0000       4.568509       124.3154 
 452   0.0000       4.581771       124.6763 
 453   0.0000       4.612135       125.5026 
 454   0.0000       4.634398       126.1084 
 455   0.0000       4.637870       126.2029 
 456   0.0000       4.644664       126.3877 
 457   0.0000       4.669047       127.0512 
 458   0.0000       4.674076       127.1881 
 459   0.0000       4.675373       127.2234 
 460   0.0000       4.676569       127.2559 
 461   0.0000       4.682018       127.4042 
 462   0.0000       4.693868       127.7266 
 463   0.0000       4.696215       127.7905 
 464   0.0000       4.708652       128.1289 
 465   0.0000       4.711409       128.2040 
 466   0.0000       4.759222       129.5050 
 467   0.0000       4.764982       129.6617 
 468   0.0000       4.783710       130.1714 
 469   0.0000       4.805194       130.7560 
 470   0.0000       4.833125       131.5160 
 471   0.0000       4.858139       132.1967 
 472   0.0000       4.875469       132.6683 
 473   0.0000       4.875824       132.6779 
 474   0.0000       4.956734       134.8796 
 475   0.0000       4.966931       135.1571 
 476   0.0000       5.025731       136.7571 
 477   0.0000       5.055079       137.5557 
 478   0.0000       5.065834       137.8484 
 479   0.0000       5.082605       138.3047 
 480   0.0000       5.083271       138.3228 
 481   0.0000       5.102225       138.8386 
 482   0.0000       5.109337       139.0321 
 483   0.0000       5.126025       139.4862 
 484   0.0000       5.158851       140.3795 
 485   0.0000       5.182253       141.0163 
 486   0.0000       5.221427       142.0822 
 487   0.0000       5.239835       142.5832 
 488   0.0000       5.244180       142.7014 
 489   0.0000       5.252418       142.9256 
 490   0.0000       5.262201       143.1918 
 491   0.0000       5.284696       143.8039 
 492   0.0000       5.295656       144.1021 
 493   0.0000       5.300374       144.2305 
 494   0.0000       5.310629       144.5096 
 495   0.0000       5.341375       145.3462 
 496   0.0000       5.361338       145.8894 
 497   0.0000       5.378856       146.3661 
 498   0.0000       5.474154       148.9593 
 499   0.0000       5.492611       149.4615 
 500   0.0000       5.496460       149.5663 
 501   0.0000       5.517965       150.1515 
 502   0.0000       5.522618       150.2781 
 503   0.0000       5.554277       151.1396 
 504   0.0000       5.598761       152.3500 
 505   0.0000       5.622308       152.9908 
 506   0.0000       5.663054       154.0995 
 507   0.0000       5.766180       156.9057 
 508   0.0000       5.834976       158.7778 
 509   0.0000       5.864757       159.5881 
 510   0.0000       5.919357       161.0739 
 511   0.0000       5.926174       161.2594 
 512   0.0000       6.000779       163.2895 
 513   0.0000       6.039852       164.3527 
 514   0.0000       6.129353       166.7882 
 515   0.0000       6.174922       168.0282 
 516   0.0000       6.265565       170.4947 
 517   0.0000       6.334125       172.3603 
 518   0.0000       6.370803       173.3584 
 519   0.0000       6.432855       175.0469 
 520   0.0000       6.447833       175.4545 
 521   0.0000       6.458220       175.7371 
 522   0.0000       6.479402       176.3135 
 523   0.0000       6.523703       177.5190 
 524   0.0000       6.657111       181.1492 
 525   0.0000       6.739440       183.3895 
 526   0.0000       7.035838       191.4549 
 527   0.0000       7.141623       194.3334 
 528   0.0000       9.040874       246.0147 
 529   0.0000       9.715775       264.3797 
 530   0.0000      12.635620       343.8327 
 531   0.0000      12.835236       349.2645 
 532   0.0000      13.278740       361.3329 
 533   0.0000      13.505254       367.4966 
 534   0.0000      13.700830       372.8185 
 535   0.0000      13.737603       373.8192 
 536   0.0000      13.933606       379.1527 
 537   0.0000      14.447470       393.1356 
 538   0.0000      16.129312       438.9009 
 539   0.0000      16.216671       441.2780 

                    ********************************
                    * MULLIKEN POPULATION ANALYSIS *
                    ********************************

-----------------------
MULLIKEN ATOMIC CHARGES
-----------------------
   0 C :   -0.112498
   1 C :   -0.196403
   2 C :    0.134444
   3 C :   -0.223064
   4 C :    0.079969
   5 C :   -0.197159
   6 H :    0.159884
   7 H :    0.171831
   8 H :    0.175196
   9 H :    0.163373
  10 C :    0.079966
  11 C :   -0.223046
  12 C :   -0.197169
  13 C :    0.134428
  14 H :    0.175187
  15 C :   -0.112494
  16 H :    0.163377
  17 C :   -0.196394
  18 H :    0.159879
  19 H :    0.171825
  20 Cl:   -0.155578
  21 Cl:   -0.155555
Sum of atomic charges:   -0.0000000

--------------------------------
MULLIKEN REDUCED ORBITAL CHARGES
--------------------------------
  0 C s       :     3.224144  s :     3.224144
      pz      :     0.934529  p :     2.789061
      px      :     0.901694
      py      :     0.952837
      dz2     :     0.008007  d :     0.089349
      dxz     :     0.017528
      dyz     :     0.016908
      dx2y2   :     0.022528
      dxy     :     0.024378
      f0      :     0.001217  f :     0.009943
      f+1     :     0.001315
      f-1     :     0.000539
      f+2     :     0.001117
      f-2     :     0.001253
      f+3     :     0.002157
      f-3     :     0.002346
  1 C s       :     3.285037  s :     3.285037
      pz      :     0.946329  p :     2.804738
      px      :     0.911867
      py      :     0.946541
      dz2     :     0.014850  d :     0.096487
      dxz     :     0.015031
      dyz     :     0.012797
      dx2y2   :     0.021842
      dxy     :     0.031967
      f0      :     0.000830  f :     0.010142
      f+1     :     0.001466
      f-1     :     0.001157
      f+2     :     0.001316
      f-2     :     0.001026
      f+3     :     0.002284
      f-3     :     0.002063
  2 C s       :     3.164594  s :     3.164594
      pz      :     0.935613  p :     2.530428
      px      :     0.688770
      py      :     0.906045
      dz2     :     0.013816  d :     0.157929
      dxz     :     0.026803
      dyz     :     0.028805
      dx2y2   :     0.049873
      dxy     :     0.038632
      f0      :     0.001539  f :     0.012605
      f+1     :     0.001450
      f-1     :     0.001254
      f+2     :     0.001571
      f-2     :     0.001519
      f+3     :     0.002295
      f-3     :     0.002977
  3 C s       :     3.308433  s :     3.308433
      pz      :     0.979414  p :     2.808457
      px      :     0.887319
      py      :     0.941723
      dz2     :     0.008914  d :     0.095831
      dxz     :     0.017178
      dyz     :     0.018378
      dx2y2   :     0.022945
      dxy     :     0.028415
      f0      :     0.001276  f :     0.010344
      f+1     :     0.001345
      f-1     :     0.000585
      f+2     :     0.001063
      f-2     :     0.001280
      f+3     :     0.002325
      f-3     :     0.002471
  4 C s       :     3.101022  s :     3.101022
      pz      :     0.927877  p :     2.706517
      px      :     0.892029
      py      :     0.886611
      dz2     :     0.013433  d :     0.100821
      dxz     :     0.019156
      dyz     :     0.017764
      dx2y2   :     0.025544
      dxy     :     0.024925
      f0      :     0.001105  f :     0.011670
      f+1     :     0.001565
      f-1     :     0.001350
      f+2     :     0.001383
      f-2     :     0.001284
      f+3     :     0.002339
      f-3     :     0.002644
  5 C s       :     3.270582  s :     3.270582
      pz      :     0.977751  p :     2.827042
      px      :     0.997402
      py      :     0.851889
      dz2     :     0.008695  d :     0.089427
      dxz     :     0.011296
      dyz     :     0.021562
      dx2y2   :     0.030176
      dxy     :     0.017698
      f0      :     0.001204  f :     0.010108
      f+1     :     0.000675
      f-1     :     0.001203
      f+2     :     0.001016
      f-2     :     0.001278
      f+3     :     0.002202
      f-3     :     0.002531
  6 H s       :     0.811958  s :     0.811958
      pz      :     0.010131  p :     0.025894
      px      :     0.007779
      py      :     0.007984
      dz2     :     0.000251  d :     0.002264
      dxz     :     0.000238
      dyz     :     0.000430
      dx2y2   :     0.000777
      dxy     :     0.000568
  7 H s       :     0.800236  s :     0.800236
      pz      :     0.010286  p :     0.025596
      px      :     0.008065
      py      :     0.007245
      dz2     :     0.000173  d :     0.002337
      dxz     :     0.000183
      dyz     :     0.000496
      dx2y2   :     0.000889
      dxy     :     0.000597
  8 H s       :     0.796765  s :     0.796765
      pz      :     0.010202  p :     0.025641
      px      :     0.008431
      py      :     0.007008
      dz2     :     0.000263  d :     0.002398
      dxz     :     0.000256
      dyz     :     0.000443
      dx2y2   :     0.000888
      dxy     :     0.000548
  9 H s       :     0.808104  s :     0.808104
      pz      :     0.010275  p :     0.026219
      px      :     0.007865
      py      :     0.008078
      dz2     :     0.000249  d :     0.002304
      dxz     :     0.000565
      dyz     :     0.000122
      dx2y2   :     0.000440
      dxy     :     0.000928
 10 C s       :     3.101020  s :     3.101020
      pz      :     0.906048  p :     2.706523
      px      :     0.910185
      py      :     0.890290
      dz2     :     0.024823  d :     0.100821
      dxz     :     0.020467
      dyz     :     0.022038
      dx2y2   :     0.017713
      dxy     :     0.015780
      f0      :     0.002001  f :     0.011670
      f+1     :     0.001407
      f-1     :     0.001886
      f+2     :     0.001659
      f-2     :     0.002080
      f+3     :     0.001460
      f-3     :     0.001179
 11 C s       :     3.308418  s :     3.308418
      pz      :     0.974646  p :     2.808455
      px      :     0.923056
      py      :     0.910753
      dz2     :     0.018872  d :     0.095828
      dxz     :     0.010961
      dyz     :     0.030953
      dx2y2   :     0.021886
      dxy     :     0.013156
      f0      :     0.001546  f :     0.010344
      f+1     :     0.001179
      f-1     :     0.001759
      f+2     :     0.001293
      f-2     :     0.001631
      f+3     :     0.001167
      f-3     :     0.001769
 12 C s       :     3.270592  s :     3.270592
      pz      :     0.958568  p :     2.827041
      px      :     0.980824
      py      :     0.887649
      dz2     :     0.018262  d :     0.089428
      dxz     :     0.020659
      dyz     :     0.019026
      dx2y2   :     0.016887
      dxy     :     0.014594
      f0      :     0.001574  f :     0.010107
      f+1     :     0.001146
      f-1     :     0.001696
      f+2     :     0.001050
      f-2     :     0.001892
      f+3     :     0.001089
      f-3     :     0.001661
 13 C s       :     3.164597  s :     3.164597
      pz      :     0.757186  p :     2.530441
      px      :     0.877982
      py      :     0.895273
      dz2     :     0.036594  d :     0.157928
      dxz     :     0.033490
      dyz     :     0.037021
      dx2y2   :     0.028567
      dxy     :     0.022257
      f0      :     0.002164  f :     0.012605
      f+1     :     0.001790
      f-1     :     0.001783
      f+2     :     0.001563
      f-2     :     0.002341
      f+3     :     0.001141
      f-3     :     0.001822
 14 H s       :     0.796774  s :     0.796774
      pz      :     0.007540  p :     0.025641
      px      :     0.009601
      py      :     0.008499
      dz2     :     0.000751  d :     0.002398
      dxz     :     0.000541
      dyz     :     0.000536
      dx2y2   :     0.000297
      dxy     :     0.000274
 15 C s       :     3.224138  s :     3.224138
      pz      :     0.950259  p :     2.789063
      px      :     0.910667
      py      :     0.928137
      dz2     :     0.016612  d :     0.089349
      dxz     :     0.010539
      dyz     :     0.028954
      dx2y2   :     0.021645
      dxy     :     0.011599
      f0      :     0.001514  f :     0.009943
      f+1     :     0.001153
      f-1     :     0.001698
      f+2     :     0.001387
      f-2     :     0.001485
      f+3     :     0.001034
      f-3     :     0.001672
 16 H s       :     0.808101  s :     0.808101
      pz      :     0.008194  p :     0.026218
      px      :     0.009908
      py      :     0.008116
      dz2     :     0.000725  d :     0.002304
      dxz     :     0.000459
      dyz     :     0.000562
      dx2y2   :     0.000226
      dxy     :     0.000333
 17 C s       :     3.285029  s :     3.285029
      pz      :     0.860563  p :     2.804738
      px      :     0.965848
      py      :     0.978327
      dz2     :     0.028739  d :     0.096485
      dxz     :     0.017476
      dyz     :     0.017250
      dx2y2   :     0.013202
      dxy     :     0.019818
      f0      :     0.001914  f :     0.010142
      f+1     :     0.001469
      f-1     :     0.001967
      f+2     :     0.001556
      f-2     :     0.001734
      f+3     :     0.001043
      f-3     :     0.000459
 18 H s       :     0.811963  s :     0.811963
      pz      :     0.008185  p :     0.025894
      px      :     0.009423
      py      :     0.008285
      dz2     :     0.000711  d :     0.002264
      dxz     :     0.000493
      dyz     :     0.000521
      dx2y2   :     0.000271
      dxy     :     0.000268
 19 H s       :     0.800241  s :     0.800241
      pz      :     0.008452  p :     0.025597
      px      :     0.009481
      py      :     0.007664
      dz2     :     0.000171  d :     0.002337
      dxz     :     0.000261
      dyz     :     0.000769
      dx2y2   :     0.000620
      dxy     :     0.000516
 20 Cls       :     5.926590  s :     5.926590
      pz      :     3.870329  p :    11.165324
      px      :     3.321466
      py      :     3.973529
      dz2     :     0.008036  d :     0.058379
      dxz     :     0.018829
      dyz     :     0.001024
      dx2y2   :     0.023783
      dxy     :     0.006706
      f0      :     0.000578  f :     0.005286
      f+1     :     0.000944
      f-1     :     0.000024
      f+2     :     0.001246
      f-2     :     0.000260
      f+3     :     0.001512
      f-3     :     0.000722
 21 Cls       :     5.926585  s :     5.926585
      pz      :     3.502494  p :    11.165302
      px      :     3.747281
      py      :     3.915528
      dz2     :     0.014704  d :     0.058382
      dxz     :     0.022598
      dyz     :     0.010923
      dx2y2   :     0.005940
      dxy     :     0.004216
      f0      :     0.000729  f :     0.005287
      f+1     :     0.001686
      f-1     :     0.000760
      f+2     :     0.000862
      f-2     :     0.000922
      f+3     :     0.000153
      f-3     :     0.000174


                     *******************************
                     * LOEWDIN POPULATION ANALYSIS *
                     *******************************

----------------------
LOEWDIN ATOMIC CHARGES
----------------------
   0 C :    0.038442
   1 C :    0.012639
   2 C :   -0.284276
   3 C :    0.025023
   4 C :   -0.030553
   5 C :    0.042145
   6 H :   -0.019336
   7 H :   -0.021675
   8 H :   -0.020761
   9 H :   -0.021388
  10 C :   -0.030553
  11 C :    0.025015
  12 C :    0.042151
  13 C :   -0.284303
  14 H :   -0.020759
  15 C :    0.038436
  16 H :   -0.021389
  17 C :    0.012641
  18 H :   -0.019336
  19 H :   -0.021676
  20 Cl:    0.279740
  21 Cl:    0.279774

-------------------------------
LOEWDIN REDUCED ORBITAL CHARGES
-------------------------------
  0 C s       :     2.694682  s :     2.694682
      pz      :     0.846194  p :     2.801565
      px      :     0.978690
      py      :     0.976681
      dz2     :     0.032793  d :     0.421981
      dxz     :     0.068615
      dyz     :     0.057117
      dx2y2   :     0.123799
      dxy     :     0.139657
      f0      :     0.003357  f :     0.043331
      f+1     :     0.004466
      f-1     :     0.002197
      f+2     :     0.005827
      f-2     :     0.005448
      f+3     :     0.008157
      f-3     :     0.013880
  1 C s       :     2.697262  s :     2.697262
      pz      :     0.869807  p :     2.828150
      px      :     0.988094
      py      :     0.970248
      dz2     :     0.049879  d :     0.418151
      dxz     :     0.064015
      dyz     :     0.047078
      dx2y2   :     0.111180
      dxy     :     0.145999
      f0      :     0.002504  f :     0.043799
      f+1     :     0.003970
      f-1     :     0.004425
      f+2     :     0.006662
      f-2     :     0.005703
      f+3     :     0.008631
      f-3     :     0.011904
  2 C s       :     2.740933  s :     2.740933
      pz      :     0.896961  p :     2.854941
      px      :     0.888529
      py      :     1.069451
      dz2     :     0.060364  d :     0.625480
      dxz     :     0.100263
      dyz     :     0.097654
      dx2y2   :     0.201562
      dxy     :     0.165637
      f0      :     0.004638  f :     0.062922
      f+1     :     0.006014
      f-1     :     0.004915
      f+2     :     0.007522
      f-2     :     0.009131
      f+3     :     0.010277
      f-3     :     0.020426
  3 C s       :     2.692636  s :     2.692636
      pz      :     0.866268  p :     2.821153
      px      :     0.980892
      py      :     0.973994
      dz2     :     0.033671  d :     0.417494
      dxz     :     0.065239
      dyz     :     0.057056
      dx2y2   :     0.118337
      dxy     :     0.143191
      f0      :     0.003537  f :     0.043694
      f+1     :     0.004428
      f-1     :     0.002444
      f+2     :     0.005753
      f-2     :     0.005649
      f+3     :     0.008694
      f-3     :     0.013189
  4 C s       :     2.679982  s :     2.679982
      pz      :     0.837326  p :     2.769945
      px      :     0.976652
      py      :     0.955967
      dz2     :     0.056856  d :     0.525415
      dxz     :     0.079255
      dyz     :     0.078373
      dx2y2   :     0.152545
      dxy     :     0.158385
      f0      :     0.003888  f :     0.055211
      f+1     :     0.004452
      f-1     :     0.004979
      f+2     :     0.007430
      f-2     :     0.007596
      f+3     :     0.009214
      f-3     :     0.017652
  5 C s       :     2.690310  s :     2.690310
      pz      :     0.861461  p :     2.810321
      px      :     0.956937
      py      :     0.991923
      dz2     :     0.032436  d :     0.414218
      dxz     :     0.036343
      dyz     :     0.082623
      dx2y2   :     0.152032
      dxy     :     0.110782
      f0      :     0.003297  f :     0.043007
      f+1     :     0.001847
      f-1     :     0.004713
      f+2     :     0.004024
      f-2     :     0.007024
      f+3     :     0.008245
      f-3     :     0.013857
  6 H s       :     0.838911  s :     0.838911
      pz      :     0.045114  p :     0.153164
      px      :     0.043199
      py      :     0.064852
      dz2     :     0.003339  d :     0.027261
      dxz     :     0.002558
      dyz     :     0.006149
      dx2y2   :     0.007853
      dxy     :     0.007362
  7 H s       :     0.839192  s :     0.839192
      pz      :     0.041293  p :     0.154678
      px      :     0.045585
      py      :     0.067800
      dz2     :     0.002511  d :     0.027805
      dxz     :     0.002188
      dyz     :     0.006119
      dx2y2   :     0.008828
      dxy     :     0.008158
  8 H s       :     0.836650  s :     0.836650
      pz      :     0.046907  p :     0.155810
      px      :     0.043260
      py      :     0.065642
      dz2     :     0.003480  d :     0.028301
      dxz     :     0.002738
      dyz     :     0.006389
      dx2y2   :     0.008041
      dxy     :     0.007653
  9 H s       :     0.838061  s :     0.838061
      pz      :     0.046744  p :     0.155523
      px      :     0.075933
      py      :     0.032845
      dz2     :     0.003352  d :     0.027804
      dxz     :     0.007966
      dyz     :     0.000951
      dx2y2   :     0.007310
      dxy     :     0.008224
 10 C s       :     2.679981  s :     2.679981
      pz      :     0.990299  p :     2.769946
      px      :     0.862353
      py      :     0.917294
      dz2     :     0.129919  d :     0.525415
      dxz     :     0.095477
      dyz     :     0.129974
      dx2y2   :     0.082883
      dxy     :     0.087161
      f0      :     0.010955  f :     0.055211
      f+1     :     0.006566
      f-1     :     0.008302
      f+2     :     0.008205
      f-2     :     0.009841
      f+3     :     0.005269
      f-3     :     0.006073
 11 C s       :     2.692633  s :     2.692633
      pz      :     0.962401  p :     2.821157
      px      :     0.902716
      py      :     0.956040
      dz2     :     0.088687  d :     0.417501
      dxz     :     0.057045
      dyz     :     0.120234
      dx2y2   :     0.078365
      dxy     :     0.073170
      f0      :     0.008024  f :     0.043695
      f+1     :     0.005351
      f-1     :     0.006471
      f+2     :     0.005163
      f-2     :     0.006914
      f+3     :     0.005178
      f-3     :     0.006593
 12 C s       :     2.690311  s :     2.690311
      pz      :     0.954064  p :     2.810315
      px      :     0.890685
      py      :     0.965566
      dz2     :     0.085005  d :     0.414216
      dxz     :     0.075114
      dyz     :     0.111006
      dx2y2   :     0.073753
      dxy     :     0.069338
      f0      :     0.008305  f :     0.043007
      f+1     :     0.004671
      f-1     :     0.006856
      f+2     :     0.005097
      f-2     :     0.007412
      f+3     :     0.004628
      f-3     :     0.006039
 13 C s       :     2.740931  s :     2.740931
      pz      :     0.928769  p :     2.854960
      px      :     0.902229
      py      :     1.023962
      dz2     :     0.146219  d :     0.625489
      dxz     :     0.129158
      dyz     :     0.154192
      dx2y2   :     0.102388
      dxy     :     0.093532
      f0      :     0.013613  f :     0.062924
      f+1     :     0.008301
      f-1     :     0.008915
      f+2     :     0.008530
      f-2     :     0.011152
      f+3     :     0.005407
      f-3     :     0.007005
 14 H s       :     0.836649  s :     0.836649
      pz      :     0.066048  p :     0.155809
      px      :     0.038856
      py      :     0.050905
      dz2     :     0.008581  d :     0.028301
      dxz     :     0.005806
      dyz     :     0.008136
      dx2y2   :     0.002871
      dxy     :     0.002908
 15 C s       :     2.694681  s :     2.694681
      pz      :     0.954860  p :     2.801568
      px      :     0.890621
      py      :     0.956088
      dz2     :     0.085711  d :     0.421984
      dxz     :     0.057937
      dyz     :     0.129916
      dx2y2   :     0.081214
      dxy     :     0.067206
      f0      :     0.008462  f :     0.043331
      f+1     :     0.005348
      f-1     :     0.006265
      f+2     :     0.005436
      f-2     :     0.007047
      f+3     :     0.004625
      f-3     :     0.006148
 16 H s       :     0.838063  s :     0.838063
      pz      :     0.064263  p :     0.155523
      px      :     0.053081
      py      :     0.038179
      dz2     :     0.008417  d :     0.027804
      dxz     :     0.007227
      dyz     :     0.006197
      dx2y2   :     0.002920
      dxy     :     0.003043
 17 C s       :     2.697263  s :     2.697263
      pz      :     0.985154  p :     2.828146
      px      :     0.897882
      py      :     0.945110
      dz2     :     0.127471  d :     0.418152
      dxz     :     0.081522
      dyz     :     0.101086
      dx2y2   :     0.042600
      dxy     :     0.065473
      f0      :     0.008534  f :     0.043798
      f+1     :     0.006300
      f-1     :     0.008476
      f+2     :     0.007431
      f-2     :     0.007667
      f+3     :     0.003729
      f-3     :     0.001661
 18 H s       :     0.838911  s :     0.838911
      pz      :     0.063873  p :     0.153164
      px      :     0.038538
      py      :     0.050753
      dz2     :     0.008127  d :     0.027261
      dxz     :     0.005353
      dyz     :     0.007927
      dx2y2   :     0.002951
      dxy     :     0.002903
 19 H s       :     0.839193  s :     0.839193
      pz      :     0.033391  p :     0.154678
      px      :     0.051127
      py      :     0.070160
      dz2     :     0.002826  d :     0.027805
      dxz     :     0.002294
      dyz     :     0.006674
      dx2y2   :     0.008176
      dxy     :     0.007835
 20 Cls       :     5.628842  s :     5.628842
      pz      :     3.802277  p :    10.980581
      px      :     3.310097
      py      :     3.868207
      dz2     :     0.013647  d :     0.099462
      dxz     :     0.031601
      dyz     :     0.002280
      dx2y2   :     0.035560
      dxy     :     0.016374
      f0      :     0.001068  f :     0.011375
      f+1     :     0.002218
      f-1     :     0.000045
      f+2     :     0.002457
      f-2     :     0.000700
      f+3     :     0.002734
      f-3     :     0.002152
 21 Cls       :     5.628826  s :     5.628826
      pz      :     3.466547  p :    10.980554
      px      :     3.690686
      py      :     3.823320
      dz2     :     0.026464  d :     0.099470
      dxz     :     0.034381
      dyz     :     0.019762
      dx2y2   :     0.010735
      dxy     :     0.008128
      f0      :     0.001992  f :     0.011377
      f+1     :     0.003096
      f-1     :     0.001581
      f+2     :     0.001962
      f-2     :     0.001987
      f+3     :     0.000371
      f-3     :     0.000387


                      *****************************
                      * MAYER POPULATION ANALYSIS *
                      *****************************

  NA   - Mulliken gross atomic population
  ZA   - Total nuclear charge
  QA   - Mulliken gross atomic charge
  VA   - Mayer's total valence
  BVA  - Mayer's bonded valence
  FA   - Mayer's free valence

  ATOM       NA         ZA         QA         VA         BVA        FA
  0 C      6.1125     6.0000    -0.1125     3.7612     3.7612     0.0000
  1 C      6.1964     6.0000    -0.1964     3.8226     3.8226    -0.0000
  2 C      5.8656     6.0000     0.1344     3.7675     3.7675    -0.0000
  3 C      6.2231     6.0000    -0.2231     3.8280     3.8280     0.0000
  4 C      5.9200     6.0000     0.0800     3.7637     3.7637     0.0000
  5 C      6.1972     6.0000    -0.1972     3.8676     3.8676     0.0000
  6 H      0.8401     1.0000     0.1599     0.9740     0.9740    -0.0000
  7 H      0.8282     1.0000     0.1718     0.9790     0.9790    -0.0000
  8 H      0.8248     1.0000     0.1752     0.9828     0.9828     0.0000
  9 H      0.8366     1.0000     0.1634     0.9810     0.9810     0.0000
 10 C      5.9200     6.0000     0.0800     3.7637     3.7637    -0.0000
 11 C      6.2230     6.0000    -0.2230     3.8279     3.8279    -0.0000
 12 C      6.1972     6.0000    -0.1972     3.8676     3.8676     0.0000
 13 C      5.8656     6.0000     0.1344     3.7675     3.7675    -0.0000
 14 H      0.8248     1.0000     0.1752     0.9828     0.9828    -0.0000
 15 C      6.1125     6.0000    -0.1125     3.7612     3.7612    -0.0000
 16 H      0.8366     1.0000     0.1634     0.9810     0.9810     0.0000
 17 C      6.1964     6.0000    -0.1964     3.8226     3.8226    -0.0000
 18 H      0.8401     1.0000     0.1599     0.9740     0.9740    -0.0000
 19 H      0.8282     1.0000     0.1718     0.9790     0.9790    -0.0000
 20 Cl    17.1556    17.0000    -0.1556     1.0681     1.0681    -0.0000
 21 Cl    17.1556    17.0000    -0.1556     1.0681     1.0681    -0.0000

  Mayer bond orders larger than 0.100000
B(  0-C ,  1-C ) :   1.3589 B(  0-C ,  5-C ) :   1.3849 B(  0-C ,  6-H ) :   0.9734 
B(  1-C ,  2-C ) :   1.3521 B(  1-C ,  7-H ) :   0.9680 B(  2-C ,  3-C ) :   1.3478 
B(  2-C , 20-Cl) :   1.0225 B(  3-C ,  4-C ) :   1.3324 B(  3-C ,  8-H ) :   0.9644 
B(  4-C ,  5-C ) :   1.3526 B(  4-C , 10-C ) :   1.0290 B(  5-C ,  9-H ) :   0.9711 
B( 10-C , 11-C ) :   1.3324 B( 10-C , 12-C ) :   1.3526 B( 11-C , 13-C ) :   1.3478 
B( 11-C , 14-H ) :   0.9644 B( 12-C , 15-C ) :   1.3848 B( 12-C , 16-H ) :   0.9711 
B( 13-C , 17-C ) :   1.3521 B( 13-C , 21-Cl) :   1.0225 B( 15-C , 17-C ) :   1.3590 
B( 15-C , 18-H ) :   0.9734 B( 17-C , 19-H ) :   0.9680 

-------
TIMINGS
-------

Total SCF time: 0 days 0 hours 3 min 9 sec 

Total time                  ....     189.802 sec
Sum of individual times     ....     189.154 sec  ( 99.7%)

Fock matrix formation       ....     187.833 sec  ( 99.0%)
Diagonalization             ....       0.332 sec  (  0.2%)
Density matrix formation    ....       0.027 sec  (  0.0%)
Population analysis         ....       0.055 sec  (  0.0%)
Initial guess               ....       0.324 sec  (  0.2%)
Orbital Transformation      ....       0.000 sec  (  0.0%)
Orbital Orthonormalization  ....       0.000 sec  (  0.0%)
DIIS solution               ....       0.175 sec  (  0.1%)
SOSCF solution              ....       0.284 sec  (  0.1%)

Maximum memory used throughout the entire SCF-calculation: 254.7 MB
--------------------------------------------------------------------------
WARNING: There was an error initializing an OpenFabrics device.

  Local host:   cnode13
  Local device: mlx5_0
--------------------------------------------------------------------------


           ************************************************************
           *        Program running with 8 parallel MPI-processes     *
           *              working on a common directory               *
           ************************************************************

------------------------------------------------------------------------------
                                ORCA  MP2 
------------------------------------------------------------------------------


----------
MP2 ENERGY (disk based algorithm)
----------

Dimension of the basis                    ...  540
Memory devoted to MP2                     ...  256 MB   
Data format for buffers                   ... DOUBLE
Compression type for matrix containers    ... UNCOMPRESSED

-------------------------------
PARTIAL EXCHANGE TRANSFORMATION
-------------------------------

Transformation type                        ... one-operator
Generation of integrals (i,mue|j,nue)      ... ON
Generation of integrals (mue,kappa|nue,tau)... OFF
Generation of integrals (i,mue|a,nue)      ... OFF
Dimension of the basis                     ...  540
Number of internal MOs                     ...   57 (   0-  56)
Pair cutoff                                ... 1.000e-11 Eh
Number of AO pairs in the trafo            ... 146070
Total Number of distinct AO pairs          ... 146070
Memory devoted for trafo                   ...  256.0 MB 
Max. Number of MO pairs treated together   ...  115      
Number Format for Storage                  ... Double (8 Byte)
Integral package used                      ... LIBINT

Starting integral evaluation:
[cnode13:339468] 7 more processes have sent help message help-mpi-btl-openib.txt / error in device init
[cnode13:339468] Set MCA parameter "orte_base_help_aggregate" to 0 to see all help / error messages
    ... done with AO integral generation
Closing buffer AOK     ( 2.32 GB; CompressionRatio= 1.53)
Collecting buffer AOK 
Number of MO pairs included in the trafo   ... 1653
------------------------
SORTING OF (i,mue|j,nue)
------------------------

IBATCH = 1 of  2
IBATCH = 2 of  2
Closing buffer KAO     ( 3.59 GB; CompressionRatio= 1.00)
Collecting buffer KAO 
N(AO-Batches) Done                         ...  34208303 
N(AO-Batches) Skipped                      ...  17466950 
N(IJ)-pairs Skipped                        ...         0 
TOTAL TIME for half transformation         ...   120.277 sec
AO-integral generation                     ...    64.726 sec
Half transformation                        ...    20.508 sec
K-integral sorting                         ...     6.514 sec

Finished integral transformation - now doing MP2 part

OPERATOR COMBINATION   0   0: ij=(  0.. 56,  0.. 56)
Process 1:   Internal MO   8
Process 7:   Internal MO  56
Process 4:   Internal MO  32
Process 0:   Internal MO   2
Process 0:   Internal MO   5
Process 2:   Internal MO  17
Process 1:   Internal MO  11
Process 3:   Internal MO  26
Process 5:   Internal MO  41
Process 1:   Internal MO  14
Process 2:   Internal MO  20
Process 4:   Internal MO  35
Process 6:   Internal MO  50
Process 3:   Internal MO  29
Process 2:   Internal MO  23
Process 5:   Internal MO  44
Process 4:   Internal MO  38
Process 6:   Internal MO  53
Process 5:   Internal MO  47
-----------------------------------------------
 MP2 CORRELATION ENERGY   :     -2.511687011 Eh
-----------------------------------------------


-------
TIMINGS
-------
Total time                :  126.147 sec
Integral trafo            :  120.873 sec ( 95.8%)
K(i,j)                    :    0.329 sec (  0.3%)
T(i,j)                    :    0.010 sec (  0.0%)

---------------------------------------
MP2 TOTAL ENERGY:    -1380.782119492 Eh
---------------------------------------

Maximum memory used throughout the entire MP2-calculation: 387.8 MB

-------------------------   --------------------
FINAL SINGLE POINT ENERGY     -1380.782119492373
-------------------------   --------------------


                            ***************************************
                            *     ORCA property calculations      *
                            ***************************************


  WARNING: The energy has been calculated at the MP2 level but the densities
           used in the property calculations are still SCF densities
           MP2 response densities have not been calculated 
           use %mp2 Density relaxed end
           or  %mp2 Density unrelaxed end

                                    ---------------------
                                    Active property flags
                                    ---------------------
   (+) Dipole Moment


------------------------------------------------------------------------------
                       ORCA ELECTRIC PROPERTIES CALCULATION
------------------------------------------------------------------------------

Dipole Moment Calculation                       ... on
Quadrupole Moment Calculation                   ... off
Polarizability Calculation                      ... off
GBWName                                         ... 2,7-dicl-dibenzene.gbw
Electron density file                           ... 2,7-dicl-dibenzene.scfp
The origin for moment calculation is the CENTER OF MASS  = (-2.079645,  7.725980  1.172565)

-------------
DIPOLE MOMENT
-------------
                                X             Y             Z
Electronic contribution:      3.28263       1.89895       3.79129
Nuclear contribution   :     -3.59384      -2.07894      -4.15061
                        -----------------------------------------
Total Dipole Moment    :     -0.31121      -0.17998      -0.35932
                        -----------------------------------------
Magnitude (a.u.)       :      0.50829
Magnitude (Debye)      :      1.29196



--------------------
Rotational spectrum 
--------------------
 
Rotational constants in cm-1:     0.042977     0.007687     0.006936 
Rotational constants in MHz :  1288.420402   230.438753   207.945622 

 Dipole components along the rotational axes: 
x,y,z [a.u.] :     0.000042     0.000036    -0.508287 
x,y,z [Debye]:     0.000107     0.000092    -1.291963 

 
--------------------------------------------------------------------------
WARNING: There was an error initializing an OpenFabrics device.

  Local host:   cnode13
  Local device: mlx5_0
--------------------------------------------------------------------------
[cnode13:339816] 7 more processes have sent help message help-mpi-btl-openib.txt / error in device init
[cnode13:339816] Set MCA parameter "orte_base_help_aggregate" to 0 to see all help / error messages

Timings for individual modules:

Sum of individual times         ...      317.903 sec (=   5.298 min)
GTO integral calculation        ...        1.065 sec (=   0.018 min)   0.3 %
SCF iterations                  ...      190.197 sec (=   3.170 min)  59.8 %
MP2 module                      ...      126.640 sec (=   2.111 min)  39.8 %
                             ****ORCA TERMINATED NORMALLY****
TOTAL RUN TIME: 0 days 0 hours 5 minutes 18 seconds 524 msec

Sender: Unischeduler System <lcz@mgt01>
Subject: Job 127817: <#!/bin/bash
#BSUB -J intel
#BSUB -o 2,7-dicl-dibenzene.out
#BSUB -n 8
#BSUB -q cqueue
#BSUB -R span[hosts=1]
export LD_LIBRARY_PATH=/apps/software/openmpi-4.1.1/lib:/apps/software/orca_5_0_0:$LD_LIBRARY_PATH
export PATH=/apps/software/openmpi-4.1.1/bin:/apps/software/orca_5_0_0:$PATH
/apps/software/orca_5_0_0/orca 2,7-dicl-dibenzene.inp >& 2,7-dicl-dibenzene.out> Done

Job <#!/bin/bash
#BSUB -J intel
#BSUB -o 2,7-dicl-dibenzene.out
#BSUB -n 8
#BSUB -q cqueue
#BSUB -R span[hosts=1]
export LD_LIBRARY_PATH=/apps/software/openmpi-4.1.1/lib:/apps/software/orca_5_0_0:$LD_LIBRARY_PATH
export PATH=/apps/software/openmpi-4.1.1/bin:/apps/software/orca_5_0_0:$PATH
/apps/software/orca_5_0_0/orca 2,7-dicl-dibenzene.inp >& 2,7-dicl-dibenzene.out> was submitted from host <mgt01> by user <lcz>.
Job was executed on host(s) <8*cnode13>, in queue <cqueue>, as user <lcz>.
</apps/users/lcz> was used as the home directory.
</apps/users/lcz/task2/section2/isomer1/MP2_cc-pVTZ/ORCA> was used as the working directory.
Started at 2022-05-04 14:19:08
Results reported at 2022-05-04 14:24:26

Your job looked like:

------------------------------------------------------------
# User input
#!/bin/bash
#BSUB -J intel
#BSUB -o 2,7-dicl-dibenzene.out
#BSUB -n 8
#BSUB -q cqueue
#BSUB -R span[hosts=1]
export LD_LIBRARY_PATH=/apps/software/openmpi-4.1.1/lib:/apps/software/orca_5_0_0:$LD_LIBRARY_PATH
export PATH=/apps/software/openmpi-4.1.1/bin:/apps/software/orca_5_0_0:$PATH
/apps/software/orca_5_0_0/orca 2,7-dicl-dibenzene.inp >& 2,7-dicl-dibenzene.out
------------------------------------------------------------

Successfully completed.

Resource usage summary:

    CPU time   :         2467.41 sec.
    Max Memory :              2045 MB
    Max Processes  :              13


The output (if any) follows:

