 Entering Gaussian System, Link 0=/apps/software/g16/g16
 Initial command:
 /apps/software/g16/l1.exe "/scratch/Gau-25523.inp" -scrdir="/scratch/"
 Entering Link 1 = /apps/software/g16/l1.exe PID=     25524.
  
 Copyright (c) 1988,1990,1992,1993,1995,1998,2003,2009,2016,
            Gaussian, Inc.  All Rights Reserved.
  
 This is part of the Gaussian(R) 16 program.  It is based on
 the Gaussian(R) 09 system (copyright 2009, Gaussian, Inc.),
 the Gaussian(R) 03 system (copyright 2003, Gaussian, Inc.),
 the Gaussian(R) 98 system (copyright 1998, Gaussian, Inc.),
 the Gaussian(R) 94 system (copyright 1995, Gaussian, Inc.),
 the Gaussian 92(TM) system (copyright 1992, Gaussian, Inc.),
 the Gaussian 90(TM) system (copyright 1990, Gaussian, Inc.),
 the Gaussian 88(TM) system (copyright 1988, Gaussian, Inc.),
 the Gaussian 86(TM) system (copyright 1986, Carnegie Mellon
 University), and the Gaussian 82(TM) system (copyright 1983,
 Carnegie Mellon University). Gaussian is a federally registered
 trademark of Gaussian, Inc.
  
 This software contains proprietary and confidential information,
 including trade secrets, belonging to Gaussian, Inc.
  
 This software is provided under written license and may be
 used, copied, transmitted, or stored only in accord with that
 written license.
  
 The following legend is applicable only to US Government
 contracts under FAR:
  
                    RESTRICTED RIGHTS LEGEND
  
 Use, reproduction and disclosure by the US Government is
 subject to restrictions as set forth in subparagraphs (a)
 and (c) of the Commercial Computer Software - Restricted
 Rights clause in FAR 52.227-19.
  
 Gaussian, Inc.
 340 Quinnipiac St., Bldg. 40, Wallingford CT 06492
  
  
 ---------------------------------------------------------------
 Warning -- This program may not be used in any manner that
 competes with the business of Gaussian, Inc. or will provide
 assistance to any competitor of Gaussian, Inc.  The licensee
 of this program is prohibited from giving any competitor of
 Gaussian, Inc. access to this program.  By using this program,
 the user acknowledges that Gaussian, Inc. is engaged in the
 business of creating and licensing software in the field of
 computational chemistry and represents and warrants to the
 licensee that it is not a competitor of Gaussian, Inc. and that
 it will not use this program in any manner prohibited above.
 ---------------------------------------------------------------
  

 Cite this work as:
 Gaussian 16, Revision A.03,
 M. J. Frisch, G. W. Trucks, H. B. Schlegel, G. E. Scuseria, 
 M. A. Robb, J. R. Cheeseman, G. Scalmani, V. Barone, 
 G. A. Petersson, H. Nakatsuji, X. Li, M. Caricato, A. V. Marenich, 
 J. Bloino, B. G. Janesko, R. Gomperts, B. Mennucci, H. P. Hratchian, 
 J. V. Ortiz, A. F. Izmaylov, J. L. Sonnenberg, D. Williams-Young, 
 F. Ding, F. Lipparini, F. Egidi, J. Goings, B. Peng, A. Petrone, 
 T. Henderson, D. Ranasinghe, V. G. Zakrzewski, J. Gao, N. Rega, 
 G. Zheng, W. Liang, M. Hada, M. Ehara, K. Toyota, R. Fukuda, 
 J. Hasegawa, M. Ishida, T. Nakajima, Y. Honda, O. Kitao, H. Nakai, 
 T. Vreven, K. Throssell, J. A. Montgomery, Jr., J. E. Peralta, 
 F. Ogliaro, M. J. Bearpark, J. J. Heyd, E. N. Brothers, K. N. Kudin, 
 V. N. Staroverov, T. A. Keith, R. Kobayashi, J. Normand, 
 K. Raghavachari, A. P. Rendell, J. C. Burant, S. S. Iyengar, 
 J. Tomasi, M. Cossi, J. M. Millam, M. Klene, C. Adamo, R. Cammi, 
 J. W. Ochterski, R. L. Martin, K. Morokuma, O. Farkas, 
 J. B. Foresman, and D. J. Fox, Gaussian, Inc., Wallingford CT, 2016.
 
 ******************************************
 Gaussian 16:  ES64L-G16RevA.03 25-Dec-2016
                 4-May-2022 
 ******************************************
 %nproc=8
 Will use up to    8 processors via shared memory.
 %mem=20GB
 %chk=27-dicl-dibenzene.chk
 -----------------------
 #p RHF/cc-pVTZ MP2=Full
 -----------------------
 1/38=1,172=1/1;
 2/12=2,17=6,18=5,40=1/2;
 3/5=16,6=1,11=1,25=1,30=1,116=1/1,2,3;
 4//1;
 5/5=2,38=5/2;
 8/10=90/1;
 9/16=-3/6;
 6/7=2,8=2,9=2,10=2/1;
 99/5=1,9=1/99;
 Leave Link    1 at Wed May  4 14:32:56 2022, MaxMem=  2684354560 cpu:               0.1 elap:               0.0
 (Enter /apps/software/g16/l101.exe)
 ---------------------------------
 2,7-dicl-dibenzene SP MP2 cc-pVDZ
 ---------------------------------
 Symbolic Z-matrix:
 Charge =  0 Multiplicity = 1
 C                    -0.84533   0.95631   0.86696 
 C                     0.46297   0.89055   0.41154 
 C                     1.06498   2.05042  -0.04873 
 C                     0.38682   3.25826  -0.05958 
 C                    -0.92917   3.32496   0.39786 
 C                    -1.53692   2.15807   0.86178 
 H                    -1.33178   0.05786   1.22288 
 H                     1.00912  -0.04138   0.41174 
 H                     0.89341   4.14653  -0.40662 
 H                    -2.5626    2.18503   1.20271 
 C                    -1.66709   4.62323   0.38663 
 C                    -2.42162   5.01473   1.4925 
 C                    -1.61923   5.46623  -0.7239 
 C                    -3.10577   6.21909   1.47479 
 H                    -2.46369   4.39499   2.37582 
 C                    -2.30902   6.66904  -0.72695 
 H                    -1.05556   5.17208  -1.59839 
 C                    -3.05942   7.05752   0.37275 
 H                    -2.26866   7.30949  -1.598 
 H                    -3.60008   7.99262   0.37887 
 Cl                    2.70998   1.99495  -0.61717 
 Cl                   -4.03388   6.68924   2.87111 
 
 ITRead=  0  0  0  0  0  0  0  0  0  0  0  0  0  0  0  0  0  0  0  0
 ITRead=  0  0
 MicOpt= -1 -1 -1 -1 -1 -1 -1 -1 -1 -1 -1 -1 -1 -1 -1 -1 -1 -1 -1 -1
 MicOpt= -1 -1
 NAtoms=     22 NQM=       22 NQMF=       0 NMMI=      0 NMMIF=      0
                NMic=       0 NMicF=      0.
                    Isotopes and Nuclear Properties:
 (Nuclear quadrupole moments (NQMom) in fm**2, nuclear magnetic moments (NMagM)
  in nuclear magnetons)

  Atom         1           2           3           4           5           6           7           8           9          10
 IAtWgt=          12          12          12          12          12          12           1           1           1           1
 AtmWgt=  12.0000000  12.0000000  12.0000000  12.0000000  12.0000000  12.0000000   1.0078250   1.0078250   1.0078250   1.0078250
 NucSpn=           0           0           0           0           0           0           1           1           1           1
 AtZEff=  -0.0000000  -0.0000000  -0.0000000  -0.0000000  -0.0000000  -0.0000000  -0.0000000  -0.0000000  -0.0000000  -0.0000000
 NQMom=    0.0000000   0.0000000   0.0000000   0.0000000   0.0000000   0.0000000   0.0000000   0.0000000   0.0000000   0.0000000
 NMagM=    0.0000000   0.0000000   0.0000000   0.0000000   0.0000000   0.0000000   2.7928460   2.7928460   2.7928460   2.7928460
 AtZNuc=   6.0000000   6.0000000   6.0000000   6.0000000   6.0000000   6.0000000   1.0000000   1.0000000   1.0000000   1.0000000

  Atom        11          12          13          14          15          16          17          18          19          20
 IAtWgt=          12          12          12          12           1          12           1          12           1           1
 AtmWgt=  12.0000000  12.0000000  12.0000000  12.0000000   1.0078250  12.0000000   1.0078250  12.0000000   1.0078250   1.0078250
 NucSpn=           0           0           0           0           1           0           1           0           1           1
 AtZEff=  -0.0000000  -0.0000000  -0.0000000  -0.0000000  -0.0000000  -0.0000000  -0.0000000  -0.0000000  -0.0000000  -0.0000000
 NQMom=    0.0000000   0.0000000   0.0000000   0.0000000   0.0000000   0.0000000   0.0000000   0.0000000   0.0000000   0.0000000
 NMagM=    0.0000000   0.0000000   0.0000000   0.0000000   2.7928460   0.0000000   2.7928460   0.0000000   2.7928460   2.7928460
 AtZNuc=   6.0000000   6.0000000   6.0000000   6.0000000   1.0000000   6.0000000   1.0000000   6.0000000   1.0000000   1.0000000

  Atom        21          22
 IAtWgt=          35          35
 AtmWgt=  34.9688527  34.9688527
 NucSpn=           3           3
 AtZEff=  -0.0000000  -0.0000000
 NQMom=   -8.1650000  -8.1650000
 NMagM=    0.8218740   0.8218740
 AtZNuc=  17.0000000  17.0000000
 Leave Link  101 at Wed May  4 14:32:56 2022, MaxMem=  2684354560 cpu:               0.6 elap:               0.1
 (Enter /apps/software/g16/l202.exe)
                          Input orientation:                          
 ---------------------------------------------------------------------
 Center     Atomic      Atomic             Coordinates (Angstroms)
 Number     Number       Type             X           Y           Z
 ---------------------------------------------------------------------
      1          6           0       -0.845332    0.956312    0.866957
      2          6           0        0.462969    0.890551    0.411537
      3          6           0        1.064982    2.050417   -0.048726
      4          6           0        0.386824    3.258257   -0.059576
      5          6           0       -0.929166    3.324964    0.397861
      6          6           0       -1.536919    2.158069    0.861784
      7          1           0       -1.331778    0.057862    1.222883
      8          1           0        1.009116   -0.041378    0.411742
      9          1           0        0.893409    4.146528   -0.406619
     10          1           0       -2.562605    2.185035    1.202711
     11          6           0       -1.667093    4.623227    0.386628
     12          6           0       -2.421619    5.014734    1.492501
     13          6           0       -1.619232    5.466235   -0.723897
     14          6           0       -3.105772    6.219089    1.474794
     15          1           0       -2.463692    4.394991    2.375818
     16          6           0       -2.309019    6.669044   -0.726948
     17          1           0       -1.055558    5.172084   -1.598386
     18          6           0       -3.059416    7.057516    0.372751
     19          1           0       -2.268658    7.309487   -1.598001
     20          1           0       -3.600078    7.992619    0.378873
     21         17           0        2.709979    1.994952   -0.617168
     22         17           0       -4.033878    6.689235    2.871108
 ---------------------------------------------------------------------
                    Distance matrix (angstroms):
                    1          2          3          4          5
     1  C    0.000000
     2  C    1.386861   0.000000
     3  C    2.384291   1.385479   0.000000
     4  C    2.770492   2.415322   1.385242   0.000000
     5  C    2.416111   2.804389   2.408431   1.394822   0.000000
     6  C    1.386556   2.410161   2.758715   2.400022   1.395074
     7  H    1.081909   2.138404   3.366263   3.852379   3.393629
     8  H    2.154434   1.080171   2.142606   3.390720   3.884507
     9  H    3.850025   3.384677   2.133355   1.079857   2.154979
    10  H    2.138110   3.384633   3.839740   3.382943   2.148335
    11  C    3.788440   4.297750   3.777979   2.506156   1.493368
    12  C    4.398497   5.147641   4.828969   3.658073   2.506186
    13  C    4.844496   5.153800   4.396438   3.056263   2.513876
    14  C    5.759850   6.500749   6.090495   4.828979   3.778009
    15  H    4.089042   4.970396   4.881289   3.917748   2.722506
    16  C    6.108864   6.509305   5.759825   4.398457   3.788411
    17  H    4.888236   4.967619   4.079576   2.848005   2.722651
    18  C    6.509309   7.102123   6.500719   5.147605   4.297736
    19  H    6.961660   7.259668   6.416481   5.082401   4.653399
    20  H    7.572085   8.182224   7.566729   6.204982   5.377837
    21  Cl   3.990192   2.706841   1.741326   2.702573   4.005321
    22  Cl   6.859290   7.739242   7.486150   6.316892   5.203317
                    6          7          8          9         10
     6  C    0.000000
     7  H    2.140875   0.000000
     8  H    3.394466   2.479432   0.000000
     9  H    3.386637   4.931929   4.268683   0.000000
    10  H    1.081198   2.457683   4.282492   4.287357   0.000000
    11  C    2.513906   4.653421   5.377850   2.722620   2.722630
    12  C    3.056310   5.082423   6.205018   3.917888   2.847991
    13  C    3.669485   5.755266   6.207390   2.855811   3.920209
    14  C    4.396472   6.416481   7.566758   4.881462   4.079541
    15  H    2.855701   4.628302   5.966519   4.367358   2.503971
    16  C    4.844492   6.961651   7.572081   4.089163   4.888173
    17  H    3.920259   5.847318   5.956818   2.504106   4.363462
    18  C    5.153808   7.259657   8.182223   4.970523   4.967568
    19  H    5.755267   7.837168   8.295667   4.628432   5.847256
    20  H    6.207399   8.295657   9.262336   5.966645   5.956769
    21  Cl   4.500005   4.844987   2.845738   2.823745   5.581059
    22  Cl   5.550104   7.348000   8.762501   6.441042   5.023546
                   11         12         13         14         15
    11  C    0.000000
    12  C    1.394827   0.000000
    13  C    1.395069   2.400020   0.000000
    14  C    2.408459   1.385226   2.758773   0.000000
    15  H    2.154887   1.079861   3.386577   2.133411   0.000000
    16  C    2.416089   2.770447   1.386567   2.384312   3.849987
    17  H    2.148372   3.382967   1.081196   3.839796   4.287308
    18  C    2.804375   2.415282   2.410175   1.385499   3.384702
    19  H    3.393615   3.852336   2.140886   3.366273   4.931892
    20  H    3.884494   3.390684   3.394477   2.142613   4.268734
    21  Cl   5.203287   6.316888   5.550069   7.486160   6.440886
    22  Cl   4.005334   2.702572   4.500034   1.741297   2.823890
                   16         17         18         19         20
    16  C    0.000000
    17  H    2.138097   0.000000
    18  C    1.386846   3.384624   0.000000
    19  H    1.081910   2.457663   2.138375   0.000000
    20  H    2.154420   4.282471   1.080172   2.479391   0.000000
    21  Cl   6.859267   5.023567   7.739213   7.348003   8.762473
    22  Cl   3.990182   5.581086   2.706843   4.844961   2.845739
                   21         22
    21  Cl   0.000000
    22  Cl   8.926588   0.000000
 Stoichiometry    C12H8Cl2
 Framework group  C1[X(C12H8Cl2)]
 Deg. of freedom    60
 Full point group                 C1      NOp   1
 Largest Abelian subgroup         C1      NOp   1
 Largest concise Abelian subgroup C1      NOp   1
                         Standard orientation:                         
 ---------------------------------------------------------------------
 Center     Atomic      Atomic             Coordinates (Angstroms)
 Number     Number       Type             X           Y           Z
 ---------------------------------------------------------------------
      1          6           0        2.244851    2.071295    0.751392
      2          6           0        3.304207    1.300888    0.295737
      3          6           0        3.045185    0.017738   -0.158120
      4          6           0        1.759769   -0.498571   -0.162997
      5          6           0        0.693974    0.275570    0.295604
      6          6           0        0.952908    1.567889    0.752876
      7          1           0        2.431824    3.072719    1.115696
      8          1           0        4.313802    1.684902    0.291253
      9          1           0        1.591308   -1.495485   -0.542306
     10          1           0        0.143223    2.177007    1.130202
     11          6           0       -0.693966   -0.275587    0.295567
     12          6           0       -1.759785    0.498546   -0.163005
     13          6           0       -0.952881   -1.567887    0.752886
     14          6           0       -3.045206   -0.017708   -0.158130
     15          1           0       -1.591168    1.495446   -0.542292
     16          6           0       -2.244844   -2.071272    0.751396
     17          1           0       -0.143236   -2.177042    1.130233
     18          6           0       -3.304192   -1.300884    0.295735
     19          1           0       -2.431844   -3.072681    1.115730
     20          1           0       -4.313786   -1.684904    0.291264
     21         17           0        4.357579   -0.965630   -0.743634
     22         17           0       -4.357593    0.965627   -0.743627
 ---------------------------------------------------------------------
 Rotational constants (GHZ):           1.2933316           0.2325301           0.2096841
 Leave Link  202 at Wed May  4 14:32:56 2022, MaxMem=  2684354560 cpu:               0.1 elap:               0.0
 (Enter /apps/software/g16/l301.exe)
 Standard basis: CC-pVTZ (5D, 7F)
 Ernie: Thresh=  0.10000D-02 Tol=  0.10000D-05 Strict=F.
 Ernie:  62 primitive shells out of 496 were deleted.
 There are   618 symmetry adapted cartesian basis functions of A   symmetry.
 There are   540 symmetry adapted basis functions of A   symmetry.
   540 basis functions,   948 primitive gaussians,   618 cartesian basis functions
    57 alpha electrons       57 beta electrons
       nuclear repulsion energy       944.8190688836 Hartrees.
 IExCor=    0 DFT=F Ex=HF Corr=None ExCW=0 ScaHFX=  1.000000
 ScaDFX=  1.000000  1.000000  1.000000  1.000000 ScalE2=  1.000000  1.000000
 IRadAn=      5 IRanWt=     -1 IRanGd=            0 ICorTp=0 IEmpDi=  4
 NAtoms=   22 NActive=   22 NUniq=   22 SFac= 1.00D+00 NAtFMM=   60 NAOKFM=F Big=F
 Integral buffers will be    131072 words long.
 Raffenetti 1 integral format.
 Two-electron integral symmetry is turned on.
 Leave Link  301 at Wed May  4 14:32:56 2022, MaxMem=  2684354560 cpu:               0.4 elap:               0.1
 (Enter /apps/software/g16/l302.exe)
 NPDir=0 NMtPBC=     1 NCelOv=     1 NCel=       1 NClECP=     1 NCelD=      1
         NCelK=      1 NCelE2=     1 NClLst=     1 CellRange=     0.0.
 One-electron integrals computed using PRISM.
 One-electron integral symmetry used in STVInt
 NBasis=   540 RedAO= T EigKep=  3.25D-05  NBF=   540
 NBsUse=   540 1.00D-06 EigRej= -1.00D+00 NBFU=   540
 Leave Link  302 at Wed May  4 14:32:57 2022, MaxMem=  2684354560 cpu:               2.4 elap:               0.3
 (Enter /apps/software/g16/l303.exe)
 DipDrv:  MaxL=1.
 Leave Link  303 at Wed May  4 14:32:57 2022, MaxMem=  2684354560 cpu:               0.5 elap:               0.1
 (Enter /apps/software/g16/l401.exe)
 ExpMin= 1.03D-01 ExpMax= 4.56D+05 ExpMxC= 1.44D+03 IAcc=3 IRadAn=         5 AccDes= 0.00D+00
 Harris functional with IExCor=  205 and IRadAn=       5 diagonalized for initial guess.
 HarFok:  IExCor=  205 AccDes= 0.00D+00 IRadAn=         5 IDoV= 1 UseB2=F ITyADJ=14
 ICtDFT=  3500011 ScaDFX=  1.000000  1.000000  1.000000  1.000000
 FoFCou: FMM=F IPFlag=           0 FMFlag=      100000 FMFlg1=           0
         NFxFlg=           0 DoJE=T BraDBF=F KetDBF=T FulRan=T
         wScrn=  0.000000 ICntrl=       500 IOpCl=  0 I1Cent=   200000004 NGrid=           0
         NMat0=    1 NMatS0=      1 NMatT0=    0 NMatD0=    1 NMtDS0=    0 NMtDT0=    0
 Petite list used in FoFCou.
 Harris En= -1378.05638385793    
 JPrj=0 DoOrth=F DoCkMO=F.
 Leave Link  401 at Wed May  4 14:32:58 2022, MaxMem=  2684354560 cpu:               9.0 elap:               1.2
 (Enter /apps/software/g16/l502.exe)
 Integral symmetry usage will be decided dynamically.
 Closed shell SCF:
 Using DIIS extrapolation, IDIIS=  1040.
 NGot=  2684354560 LenX=  2683580518 LenY=  2683197976
 Requested convergence on RMS density matrix=1.00D-08 within 128 cycles.
 Requested convergence on MAX density matrix=1.00D-06.
 Requested convergence on             energy=1.00D-06.
 No special actions if energy rises.
 Fock matrices will be formed incrementally for  20 cycles.
 Integral accuracy reduced to 1.0D-05 until final iterations.

 Cycle   1  Pass 0  IDiag  1:
 FoFJK:  IHMeth= 1 ICntrl=       0 DoSepK=F KAlg= 0 I1Cent=           0 FoldK=F
 IRaf= 850000000 NMat=       1 IRICut=       1 DoRegI=T DoRafI=F ISym2E= 0 IDoP0=0 IntGTp=1.
 FoFCou: FMM=F IPFlag=           0 FMFlag=      100000 FMFlg1=           0
         NFxFlg=           0 DoJE=F BraDBF=F KetDBF=F FulRan=T
         wScrn=  0.000000 ICntrl=         0 IOpCl=  0 I1Cent=           0 NGrid=           0
         NMat0=    1 NMatS0=      1 NMatT0=    0 NMatD0=    1 NMtDS0=    0 NMtDT0=    0
 Symmetry not used in FoFCou.
 E= -1377.59527587707    
 DIIS: error= 3.20D-02 at cycle   1 NSaved=   1.
 NSaved= 1 IEnMin= 1 EnMin= -1377.59527587707     IErMin= 1 ErrMin= 3.20D-02
 ErrMax= 3.20D-02  0.00D+00 EMaxC= 1.00D-01 BMatC= 1.30D+00 BMatP= 1.30D+00
 IDIUse=3 WtCom= 6.80D-01 WtEn= 3.20D-01
 Coeff-Com:  0.100D+01
 Coeff-En:   0.100D+01
 Coeff:      0.100D+01
 Gap=     0.638 Goal=   None    Shift=    0.000
 GapD=    0.638 DampG=2.000 DampE=0.500 DampFc=1.0000 IDamp=-1.
 RMSDP=1.77D-03 MaxDP=6.89D-02              OVMax= 1.72D-01

 Cycle   2  Pass 0  IDiag  1:
 RMSU=  1.77D-03    CP:  9.91D-01
 E= -1378.14297185877     Delta-E=       -0.547695981705 Rises=F Damp=F
 DIIS: error= 1.67D-02 at cycle   2 NSaved=   2.
 NSaved= 2 IEnMin= 2 EnMin= -1378.14297185877     IErMin= 2 ErrMin= 1.67D-02
 ErrMax= 1.67D-02  0.00D+00 EMaxC= 1.00D-01 BMatC= 1.29D-01 BMatP= 1.30D+00
 IDIUse=3 WtCom= 8.33D-01 WtEn= 1.67D-01
 Coeff-Com:  0.155D+00 0.845D+00
 Coeff-En:   0.000D+00 0.100D+01
 Coeff:      0.129D+00 0.871D+00
 Gap=     0.513 Goal=   None    Shift=    0.000
 RMSDP=9.13D-04 MaxDP=2.21D-02 DE=-5.48D-01 OVMax= 7.37D-02

 Cycle   3  Pass 0  IDiag  1:
 RMSU=  6.60D-04    CP:  1.00D+00  6.48D-01
 E= -1378.25417644832     Delta-E=       -0.111204589553 Rises=F Damp=F
 DIIS: error= 4.75D-03 at cycle   3 NSaved=   3.
 NSaved= 3 IEnMin= 3 EnMin= -1378.25417644832     IErMin= 3 ErrMin= 4.75D-03
 ErrMax= 4.75D-03  0.00D+00 EMaxC= 1.00D-01 BMatC= 1.53D-02 BMatP= 1.29D-01
 IDIUse=3 WtCom= 9.52D-01 WtEn= 4.75D-02
 Coeff-Com: -0.245D-01 0.223D+00 0.801D+00
 Coeff-En:   0.000D+00 0.000D+00 0.100D+01
 Coeff:     -0.233D-01 0.213D+00 0.811D+00
 Gap=     0.417 Goal=   None    Shift=    0.000
 RMSDP=1.99D-04 MaxDP=7.73D-03 DE=-1.11D-01 OVMax= 2.92D-02

 Cycle   4  Pass 0  IDiag  1:
 RMSU=  1.22D-04    CP:  9.99D-01  7.33D-01  9.24D-01
 E= -1378.26993212690     Delta-E=       -0.015755678573 Rises=F Damp=F
 DIIS: error= 9.05D-04 at cycle   4 NSaved=   4.
 NSaved= 4 IEnMin= 4 EnMin= -1378.26993212690     IErMin= 4 ErrMin= 9.05D-04
 ErrMax= 9.05D-04  0.00D+00 EMaxC= 1.00D-01 BMatC= 2.86D-04 BMatP= 1.53D-02
 IDIUse=3 WtCom= 9.91D-01 WtEn= 9.05D-03
 Coeff-Com: -0.531D-02 0.127D-01 0.114D+00 0.879D+00
 Coeff-En:   0.000D+00 0.000D+00 0.000D+00 0.100D+01
 Coeff:     -0.526D-02 0.126D-01 0.113D+00 0.880D+00
 Gap=     0.403 Goal=   None    Shift=    0.000
 RMSDP=5.42D-05 MaxDP=2.05D-03 DE=-1.58D-02 OVMax= 8.32D-03

 Cycle   5  Pass 0  IDiag  1:
 RMSU=  3.65D-05    CP:  9.99D-01  7.24D-01  9.79D-01  1.07D+00
 E= -1378.27031264067     Delta-E=       -0.000380513778 Rises=F Damp=F
 DIIS: error= 4.32D-04 at cycle   5 NSaved=   5.
 NSaved= 5 IEnMin= 5 EnMin= -1378.27031264067     IErMin= 5 ErrMin= 4.32D-04
 ErrMax= 4.32D-04  0.00D+00 EMaxC= 1.00D-01 BMatC= 7.70D-05 BMatP= 2.86D-04
 IDIUse=3 WtCom= 9.96D-01 WtEn= 4.32D-03
 Coeff-Com:  0.863D-03-0.213D-01-0.483D-01 0.294D+00 0.774D+00
 Coeff-En:   0.000D+00 0.000D+00 0.000D+00 0.000D+00 0.100D+01
 Coeff:      0.859D-03-0.212D-01-0.481D-01 0.293D+00 0.775D+00
 Gap=     0.404 Goal=   None    Shift=    0.000
 RMSDP=2.58D-05 MaxDP=1.30D-03 DE=-3.81D-04 OVMax= 4.29D-03

 Cycle   6  Pass 0  IDiag  1:
 RMSU=  1.78D-05    CP:  9.99D-01  7.22D-01  9.96D-01  1.18D+00  1.09D+00
 E= -1378.27042921342     Delta-E=       -0.000116572744 Rises=F Damp=F
 DIIS: error= 1.64D-04 at cycle   6 NSaved=   6.
 NSaved= 6 IEnMin= 6 EnMin= -1378.27042921342     IErMin= 6 ErrMin= 1.64D-04
 ErrMax= 1.64D-04  0.00D+00 EMaxC= 1.00D-01 BMatC= 8.35D-06 BMatP= 7.70D-05
 IDIUse=3 WtCom= 9.98D-01 WtEn= 1.64D-03
 Coeff-Com:  0.912D-03-0.722D-02-0.260D-01-0.658D-01 0.130D+00 0.968D+00
 Coeff-En:   0.000D+00 0.000D+00 0.000D+00 0.000D+00 0.000D+00 0.100D+01
 Coeff:      0.910D-03-0.720D-02-0.259D-01-0.657D-01 0.130D+00 0.968D+00
 Gap=     0.404 Goal=   None    Shift=    0.000
 RMSDP=1.57D-05 MaxDP=8.95D-04 DE=-1.17D-04 OVMax= 2.00D-03

 Cycle   7  Pass 0  IDiag  1:
 RMSU=  6.66D-06    CP:  1.00D+00  7.20D-01  1.01D+00  1.21D+00  1.29D+00
                    CP:  1.40D+00
 E= -1378.27044963891     Delta-E=       -0.000020425487 Rises=F Damp=F
 DIIS: error= 8.59D-05 at cycle   7 NSaved=   7.
 NSaved= 7 IEnMin= 7 EnMin= -1378.27044963891     IErMin= 7 ErrMin= 8.59D-05
 ErrMax= 8.59D-05  0.00D+00 EMaxC= 1.00D-01 BMatC= 1.21D-06 BMatP= 8.35D-06
 IDIUse=1 WtCom= 1.00D+00 WtEn= 0.00D+00
 Coeff-Com: -0.206D-03 0.289D-02 0.979D-02-0.839D-03-0.110D+00-0.272D+00
 Coeff-Com:  0.137D+01
 Coeff:     -0.206D-03 0.289D-02 0.979D-02-0.839D-03-0.110D+00-0.272D+00
 Coeff:      0.137D+01
 Gap=     0.404 Goal=   None    Shift=    0.000
 RMSDP=9.79D-06 MaxDP=5.46D-04 DE=-2.04D-05 OVMax= 1.39D-03

 Initial convergence to 1.0D-05 achieved.  Increase integral accuracy.
 Cycle   8  Pass 1  IDiag  1:
 E= -1378.27041955946     Delta-E=        0.000030079444 Rises=F Damp=F
 DIIS: error= 3.42D-04 at cycle   1 NSaved=   1.
 NSaved= 1 IEnMin= 1 EnMin= -1378.27041955946     IErMin= 1 ErrMin= 3.42D-04
 ErrMax= 3.42D-04  0.00D+00 EMaxC= 1.00D-01 BMatC= 1.84D-05 BMatP= 1.84D-05
 IDIUse=3 WtCom= 9.97D-01 WtEn= 3.42D-03
 Coeff-Com:  0.100D+01
 Coeff-En:   0.100D+01
 Coeff:      0.100D+01
 Gap=     0.404 Goal=   None    Shift=    0.000
 RMSDP=9.79D-06 MaxDP=5.46D-04 DE= 3.01D-05 OVMax= 5.13D-04

 Cycle   9  Pass 1  IDiag  1:
 RMSU=  3.11D-04    CP:  9.99D-01
 E= -1378.27043122401     Delta-E=       -0.000011664550 Rises=F Damp=F
 DIIS: error= 2.76D-05 at cycle   2 NSaved=   2.
 NSaved= 2 IEnMin= 2 EnMin= -1378.27043122401     IErMin= 2 ErrMin= 2.76D-05
 ErrMax= 2.76D-05  0.00D+00 EMaxC= 1.00D-01 BMatC= 1.36D-07 BMatP= 1.84D-05
 IDIUse=1 WtCom= 1.00D+00 WtEn= 0.00D+00
 Coeff-Com: -0.297D-01 0.103D+01
 Coeff:     -0.297D-01 0.103D+01
 Gap=     0.404 Goal=   None    Shift=    0.000
 RMSDP=1.77D-05 MaxDP=5.33D-04 DE=-1.17D-05 OVMax= 2.82D-04

 Cycle  10  Pass 1  IDiag  1:
 RMSU=  4.30D-06    CP:  9.99D-01  1.06D+00
 E= -1378.27043174323     Delta-E=       -0.000000519216 Rises=F Damp=F
 DIIS: error= 1.44D-05 at cycle   3 NSaved=   3.
 NSaved= 3 IEnMin= 3 EnMin= -1378.27043174323     IErMin= 3 ErrMin= 1.44D-05
 ErrMax= 1.44D-05  0.00D+00 EMaxC= 1.00D-01 BMatC= 6.21D-08 BMatP= 1.36D-07
 IDIUse=1 WtCom= 1.00D+00 WtEn= 0.00D+00
 Coeff-Com: -0.844D-02 0.106D+00 0.903D+00
 Coeff:     -0.844D-02 0.106D+00 0.903D+00
 Gap=     0.404 Goal=   None    Shift=    0.000
 RMSDP=9.46D-07 MaxDP=2.34D-05 DE=-5.19D-07 OVMax= 1.45D-04

 Cycle  11  Pass 1  IDiag  1:
 RMSU=  5.47D-07    CP:  9.99D-01  1.06D+00  1.10D+00
 E= -1378.27043193258     Delta-E=       -0.000000189352 Rises=F Damp=F
 DIIS: error= 1.24D-05 at cycle   4 NSaved=   4.
 NSaved= 4 IEnMin= 4 EnMin= -1378.27043193258     IErMin= 4 ErrMin= 1.24D-05
 ErrMax= 1.24D-05  0.00D+00 EMaxC= 1.00D-01 BMatC= 2.29D-08 BMatP= 6.21D-08
 IDIUse=1 WtCom= 1.00D+00 WtEn= 0.00D+00
 Coeff-Com:  0.162D-01-0.587D+00-0.247D+00 0.182D+01
 Coeff:      0.162D-01-0.587D+00-0.247D+00 0.182D+01
 Gap=     0.404 Goal=   None    Shift=    0.000
 RMSDP=1.20D-06 MaxDP=4.06D-05 DE=-1.89D-07 OVMax= 2.76D-04

 Cycle  12  Pass 1  IDiag  1:
 RMSU=  4.85D-07    CP:  9.99D-01  1.06D+00  1.21D+00  2.63D+00
 E= -1378.27043209610     Delta-E=       -0.000000163522 Rises=F Damp=F
 DIIS: error= 3.01D-06 at cycle   5 NSaved=   5.
 NSaved= 5 IEnMin= 5 EnMin= -1378.27043209610     IErMin= 5 ErrMin= 3.01D-06
 ErrMax= 3.01D-06  0.00D+00 EMaxC= 1.00D-01 BMatC= 1.55D-09 BMatP= 2.29D-08
 IDIUse=1 WtCom= 1.00D+00 WtEn= 0.00D+00
 Coeff-Com:  0.429D-02-0.138D+00-0.167D+00 0.482D+00 0.819D+00
 Coeff:      0.429D-02-0.138D+00-0.167D+00 0.482D+00 0.819D+00
 Gap=     0.404 Goal=   None    Shift=    0.000
 RMSDP=3.62D-07 MaxDP=1.05D-05 DE=-1.64D-07 OVMax= 4.08D-05

 Cycle  13  Pass 1  IDiag  1:
 RMSU=  1.12D-07    CP:  9.99D-01  1.06D+00  1.18D+00  2.86D+00  1.12D+00
 E= -1378.27043210016     Delta-E=       -0.000000004057 Rises=F Damp=F
 DIIS: error= 8.81D-07 at cycle   6 NSaved=   6.
 NSaved= 6 IEnMin= 6 EnMin= -1378.27043210016     IErMin= 6 ErrMin= 8.81D-07
 ErrMax= 8.81D-07  0.00D+00 EMaxC= 1.00D-01 BMatC= 2.21D-10 BMatP= 1.55D-09
 IDIUse=1 WtCom= 1.00D+00 WtEn= 0.00D+00
 Coeff-Com: -0.505D-03 0.236D-01-0.337D-01-0.618D-01 0.263D+00 0.809D+00
 Coeff:     -0.505D-03 0.236D-01-0.337D-01-0.618D-01 0.263D+00 0.809D+00
 Gap=     0.404 Goal=   None    Shift=    0.000
 RMSDP=1.54D-07 MaxDP=4.44D-06 DE=-4.06D-09 OVMax= 1.21D-05

 Cycle  14  Pass 1  IDiag  1:
 RMSU=  3.34D-08    CP:  9.99D-01  1.06D+00  1.17D+00  2.93D+00  1.21D+00
                    CP:  1.26D+00
 E= -1378.27043210057     Delta-E=       -0.000000000415 Rises=F Damp=F
 DIIS: error= 1.08D-07 at cycle   7 NSaved=   7.
 NSaved= 7 IEnMin= 7 EnMin= -1378.27043210057     IErMin= 7 ErrMin= 1.08D-07
 ErrMax= 1.08D-07  0.00D+00 EMaxC= 1.00D-01 BMatC= 5.63D-12 BMatP= 2.21D-10
 IDIUse=1 WtCom= 1.00D+00 WtEn= 0.00D+00
 Coeff-Com: -0.198D-03 0.737D-02-0.429D-03-0.257D-01 0.120D-01 0.107D+00
 Coeff-Com:  0.900D+00
 Coeff:     -0.198D-03 0.737D-02-0.429D-03-0.257D-01 0.120D-01 0.107D+00
 Coeff:      0.900D+00
 Gap=     0.404 Goal=   None    Shift=    0.000
 RMSDP=1.67D-08 MaxDP=4.47D-07 DE=-4.15D-10 OVMax= 1.97D-06

 Cycle  15  Pass 1  IDiag  1:
 RMSU=  6.52D-09    CP:  9.99D-01  1.06D+00  1.16D+00  2.93D+00  1.22D+00
                    CP:  1.34D+00  1.11D+00
 E= -1378.27043210059     Delta-E=       -0.000000000015 Rises=F Damp=F
 DIIS: error= 6.22D-08 at cycle   8 NSaved=   8.
 NSaved= 8 IEnMin= 8 EnMin= -1378.27043210059     IErMin= 8 ErrMin= 6.22D-08
 ErrMax= 6.22D-08  0.00D+00 EMaxC= 1.00D-01 BMatC= 1.55D-12 BMatP= 5.63D-12
 IDIUse=1 WtCom= 1.00D+00 WtEn= 0.00D+00
 Coeff-Com:  0.760D-04-0.393D-02 0.842D-02 0.971D-02-0.570D-01-0.168D+00
 Coeff-Com:  0.194D+00 0.102D+01
 Coeff:      0.760D-04-0.393D-02 0.842D-02 0.971D-02-0.570D-01-0.168D+00
 Coeff:      0.194D+00 0.102D+01
 Gap=     0.404 Goal=   None    Shift=    0.000
 RMSDP=6.11D-09 MaxDP=2.85D-07 DE=-1.50D-11 OVMax= 2.99D-07

 SCF Done:  E(RHF) =  -1378.27043210     A.U. after   15 cycles
            NFock= 15  Conv=0.61D-08     -V/T= 2.0004
 KE= 1.377767651028D+03 PE=-5.146843205008D+03 EE= 1.445986052995D+03
 Leave Link  502 at Wed May  4 14:35:16 2022, MaxMem=  2684354560 cpu:            1097.1 elap:             137.5
 (Enter /apps/software/g16/l801.exe)
 Range of M.O.s used for correlation:     1   540
 NBasis=   540 NAE=    57 NBE=    57 NFC=     0 NFV=     0
 NROrb=    540 NOA=    57 NOB=    57 NVA=   483 NVB=   483

 **** Warning!!: The largest alpha MO coefficient is  0.24754258D+02

 Leave Link  801 at Wed May  4 14:35:16 2022, MaxMem=  2684354560 cpu:               0.2 elap:               0.0
 (Enter /apps/software/g16/l906.exe)
 FulOut=F Deriv=F AODrv=F NAtomX=    22
   MMem=          19  MDisk=          57 MDiskD=          57
  W3Min=    17014158 MinDsk=    16594136 NBas6D=         618
 NBas2D=      192621    NTT=      191271    LW2=     2000000
    MDV=  2682822871 MDiskM=       21689 NBas2p=      151145
 Disk-based method using OVN memory for 57 occupieds at a time.
 Estimated scratch disk usage= 15163920387 words.
 IMap=   1   2   3   4   5   6   7   8   9  10  11  12  13  14  15  16  17  18  19  20
 IMap=  21  22  23  24  25  26  27  28  29  30  31  32  33  34  35  36  37  38  39  40
 IMap=  41  42  43  44  45  46  47  48  49  50  51  52  53  54  55  56  57
 Actual    scratch disk usage= 12516156419 words.
 JobTyp=1 Pass  1:  I=   1 to  57 NPSUse=  8 ParTrn=T ParDer=T DoDerP=F.
 Spin components of T(2) and E(2):
     alpha-alpha T2 =       0.1143033337D+00 E2=     -0.3195622139D+00
     alpha-beta  T2 =       0.5773226168D+00 E2=     -0.1872560785D+01
     beta-beta   T2 =       0.1143033337D+00 E2=     -0.3195622139D+00
 The integrals were generated   1 times.
 ANorm=    0.1343848684D+01
 E2 =    -0.2511685213D+01 EUMP2 =    -0.13807821173131D+04
 Leave Link  906 at Wed May  4 14:42:07 2022, MaxMem=  2684354560 cpu:            3213.9 elap:             411.8
 (Enter /apps/software/g16/l601.exe)
 Copying SCF densities to generalized density rwf, IOpCl= 0 IROHF=0.

 **********************************************************************

            Population analysis using the SCF density.

 **********************************************************************

 Orbital symmetries:
       Occupied  (A) (A) (A) (A) (A) (A) (A) (A) (A) (A) (A) (A)
                 (A) (A) (A) (A) (A) (A) (A) (A) (A) (A) (A) (A)
                 (A) (A) (A) (A) (A) (A) (A) (A) (A) (A) (A) (A)
                 (A) (A) (A) (A) (A) (A) (A) (A) (A) (A) (A) (A)
                 (A) (A) (A) (A) (A) (A) (A) (A) (A)
       Virtual   (A) (A) (A) (A) (A) (A) (A) (A) (A) (A) (A) (A)
                 (A) (A) (A) (A) (A) (A) (A) (A) (A) (A) (A) (A)
                 (A) (A) (A) (A) (A) (A) (A) (A) (A) (A) (A) (A)
                 (A) (A) (A) (A) (A) (A) (A) (A) (A) (A) (A) (A)
                 (A) (A) (A) (A) (A) (A) (A) (A) (A) (A) (A) (A)
                 (A) (A) (A) (A) (A) (A) (A) (A) (A) (A) (A) (A)
                 (A) (A) (A) (A) (A) (A) (A) (A) (A) (A) (A) (A)
                 (A) (A) (A) (A) (A) (A) (A) (A) (A) (A) (A) (A)
                 (A) (A) (A) (A) (A) (A) (A) (A) (A) (A) (A) (A)
                 (A) (A) (A) (A) (A) (A) (A) (A) (A) (A) (A) (A)
                 (A) (A) (A) (A) (A) (A) (A) (A) (A) (A) (A) (A)
                 (A) (A) (A) (A) (A) (A) (A) (A) (A) (A) (A) (A)
                 (A) (A) (A) (A) (A) (A) (A) (A) (A) (A) (A) (A)
                 (A) (A) (A) (A) (A) (A) (A) (A) (A) (A) (A) (A)
                 (A) (A) (A) (A) (A) (A) (A) (A) (A) (A) (A) (A)
                 (A) (A) (A) (A) (A) (A) (A) (A) (A) (A) (A) (A)
                 (A) (A) (A) (A) (A) (A) (A) (A) (A) (A) (A) (A)
                 (A) (A) (A) (A) (A) (A) (A) (A) (A) (A) (A) (A)
                 (A) (A) (A) (A) (A) (A) (A) (A) (A) (A) (A) (A)
                 (A) (A) (A) (A) (A) (A) (A) (A) (A) (A) (A) (A)
                 (A) (A) (A) (A) (A) (A) (A) (A) (A) (A) (A) (A)
                 (A) (A) (A) (A) (A) (A) (A) (A) (A) (A) (A) (A)
                 (A) (A) (A) (A) (A) (A) (A) (A) (A) (A) (A) (A)
                 (A) (A) (A) (A) (A) (A) (A) (A) (A) (A) (A) (A)
                 (A) (A) (A) (A) (A) (A) (A) (A) (A) (A) (A) (A)
                 (A) (A) (A) (A) (A) (A) (A) (A) (A) (A) (A) (A)
                 (A) (A) (A) (A) (A) (A) (A) (A) (A) (A) (A) (A)
                 (A) (A) (A) (A) (A) (A) (A) (A) (A) (A) (A) (A)
                 (A) (A) (A) (A) (A) (A) (A) (A) (A) (A) (A) (A)
                 (A) (A) (A) (A) (A) (A) (A) (A) (A) (A) (A) (A)
                 (A) (A) (A) (A) (A) (A) (A) (A) (A) (A) (A) (A)
                 (A) (A) (A) (A) (A) (A) (A) (A) (A) (A) (A) (A)
                 (A) (A) (A) (A) (A) (A) (A) (A) (A) (A) (A) (A)
                 (A) (A) (A) (A) (A) (A) (A) (A) (A) (A) (A) (A)
                 (A) (A) (A) (A) (A) (A) (A) (A) (A) (A) (A) (A)
                 (A) (A) (A) (A) (A) (A) (A) (A) (A) (A) (A) (A)
                 (A) (A) (A) (A) (A) (A) (A) (A) (A) (A) (A) (A)
                 (A) (A) (A) (A) (A) (A) (A) (A) (A) (A) (A) (A)
                 (A) (A) (A) (A) (A) (A) (A) (A) (A) (A) (A) (A)
                 (A) (A) (A) (A) (A) (A) (A) (A) (A) (A) (A) (A)
                 (A) (A) (A)
 The electronic state is 1-A.
 Alpha  occ. eigenvalues -- -104.84220-104.84220 -11.30818 -11.30818 -11.26606
 Alpha  occ. eigenvalues --  -11.26535 -11.25303 -11.25303 -11.25262 -11.25262
 Alpha  occ. eigenvalues --  -11.25145 -11.25145 -11.24802 -11.24801 -10.56725
 Alpha  occ. eigenvalues --  -10.56725  -8.03414  -8.03413  -8.03224  -8.03223
 Alpha  occ. eigenvalues --   -8.03222  -8.03221  -1.20680  -1.19342  -1.13993
 Alpha  occ. eigenvalues --   -1.11779  -1.06569  -1.02371  -1.00245  -0.99637
 Alpha  occ. eigenvalues --   -0.87784  -0.85173  -0.82144  -0.79998  -0.72449
 Alpha  occ. eigenvalues --   -0.69984  -0.67297  -0.65973  -0.64431  -0.62636
 Alpha  occ. eigenvalues --   -0.60641  -0.59704  -0.59068  -0.55697  -0.54846
 Alpha  occ. eigenvalues --   -0.54568  -0.52416  -0.51116  -0.50809  -0.48246
 Alpha  occ. eigenvalues --   -0.46773  -0.45998  -0.45628  -0.38177  -0.34719
 Alpha  occ. eigenvalues --   -0.34584  -0.32293
 Alpha virt. eigenvalues --    0.08083   0.10782   0.10790   0.13538   0.14220
 Alpha virt. eigenvalues --    0.14539   0.16299   0.16970   0.18527   0.19664
 Alpha virt. eigenvalues --    0.20702   0.20840   0.21926   0.22768   0.30565
 Alpha virt. eigenvalues --    0.30733   0.30835   0.31349   0.34186   0.34959
 Alpha virt. eigenvalues --    0.36216   0.36958   0.38447   0.40410   0.40861
 Alpha virt. eigenvalues --    0.40970   0.41961   0.42005   0.42748   0.43322
 Alpha virt. eigenvalues --    0.43877   0.44641   0.45849   0.46714   0.47708
 Alpha virt. eigenvalues --    0.48533   0.48744   0.49708   0.49883   0.51488
 Alpha virt. eigenvalues --    0.51590   0.52402   0.52703   0.52976   0.53298
 Alpha virt. eigenvalues --    0.54316   0.54622   0.54752   0.55595   0.56299
 Alpha virt. eigenvalues --    0.57381   0.58281   0.58347   0.58990   0.59733
 Alpha virt. eigenvalues --    0.60385   0.60853   0.61473   0.61637   0.62554
 Alpha virt. eigenvalues --    0.63234   0.64012   0.64887   0.65800   0.66568
 Alpha virt. eigenvalues --    0.66624   0.67453   0.68836   0.70832   0.71724
 Alpha virt. eigenvalues --    0.71849   0.73658   0.73722   0.75544   0.75949
 Alpha virt. eigenvalues --    0.79111   0.79645   0.80189   0.81145   0.81396
 Alpha virt. eigenvalues --    0.82006   0.83378   0.83982   0.85419   0.87424
 Alpha virt. eigenvalues --    0.88401   0.88445   0.88926   0.90295   0.91458
 Alpha virt. eigenvalues --    0.92500   0.92798   0.93609   0.93998   0.95261
 Alpha virt. eigenvalues --    0.95920   0.96848   0.97325   0.98741   1.00598
 Alpha virt. eigenvalues --    1.00711   1.01240   1.02694   1.03715   1.03974
 Alpha virt. eigenvalues --    1.04673   1.04804   1.05605   1.07588   1.10181
 Alpha virt. eigenvalues --    1.10688   1.11496   1.13676   1.14118   1.16072
 Alpha virt. eigenvalues --    1.17116   1.17757   1.18225   1.18988   1.20327
 Alpha virt. eigenvalues --    1.23095   1.23910   1.24776   1.26435   1.26982
 Alpha virt. eigenvalues --    1.27183   1.28938   1.29884   1.30730   1.31431
 Alpha virt. eigenvalues --    1.34061   1.35431   1.37918   1.38142   1.39919
 Alpha virt. eigenvalues --    1.41382   1.41693   1.42160   1.45660   1.46348
 Alpha virt. eigenvalues --    1.47613   1.47777   1.48147   1.49677   1.50199
 Alpha virt. eigenvalues --    1.52927   1.53597   1.54797   1.55806   1.56386
 Alpha virt. eigenvalues --    1.56434   1.57687   1.58204   1.59548   1.59586
 Alpha virt. eigenvalues --    1.60679   1.62324   1.65173   1.65794   1.66744
 Alpha virt. eigenvalues --    1.66762   1.67687   1.69574   1.70004   1.74961
 Alpha virt. eigenvalues --    1.75739   1.77114   1.80159   1.83714   1.84478
 Alpha virt. eigenvalues --    1.86397   1.87221   1.88762   1.95420   1.98008
 Alpha virt. eigenvalues --    2.01920   2.03431   2.10411   2.10450   2.13344
 Alpha virt. eigenvalues --    2.16998   2.22688   2.22965   2.23663   2.24559
 Alpha virt. eigenvalues --    2.24963   2.25192   2.25304   2.26627   2.29575
 Alpha virt. eigenvalues --    2.30884   2.31920   2.32975   2.34476   2.36054
 Alpha virt. eigenvalues --    2.37120   2.38325   2.38363   2.39576   2.41046
 Alpha virt. eigenvalues --    2.41106   2.42057   2.42117   2.43039   2.43353
 Alpha virt. eigenvalues --    2.43678   2.44282   2.45100   2.47095   2.48627
 Alpha virt. eigenvalues --    2.49084   2.51455   2.52501   2.56360   2.56773
 Alpha virt. eigenvalues --    2.57782   2.57845   2.58310   2.58675   2.59778
 Alpha virt. eigenvalues --    2.62031   2.63409   2.64199   2.64411   2.66321
 Alpha virt. eigenvalues --    2.67018   2.67711   2.68322   2.68570   2.69428
 Alpha virt. eigenvalues --    2.71595   2.71771   2.73768   2.74797   2.75711
 Alpha virt. eigenvalues --    2.76224   2.76858   2.77701   2.79739   2.81752
 Alpha virt. eigenvalues --    2.82115   2.83274   2.83321   2.83982   2.84965
 Alpha virt. eigenvalues --    2.86180   2.87143   2.88768   2.90888   2.92185
 Alpha virt. eigenvalues --    2.92620   2.94420   2.96841   2.97458   2.99339
 Alpha virt. eigenvalues --    3.00078   3.00874   3.01957   3.02368   3.04453
 Alpha virt. eigenvalues --    3.05513   3.05955   3.06509   3.07873   3.09721
 Alpha virt. eigenvalues --    3.11094   3.12541   3.13530   3.13955   3.15391
 Alpha virt. eigenvalues --    3.17356   3.18652   3.19569   3.21722   3.23096
 Alpha virt. eigenvalues --    3.24396   3.25373   3.25456   3.26922   3.27141
 Alpha virt. eigenvalues --    3.28645   3.30003   3.31131   3.31519   3.31977
 Alpha virt. eigenvalues --    3.32608   3.33847   3.35063   3.35461   3.35765
 Alpha virt. eigenvalues --    3.37417   3.37522   3.38548   3.39212   3.40654
 Alpha virt. eigenvalues --    3.40839   3.41446   3.42229   3.43712   3.44228
 Alpha virt. eigenvalues --    3.44847   3.45082   3.47350   3.48011   3.48915
 Alpha virt. eigenvalues --    3.50106   3.50585   3.50850   3.51481   3.52810
 Alpha virt. eigenvalues --    3.54393   3.55362   3.56868   3.56986   3.57896
 Alpha virt. eigenvalues --    3.59821   3.59898   3.61120   3.62407   3.62863
 Alpha virt. eigenvalues --    3.64106   3.64285   3.67147   3.68351   3.69155
 Alpha virt. eigenvalues --    3.69346   3.70670   3.71787   3.72377   3.72930
 Alpha virt. eigenvalues --    3.74919   3.75276   3.77111   3.78611   3.78932
 Alpha virt. eigenvalues --    3.80182   3.81411   3.83036   3.86339   3.88089
 Alpha virt. eigenvalues --    3.88371   3.90384   3.93562   3.96205   3.96459
 Alpha virt. eigenvalues --    3.97901   3.98347   3.99669   4.00820   4.03062
 Alpha virt. eigenvalues --    4.03213   4.05617   4.07242   4.08637   4.08962
 Alpha virt. eigenvalues --    4.10082   4.10088   4.11891   4.13895   4.14306
 Alpha virt. eigenvalues --    4.14918   4.15105   4.16071   4.16114   4.16935
 Alpha virt. eigenvalues --    4.17487   4.18929   4.20763   4.21328   4.23002
 Alpha virt. eigenvalues --    4.24394   4.24905   4.27767   4.27780   4.30315
 Alpha virt. eigenvalues --    4.34517   4.35253   4.36147   4.36468   4.37951
 Alpha virt. eigenvalues --    4.39116   4.40619   4.41522   4.43338   4.44854
 Alpha virt. eigenvalues --    4.46806   4.49527   4.50110   4.50520   4.52274
 Alpha virt. eigenvalues --    4.54081   4.54713   4.54838   4.56615   4.56851
 Alpha virt. eigenvalues --    4.58178   4.61214   4.63440   4.63788   4.64467
 Alpha virt. eigenvalues --    4.66906   4.67408   4.67538   4.67657   4.68202
 Alpha virt. eigenvalues --    4.69387   4.69622   4.70865   4.71142   4.75923
 Alpha virt. eigenvalues --    4.76499   4.78372   4.80520   4.83313   4.85815
 Alpha virt. eigenvalues --    4.87548   4.87583   4.95674   4.96693   5.02573
 Alpha virt. eigenvalues --    5.05508   5.06584   5.08261   5.08327   5.10223
 Alpha virt. eigenvalues --    5.10934   5.12603   5.15886   5.18226   5.22143
 Alpha virt. eigenvalues --    5.23984   5.24418   5.25242   5.26221   5.28470
 Alpha virt. eigenvalues --    5.29566   5.30038   5.31063   5.34138   5.36134
 Alpha virt. eigenvalues --    5.37885   5.47416   5.49262   5.49646   5.51797
 Alpha virt. eigenvalues --    5.52262   5.55428   5.59877   5.62231   5.66306
 Alpha virt. eigenvalues --    5.76619   5.83500   5.86479   5.91937   5.92619
 Alpha virt. eigenvalues --    6.00079   6.03986   6.12937   6.17493   6.26558
 Alpha virt. eigenvalues --    6.33413   6.37081   6.43302   6.44789   6.45827
 Alpha virt. eigenvalues --    6.47960   6.52372   6.65719   6.73950   7.03584
 Alpha virt. eigenvalues --    7.14163   9.04071   9.71558  12.63529  12.83491
 Alpha virt. eigenvalues --   13.27838  13.50488  13.70047  13.73724  13.93324
 Alpha virt. eigenvalues --   14.44707  16.12883  16.21620
          Condensed to atoms (all electrons):
               1          2          3          4          5          6
     1  C    4.955915   0.468501  -0.050542  -0.056157  -0.060754   0.499148
     2  C    0.468501   5.031771   0.407624   0.041239  -0.046051  -0.041871
     3  C   -0.050542   0.407624   4.987009   0.396156  -0.062219  -0.032409
     4  C   -0.056157   0.041239   0.396156   5.086212   0.451777  -0.018396
     5  C   -0.060754  -0.046051  -0.062219   0.451777   4.958334   0.474192
     6  C    0.499148  -0.041871  -0.032409  -0.018396   0.474192   4.966236
     7  H    0.433275  -0.041549   0.004771  -0.000586   0.005867  -0.042967
     8  H   -0.043478   0.439323  -0.050676   0.007282  -0.001075   0.005471
     9  H   -0.001981   0.007391  -0.053103   0.436429  -0.048436   0.005679
    10  H   -0.043455   0.005348  -0.001078   0.004892  -0.046532   0.434378
    11  C    0.002276   0.001303   0.002243  -0.045301   0.368110  -0.048869
    12  C    0.000237  -0.000089  -0.000256   0.004441  -0.045302  -0.007199
    13  C   -0.000199  -0.000076   0.000571  -0.007195  -0.048873   0.003000
    14  C   -0.000017   0.000005  -0.000008  -0.000256   0.002244   0.000571
    15  H    0.000320  -0.000083  -0.000072   0.000251   0.003174   0.001754
    16  C    0.000001   0.000005  -0.000017   0.000237   0.002277  -0.000199
    17  H   -0.000072  -0.000105   0.000114   0.001566   0.003414   0.000309
    18  C    0.000005  -0.000002   0.000005  -0.000090   0.001302  -0.000076
    19  H   -0.000000   0.000000  -0.000001  -0.000004  -0.000122   0.000013
    20  H    0.000000  -0.000000   0.000000  -0.000000   0.000101  -0.000001
    21  Cl   0.009478  -0.076271   0.317389  -0.079443   0.009200  -0.001567
    22  Cl  -0.000001   0.000000  -0.000000   0.000006  -0.000587  -0.000023
               7          8          9         10         11         12
     1  C    0.433275  -0.043478  -0.001981  -0.043455   0.002276   0.000237
     2  C   -0.041549   0.439323   0.007391   0.005348   0.001303  -0.000089
     3  C    0.004771  -0.050676  -0.053103  -0.001078   0.002243  -0.000256
     4  C   -0.000586   0.007282   0.436429   0.004892  -0.045301   0.004441
     5  C    0.005867  -0.001075  -0.048436  -0.046532   0.368110  -0.045302
     6  C   -0.042967   0.005471   0.005679   0.434378  -0.048869  -0.007199
     7  H    0.492099  -0.005185   0.000051  -0.005406  -0.000122  -0.000004
     8  H   -0.005185   0.476318  -0.000091  -0.000165   0.000101  -0.000000
     9  H    0.000051  -0.000091   0.473781  -0.000162   0.003173   0.000251
    10  H   -0.005406  -0.000165  -0.000162   0.484430   0.003413   0.001566
    11  C   -0.000122   0.000101   0.003173   0.003413   4.958350   0.451759
    12  C   -0.000004  -0.000000   0.000251   0.001566   0.451759   5.086227
    13  C    0.000013  -0.000001   0.001753   0.000308   0.474192  -0.018387
    14  C   -0.000001   0.000000  -0.000072   0.000114  -0.062205   0.396130
    15  H    0.000041  -0.000000   0.000006  -0.000943  -0.048446   0.436431
    16  C   -0.000000   0.000000   0.000320  -0.000072  -0.060754  -0.056167
    17  H    0.000002  -0.000001  -0.000942   0.000008  -0.046526   0.004891
    18  C    0.000000  -0.000000  -0.000082  -0.000105  -0.046057   0.041251
    19  H    0.000000  -0.000000   0.000041   0.000002   0.005867  -0.000586
    20  H   -0.000000   0.000000  -0.000000  -0.000001  -0.001076   0.007283
    21  Cl  -0.000188   0.000337   0.000784   0.000023  -0.000587   0.000006
    22  Cl  -0.000000  -0.000000   0.000002   0.000050   0.009200  -0.079444
              13         14         15         16         17         18
     1  C   -0.000199  -0.000017   0.000320   0.000001  -0.000072   0.000005
     2  C   -0.000076   0.000005  -0.000083   0.000005  -0.000105  -0.000002
     3  C    0.000571  -0.000008  -0.000072  -0.000017   0.000114   0.000005
     4  C   -0.007195  -0.000256   0.000251   0.000237   0.001566  -0.000090
     5  C   -0.048873   0.002244   0.003174   0.002277   0.003414   0.001302
     6  C    0.003000   0.000571   0.001754  -0.000199   0.000309  -0.000076
     7  H    0.000013  -0.000001   0.000041  -0.000000   0.000002   0.000000
     8  H   -0.000001   0.000000  -0.000000   0.000000  -0.000001  -0.000000
     9  H    0.001753  -0.000072   0.000006   0.000320  -0.000942  -0.000082
    10  H    0.000308   0.000114  -0.000943  -0.000072   0.000008  -0.000105
    11  C    0.474192  -0.062205  -0.048446  -0.060754  -0.046526  -0.046057
    12  C   -0.018387   0.396130   0.436431  -0.056167   0.004891   0.041251
    13  C    4.966251  -0.032416   0.005681   0.499127   0.434379  -0.041861
    14  C   -0.032416   4.987053  -0.053101  -0.050527  -0.001078   0.407594
    15  H    0.005681  -0.053101   0.473797  -0.001981  -0.000163   0.007391
    16  C    0.499127  -0.050527  -0.001981   4.955926  -0.043457   0.468506
    17  H    0.434379  -0.001078  -0.000163  -0.043457   0.484423   0.005348
    18  C   -0.041861   0.407594   0.007391   0.468506   0.005348   5.031769
    19  H   -0.042967   0.004772   0.000051   0.433276  -0.005406  -0.041552
    20  H    0.005472  -0.050679  -0.000091  -0.043480  -0.000165   0.439326
    21  Cl  -0.000023  -0.000000   0.000002  -0.000001   0.000050   0.000000
    22  Cl  -0.001567   0.317400   0.000781   0.009479   0.000023  -0.076272
              19         20         21         22
     1  C   -0.000000   0.000000   0.009478  -0.000001
     2  C    0.000000  -0.000000  -0.076271   0.000000
     3  C   -0.000001   0.000000   0.317389  -0.000000
     4  C   -0.000004  -0.000000  -0.079443   0.000006
     5  C   -0.000122   0.000101   0.009200  -0.000587
     6  C    0.000013  -0.000001  -0.001567  -0.000023
     7  H    0.000000  -0.000000  -0.000188  -0.000000
     8  H   -0.000000   0.000000   0.000337  -0.000000
     9  H    0.000041  -0.000000   0.000784   0.000002
    10  H    0.000002  -0.000001   0.000023   0.000050
    11  C    0.005867  -0.001076  -0.000587   0.009200
    12  C   -0.000586   0.007283   0.000006  -0.079444
    13  C   -0.042967   0.005472  -0.000023  -0.001567
    14  C    0.004772  -0.050679  -0.000000   0.317400
    15  H    0.000051  -0.000091   0.000002   0.000781
    16  C    0.433276  -0.043480  -0.000001   0.009479
    17  H   -0.005406  -0.000165   0.000050   0.000023
    18  C   -0.041552   0.439326   0.000000  -0.076272
    19  H    0.492106  -0.005186  -0.000000  -0.000188
    20  H   -0.005186   0.476323  -0.000000   0.000338
    21  Cl  -0.000000  -0.000000  16.976450   0.000000
    22  Cl  -0.000188   0.000338   0.000000  16.976419
 Mulliken charges:
               1
     1  C   -0.112502
     2  C   -0.196411
     3  C    0.134498
     4  C   -0.223063
     5  C    0.079959
     6  C   -0.197174
     7  H    0.159890
     8  H    0.171843
     9  H    0.175209
    10  H    0.163385
    11  C    0.079955
    12  C   -0.223042
    13  C   -0.197182
    14  C    0.134479
    15  H    0.175200
    16  C   -0.112501
    17  H    0.163389
    18  C   -0.196400
    19  H    0.159886
    20  H    0.171838
    21  Cl  -0.155639
    22  Cl  -0.155616
 Sum of Mulliken charges =  -0.00000
 Mulliken charges with hydrogens summed into heavy atoms:
               1
     1  C    0.047389
     2  C   -0.024568
     3  C    0.134498
     4  C   -0.047854
     5  C    0.079959
     6  C   -0.033789
    11  C    0.079955
    12  C   -0.047842
    13  C   -0.033793
    14  C    0.134479
    16  C    0.047385
    18  C   -0.024562
    21  Cl  -0.155639
    22  Cl  -0.155616
 Electronic spatial extent (au):  <R**2>=           4759.0520
 Charge=             -0.0000 electrons
 Dipole moment (field-independent basis, Debye):
    X=             -0.0001    Y=              0.0001    Z=              1.2919  Tot=              1.2919
 Quadrupole moment (field-independent basis, Debye-Ang):
   XX=           -102.7610   YY=            -86.1390   ZZ=            -99.3314
   XY=              9.5297   XZ=              0.0002   YZ=             -0.0001
 Traceless Quadrupole moment (field-independent basis, Debye-Ang):
   XX=             -6.6839   YY=              9.9381   ZZ=             -3.2543
   XY=              9.5297   XZ=              0.0002   YZ=             -0.0001
 Octapole moment (field-independent basis, Debye-Ang**2):
  XXX=             -0.0056  YYY=              0.0006  ZZZ=            -11.2760  XYY=              0.0010
  XXY=              0.0025  XXZ=             10.9804  XZZ=             -0.0006  YZZ=             -0.0003
  YYZ=             10.4347  XYZ=              8.6629
 Hexadecapole moment (field-independent basis, Debye-Ang**3):
 XXXX=          -5202.8610 YYYY=           -881.4970 ZZZZ=           -319.8304 XXXY=            123.1738
 XXXZ=              0.0065 YYYX=              9.1561 YYYZ=             -0.0002 ZZZX=              0.0004
 ZZZY=             -0.0007 XXYY=           -941.3711 XXZZ=           -940.2824 YYZZ=           -202.6024
 XXYZ=             -0.0006 YYXZ=             -0.0002 ZZXY=            -19.3646
 N-N= 9.448190688836D+02 E-N=-5.146843208272D+03  KE= 1.377767651028D+03
 Leave Link  601 at Wed May  4 14:42:08 2022, MaxMem=  2684354560 cpu:               0.8 elap:               0.2
 (Enter /apps/software/g16/l9999.exe)
 1\1\GINC-CNODE12\SP\RMP2-Full\CC-pVTZ\C12H8Cl2\LCZ\04-May-2022\0\\#p R
 HF/cc-pVTZ MP2=Full\\2,7-dicl-dibenzene SP MP2 cc-pVDZ\\0,1\C,0,-0.845
 3319599,0.956312048,0.8669568876\C,0,0.4629691795,0.8905513211,0.41153
 73897\C,0,1.0649824911,2.050417466,-0.0487262622\C,0,0.3868237553,3.25
 82574176,-0.0595763031\C,0,-0.9291662948,3.3249644668,0.3978611747\C,0
 ,-1.536919046,2.158068853,0.8617835777\H,0,-1.3317777931,0.0578616267,
 1.2228828666\H,0,1.0091164462,-0.0413776448,0.4117421701\H,0,0.8934094
 364,4.1465276898,-0.4066187456\H,0,-2.5626045926,2.1850347173,1.202710
 69\C,0,-1.6670933138,4.6232273101,0.3866279409\C,0,-2.4216185813,5.014
 7337901,1.4925010278\C,0,-1.6192320163,5.4662347599,-0.7238968576\C,0,
 -3.1057716936,6.219088724,1.4747938948\H,0,-2.4636919409,4.3949907203,
 2.3758176466\C,0,-2.3090194799,6.6690443594,-0.726948004\H,0,-1.055557
 528,5.1720844428,-1.5983861346\C,0,-3.059415906,7.0575161838,0.3727506
 607\H,0,-2.2686584518,7.3094873522,-1.5980007972\H,0,-3.6000780577,7.9
 926192599,0.3788733742\Cl,0,2.7099788263,1.9949516229,-0.6171676213\Cl
 ,0,-4.0338782591,6.6892351132,2.8711084643\\Version=ES64L-G16RevA.03\S
 tate=1-A\HF=-1378.2704321\MP2=-1380.7821173\RMSD=6.111e-09\PG=C01 [X(C
 12H8Cl2)]\\@


 SI MONUMENTUM REQUIRIS, CIRCUMSPICE
     -- FROM SIR CHRISTOPHER WREN'S TOMBSTONE
 Job cpu time:       0 days  1 hours 12 minutes  5.5 seconds.
 Elapsed time:       0 days  0 hours  9 minutes 11.3 seconds.
 File lengths (MBytes):  RWF=  95651 Int=      0 D2E=      0 Chk=     21 Scr=      1
 Normal termination of Gaussian 16 at Wed May  4 14:43:50 2022.

Sender: Unischeduler System <lcz@mgt01>
Subject: Job 127818: <#!/bin/bash
#BSUB -J intel
#BSUB -o 2,7-dicl-dibenzene.out
#BSUB -n 8
#BSUB -q cqueue
#BSUB -R span[hosts=1]
export g16root=/apps/software
source /apps/software/g16/bsd/g16.profile
export GAUSS_SCRDIR=/scratch
/apps/software/g16/g16 < 2,7-dicl-dibenzene.inp > 2,7-dicl-dibenzene.out> Done

Job <#!/bin/bash
#BSUB -J intel
#BSUB -o 2,7-dicl-dibenzene.out
#BSUB -n 8
#BSUB -q cqueue
#BSUB -R span[hosts=1]
export g16root=/apps/software
source /apps/software/g16/bsd/g16.profile
export GAUSS_SCRDIR=/scratch
/apps/software/g16/g16 < 2,7-dicl-dibenzene.inp > 2,7-dicl-dibenzene.out> was submitted from host <mgt01> by user <lcz>.
Job was executed on host(s) <8*cnode12>, in queue <cqueue>, as user <lcz>.
</apps/users/lcz> was used as the home directory.
</apps/users/lcz/task2/section2/isomer1/MP2_cc-pVTZ/Gaussian> was used as the working directory.
Started at 2022-05-04 14:32:56
Results reported at 2022-05-04 14:43:50

Your job looked like:

------------------------------------------------------------
# User input
#!/bin/bash
#BSUB -J intel
#BSUB -o 2,7-dicl-dibenzene.out
#BSUB -n 8
#BSUB -q cqueue
#BSUB -R span[hosts=1]
export g16root=/apps/software
source /apps/software/g16/bsd/g16.profile
export GAUSS_SCRDIR=/scratch
/apps/software/g16/g16 < 2,7-dicl-dibenzene.inp > 2,7-dicl-dibenzene.out
------------------------------------------------------------

Successfully completed.

Resource usage summary:

    CPU time   :         4330.15 sec.
    Max Memory :             20665 MB
    Max Processes  :               5


The output (if any) follows:

