
                                        *****************
                                        * O   R   C   A *
                                        *****************

                                            #,                                       
                                            ###                                      
                                            ####                                     
                                            #####                                    
                                            ######                                   
                                           ########,                                 
                                     ,,################,,,,,                         
                               ,,#################################,,                 
                          ,,##########################################,,             
                       ,#########################################, ''#####,          
                    ,#############################################,,   '####,        
                  ,##################################################,,,,####,       
                ,###########''''           ''''###############################       
              ,#####''   ,,,,##########,,,,          '''####'''          '####       
            ,##' ,,,,###########################,,,                        '##       
           ' ,,###''''                  '''############,,,                           
         ,,##''                                '''############,,,,        ,,,,,,###''
      ,#''                                            '''#######################'''  
     '                                                          ''''####''''         
             ,#######,   #######,   ,#######,      ##                                
            ,#'     '#,  ##    ##  ,#'     '#,    #''#        ######   ,####,        
            ##       ##  ##   ,#'  ##            #'  '#       #        #'  '#        
            ##       ##  #######   ##           ,######,      #####,   #    #        
            '#,     ,#'  ##    ##  '#,     ,#' ,#      #,         ##   #,  ,#        
             '#######'   ##     ##  '#######'  #'      '#     #####' # '####'        



                  #######################################################
                  #                        -***-                        #
                  #          Department of theory and spectroscopy      #
                  #    Directorship and core code : Frank Neese         #
                  #        Max Planck Institute fuer Kohlenforschung    #
                  #                Kaiser Wilhelm Platz 1               #
                  #                 D-45470 Muelheim/Ruhr               #
                  #                      Germany                        #
                  #                                                     #
                  #                  All rights reserved                #
                  #                        -***-                        #
                  #######################################################


                         Program Version 5.0.0 -  RELEASE  -


 With contributions from (in alphabetic order):
   Daniel Aravena         : Magnetic Suceptibility
   Michael Atanasov       : Ab Initio Ligand Field Theory (pilot matlab implementation)
   Alexander A. Auer      : GIAO ZORA, VPT2 properties, NMR spectrum
   Ute Becker             : Parallelization
   Giovanni Bistoni       : ED, misc. LED, open-shell LED, HFLD
   Martin Brehm           : Molecular dynamics
   Dmytro Bykov           : SCF Hessian
   Vijay G. Chilkuri      : MRCI spin determinant printing, contributions to CSF-ICE
   Dipayan Datta          : RHF DLPNO-CCSD density
   Achintya Kumar Dutta   : EOM-CC, STEOM-CC
   Dmitry Ganyushin       : Spin-Orbit,Spin-Spin,Magnetic field MRCI
   Miquel Garcia          : C-PCM Hessian, Gaussian charge scheme
   Yang Guo               : DLPNO-NEVPT2, F12-NEVPT2, CIM, IAO-localization
   Andreas Hansen         : Spin unrestricted coupled pair/coupled cluster methods
   Benjamin Helmich-Paris : MC-RPA, TRAH-SCF, COSX integrals
   Lee Huntington         : MR-EOM, pCC
   Robert Izsak           : Overlap fitted RIJCOSX, COSX-SCS-MP3, EOM
   Marcus Kettner         : VPT2
   Christian Kollmar      : KDIIS, OOCD, Brueckner-CCSD(T), CCSD density, CASPT2, CASPT2-K
   Simone Kossmann        : Meta GGA functionals, TD-DFT gradient, OOMP2, MP2 Hessian
   Martin Krupicka        : Initial AUTO-CI
   Lucas Lang             : DCDCAS
   Marvin Lechner         : AUTO-CI (C++ implementation), FIC-MRCC
   Dagmar Lenk            : GEPOL surface, SMD
   Dimitrios Liakos       : Extrapolation schemes; Compound Job, initial MDCI parallelization
   Dimitrios Manganas     : Further ROCIS development; embedding schemes
   Dimitrios Pantazis     : SARC Basis sets
   Anastasios Papadopoulos: AUTO-CI, single reference methods and gradients
   Taras Petrenko         : DFT Hessian,TD-DFT gradient, ASA, ECA, R-Raman, ABS, FL, XAS/XES, NRVS
   Peter Pinski           : DLPNO-MP2, DLPNO-MP2 Gradient
   Christoph Reimann      : Effective Core Potentials
   Marius Retegan         : Local ZFS, SOC
   Christoph Riplinger    : Optimizer, TS searches, QM/MM, DLPNO-CCSD(T), (RO)-DLPNO pert. Triples
   Tobias Risthaus        : Range-separated hybrids, TD-DFT gradient, RPA, STAB
   Michael Roemelt        : Original ROCIS implementation
   Masaaki Saitow         : Open-shell DLPNO-CCSD energy and density
   Barbara Sandhoefer     : DKH picture change effects
   Avijit Sen             : IP-ROCIS
   Kantharuban Sivalingam : CASSCF convergence, NEVPT2, FIC-MRCI
   Bernardo de Souza      : ESD, SOC TD-DFT
   Georgi Stoychev        : AutoAux, RI-MP2 NMR
   Willem Van den Heuvel  : Paramagnetic NMR
   Boris Wezisla          : Elementary symmetry handling
   Frank Wennmohs         : Technical directorship


 We gratefully acknowledge several colleagues who have allowed us to
 interface, adapt or use parts of their codes:
   Stefan Grimme, W. Hujo, H. Kruse, P. Pracht,  : VdW corrections, initial TS optimization,
                  C. Bannwarth, S. Ehlert          DFT functionals, gCP, sTDA/sTD-DF
   Ed Valeev, F. Pavosevic, A. Kumar             : LibInt (2-el integral package), F12 methods
   Garnet Chan, S. Sharma, J. Yang, R. Olivares  : DMRG
   Ulf Ekstrom                                   : XCFun DFT Library
   Mihaly Kallay                                 : mrcc  (arbitrary order and MRCC methods)
   Jiri Pittner, Ondrej Demel                    : Mk-CCSD
   Frank Weinhold                                : gennbo (NPA and NBO analysis)
   Christopher J. Cramer and Donald G. Truhlar   : smd solvation model
   Lars Goerigk                                  : TD-DFT with DH, B97 family of functionals
   V. Asgeirsson, H. Jonsson                     : NEB implementation
   FAccTs GmbH                                   : IRC, NEB, NEB-TS, DLPNO-Multilevel, CI-OPT
                                                   MM, QMMM, 2- and 3-layer-ONIOM, Crystal-QMMM,
                                                   LR-CPCM, SF, NACMEs, symmetry and pop. for TD-DFT,
                                                   nearIR, NL-DFT gradient (VV10), updates on ESD,
                                                   ML-optimized integration grids
   S Lehtola, MJT Oliveira, MAL Marques          : LibXC Library
   Liviu Ungur et al                             : ANISO software


 Your calculation uses the libint2 library for the computation of 2-el integrals
 For citations please refer to: http://libint.valeyev.net

 Your ORCA version has been built with support for libXC version: 5.1.0
 For citations please refer to: https://tddft.org/programs/libxc/

 This ORCA versions uses:
   CBLAS   interface :  Fast vector & matrix operations
   LAPACKE interface :  Fast linear algebra routines
   Shared memory     :  Shared parallel matrices


Your calculation utilizes the geometrical counterpoise correction gCP
Please cite in your paper:
H.Kruse, S. Grimme J.Chem.Phys., 136, (2012), 154101 
   

Your calculation utilizes the atom-pairwise dispersion correction
based on tight binding partial charges (D4)
Cite in your paper:
E.Caldeweyher, C.Bannwarth, S.Grimme, J.Chem.Phys., (2017), 147, 034112.
E.Caldeweyher, S.Ehlert, A.Hansen, H.Neugebauer, S.Grimme, J.Chem.Phys., (2018), in progress.
   

================================================================================

----- Orbital basis set information -----
Your calculation utilizes the basis: def2-mTZVPP
   Stefan Grimme, Andreas Hansen, Sebastian Ehlert, and Jan-Michael Mewes 
   J. Chem. Phys. 154, 000000 (2021). DOI: 10.1063/5.0040021

----- AuxJ basis set information -----
Your calculation utilizes the basis: def2-mTZVPP/J
   Stefan Grimme, Andreas Hansen, Sebastian Ehlert, and Jan-Michael Mewes 
   J. Chem. Phys. 154, 000000 (2021). DOI: 10.1063/5.0040021

================================================================================
                                        WARNINGS
                       Please study these warnings very carefully!
================================================================================

Using LibXC functional ID 497 : Re-regularized SCAN exchange by Furness et al
[ 1]  J. W. Furness, A. D. Kaplan, J. Ning, J. P. Perdew, and J. Sun, J. Phys. Chem. Lett. 11, 8208 (2020)
[ 2]  J. W. Furness, A. D. Kaplan, J. Ning, J. P. Perdew, and J. Sun, J. Phys. Chem. Lett. 11, 9248 (2020)
Using LibXC functional ID 498 : Re-regularized SCAN correlation by Furness et al
[ 1]  J. W. Furness, A. D. Kaplan, J. Ning, J. P. Perdew, and J. Sun, J. Phys. Chem. Lett. 11, 8208 (2020)
[ 2]  J. W. Furness, A. D. Kaplan, J. Ning, J. P. Perdew, and J. Sun, J. Phys. Chem. Lett. 11, 9248 (2020)
Using LibXC functional ID 497 : Re-regularized SCAN exchange by Furness et al
[ 1]  J. W. Furness, A. D. Kaplan, J. Ning, J. P. Perdew, and J. Sun, J. Phys. Chem. Lett. 11, 8208 (2020)
[ 2]  J. W. Furness, A. D. Kaplan, J. Ning, J. P. Perdew, and J. Sun, J. Phys. Chem. Lett. 11, 9248 (2020)
Using LibXC functional ID 498 : Re-regularized SCAN correlation by Furness et al
[ 1]  J. W. Furness, A. D. Kaplan, J. Ning, J. P. Perdew, and J. Sun, J. Phys. Chem. Lett. 11, 8208 (2020)
[ 2]  J. W. Furness, A. D. Kaplan, J. Ning, J. P. Perdew, and J. Sun, J. Phys. Chem. Lett. 11, 9248 (2020)

INFO   : the flag for use of the SHARK integral package has been found!

================================================================================
                                       INPUT FILE
================================================================================
NAME = freq.inp
|  1> ! r2scan-3c freq opt noautostart miniprint nopop
|  2> %maxcore  1000
|  3> %pal nprocs   8 end
|  4> * xyz   0   1
|  5> C      0.00000000    1.39661199    0.00000000
|  6> C      1.20950146    0.69830599    0.00000000
|  7> C      1.20950146   -0.69830600    0.00000000
|  8> C     -0.00000000   -1.39661199    0.00000000
|  9> C     -1.20950146   -0.69830599    0.00000000
| 10> C     -1.20950146    0.69830600    0.00000000
| 11> H      0.00000000    2.48362808    0.00000000
| 12> H      2.15088501    1.24181404    0.00000000
| 13> H      2.15088501   -1.24181404    0.00000000
| 14> H     -0.00000000   -2.48362808    0.00000000
| 15> H     -2.15088501   -1.24181404    0.00000000
| 16> H     -2.15088501    1.24181404    0.00000000
| 17>  *
| 18> 
| 19>                          ****END OF INPUT****
================================================================================

                       *****************************
                       * Geometry Optimization Run *
                       *****************************

Geometry optimization settings:
Update method            Update   .... BFGS
Choice of coordinates    CoordSys .... Z-matrix Internals
Initial Hessian          InHess   .... Almoef's Model

Convergence Tolerances:
Energy Change            TolE     ....  5.0000e-06 Eh
Max. Gradient            TolMAXG  ....  3.0000e-04 Eh/bohr
RMS Gradient             TolRMSG  ....  1.0000e-04 Eh/bohr
Max. Displacement        TolMAXD  ....  4.0000e-03 bohr
RMS Displacement         TolRMSD  ....  2.0000e-03 bohr
Strict Convergence                ....  False
------------------------------------------------------------------------------
                        ORCA OPTIMIZATION COORDINATE SETUP
------------------------------------------------------------------------------

The optimization will be done in new redundant internal coordinates
Making redundant internal coordinates   ...  (new redundants) done
Evaluating the initial hessian          ...  (Almloef) done
Evaluating the coordinates              ...  done
Calculating the B-matrix                .... done
Calculating the G-matrix                .... done
Diagonalizing the G-matrix              .... done
The first mode is                       ....   24
The number of degrees of freedom        ....   30

    -----------------------------------------------------------------
                    Redundant Internal Coordinates


    -----------------------------------------------------------------
         Definition                    Initial Value    Approx d2E/dq
    -----------------------------------------------------------------
      1. B(C   1,C   0)                  1.3966         0.609803   
      2. B(C   2,C   1)                  1.3966         0.609803   
      3. B(C   3,C   2)                  1.3966         0.609803   
      4. B(C   4,C   3)                  1.3966         0.609803   
      5. B(C   5,C   4)                  1.3966         0.609803   
      6. B(C   5,C   0)                  1.3966         0.609803   
      7. B(H   6,C   0)                  1.0870         0.364069   
      8. B(H   7,C   1)                  1.0870         0.364069   
      9. B(H   8,C   2)                  1.0870         0.364069   
     10. B(H   9,C   3)                  1.0870         0.364069   
     11. B(H  10,C   4)                  1.0870         0.364069   
     12. B(H  11,C   5)                  1.0870         0.364069   
     13. A(C   1,C   0,C   5)          120.0000         0.431485   
     14. A(C   1,C   0,H   6)          120.0000         0.352573   
     15. A(C   5,C   0,H   6)          120.0000         0.352573   
     16. A(C   2,C   1,H   7)          120.0000         0.352573   
     17. A(C   0,C   1,C   2)          120.0000         0.431485   
     18. A(C   0,C   1,H   7)          120.0000         0.352573   
     19. A(C   3,C   2,H   8)          120.0000         0.352573   
     20. A(C   1,C   2,H   8)          120.0000         0.352573   
     21. A(C   1,C   2,C   3)          120.0000         0.431485   
     22. A(C   4,C   3,H   9)          120.0000         0.352573   
     23. A(C   2,C   3,H   9)          120.0000         0.352573   
     24. A(C   2,C   3,C   4)          120.0000         0.431485   
     25. A(C   3,C   4,H  10)          120.0000         0.352573   
     26. A(C   3,C   4,C   5)          120.0000         0.431485   
     27. A(C   5,C   4,H  10)          120.0000         0.352573   
     28. A(C   0,C   5,C   4)          120.0000         0.431485   
     29. A(C   4,C   5,H  11)          120.0000         0.352573   
     30. A(C   0,C   5,H  11)          120.0000         0.352573   
     31. D(H   7,C   1,C   0,C   5)    180.0000         0.025681   
     32. D(H   7,C   1,C   0,H   6)      0.0000         0.025681   
     33. D(C   2,C   1,C   0,H   6)    180.0000         0.025681   
     34. D(C   2,C   1,C   0,C   5)      0.0000         0.025681   
     35. D(H   8,C   2,C   1,C   0)    180.0000         0.025681   
     36. D(C   3,C   2,C   1,C   0)      0.0000         0.025681   
     37. D(C   3,C   2,C   1,H   7)    180.0000         0.025681   
     38. D(H   8,C   2,C   1,H   7)      0.0000         0.025681   
     39. D(H   9,C   3,C   2,H   8)      0.0000         0.025681   
     40. D(H   9,C   3,C   2,C   1)    180.0000         0.025681   
     41. D(C   4,C   3,C   2,H   8)    180.0000         0.025681   
     42. D(C   4,C   3,C   2,C   1)      0.0000         0.025681   
     43. D(H  10,C   4,C   3,C   2)    180.0000         0.025681   
     44. D(C   5,C   4,C   3,H   9)    180.0000         0.025681   
     45. D(C   5,C   4,C   3,C   2)      0.0000         0.025681   
     46. D(H  10,C   4,C   3,H   9)      0.0000         0.025681   
     47. D(H  11,C   5,C   4,H  10)      0.0000         0.025681   
     48. D(C   0,C   5,C   4,H  10)    180.0000         0.025681   
     49. D(C   0,C   5,C   4,C   3)      0.0000         0.025681   
     50. D(H  11,C   5,C   0,H   6)      0.0000         0.025681   
     51. D(H  11,C   5,C   0,C   1)    180.0000         0.025681   
     52. D(H  11,C   5,C   4,C   3)    180.0000         0.025681   
     53. D(C   4,C   5,C   0,H   6)    180.0000         0.025681   
     54. D(C   4,C   5,C   0,C   1)      0.0000         0.025681   
    -----------------------------------------------------------------

Number of atoms                         .... 12
Number of degrees of freedom            .... 54

         *************************************************************
         *                GEOMETRY OPTIMIZATION CYCLE   1            *
         *************************************************************
---------------------------------
CARTESIAN COORDINATES (ANGSTROEM)
---------------------------------
  C      0.000000    1.396612    0.000000
  C      1.209501    0.698306    0.000000
  C      1.209501   -0.698306    0.000000
  C     -0.000000   -1.396612    0.000000
  C     -1.209501   -0.698306    0.000000
  C     -1.209501    0.698306    0.000000
  H      0.000000    2.483628    0.000000
  H      2.150885    1.241814    0.000000
  H      2.150885   -1.241814    0.000000
  H     -0.000000   -2.483628    0.000000
  H     -2.150885   -1.241814    0.000000
  H     -2.150885    1.241814    0.000000

----------------------------
CARTESIAN COORDINATES (A.U.)
----------------------------
  NO LB      ZA    FRAG     MASS         X           Y           Z
   0 C     6.0000    0    12.011    0.000000    2.639214    0.000000
   1 C     6.0000    0    12.011    2.285627    1.319607    0.000000
   2 C     6.0000    0    12.011    2.285627   -1.319607    0.000000
   3 C     6.0000    0    12.011   -0.000000   -2.639214    0.000000
   4 C     6.0000    0    12.011   -2.285627   -1.319607    0.000000
   5 C     6.0000    0    12.011   -2.285627    1.319607    0.000000
   6 H     1.0000    0     1.008    0.000000    4.693377    0.000000
   7 H     1.0000    0     1.008    4.064584    2.346688    0.000000
   8 H     1.0000    0     1.008    4.064584   -2.346688    0.000000
   9 H     1.0000    0     1.008   -0.000000   -4.693377    0.000000
  10 H     1.0000    0     1.008   -4.064584   -2.346688    0.000000
  11 H     1.0000    0     1.008   -4.064584    2.346688    0.000000



           ************************************************************
           *        Program running with 8 parallel MPI-processes     *
           *              working on a common directory               *
           ************************************************************
------------------------------------------------------------------------------
                   ___                                                        
                  /   \      - P O W E R E D   B Y -                         
                 /     \                                                     
                 |  |  |   _    _      __       _____    __    __             
                 |  |  |  | |  | |    /  \     |  _  \  |  |  /  |          
                  \  \/   | |  | |   /    \    | | | |  |  | /  /          
                 / \  \   | |__| |  /  /\  \   | |_| |  |  |/  /          
                |  |  |   |  __  | /  /__\  \  |    /   |      \           
                |  |  |   | |  | | |   __   |  |    \   |  |\   \          
                \     /   | |  | | |  |  |  |  | |\  \  |  | \   \       
                 \___/    |_|  |_| |__|  |__|  |_| \__\ |__|  \__/        
                                                                              
                      - O R C A' S   B I G   F R I E N D -                    
                                      &                                       
                       - I N T E G R A L  F E E D E R -                       
                                                                              
 v1 FN, 2020, v2 2021                                                         
------------------------------------------------------------------------------


Reading SHARK input file freq.SHARKINP.tmp ... ok
----------------------
SHARK INTEGRAL PACKAGE
----------------------

Number of atoms                             ...     12
Number of basis functions                   ...    144
Number of shells                            ...     72
Maximum angular momentum                    ...      2
Integral batch strategy                     ... SHARK/LIBINT Hybrid
RI-J (if used) integral strategy            ... SPLIT-RIJ (Revised 2003 algorithm where possible)
Printlevel                                  ...      1
Contraction scheme used                     ... SEGMENTED contraction
Coulomb Range Separation                    ... NOT USED
Exchange Range Separation                   ... NOT USED
Finite Nucleus Model                        ... NOT USED
Auxiliary Coulomb fitting basis             ... AVAILABLE
   # of basis functions in Aux-J            ...    246
   # of shells in Aux-J                     ...    102
   Maximum angular momentum in Aux-J        ...      2
Auxiliary J/K fitting basis                 ... NOT available
Auxiliary Correlation fitting basis         ... NOT available
Auxiliary 'external' fitting basis          ... NOT available
Integral threshold                          ...     2.500000e-11
Primitive cut-off                           ...     2.500000e-12
Primitive pair pre-selection threshold      ...     2.500000e-12

Calculating pre-screening integrals         ... done (  0.0 sec) Dimension = 72
Organizing shell pair data                  ... done (  0.0 sec)
Shell pair information
Total number of shell pairs                 ...      2628
Shell pairs after pre-screening             ...      2508
Total number of primitive shell pairs       ...      9741
Primitive shell pairs kept                  ...      7020
          la=0 lb=0:    834 shell pairs
          la=1 lb=0:    966 shell pairs
          la=1 lb=1:    291 shell pairs
          la=2 lb=0:    252 shell pairs
          la=2 lb=1:    144 shell pairs
          la=2 lb=2:     21 shell pairs

Calculating one electron integrals          ... done (  0.0 sec)
Calculating RI/J V-Matrix + Cholesky decomp.... done (  0.0 sec)
Calculating Nuclear repulsion               ... done (  0.0 sec) ENN=    203.187095569489 Eh

SHARK setup successfully completed in   0.1 seconds

Maximum memory used throughout the entire GTOINT-calculation: 7.7 MB


           ************************************************************
           *        Program running with 8 parallel MPI-processes     *
           *              working on a common directory               *
           ************************************************************

Diagonalization of the overlap matrix:
Smallest eigenvalue                        ... 4.275e-05
Time for diagonalization                   ...    0.002 sec
Threshold for overlap eigenvalues          ... 1.000e-08
Number of eigenvalues below threshold      ... 0
Time for construction of square roots      ...    0.004 sec
Total time needed                          ...    0.006 sec

Time for model grid setup =    0.045 sec

Loading Hartree-Fock densities                     ... done
Calculating cut-offs                               ... done
Initializing the effective Hamiltonian             ... done
Setting up the integral package (SHARK)            ... done
Starting the Coulomb interaction                   ... done (   0.0 sec)
Reading the grid                                   ... done
Mapping shells                                     ... done
Starting the XC term evaluation                    ... done (   0.0 sec)
  promolecular density results
     # of electrons  =     41.997113186
     EX              =    -32.420348962
     EC              =     -1.367733718
     EX+EC           =    -33.788082681
Transforming the Hamiltonian                       ... done (   0.0 sec)
Diagonalizing the Hamiltonian                      ... done (   0.0 sec)
Back transforming the eigenvectors                 ... done (   0.0 sec)
Now organizing SCF variables                       ... done
-------------------
DFT GRID GENERATION
-------------------

General Integration Accuracy     IntAcc      ... 4.388
Radial Grid Type                 RadialGrid  ... OptM3 with GC (2021)
Angular Grid (max. ang.)         AngularGrid ... 4 (Lebedev-302)
Angular grid pruning method      GridPruning ... 4 (adaptive)
Weight generation scheme         WeightScheme... Becke
Basis function cutoff            BFCut       ... 1.0000e-11
Integration weight cutoff        WCut        ... 1.0000e-14
Angular grids for H and He will be reduced by one unit
Partially contracted basis set               ... off
Rotationally invariant grid construction     ... off

Total number of grid points                  ...    55526
Total number of batches                      ...      874
Average number of points per batch           ...       63
Average number of grid points per atom       ...     4627
Time for grid setup =    0.245 sec

--------------
SCF ITERATIONS
--------------
ITER       Energy         Delta-E        Max-DP      RMS-DP      [F,P]     Damp
               ***  Starting incremental Fock matrix formation  ***
  0   -232.0427587750   0.000000000000 0.02385527  0.00144901  0.1359257 0.7000
  1   -232.1068761021  -0.064117327150 0.01599677  0.00112757  0.0685773 0.7000
                               ***Turning on DIIS***
  2   -232.1334368924  -0.026560790281 0.02486396  0.00221030  0.0278348 0.0000
  3   -232.1702311947  -0.036794302308 0.01391066  0.00078360  0.0435425 0.0000
  4   -232.1816579022  -0.011426707464 0.00309627  0.00027890  0.0069343 0.0000
                      *** Initiating the SOSCF procedure ***
                           *** Shutting down DIIS ***
                      *** Re-Reading the Fockian *** 
                      *** Removing any level shift *** 
ITER      Energy       Delta-E        Grad      Rot      Max-DP    RMS-DP
  5   -232.18208064  -0.0004227361  0.000696  0.000696  0.001907  0.000147
               *** Restarting incremental Fock matrix formation ***
  6   -232.18209823  -0.0000175875  0.000247  0.000490  0.001213  0.000088
  7   -232.18209885  -0.0000006242  0.000162  0.000146  0.000173  0.000012
  8   -232.18209936  -0.0000005057  0.000045  0.000059  0.000137  0.000010
  9   -232.18209939  -0.0000000378  0.000019  0.000018  0.000026  0.000002
                  ***Gradient check signals convergence***
              ***Rediagonalizing the Fockian in SOSCF/NRSCF***

               *****************************************************
               *                     SUCCESS                       *
               *           SCF CONVERGED AFTER  10 CYCLES          *
               *****************************************************

Total Energy       :         -232.18209940 Eh           -6317.99613 eV
  Last Energy change         ...   -4.9312e-09  Tolerance :   1.0000e-08
  Last MAX-Density change    ...    8.1076e-06  Tolerance :   1.0000e-07
             **** THE GBW FILE WAS UPDATED (freq.gbw) ****
             **** DENSITY freq.scfp WAS UPDATED ****
             **** ENERGY FILE WAS UPDATED (freq.en.tmp) ****
             **** THE GBW FILE WAS UPDATED (freq.gbw) ****
             **** DENSITY freq.scfp WAS UPDATED ****
----------------
ORBITAL ENERGIES
----------------

  NO   OCC          E(Eh)            E(eV) 
   0   2.0000     -10.039336      -273.1842 
   1   2.0000     -10.039143      -273.1790 
   2   2.0000     -10.039143      -273.1790 
   3   2.0000     -10.038718      -273.1674 
   4   2.0000     -10.038718      -273.1674 
   5   2.0000     -10.038509      -273.1617 
   6   2.0000      -0.820177       -22.3181 
   7   2.0000      -0.713832       -19.4243 
   8   2.0000      -0.713831       -19.4243 
   9   2.0000      -0.571432       -15.5495 
  10   2.0000      -0.571431       -15.5494 
  11   2.0000      -0.491456       -13.3732 
  12   2.0000      -0.430928       -11.7261 
  13   2.0000      -0.414714       -11.2849 
  14   2.0000      -0.390152       -10.6166 
  15   2.0000      -0.390152       -10.6166 
  16   2.0000      -0.342934        -9.3317 
  17   2.0000      -0.313714        -8.5366 
  18   2.0000      -0.313713        -8.5366 
  19   2.0000      -0.236752        -6.4423 
  20   2.0000      -0.236751        -6.4423 
  21   0.0000      -0.034168        -0.9298 
  22   0.0000      -0.034165        -0.9297 
  23   0.0000       0.093205         2.5362 
  24   0.0000       0.118338         3.2201 
  25   0.0000       0.133492         3.6325 
  26   0.0000       0.133493         3.6325 
  27   0.0000       0.135263         3.6807 
  28   0.0000       0.135270         3.6809 
  29   0.0000       0.150787         4.1031 
  30   0.0000       0.174788         4.7562 
  31   0.0000       0.223474         6.0810 
  32   0.0000       0.225361         6.1324 
  33   0.0000       0.225371         6.1326 
  34   0.0000       0.225433         6.1344 
  35   0.0000       0.261671         7.1204 
  36   0.0000       0.261675         7.1205 
  37   0.0000       0.267811         7.2875 
  38   0.0000       0.267823         7.2878 
  39   0.0000       0.272246         7.4082 
  40   0.0000       0.272261         7.4086 
  41   0.0000       0.336620         9.1599 
  42   0.0000       0.336627         9.1601 
  43   0.0000       0.337328         9.1792 
  44   0.0000       0.348531         9.4840 
  45   0.0000       0.348539         9.4842 
  46   0.0000       0.408257        11.1092 
  47   0.0000       0.430963        11.7271 
  48   0.0000       0.485236        13.2039 
  49   0.0000       0.485251        13.2043 
  50   0.0000       0.486764        13.2455 
  51   0.0000       0.508056        13.8249 
  52   0.0000       0.508065        13.8251 
  53   0.0000       0.554683        15.0937 
  54   0.0000       0.554695        15.0940 
  55   0.0000       0.573746        15.6124 
  56   0.0000       0.573768        15.6130 
  57   0.0000       0.611541        16.6409 
  58   0.0000       0.672933        18.3114 
  59   0.0000       0.697820        18.9886 
  60   0.0000       1.045053        28.4373 
  61   0.0000       1.081765        29.4363 
  62   0.0000       1.081778        29.4367 
  63   0.0000       1.105970        30.0950 
  64   0.0000       1.169726        31.8299 
  65   0.0000       1.169732        31.8300 
  66   0.0000       1.217301        33.1245 
  67   0.0000       1.225681        33.3525 
  68   0.0000       1.234728        33.5987 
  69   0.0000       1.245227        33.8843 
  70   0.0000       1.336121        36.3577 
  71   0.0000       1.350565        36.7508 
  72   0.0000       1.350567        36.7508 
  73   0.0000       1.377625        37.4871 
  74   0.0000       1.377626        37.4871 
  75   0.0000       1.434140        39.0249 
  76   0.0000       1.436784        39.0969 
  77   0.0000       1.436796        39.0972 
  78   0.0000       1.437700        39.1218 
  79   0.0000       1.437716        39.1222 
  80   0.0000       1.481492        40.3134 
  81   0.0000       1.481492        40.3134 
  82   0.0000       1.500720        40.8367 
  83   0.0000       1.500723        40.8367 
  84   0.0000       1.507260        41.0146 
  85   0.0000       1.507273        41.0150 
  86   0.0000       1.547151        42.1001 
  87   0.0000       1.574118        42.8339 
  88   0.0000       1.574119        42.8340 
  89   0.0000       1.595807        43.4241 
  90   0.0000       1.595820        43.4245 
  91   0.0000       1.611951        43.8634 
  92   0.0000       1.740125        47.3512 
  93   0.0000       1.779181        48.4140 
  94   0.0000       1.969292        53.5872 
  95   0.0000       1.969301        53.5874 
  96   0.0000       2.022409        55.0326 
  97   0.0000       2.022413        55.0327 
  98   0.0000       2.061669        56.1009 
  99   0.0000       2.061669        56.1009 
 100   0.0000       2.095307        57.0162 
 101   0.0000       2.108105        57.3645 
 102   0.0000       2.154359        58.6231 
 103   0.0000       2.238844        60.9220 
 104   0.0000       2.238854        60.9223 
 105   0.0000       2.245329        61.0985 
 106   0.0000       2.279509        62.0286 
 107   0.0000       2.287649        62.2501 
 108   0.0000       2.287650        62.2501 
 109   0.0000       2.303171        62.6725 
 110   0.0000       2.303175        62.6726 
 111   0.0000       2.342519        63.7432 
 112   0.0000       2.342520        63.7432 
 113   0.0000       2.362130        64.2768 
 114   0.0000       2.362132        64.2769 
 115   0.0000       2.362558        64.2885 
 116   0.0000       2.525858        68.7321 
 117   0.0000       2.525860        68.7321 
 118   0.0000       2.685020        73.0631 
 119   0.0000       2.729260        74.2669 
 120   0.0000       2.729260        74.2669 
 121   0.0000       2.752430        74.8974 
 122   0.0000       2.819003        76.7090 
 123   0.0000       2.819012        76.7092 
 124   0.0000       2.905740        79.0692 
 125   0.0000       3.054953        83.1295 
 126   0.0000       3.131562        85.2141 
 127   0.0000       3.131578        85.2146 
 128   0.0000       3.193348        86.8954 
 129   0.0000       3.193353        86.8955 
 130   0.0000       3.203231        87.1644 
 131   0.0000       3.271832        89.0311 
 132   0.0000       3.271834        89.0311 
 133   0.0000       3.409401        92.7745 
 134   0.0000       3.564071        96.9833 
 135   0.0000       3.605980        98.1237 
 136   0.0000       3.605980        98.1237 
 137   0.0000       4.105069       111.7046 
 138   0.0000      21.326419       580.3214 
 139   0.0000      21.912555       596.2709 
 140   0.0000      21.912556       596.2710 
 141   0.0000      22.142825       602.5369 
 142   0.0000      22.142827       602.5369 
 143   0.0000      22.291375       606.5791 
Total SCF time: 0 days 0 hours 0 min 2 sec 

Maximum memory used throughout the entire SCF-calculation: 15.5 MB


-------------------------------------------------------------------------------
                          DFT DISPERSION CORRECTION                            
                                                                               
                                 DFTD4 V2.5                                    
-------------------------------------------------------------------------------
Starting D4
-------------------------   ----------------
Dispersion correction           -0.003306124
-------------------------   ----------------

------------------   -----------------
gCP correction             0.002362862
------------------   -----------------

-------------------------   --------------------
FINAL SINGLE POINT ENERGY      -232.183042660828
-------------------------   --------------------



           ************************************************************
           *        Program running with 8 parallel MPI-processes     *
           *              working on a common directory               *
           ************************************************************
------------------------------------------------------------------------------
                         ORCA SCF GRADIENT CALCULATION
------------------------------------------------------------------------------

Gradient of the Kohn-Sham DFT energy:
Kohn-Sham wavefunction type      ... RKS
Hartree-Fock exchange scaling    ...    0.000
Number of operators              ...    1
Number of atoms                  ...   12
Basis set dimensions             ...  144
Integral neglect threshold       ... 2.5e-11
Integral primitive cutoff        ... 2.5e-12
SHARK Integral package           ... ON

Nuc. rep. gradient       (SHARK) ... done (  0.0 sec)
HCore & Overlap gradient (SHARK) ... done (  0.0 sec)
RI-J gradient            (SHARK) ... done (  0.1 sec)
Exchange-correlation gradient    ... done
Dispersion correction            ... 
Starting D4
Starting D4
Starting D4
Starting D4


------------------- 
Dispersion Gradient 
------------------- 
   1  :   -0.000000000    0.000050613    0.000000000
   2  :    0.000043832    0.000025306    0.000000000
   3  :    0.000043832   -0.000025306    0.000000000
   4  :    0.000000000   -0.000050613    0.000000000
   5  :   -0.000043832   -0.000025306    0.000000000
   6  :   -0.000043832    0.000025306    0.000000000
   7  :   -0.000000000    0.000034982    0.000000000
   8  :    0.000030295    0.000017491    0.000000000
   9  :    0.000030295   -0.000017491    0.000000000
  10  :    0.000000000   -0.000034982    0.000000000
  11  :   -0.000030295   -0.000017491    0.000000000
  12  :   -0.000030295    0.000017491    0.000000000

  |G| =    0.000638886

Starting D4
Starting D4
Starting D4
Starting D4
done
gCP correction                   ... done

------------------
CARTESIAN GRADIENT
------------------

   1   C   :   -0.000000002    0.003568269    0.000000000
   2   C   :    0.003102656    0.001759112   -0.000000000
   3   C   :    0.003102656   -0.001759117    0.000000000
   4   C   :    0.000000004   -0.003568273    0.000000000
   5   C   :   -0.003102655   -0.001759111   -0.000000000
   6   C   :   -0.003102660    0.001759120    0.000000000
   7   H   :    0.000000001    0.000534496   -0.000000000
   8   H   :    0.000456884    0.000260119   -0.000000000
   9   H   :    0.000456886   -0.000260117   -0.000000000
  10   H   :    0.000000002   -0.000534496    0.000000000
  11   H   :   -0.000456889   -0.000260116    0.000000000
  12   H   :   -0.000456882    0.000260114    0.000000000

Difference to translation invariance:
           :   -0.0000000000    0.0000000000    0.0000000000

Difference to rotation invariance:
           :   -0.0000000029    0.0000000032   -0.0000000050

Norm of the cartesian gradient     ...    0.0088332305
RMS gradient                       ...    0.0014722051
MAX gradient                       ...    0.0035682731

-------
TIMINGS
-------

Total SCF gradient time            ...        0.936 sec

One electron gradient       ....       0.031 sec  (  3.3%)
RI-J Coulomb gradient       ....       0.118 sec  ( 12.6%)
XC gradient                 ....       0.578 sec  ( 61.8%)

Maximum memory used throughout the entire SCFGRAD-calculation: 26.8 MB
------------------------------------------------------------------------------
                         ORCA GEOMETRY RELAXATION STEP
------------------------------------------------------------------------------

Reading the OPT-File                    .... done
Getting information on internals        .... done
Copying old internal coords+grads       .... done
Making the new internal coordinates     .... (new redundants).... done
Validating the new internal coordinates .... (new redundants).... done
Calculating the B-matrix                .... done
Calculating the G,G- and P matrices     .... done
Transforming gradient to internals      .... done
Projecting the internal gradient        .... done
Number of atoms                         ....  12
Number of internal coordinates          ....  54
Current Energy                          ....  -232.183042661 Eh
Current gradient norm                   ....     0.008833230 Eh/bohr
Maximum allowed component of the step   ....  0.300
Current trust radius                    ....  0.300
Evaluating the initial hessian          ....  (Almloef) done
Projecting the Hessian                  .... done
Forming the augmented Hessian           .... done
Diagonalizing the augmented Hessian     .... done
Last element of RFO vector              ....  0.999858446
Lowest eigenvalues of augmented Hessian:
 -0.000169618  0.025681332  0.025681332  0.025681332  0.025681332
Length of the computed step             ....  0.016827574
The final length of the internal step   ....  0.016827574
Converting the step to cartesian space:
 Initial RMS(Int)=    0.0022899427
Transforming coordinates:
 Iter   0:  RMS(Cart)=    0.0043161248 RMS(Int)=    2.0943963532
 Iter   1:  RMS(Cart)=    0.0000000089 RMS(Int)=    0.0000000055
done
Storing new coordinates                 .... done

                                .--------------------.
          ----------------------|Geometry convergence|-------------------------
          Item                value                   Tolerance       Converged
          ---------------------------------------------------------------------
          RMS gradient        0.0013765959            0.0001000000      NO
          MAX gradient        0.0041083514            0.0003000000      NO
          RMS step            0.0022899427            0.0020000000      NO
          MAX step            0.0067353050            0.0040000000      NO
          ........................................................
          Max(Bonds)      0.0036      Max(Angles)    0.00
          Max(Dihed)        0.00      Max(Improp)    0.00
          ---------------------------------------------------------------------

The optimization has not yet converged - more geometry cycles are needed


    ---------------------------------------------------------------------------
                         Redundant Internal Coordinates
                            (Angstroem and degrees)

        Definition                    Value    dE/dq     Step     New-Value
    ----------------------------------------------------------------------------
     1. B(C   1,C   0)                1.3966  0.004108 -0.0036    1.3930   
     2. B(C   2,C   1)                1.3966  0.004071 -0.0035    1.3931   
     3. B(C   3,C   2)                1.3966  0.004108 -0.0036    1.3930   
     4. B(C   4,C   3)                1.3966  0.004108 -0.0036    1.3930   
     5. B(C   5,C   4)                1.3966  0.004071 -0.0035    1.3931   
     6. B(C   5,C   0)                1.3966  0.004108 -0.0036    1.3930   
     7. B(H   6,C   0)                1.0870  0.000534 -0.0008    1.0862   
     8. B(H   7,C   1)                1.0870  0.000526 -0.0008    1.0863   
     9. B(H   8,C   2)                1.0870  0.000526 -0.0008    1.0863   
    10. B(H   9,C   3)                1.0870  0.000534 -0.0008    1.0862   
    11. B(H  10,C   4)                1.0870  0.000526 -0.0008    1.0863   
    12. B(H  11,C   5)                1.0870  0.000526 -0.0008    1.0863   
    13. A(C   1,C   0,C   5)          120.00  0.000002   -0.00    120.00   
    14. A(C   1,C   0,H   6)          120.00 -0.000001    0.00    120.00   
    15. A(C   5,C   0,H   6)          120.00 -0.000001    0.00    120.00   
    16. A(C   2,C   1,H   7)          120.00 -0.000003    0.00    120.00   
    17. A(C   0,C   1,C   2)          120.00 -0.000001    0.00    120.00   
    18. A(C   0,C   1,H   7)          120.00  0.000004   -0.00    120.00   
    19. A(C   3,C   2,H   8)          120.00  0.000004   -0.00    120.00   
    20. A(C   1,C   2,H   8)          120.00 -0.000003    0.00    120.00   
    21. A(C   1,C   2,C   3)          120.00 -0.000001    0.00    120.00   
    22. A(C   4,C   3,H   9)          120.00 -0.000001    0.00    120.00   
    23. A(C   2,C   3,H   9)          120.00 -0.000001    0.00    120.00   
    24. A(C   2,C   3,C   4)          120.00  0.000002   -0.00    120.00   
    25. A(C   3,C   4,H  10)          120.00  0.000004   -0.00    120.00   
    26. A(C   3,C   4,C   5)          120.00 -0.000001    0.00    120.00   
    27. A(C   5,C   4,H  10)          120.00 -0.000003    0.00    120.00   
    28. A(C   0,C   5,C   4)          120.00 -0.000001    0.00    120.00   
    29. A(C   4,C   5,H  11)          120.00 -0.000003    0.00    120.00   
    30. A(C   0,C   5,H  11)          120.00  0.000004   -0.00    120.00   
    31. D(H   7,C   1,C   0,C   5)    180.00 -0.000000    0.00    180.00   
    32. D(H   7,C   1,C   0,H   6)      0.00 -0.000000    0.00      0.00   
    33. D(C   2,C   1,C   0,H   6)    180.00 -0.000000    0.00    180.00   
    34. D(C   2,C   1,C   0,C   5)      0.00 -0.000000    0.00      0.00   
    35. D(H   8,C   2,C   1,C   0)    180.00 -0.000000    0.00    180.00   
    36. D(C   3,C   2,C   1,C   0)      0.00  0.000000   -0.00     -0.00   
    37. D(C   3,C   2,C   1,H   7)    180.00  0.000000   -0.00    180.00   
    38. D(H   8,C   2,C   1,H   7)      0.00 -0.000000    0.00      0.00   
    39. D(H   9,C   3,C   2,H   8)      0.00  0.000000   -0.00     -0.00   
    40. D(H   9,C   3,C   2,C   1)    180.00  0.000000   -0.00    180.00   
    41. D(C   4,C   3,C   2,H   8)    180.00  0.000000   -0.00    180.00   
    42. D(C   4,C   3,C   2,C   1)      0.00  0.000000   -0.00     -0.00   
    43. D(H  10,C   4,C   3,C   2)    180.00 -0.000000    0.00    180.00   
    44. D(C   5,C   4,C   3,H   9)    180.00 -0.000000    0.00    180.00   
    45. D(C   5,C   4,C   3,C   2)      0.00 -0.000000    0.00      0.00   
    46. D(H  10,C   4,C   3,H   9)      0.00 -0.000000    0.00      0.00   
    47. D(H  11,C   5,C   4,H  10)      0.00  0.000000   -0.00     -0.00   
    48. D(C   0,C   5,C   4,H  10)    180.00  0.000000   -0.00    180.00   
    49. D(C   0,C   5,C   4,C   3)      0.00  0.000000   -0.00     -0.00   
    50. D(H  11,C   5,C   0,H   6)      0.00 -0.000000    0.00      0.00   
    51. D(H  11,C   5,C   0,C   1)    180.00  0.000000   -0.00    180.00   
    52. D(H  11,C   5,C   4,C   3)    180.00  0.000000   -0.00    180.00   
    53. D(C   4,C   5,C   0,H   6)    180.00 -0.000000    0.00    180.00   
    54. D(C   4,C   5,C   0,C   1)      0.00  0.000000   -0.00     -0.00   
    ----------------------------------------------------------------------------

         *************************************************************
         *                GEOMETRY OPTIMIZATION CYCLE   2            *
         *************************************************************
---------------------------------
CARTESIAN COORDINATES (ANGSTROEM)
---------------------------------
  C      0.000000    1.393068   -0.000000
  C      1.206413    0.696540    0.000000
  C      1.206413   -0.696540    0.000000
  C     -0.000000   -1.393068   -0.000000
  C     -1.206413   -0.696540    0.000000
  C     -1.206413    0.696540   -0.000000
  H     -0.000000    2.479307   -0.000000
  H      2.147131    1.239674    0.000000
  H      2.147131   -1.239674    0.000000
  H     -0.000000   -2.479307   -0.000000
  H     -2.147131   -1.239674    0.000000
  H     -2.147131    1.239674    0.000000

----------------------------
CARTESIAN COORDINATES (A.U.)
----------------------------
  NO LB      ZA    FRAG     MASS         X           Y           Z
   0 C     6.0000    0    12.011    0.000000    2.632516   -0.000000
   1 C     6.0000    0    12.011    2.279790    1.316270    0.000000
   2 C     6.0000    0    12.011    2.279790   -1.316270    0.000000
   3 C     6.0000    0    12.011   -0.000000   -2.632516   -0.000000
   4 C     6.0000    0    12.011   -2.279790   -1.316270    0.000000
   5 C     6.0000    0    12.011   -2.279790    1.316270   -0.000000
   6 H     1.0000    0     1.008   -0.000000    4.685212   -0.000000
   7 H     1.0000    0     1.008    4.057489    2.342644    0.000000
   8 H     1.0000    0     1.008    4.057489   -2.342644    0.000000
   9 H     1.0000    0     1.008   -0.000000   -4.685212   -0.000000
  10 H     1.0000    0     1.008   -4.057489   -2.342644    0.000000
  11 H     1.0000    0     1.008   -4.057489    2.342644    0.000000

--------------------------------
INTERNAL COORDINATES (ANGSTROEM)
--------------------------------
 C      0   0   0     0.000000000000     0.00000000     0.00000000
 C      1   0   0     1.393047826371     0.00000000     0.00000000
 C      2   1   0     1.393080557585   120.00016456     0.00000000
 C      3   2   1     1.393047822288   120.00016467     0.00000000
 C      4   3   2     1.393047820353   119.99967086     0.00000000
 C      1   2   3     1.393047823753   119.99967062     0.00000000
 H      1   2   3     1.086239557994   120.00016508   180.00000000
 H      2   1   3     1.086252293176   119.99938825   180.00000000
 H      3   2   1     1.086252287319   120.00044703   180.00000085
 H      4   3   2     1.086239558136   120.00016469   180.00000000
 H      5   4   3     1.086252288509   119.99938735   180.00000000
 H      6   1   2     1.086252294395   119.99938822   180.00000000

---------------------------
INTERNAL COORDINATES (A.U.)
---------------------------
 C      0   0   0     0.000000000000     0.00000000     0.00000000
 C      1   0   0     2.632478883296     0.00000000     0.00000000
 C      2   1   0     2.632540736326   120.00016456     0.00000000
 C      3   2   1     2.632478875580   120.00016467     0.00000000
 C      4   3   2     2.632478871923   119.99967086     0.00000000
 C      1   2   3     2.632478878348   119.99967062     0.00000000
 H      1   2   3     2.052695280441   120.00016508   180.00000000
 H      2   1   3     2.052719346447   119.99938825   180.00000000
 H      3   2   1     2.052719335379   120.00044703   180.00000085
 H      4   3   2     2.052695280708   120.00016469   180.00000000
 H      5   4   3     2.052719337628   119.99938735   180.00000000
 H      6   1   2     2.052719348750   119.99938822   180.00000000



           ************************************************************
           *        Program running with 8 parallel MPI-processes     *
           *              working on a common directory               *
           ************************************************************
------------------------------------------------------------------------------
                   ___                                                        
                  /   \      - P O W E R E D   B Y -                         
                 /     \                                                     
                 |  |  |   _    _      __       _____    __    __             
                 |  |  |  | |  | |    /  \     |  _  \  |  |  /  |          
                  \  \/   | |  | |   /    \    | | | |  |  | /  /          
                 / \  \   | |__| |  /  /\  \   | |_| |  |  |/  /          
                |  |  |   |  __  | /  /__\  \  |    /   |      \           
                |  |  |   | |  | | |   __   |  |    \   |  |\   \          
                \     /   | |  | | |  |  |  |  | |\  \  |  | \   \       
                 \___/    |_|  |_| |__|  |__|  |_| \__\ |__|  \__/        
                                                                              
                      - O R C A' S   B I G   F R I E N D -                    
                                      &                                       
                       - I N T E G R A L  F E E D E R -                       
                                                                              
 v1 FN, 2020, v2 2021                                                         
------------------------------------------------------------------------------


Reading SHARK input file freq.SHARKINP.tmp ... ok
----------------------
SHARK INTEGRAL PACKAGE
----------------------

Number of atoms                             ...     12
Number of basis functions                   ...    144
Number of shells                            ...     72
Maximum angular momentum                    ...      2
Integral batch strategy                     ... SHARK/LIBINT Hybrid
RI-J (if used) integral strategy            ... SPLIT-RIJ (Revised 2003 algorithm where possible)
Printlevel                                  ...      1
Contraction scheme used                     ... SEGMENTED contraction
Coulomb Range Separation                    ... NOT USED
Exchange Range Separation                   ... NOT USED
Finite Nucleus Model                        ... NOT USED
Auxiliary Coulomb fitting basis             ... AVAILABLE
   # of basis functions in Aux-J            ...    246
   # of shells in Aux-J                     ...    102
   Maximum angular momentum in Aux-J        ...      2
Auxiliary J/K fitting basis                 ... NOT available
Auxiliary Correlation fitting basis         ... NOT available
Auxiliary 'external' fitting basis          ... NOT available
Integral threshold                          ...     2.500000e-11
Primitive cut-off                           ...     2.500000e-12
Primitive pair pre-selection threshold      ...     2.500000e-12

Calculating pre-screening integrals         ... done (  0.0 sec) Dimension = 72
Organizing shell pair data                  ... done (  0.0 sec)
Shell pair information
Total number of shell pairs                 ...      2628
Shell pairs after pre-screening             ...      2520
Total number of primitive shell pairs       ...      9741
Primitive shell pairs kept                  ...      7092
          la=0 lb=0:    846 shell pairs
          la=1 lb=0:    966 shell pairs
          la=1 lb=1:    291 shell pairs
          la=2 lb=0:    252 shell pairs
          la=2 lb=1:    144 shell pairs
          la=2 lb=2:     21 shell pairs

Calculating one electron integrals          ... done (  0.0 sec)
Calculating RI/J V-Matrix + Cholesky decomp.... done (  0.0 sec)
Calculating Nuclear repulsion               ... done (  0.0 sec) ENN=    203.648847165438 Eh

SHARK setup successfully completed in   0.1 seconds

Maximum memory used throughout the entire GTOINT-calculation: 7.7 MB


           ************************************************************
           *        Program running with 8 parallel MPI-processes     *
           *              working on a common directory               *
           ************************************************************

Diagonalization of the overlap matrix:
Smallest eigenvalue                        ... 4.184e-05
Time for diagonalization                   ...    0.003 sec
Threshold for overlap eigenvalues          ... 1.000e-08
Number of eigenvalues below threshold      ... 0
Time for construction of square roots      ...    0.003 sec
Total time needed                          ...    0.006 sec

-------------------
DFT GRID GENERATION
-------------------

General Integration Accuracy     IntAcc      ... 4.388
Radial Grid Type                 RadialGrid  ... OptM3 with GC (2021)
Angular Grid (max. ang.)         AngularGrid ... 4 (Lebedev-302)
Angular grid pruning method      GridPruning ... 4 (adaptive)
Weight generation scheme         WeightScheme... Becke
Basis function cutoff            BFCut       ... 1.0000e-11
Integration weight cutoff        WCut        ... 1.0000e-14
Angular grids for H and He will be reduced by one unit
Partially contracted basis set               ... off
Rotationally invariant grid construction     ... off

Total number of grid points                  ...    55526
Total number of batches                      ...      874
Average number of points per batch           ...       63
Average number of grid points per atom       ...     4627
Time for grid setup =    0.231 sec

--------------
SCF ITERATIONS
--------------
ITER       Energy         Delta-E        Max-DP      RMS-DP      [F,P]     Damp
               ***  Starting incremental Fock matrix formation  ***
                      *** Initiating the SOSCF procedure ***
                      *** Re-Reading the Fockian *** 
                      *** Removing any level shift *** 
ITER      Energy       Delta-E        Grad      Rot      Max-DP    RMS-DP
  0   -232.18219270 -232.1821927015  0.000973  0.000973  0.000875  0.000050
               *** Restarting incremental Fock matrix formation ***
  1   -232.18220745  -0.0000147458  0.000319  0.000527  0.000599  0.000039
  2   -232.18220679   0.0000006559  0.000369  0.000284  0.000219  0.000014
  3   -232.18220944  -0.0000026473  0.000007  0.000010  0.000016  0.000001
  4   -232.18220944  -0.0000000011  0.000003  0.000003  0.000005  0.000000
                 **** Energy Check signals convergence ****
              ***Rediagonalizing the Fockian in SOSCF/NRSCF***

               *****************************************************
               *                     SUCCESS                       *
               *           SCF CONVERGED AFTER   5 CYCLES          *
               *****************************************************

Total Energy       :         -232.18220944 Eh           -6317.99912 eV
  Last Energy change         ...    3.1375e-10  Tolerance :   1.0000e-08
  Last MAX-Density change    ...    6.1633e-06  Tolerance :   1.0000e-07
             **** THE GBW FILE WAS UPDATED (freq.gbw) ****
             **** DENSITY freq.scfp WAS UPDATED ****
             **** ENERGY FILE WAS UPDATED (freq.en.tmp) ****
             **** THE GBW FILE WAS UPDATED (freq.gbw) ****
             **** DENSITY freq.scfp WAS UPDATED ****
Total SCF time: 0 days 0 hours 0 min 1 sec 

Maximum memory used throughout the entire SCF-calculation: 15.6 MB


-------------------------------------------------------------------------------
                          DFT DISPERSION CORRECTION                            
                                                                               
                                 DFTD4 V2.5                                    
-------------------------------------------------------------------------------
Starting D4
-------------------------   ----------------
Dispersion correction           -0.003309781
-------------------------   ----------------

------------------   -----------------
gCP correction             0.002377617
------------------   -----------------

-------------------------   --------------------
FINAL SINGLE POINT ENERGY      -232.183141604269
-------------------------   --------------------



           ************************************************************
           *        Program running with 8 parallel MPI-processes     *
           *              working on a common directory               *
           ************************************************************
------------------------------------------------------------------------------
                         ORCA SCF GRADIENT CALCULATION
------------------------------------------------------------------------------

Gradient of the Kohn-Sham DFT energy:
Kohn-Sham wavefunction type      ... RKS
Hartree-Fock exchange scaling    ...    0.000
Number of operators              ...    1
Number of atoms                  ...   12
Basis set dimensions             ...  144
Integral neglect threshold       ... 2.5e-11
Integral primitive cutoff        ... 2.5e-12
SHARK Integral package           ... ON

Nuc. rep. gradient       (SHARK) ... done (  0.0 sec)
HCore & Overlap gradient (SHARK) ... done (  0.0 sec)
RI-J gradient            (SHARK) ... done (  0.1 sec)
Exchange-correlation gradient    ... done
Dispersion correction            ... 
Starting D4
Starting D4
Starting D4


------------------- 
Dispersion Gradient 
------------------- 
   1  :    0.000000000    0.000050445   -0.000000000
   2  :    0.000043686    0.000025223    0.000000000
   3  :    0.000043686   -0.000025223    0.000000000
   4  :   -0.000000000   -0.000050445   -0.000000000
   5  :   -0.000043686   -0.000025223    0.000000000
   6  :   -0.000043686    0.000025223   -0.000000000
   7  :   -0.000000000    0.000034946   -0.000000000
   8  :    0.000030264    0.000017474    0.000000000
   9  :    0.000030264   -0.000017474    0.000000000
  10  :   -0.000000000   -0.000034946   -0.000000000
  11  :   -0.000030264   -0.000017474    0.000000000
  12  :   -0.000030264    0.000017474    0.000000000

  |G| =    0.000637368

Starting D4
Starting D4
Starting D4
Starting D4
Starting D4
done
gCP correction                   ... done

------------------
CARTESIAN GRADIENT
------------------

   1   C   :   -0.000000001    0.000766161   -0.000000000
   2   C   :    0.000666396    0.000376829    0.000000000
   3   C   :    0.000666397   -0.000376832   -0.000000000
   4   C   :   -0.000000002   -0.000766159    0.000000000
   5   C   :   -0.000666394   -0.000376831    0.000000000
   6   C   :   -0.000666395    0.000376832   -0.000000000
   7   H   :    0.000000001   -0.000057140   -0.000000000
   8   H   :   -0.000049585   -0.000029634   -0.000000000
   9   H   :   -0.000049584    0.000029637    0.000000000
  10   H   :    0.000000000    0.000057138   -0.000000000
  11   H   :    0.000049583    0.000029637    0.000000000
  12   H   :    0.000049583   -0.000029638    0.000000000

Difference to translation invariance:
           :   -0.0000000000    0.0000000000   -0.0000000000

Difference to rotation invariance:
           :   -0.0000000018    0.0000000014    0.0000000012

Norm of the cartesian gradient     ...    0.0018810155
RMS gradient                       ...    0.0003135026
MAX gradient                       ...    0.0007661614

-------
TIMINGS
-------

Total SCF gradient time            ...        0.930 sec

One electron gradient       ....       0.028 sec  (  3.0%)
RI-J Coulomb gradient       ....       0.120 sec  ( 12.9%)
XC gradient                 ....       0.549 sec  ( 59.0%)

Maximum memory used throughout the entire SCFGRAD-calculation: 26.8 MB
------------------------------------------------------------------------------
                         ORCA GEOMETRY RELAXATION STEP
------------------------------------------------------------------------------

Reading the OPT-File                    .... done
Getting information on internals        .... done
Copying old internal coords+grads       .... done
Making the new internal coordinates     .... (new redundants).... done
Validating the new internal coordinates .... (new redundants).... done
Calculating the B-matrix                .... done
Calculating the G,G- and P matrices     .... done
Transforming gradient to internals      .... done
Projecting the internal gradient        .... done
Number of atoms                         ....  12
Number of internal coordinates          ....  54
Current Energy                          ....  -232.183141604 Eh
Current gradient norm                   ....     0.001881015 Eh/bohr
Maximum allowed component of the step   ....  0.300
Current trust radius                    ....  0.300
Updating the Hessian (BFGS)             .... done
Forming the augmented Hessian           .... done
Diagonalizing the augmented Hessian     .... done
Last element of RFO vector              ....  0.999993923
Lowest eigenvalues of augmented Hessian:
 -0.000006060  0.025681332  0.025681332  0.025681332  0.025681332
Length of the computed step             ....  0.003486188
The final length of the internal step   ....  0.003486188
Converting the step to cartesian space:
 Initial RMS(Int)=    0.0004744101
Transforming coordinates:
 Iter   0:  RMS(Cart)=    0.0007631541 RMS(Int)=    2.2622053102
 Iter   1:  RMS(Cart)=    0.0000000009 RMS(Int)=    0.0000000006
done
Storing new coordinates                 .... done

                                .--------------------.
          ----------------------|Geometry convergence|-------------------------
          Item                value                   Tolerance       Converged
          ---------------------------------------------------------------------
          Energy change      -0.0000989434            0.0000050000      NO
          RMS gradient        0.0002368465            0.0001000000      NO
          MAX gradient        0.0007114312            0.0003000000      NO
          RMS step            0.0004744101            0.0020000000      YES
          MAX step            0.0014175315            0.0040000000      YES
          ........................................................
          Max(Bonds)      0.0008      Max(Angles)    0.00
          Max(Dihed)        0.00      Max(Improp)    0.00
          ---------------------------------------------------------------------

The optimization has not yet converged - more geometry cycles are needed


    ---------------------------------------------------------------------------
                         Redundant Internal Coordinates
                            (Angstroem and degrees)

        Definition                    Value    dE/dq     Step     New-Value
    ----------------------------------------------------------------------------
     1. B(C   1,C   0)                1.3930  0.000711 -0.0008    1.3923   
     2. B(C   2,C   1)                1.3931  0.000702 -0.0007    1.3923   
     3. B(C   3,C   2)                1.3930  0.000711 -0.0008    1.3923   
     4. B(C   4,C   3)                1.3930  0.000711 -0.0008    1.3923   
     5. B(C   5,C   4)                1.3931  0.000702 -0.0007    1.3923   
     6. B(C   5,C   0)                1.3930  0.000711 -0.0008    1.3923   
     7. B(H   6,C   0)                1.0862 -0.000057  0.0001    1.0863   
     8. B(H   7,C   1)                1.0863 -0.000058  0.0001    1.0864   
     9. B(H   8,C   2)                1.0863 -0.000058  0.0001    1.0864   
    10. B(H   9,C   3)                1.0862 -0.000057  0.0001    1.0863   
    11. B(H  10,C   4)                1.0863 -0.000058  0.0001    1.0864   
    12. B(H  11,C   5)                1.0863 -0.000058  0.0001    1.0864   
    13. A(C   1,C   0,C   5)          120.00  0.000001   -0.00    120.00   
    14. A(C   1,C   0,H   6)          120.00 -0.000001    0.00    120.00   
    15. A(C   5,C   0,H   6)          120.00 -0.000001    0.00    120.00   
    16. A(C   2,C   1,H   7)          120.00 -0.000001    0.00    120.00   
    17. A(C   0,C   1,C   2)          120.00 -0.000001    0.00    120.00   
    18. A(C   0,C   1,H   7)          120.00  0.000001   -0.00    120.00   
    19. A(C   3,C   2,H   8)          120.00  0.000001   -0.00    120.00   
    20. A(C   1,C   2,H   8)          120.00 -0.000001    0.00    120.00   
    21. A(C   1,C   2,C   3)          120.00 -0.000001    0.00    120.00   
    22. A(C   4,C   3,H   9)          120.00 -0.000001    0.00    120.00   
    23. A(C   2,C   3,H   9)          120.00 -0.000001    0.00    120.00   
    24. A(C   2,C   3,C   4)          120.00  0.000001   -0.00    120.00   
    25. A(C   3,C   4,H  10)          120.00  0.000001   -0.00    120.00   
    26. A(C   3,C   4,C   5)          120.00 -0.000001    0.00    120.00   
    27. A(C   5,C   4,H  10)          120.00 -0.000001    0.00    120.00   
    28. A(C   0,C   5,C   4)          120.00 -0.000001    0.00    120.00   
    29. A(C   4,C   5,H  11)          120.00 -0.000001    0.00    120.00   
    30. A(C   0,C   5,H  11)          120.00  0.000001   -0.00    120.00   
    31. D(H   7,C   1,C   0,C   5)   -180.00  0.000000   -0.00   -180.00   
    32. D(H   7,C   1,C   0,H   6)      0.00 -0.000000    0.00      0.00   
    33. D(C   2,C   1,C   0,H   6)   -180.00  0.000000   -0.00   -180.00   
    34. D(C   2,C   1,C   0,C   5)      0.00  0.000000   -0.00     -0.00   
    35. D(H   8,C   2,C   1,C   0)   -180.00  0.000000   -0.00   -180.00   
    36. D(C   3,C   2,C   1,C   0)     -0.00  0.000000   -0.00     -0.00   
    37. D(C   3,C   2,C   1,H   7)    180.00  0.000000   -0.00    180.00   
    38. D(H   8,C   2,C   1,H   7)      0.00  0.000000   -0.00     -0.00   
    39. D(H   9,C   3,C   2,H   8)     -0.00 -0.000000    0.00      0.00   
    40. D(H   9,C   3,C   2,C   1)    180.00 -0.000000    0.00    180.00   
    41. D(C   4,C   3,C   2,H   8)    180.00 -0.000000    0.00    180.00   
    42. D(C   4,C   3,C   2,C   1)     -0.00 -0.000000    0.00      0.00   
    43. D(H  10,C   4,C   3,C   2)   -180.00  0.000000   -0.00   -180.00   
    44. D(C   5,C   4,C   3,H   9)   -180.00  0.000000   -0.00   -180.00   
    45. D(C   5,C   4,C   3,C   2)      0.00  0.000000   -0.00     -0.00   
    46. D(H  10,C   4,C   3,H   9)      0.00  0.000000   -0.00     -0.00   
    47. D(H  11,C   5,C   4,H  10)     -0.00  0.000000   -0.00     -0.00   
    48. D(C   0,C   5,C   4,H  10)    180.00  0.000000   -0.00    180.00   
    49. D(C   0,C   5,C   4,C   3)     -0.00 -0.000000    0.00     -0.00   
    50. D(H  11,C   5,C   0,H   6)      0.00 -0.000000    0.00      0.00   
    51. D(H  11,C   5,C   0,C   1)    180.00 -0.000000    0.00    180.00   
    52. D(H  11,C   5,C   4,C   3)    180.00 -0.000000    0.00    180.00   
    53. D(C   4,C   5,C   0,H   6)   -180.00 -0.000000    0.00   -180.00   
    54. D(C   4,C   5,C   0,C   1)     -0.00 -0.000000    0.00      0.00   
    ----------------------------------------------------------------------------

         *************************************************************
         *                GEOMETRY OPTIMIZATION CYCLE   3            *
         *************************************************************
---------------------------------
CARTESIAN COORDINATES (ANGSTROEM)
---------------------------------
  C      0.000000    1.392325    0.000000
  C      1.205762    0.696170   -0.000000
  C      1.205762   -0.696170   -0.000000
  C     -0.000000   -1.392325    0.000000
  C     -1.205762   -0.696170   -0.000000
  C     -1.205762    0.696170   -0.000000
  H     -0.000000    2.478662    0.000000
  H      2.146564    1.239355    0.000000
  H      2.146564   -1.239355   -0.000000
  H     -0.000000   -2.478662    0.000000
  H     -2.146564   -1.239355    0.000000
  H     -2.146564    1.239355   -0.000000

----------------------------
CARTESIAN COORDINATES (A.U.)
----------------------------
  NO LB      ZA    FRAG     MASS         X           Y           Z
   0 C     6.0000    0    12.011    0.000000    2.631113    0.000000
   1 C     6.0000    0    12.011    2.278560    1.315571   -0.000000
   2 C     6.0000    0    12.011    2.278560   -1.315571   -0.000000
   3 C     6.0000    0    12.011   -0.000000   -2.631113    0.000000
   4 C     6.0000    0    12.011   -2.278560   -1.315571   -0.000000
   5 C     6.0000    0    12.011   -2.278560    1.315571   -0.000000
   6 H     1.0000    0     1.008   -0.000000    4.683992    0.000000
   7 H     1.0000    0     1.008    4.056418    2.342042    0.000000
   8 H     1.0000    0     1.008    4.056418   -2.342042   -0.000000
   9 H     1.0000    0     1.008   -0.000000   -4.683992    0.000000
  10 H     1.0000    0     1.008   -4.056418   -2.342042    0.000000
  11 H     1.0000    0     1.008   -4.056418    2.342042   -0.000000

--------------------------------
INTERNAL COORDINATES (ANGSTROEM)
--------------------------------
 C      0   0   0     0.000000000000     0.00000000     0.00000000
 C      1   0   0     1.392297702532     0.00000000     0.00000000
 C      2   1   0     1.392340639444   120.00026920     0.00000000
 C      3   2   1     1.392297696942   120.00026961     0.00000000
 C      4   3   2     1.392297696475   119.99946134     0.00000000
 C      1   2   3     1.392297700183   119.99946111     0.00000000
 H      1   2   3     1.086336785458   120.00027006   180.00000000
 H      2   1   3     1.086350634836   119.99916030   180.00000085
 H      3   2   1     1.086350630365   120.00057070   180.00000000
 H      4   3   2     1.086336781638   120.00026948   180.00000000
 H      5   4   3     1.086350630038   119.99915876   179.99999915
 H      6   1   2     1.086350637156   119.99915939   180.00000085

---------------------------
INTERNAL COORDINATES (A.U.)
---------------------------
 C      0   0   0     0.000000000000     0.00000000     0.00000000
 C      1   0   0     2.631061354674     0.00000000     0.00000000
 C      2   1   0     2.631142493678   120.00026920     0.00000000
 C      3   2   1     2.631061344110   120.00026961     0.00000000
 C      4   3   2     2.631061343228   119.99946134     0.00000000
 C      1   2   3     2.631061350234   119.99946111     0.00000000
 H      1   2   3     2.052879013720   120.00027006   180.00000000
 H      2   1   3     2.052905185251   119.99916030   180.00000085
 H      3   2   1     2.052905176803   120.00057070   180.00000000
 H      4   3   2     2.052879006500   120.00026948   180.00000000
 H      5   4   3     2.052905176184   119.99915876   179.99999915
 H      6   1   2     2.052905189636   119.99915939   180.00000085



           ************************************************************
           *        Program running with 8 parallel MPI-processes     *
           *              working on a common directory               *
           ************************************************************
------------------------------------------------------------------------------
                   ___                                                        
                  /   \      - P O W E R E D   B Y -                         
                 /     \                                                     
                 |  |  |   _    _      __       _____    __    __             
                 |  |  |  | |  | |    /  \     |  _  \  |  |  /  |          
                  \  \/   | |  | |   /    \    | | | |  |  | /  /          
                 / \  \   | |__| |  /  /\  \   | |_| |  |  |/  /          
                |  |  |   |  __  | /  /__\  \  |    /   |      \           
                |  |  |   | |  | | |   __   |  |    \   |  |\   \          
                \     /   | |  | | |  |  |  |  | |\  \  |  | \   \       
                 \___/    |_|  |_| |__|  |__|  |_| \__\ |__|  \__/        
                                                                              
                      - O R C A' S   B I G   F R I E N D -                    
                                      &                                       
                       - I N T E G R A L  F E E D E R -                       
                                                                              
 v1 FN, 2020, v2 2021                                                         
------------------------------------------------------------------------------


Reading SHARK input file freq.SHARKINP.tmp ... ok
----------------------
SHARK INTEGRAL PACKAGE
----------------------

Number of atoms                             ...     12
Number of basis functions                   ...    144
Number of shells                            ...     72
Maximum angular momentum                    ...      2
Integral batch strategy                     ... SHARK/LIBINT Hybrid
RI-J (if used) integral strategy            ... SPLIT-RIJ (Revised 2003 algorithm where possible)
Printlevel                                  ...      1
Contraction scheme used                     ... SEGMENTED contraction
Coulomb Range Separation                    ... NOT USED
Exchange Range Separation                   ... NOT USED
Finite Nucleus Model                        ... NOT USED
Auxiliary Coulomb fitting basis             ... AVAILABLE
   # of basis functions in Aux-J            ...    246
   # of shells in Aux-J                     ...    102
   Maximum angular momentum in Aux-J        ...      2
Auxiliary J/K fitting basis                 ... NOT available
Auxiliary Correlation fitting basis         ... NOT available
Auxiliary 'external' fitting basis          ... NOT available
Integral threshold                          ...     2.500000e-11
Primitive cut-off                           ...     2.500000e-12
Primitive pair pre-selection threshold      ...     2.500000e-12

Calculating pre-screening integrals         ... done (  0.0 sec) Dimension = 72
Organizing shell pair data                  ... done (  0.0 sec)
Shell pair information
Total number of shell pairs                 ...      2628
Shell pairs after pre-screening             ...      2520
Total number of primitive shell pairs       ...      9741
Primitive shell pairs kept                  ...      7092
          la=0 lb=0:    846 shell pairs
          la=1 lb=0:    966 shell pairs
          la=1 lb=1:    291 shell pairs
          la=2 lb=0:    252 shell pairs
          la=2 lb=1:    144 shell pairs
          la=2 lb=2:     21 shell pairs

Calculating one electron integrals          ... done (  0.0 sec)
Calculating RI/J V-Matrix + Cholesky decomp.... done (  0.0 sec)
Calculating Nuclear repulsion               ... done (  0.0 sec) ENN=    203.738835367400 Eh

SHARK setup successfully completed in   0.1 seconds

Maximum memory used throughout the entire GTOINT-calculation: 7.7 MB


           ************************************************************
           *        Program running with 8 parallel MPI-processes     *
           *              working on a common directory               *
           ************************************************************

Diagonalization of the overlap matrix:
Smallest eigenvalue                        ... 4.163e-05
Time for diagonalization                   ...    0.002 sec
Threshold for overlap eigenvalues          ... 1.000e-08
Number of eigenvalues below threshold      ... 0
Time for construction of square roots      ...    0.004 sec
Total time needed                          ...    0.007 sec

-------------------
DFT GRID GENERATION
-------------------

General Integration Accuracy     IntAcc      ... 4.388
Radial Grid Type                 RadialGrid  ... OptM3 with GC (2021)
Angular Grid (max. ang.)         AngularGrid ... 4 (Lebedev-302)
Angular grid pruning method      GridPruning ... 4 (adaptive)
Weight generation scheme         WeightScheme... Becke
Basis function cutoff            BFCut       ... 1.0000e-11
Integration weight cutoff        WCut        ... 1.0000e-14
Angular grids for H and He will be reduced by one unit
Partially contracted basis set               ... off
Rotationally invariant grid construction     ... off

Total number of grid points                  ...    55526
Total number of batches                      ...      874
[...]
     22      -0.000000   0.000000   0.000000   0.000000   0.000000   0.150110
     23       0.494513   0.285786  -0.491768   0.283442  -0.404229  -0.000000
     24      -0.000000   0.000000   0.000000   0.000000  -0.000000   0.261177
     25      -0.000000   0.000000  -0.000000   0.000000   0.000000  -0.150108
     26       0.494510  -0.285792   0.491781   0.283418   0.404229   0.000000
     27      -0.000000  -0.000000  -0.000000   0.000000   0.000000   0.000003
     28       0.000000  -0.000000   0.000000  -0.000000   0.000000  -0.301476
     29      -0.000003  -0.570730  -0.000014  -0.568357  -0.404803  -0.000000
     30      -0.000000  -0.000000  -0.000000  -0.000000   0.000000  -0.261178
     31      -0.000000   0.000000   0.000000   0.000000   0.000000  -0.150111
     32      -0.494513  -0.285786  -0.491768   0.283441   0.404230   0.000000
     33      -0.000000   0.000000  -0.000000   0.000000   0.000000  -0.261175
     34      -0.000000   0.000000  -0.000000   0.000000   0.000000   0.150115
     35      -0.494510   0.285791   0.491781   0.283419  -0.404229  -0.000000
                 18         19         20         21         22         23    
      0       0.000001   0.000050  -0.083870  -0.030675  -0.000004   0.063345
      1      -0.288997   0.119116   0.000071  -0.000000  -0.003768  -0.000000
      2      -0.000000  -0.000000  -0.000000   0.000000  -0.000000  -0.000000
      3       0.251637   0.087043   0.068220   0.015293   0.028925  -0.013062
      4       0.144691  -0.033385   0.087283  -0.026615  -0.046543   0.028988
      5       0.000000   0.000000  -0.000000  -0.000000  -0.000000   0.000000
      6      -0.251638  -0.087125   0.068115   0.015293   0.028924   0.013066
      7       0.144692  -0.033281  -0.087322   0.026615   0.046540   0.028993
      8       0.000000  -0.000000   0.000000  -0.000000   0.000000  -0.000000
      9       0.000001   0.000050  -0.083870  -0.030675   0.000004  -0.063345
     10      -0.288997   0.119115   0.000071  -0.000000   0.003768   0.000000
     11      -0.000000   0.000000  -0.000000   0.000000   0.000000   0.000000
     12       0.251637   0.087043   0.068218   0.015293  -0.028925   0.013063
     13       0.144691  -0.033385   0.087282  -0.026615   0.046543  -0.028988
     14       0.000000  -0.000000  -0.000000  -0.000000  -0.000000  -0.000000
     15      -0.251638  -0.087125   0.068114   0.015293  -0.028924  -0.013066
     16       0.144692  -0.033280  -0.087321   0.026615  -0.046540  -0.028993
     17      -0.000000   0.000000   0.000000  -0.000000   0.000000  -0.000000
     18       0.000002   0.000325  -0.544517  -0.406350  -0.000033   0.573689
     19      -0.286667   0.127949   0.000077  -0.000000  -0.003877  -0.000000
     20       0.000000  -0.000000   0.000000  -0.000000  -0.000000   0.000000
     21       0.251006   0.290374  -0.040135   0.203708   0.250110  -0.140733
     22       0.141033  -0.376635   0.290189  -0.352889  -0.429469   0.250201
     23      -0.000000   0.000000   0.000000   0.000000   0.000000  -0.000000
     24      -0.251006  -0.290325  -0.040484   0.203708   0.250094   0.140762
     25       0.141034  -0.376287  -0.290640   0.352889   0.429441   0.250249
     26      -0.000000   0.000000  -0.000000   0.000000  -0.000000   0.000000
     27       0.000004   0.000327  -0.544517  -0.406350   0.000032  -0.573690
     28      -0.286667   0.127948   0.000076  -0.000000   0.003877   0.000000
     29       0.000000  -0.000000   0.000000  -0.000000  -0.000000   0.000000
     30       0.251005   0.290373  -0.040136   0.203708  -0.250110   0.140734
     31       0.141033  -0.376635   0.290188  -0.352888   0.429470  -0.250201
     32      -0.000000   0.000000   0.000000   0.000000   0.000000  -0.000000
     33      -0.251005  -0.290325  -0.040484   0.203708  -0.250094  -0.140762
     34       0.141035  -0.376287  -0.290638   0.352888  -0.429441  -0.250250
     35       0.000000   0.000000  -0.000000   0.000000   0.000000   0.000000
                 24         25         26         27         28         29    
      0       0.303959  -0.060358  -0.000886   0.147387   0.328179   0.000088
      1       0.000000  -0.000000  -0.092957  -0.000559   0.000040  -0.149983
      2       0.000000   0.000000   0.000000   0.000000   0.000000   0.000000
      3      -0.151766  -0.030145  -0.104006  -0.033275  -0.194491  -0.077260
      4       0.262916   0.052233   0.088155  -0.103984   0.077169   0.283946
      5      -0.000000   0.000000  -0.000000  -0.000000  -0.000000  -0.000000
      6      -0.151765   0.030145   0.104399  -0.032022   0.194532  -0.077156
      7      -0.262916   0.052233   0.086899   0.105037   0.077320  -0.283905
      8      -0.000000  -0.000000  -0.000000   0.000000   0.000000  -0.000000
      9       0.303959   0.060358  -0.000886   0.147387  -0.328179  -0.000087
     10       0.000000   0.000000  -0.092956  -0.000559  -0.000040   0.149983
     11      -0.000000   0.000000   0.000000  -0.000000  -0.000000   0.000000
     12      -0.151766   0.030145  -0.104006  -0.033275   0.194491   0.077260
     13       0.262916  -0.052233   0.088156  -0.103984  -0.077169  -0.283946
     14       0.000000   0.000000  -0.000000  -0.000000  -0.000000  -0.000000
     15      -0.151766  -0.030145   0.104398  -0.032022  -0.194533   0.077156
     16      -0.262916  -0.052233   0.086900   0.105037  -0.077320   0.283905
     17       0.000000  -0.000000  -0.000000   0.000000   0.000000  -0.000000
     18      -0.276411   0.404083   0.003236  -0.538523  -0.418782  -0.000111
     19       0.000000  -0.000000  -0.113684  -0.000683   0.000044  -0.165977
     20      -0.000000  -0.000000  -0.000000  -0.000000  -0.000000   0.000000
     21       0.135658   0.201802   0.185211  -0.218715  -0.019582   0.253220
     22      -0.234611  -0.349537  -0.433394   0.181295  -0.253458  -0.272612
     23      -0.000000  -0.000000   0.000000  -0.000000   0.000000   0.000000
     24       0.135658  -0.201802  -0.182569  -0.220926   0.019448   0.253230
     25       0.234610  -0.349537  -0.431183  -0.186492  -0.253603   0.272477
     26       0.000000   0.000000  -0.000000  -0.000000  -0.000000   0.000000
     27      -0.276410  -0.404083   0.003237  -0.538523   0.418782   0.000111
     28       0.000000   0.000000  -0.113684  -0.000683  -0.000044   0.165978
     29       0.000000  -0.000000  -0.000000   0.000000  -0.000000   0.000000
     30       0.135658  -0.201802   0.185212  -0.218715   0.019582  -0.253220
     31      -0.234612   0.349536  -0.433394   0.181295   0.253458   0.272612
     32      -0.000000  -0.000000  -0.000000   0.000000   0.000000   0.000000
     33       0.135658   0.201802  -0.182570  -0.220925  -0.019448  -0.253230
     34       0.234610   0.349536  -0.431184  -0.186492   0.253603  -0.272477
     35      -0.000000   0.000000   0.000000  -0.000000  -0.000000   0.000000
                 30         31         32         33         34         35    
      0       0.000000  -0.001722  -0.000000  -0.000000   0.003390   0.000000
      1      -0.033594   0.000001  -0.049137  -0.051466  -0.000002  -0.037312
      2       0.000000   0.000000  -0.000000  -0.000000  -0.000000  -0.000000
      3       0.029457   0.037272   0.020506  -0.023530  -0.037592  -0.032329
      4       0.016980   0.020522   0.013552  -0.010160  -0.023686  -0.018659
      5       0.000000   0.000000   0.000000   0.000000  -0.000000  -0.000000
      6      -0.029457  -0.037272   0.020505   0.023533  -0.037590  -0.032329
      7       0.016980   0.020522  -0.013552  -0.010163   0.023685   0.018659
      8      -0.000000   0.000000   0.000000  -0.000000   0.000000  -0.000000
      9      -0.000000   0.001722   0.000000  -0.000000   0.003390   0.000000
     10      -0.033594  -0.000001   0.049137  -0.051466  -0.000002   0.037312
     11       0.000000  -0.000000  -0.000000   0.000000  -0.000000  -0.000000
     12       0.029457  -0.037271  -0.020506  -0.023530  -0.037592   0.032329
     13       0.016980  -0.020522  -0.013552  -0.010160  -0.023686   0.018659
     14      -0.000000   0.000000   0.000000  -0.000000   0.000000  -0.000000
     15      -0.029457   0.037272  -0.020505   0.023533  -0.037589   0.032329
     16       0.016980  -0.020522   0.013552  -0.010163   0.023685  -0.018659
     17       0.000000  -0.000000   0.000000   0.000000   0.000000   0.000000
     18      -0.000000   0.002240   0.000000   0.000000  -0.004708  -0.000000
     19       0.403908  -0.000007   0.575453   0.577126   0.000027   0.406225
     20      -0.000000   0.000000   0.000000  -0.000000   0.000000  -0.000000
     21      -0.353608  -0.432002  -0.247916   0.249221   0.430083   0.352193
     22      -0.204134  -0.248108  -0.145452   0.139133   0.251098   0.203374
     23      -0.000000  -0.000000  -0.000000   0.000000   0.000000   0.000000
     24       0.353607   0.432007  -0.247906  -0.249261   0.430061   0.352194
     25      -0.204133  -0.248110   0.145446   0.139156  -0.251086  -0.203375
     26      -0.000000  -0.000000  -0.000000  -0.000000  -0.000000  -0.000000
     27       0.000000  -0.002239  -0.000000   0.000000  -0.004708  -0.000000
     28       0.403907   0.000008  -0.575455   0.577124   0.000028  -0.406226
     29      -0.000000  -0.000000   0.000000   0.000000  -0.000000   0.000000
     30      -0.353607   0.432000   0.247917   0.249220   0.430085  -0.352193
     31      -0.204134   0.248106   0.145452   0.139132   0.251099  -0.203374
     32       0.000000  -0.000000  -0.000000  -0.000000  -0.000000   0.000000
     33       0.353609  -0.432008   0.247905  -0.249261   0.430060  -0.352192
     34      -0.204135   0.248111  -0.145446   0.139156  -0.251085   0.203373
     35      -0.000000   0.000000  -0.000000   0.000000  -0.000000   0.000000


-----------
IR SPECTRUM
-----------

 Mode   freq       eps      Int      T**2         TX        TY        TZ
       cm**-1   L/(mol*cm) km/mol    a.u.
----------------------------------------------------------------------------
  6:    405.20   0.000000    0.00  0.000000  ( 0.000000  0.000000 -0.000000)
  7:    405.30   0.000000    0.00  0.000000  (-0.000000  0.000000  0.000143)
  8:    622.99   0.000000    0.00  0.000000  ( 0.000000 -0.000000 -0.000000)
  9:    623.11   0.000000    0.00  0.000000  (-0.000000 -0.000000  0.000000)
 10:    676.72   0.025824  130.51  0.011909  ( 0.000000  0.000000 -0.109127)
 11:    720.24   0.000000    0.00  0.000000  ( 0.000000  0.000000  0.000000)
 12:    858.17   0.000000    0.00  0.000000  (-0.000000 -0.000000 -0.000000)
 13:    858.61   0.000000    0.00  0.000000  (-0.000000 -0.000000  0.000000)
 14:    976.53   0.000000    0.00  0.000000  (-0.000000  0.000000 -0.000000)
 15:    976.57   0.000000    0.00  0.000000  ( 0.000000 -0.000000 -0.000220)
 16:   1004.92   0.000000    0.00  0.000000  ( 0.000000 -0.000000 -0.000000)
 17:   1015.49   0.000000    0.00  0.000000  ( 0.000000  0.000000 -0.000000)
 18:   1034.16   0.000000    0.00  0.000000  ( 0.000000 -0.000019  0.000000)
 19:   1062.21   0.001418    7.16  0.000416  ( 0.000012 -0.020408  0.000000)
 20:   1062.39   0.001415    7.15  0.000416  (-0.020390 -0.000012  0.000000)
 21:   1179.41   0.000000    0.00  0.000000  ( 0.000080  0.000000  0.000000)
 22:   1202.09   0.000000    0.00  0.000000  (-0.000000  0.000000 -0.000000)
 23:   1202.15   0.000000    0.00  0.000000  (-0.000000 -0.000000  0.000000)
 24:   1356.57   0.000000    0.00  0.000000  ( 0.000037 -0.000000 -0.000000)
 25:   1375.13   0.000000    0.00  0.000000  ( 0.000000 -0.000000  0.000000)
 26:   1509.42   0.001676    8.47  0.000347  ( 0.000112 -0.018615  0.000000)
 27:   1509.44   0.001693    8.55  0.000350  (-0.018706 -0.000112  0.000000)
 28:   1632.83   0.000000    0.00  0.000000  ( 0.000000 -0.000000 -0.000000)
 29:   1633.17   0.000000    0.00  0.000000  ( 0.000000 -0.000000 -0.000000)
 30:   3157.50   0.000000    0.00  0.000000  ( 0.000000 -0.000043 -0.000000)
 31:   3166.08   0.000000    0.00  0.000000  ( 0.000000 -0.000000  0.000000)
 32:   3166.40   0.000000    0.00  0.000000  (-0.000000  0.000000  0.000000)
 33:   3181.07   0.004963   25.08  0.000487  ( 0.000001 -0.022066 -0.000000)
 34:   3181.16   0.005016   25.35  0.000492  (-0.022183 -0.000001  0.000000)
 35:   3190.72   0.000000    0.00  0.000000  (-0.000000  0.000000  0.000000)

* The epsilon (eps) is given for a Dirac delta lineshape.
** The dipole moment derivative (T) already includes vibrational overlap.

The first frequency considered to be a vibration is 6
The total number of vibrations considered is 30


--------------------------
THERMOCHEMISTRY AT 298.15K
--------------------------

Temperature         ... 298.15 K
Pressure            ... 1.00 atm
Total Mass          ... 78.11 AMU

Throughout the following assumptions are being made:
  (1) The electronic state is orbitally nondegenerate
  (2) There are no thermally accessible electronically excited states
  (3) Hindered rotations indicated by low frequency modes are not
      treated as such but are treated as vibrations and this may
      cause some error
  (4) All equations used are the standard statistical mechanics
      equations for an ideal gas
  (5) All vibrations are strictly harmonic

freq.     405.20  E(vib)   ...       0.19 
freq.     405.30  E(vib)   ...       0.19 
freq.     622.99  E(vib)   ...       0.09 
freq.     623.11  E(vib)   ...       0.09 
freq.     676.72  E(vib)   ...       0.08 
freq.     720.24  E(vib)   ...       0.07 
freq.     858.17  E(vib)   ...       0.04 
freq.     858.61  E(vib)   ...       0.04 
freq.     976.53  E(vib)   ...       0.03 
freq.     976.57  E(vib)   ...       0.03 
freq.    1004.92  E(vib)   ...       0.02 
freq.    1015.49  E(vib)   ...       0.02 
freq.    1034.16  E(vib)   ...       0.02 
freq.    1062.21  E(vib)   ...       0.02 
freq.    1062.39  E(vib)   ...       0.02 
freq.    1179.41  E(vib)   ...       0.01 
freq.    1202.09  E(vib)   ...       0.01 
freq.    1202.15  E(vib)   ...       0.01 
freq.    1356.57  E(vib)   ...       0.01 
freq.    1375.13  E(vib)   ...       0.01 
freq.    1509.42  E(vib)   ...       0.00 
freq.    1509.44  E(vib)   ...       0.00 
freq.    1632.83  E(vib)   ...       0.00 
freq.    1633.17  E(vib)   ...       0.00 
freq.    3157.50  E(vib)   ...       0.00 
freq.    3166.08  E(vib)   ...       0.00 
freq.    3166.40  E(vib)   ...       0.00 
freq.    3181.07  E(vib)   ...       0.00 
freq.    3181.16  E(vib)   ...       0.00 
freq.    3190.72  E(vib)   ...       0.00 

------------
INNER ENERGY
------------

The inner energy is: U= E(el) + E(ZPE) + E(vib) + E(rot) + E(trans)
    E(el)   - is the total energy from the electronic structure calculation
              = E(kin-el) + E(nuc-el) + E(el-el) + E(nuc-nuc)
    E(ZPE)  - the the zero temperature vibrational energy from the frequency calculation
    E(vib)  - the the finite temperature correction to E(ZPE) due to population
              of excited vibrational states
    E(rot)  - is the rotational thermal energy
    E(trans)- is the translational thermal energy

Summary of contributions to the inner energy U:
Electronic energy                ...   -232.18314460 Eh
Zero point energy                ...      0.10011578 Eh      62.82 kcal/mol
Thermal vibrational correction   ...      0.00158279 Eh       0.99 kcal/mol
Thermal rotational correction    ...      0.00141627 Eh       0.89 kcal/mol
Thermal translational correction ...      0.00141627 Eh       0.89 kcal/mol
-----------------------------------------------------------------------
Total thermal energy                   -232.07861349 Eh


Summary of corrections to the electronic energy:
(perhaps to be used in another calculation)
Total thermal correction                  0.00441533 Eh       2.77 kcal/mol
Non-thermal (ZPE) correction              0.10011578 Eh      62.82 kcal/mol
-----------------------------------------------------------------------
Total correction                          0.10453111 Eh      65.59 kcal/mol


--------
ENTHALPY
--------

The enthalpy is H = U + kB*T
                kB is Boltzmann's constant
Total free energy                 ...   -232.07861349 Eh 
Thermal Enthalpy correction       ...      0.00094421 Eh       0.59 kcal/mol
-----------------------------------------------------------------------
Total Enthalpy                    ...   -232.07766928 Eh


Note: Rotational entropy computed according to Herzberg 
Infrared and Raman Spectra, Chapter V,1, Van Nostrand Reinhold, 1945 
Point Group:  D2h, Symmetry Number:   4  
Rotational constants in cm-1:     0.190636     0.190627     0.095316 

Vibrational entropy computed according to the QRRHO of S. Grimme
Chem.Eur.J. 2012 18 9955


-------
ENTROPY
-------

The entropy contributions are T*S = T*(S(el)+S(vib)+S(rot)+S(trans))
     S(el)   - electronic entropy
     S(vib)  - vibrational entropy
     S(rot)  - rotational entropy
     S(trans)- translational entropy
The entropies will be listed as multiplied by the temperature to get
units of energy

Electronic entropy                ...      0.00000000 Eh      0.00 kcal/mol
Vibrational entropy               ...      0.00212876 Eh      1.34 kcal/mol
Rotational entropy                ...      0.01087647 Eh      6.83 kcal/mol
Translational entropy             ...      0.01852142 Eh     11.62 kcal/mol
-----------------------------------------------------------------------
Final entropy term                ...      0.03152666 Eh     19.78 kcal/mol

In case the symmetry of your molecule has not been determined correctly
or in case you have a reason to use a different symmetry number we print 
out the resulting rotational entropy values for sn=1,12 :
 --------------------------------------------------------
|  sn= 1 | S(rot)=       0.01218539 Eh      7.65 kcal/mol|
|  sn= 2 | S(rot)=       0.01153093 Eh      7.24 kcal/mol|
|  sn= 3 | S(rot)=       0.01114810 Eh      7.00 kcal/mol|
|  sn= 4 | S(rot)=       0.01087647 Eh      6.83 kcal/mol|
|  sn= 5 | S(rot)=       0.01066579 Eh      6.69 kcal/mol|
|  sn= 6 | S(rot)=       0.01049364 Eh      6.58 kcal/mol|
|  sn= 7 | S(rot)=       0.01034809 Eh      6.49 kcal/mol|
|  sn= 8 | S(rot)=       0.01022202 Eh      6.41 kcal/mol|
|  sn= 9 | S(rot)=       0.01011081 Eh      6.34 kcal/mol|
|  sn=10 | S(rot)=       0.01001133 Eh      6.28 kcal/mol|
|  sn=11 | S(rot)=       0.00992134 Eh      6.23 kcal/mol|
|  sn=12 | S(rot)=       0.00983918 Eh      6.17 kcal/mol|
 --------------------------------------------------------


-------------------
GIBBS FREE ENERGY
-------------------

The Gibbs free energy is G = H - T*S

Total enthalpy                    ...   -232.07766928 Eh 
Total entropy correction          ...     -0.03152666 Eh    -19.78 kcal/mol
-----------------------------------------------------------------------
Final Gibbs free energy         ...   -232.10919594 Eh

For completeness - the Gibbs free energy minus the electronic energy
G-E(el)                           ...      0.07394866 Eh     46.40 kcal/mol


Timings for individual modules:

Sum of individual times         ...       55.686 sec (=   0.928 min)
GTO integral calculation        ...        1.628 sec (=   0.027 min)   2.9 %
SCF iterations                  ...        7.699 sec (=   0.128 min)  13.8 %
SCF Gradient evaluation         ...        3.736 sec (=   0.062 min)   6.7 %
Geometry relaxation             ...        0.211 sec (=   0.004 min)   0.4 %
Analytical frequency calculation...       42.412 sec (=   0.707 min)  76.2 %
                             ****ORCA TERMINATED NORMALLY****
TOTAL RUN TIME: 0 days 0 hours 0 minutes 57 seconds 615 msec
