
                                        *****************
                                        * O   R   C   A *
                                        *****************

                                            #,                                       
                                            ###                                      
                                            ####                                     
                                            #####                                    
                                            ######                                   
                                           ########,                                 
                                     ,,################,,,,,                         
                               ,,#################################,,                 
                          ,,##########################################,,             
                       ,#########################################, ''#####,          
                    ,#############################################,,   '####,        
                  ,##################################################,,,,####,       
                ,###########''''           ''''###############################       
              ,#####''   ,,,,##########,,,,          '''####'''          '####       
            ,##' ,,,,###########################,,,                        '##       
           ' ,,###''''                  '''############,,,                           
         ,,##''                                '''############,,,,        ,,,,,,###''
      ,#''                                            '''#######################'''  
     '                                                          ''''####''''         
             ,#######,   #######,   ,#######,      ##                                
            ,#'     '#,  ##    ##  ,#'     '#,    #''#        ######   ,####,        
            ##       ##  ##   ,#'  ##            #'  '#       #        #'  '#        
            ##       ##  #######   ##           ,######,      #####,   #    #        
            '#,     ,#'  ##    ##  '#,     ,#' ,#      #,         ##   #,  ,#        
             '#######'   ##     ##  '#######'  #'      '#     #####' # '####'        



                  #######################################################
                  #                        -***-                        #
                  #          Department of theory and spectroscopy      #
                  #    Directorship and core code : Frank Neese         #
                  #        Max Planck Institute fuer Kohlenforschung    #
                  #                Kaiser Wilhelm Platz 1               #
                  #                 D-45470 Muelheim/Ruhr               #
                  #                      Germany                        #
                  #                                                     #
                  #                  All rights reserved                #
                  #                        -***-                        #
                  #######################################################


                         Program Version 5.0.0 -  RELEASE  -
                                (SVN: $Rev: 19529$)
                ($Date: 2021-06-28 11:36:33 +0200 (Mo, 28 Jun 2021) $)


 With contributions from (in alphabetic order):
   Daniel Aravena         : Magnetic Suceptibility
   Michael Atanasov       : Ab Initio Ligand Field Theory (pilot matlab implementation)
   Alexander A. Auer      : GIAO ZORA, VPT2 properties, NMR spectrum
   Ute Becker             : Parallelization
   Giovanni Bistoni       : ED, misc. LED, open-shell LED, HFLD
   Martin Brehm           : Molecular dynamics
   Dmytro Bykov           : SCF Hessian
   Vijay G. Chilkuri      : MRCI spin determinant printing, contributions to CSF-ICE
   Dipayan Datta          : RHF DLPNO-CCSD density
   Achintya Kumar Dutta   : EOM-CC, STEOM-CC
   Dmitry Ganyushin       : Spin-Orbit,Spin-Spin,Magnetic field MRCI
   Miquel Garcia          : C-PCM Hessian, Gaussian charge scheme
   Yang Guo               : DLPNO-NEVPT2, F12-NEVPT2, CIM, IAO-localization
   Andreas Hansen         : Spin unrestricted coupled pair/coupled cluster methods
   Benjamin Helmich-Paris : MC-RPA, TRAH-SCF, COSX integrals
   Lee Huntington         : MR-EOM, pCC
   Robert Izsak           : Overlap fitted RIJCOSX, COSX-SCS-MP3, EOM
   Marcus Kettner         : VPT2
   Christian Kollmar      : KDIIS, OOCD, Brueckner-CCSD(T), CCSD density, CASPT2, CASPT2-K
   Simone Kossmann        : Meta GGA functionals, TD-DFT gradient, OOMP2, MP2 Hessian
   Martin Krupicka        : Initial AUTO-CI
   Lucas Lang             : DCDCAS
   Marvin Lechner         : AUTO-CI (C++ implementation), FIC-MRCC
   Dagmar Lenk            : GEPOL surface, SMD
   Dimitrios Liakos       : Extrapolation schemes; Compound Job, initial MDCI parallelization
   Dimitrios Manganas     : Further ROCIS development; embedding schemes
   Dimitrios Pantazis     : SARC Basis sets
   Anastasios Papadopoulos: AUTO-CI, single reference methods and gradients
   Taras Petrenko         : DFT Hessian,TD-DFT gradient, ASA, ECA, R-Raman, ABS, FL, XAS/XES, NRVS
   Peter Pinski           : DLPNO-MP2, DLPNO-MP2 Gradient
   Christoph Reimann      : Effective Core Potentials
   Marius Retegan         : Local ZFS, SOC
   Christoph Riplinger    : Optimizer, TS searches, QM/MM, DLPNO-CCSD(T), (RO)-DLPNO pert. Triples
   Tobias Risthaus        : Range-separated hybrids, TD-DFT gradient, RPA, STAB
   Michael Roemelt        : Original ROCIS implementation
   Masaaki Saitow         : Open-shell DLPNO-CCSD energy and density
   Barbara Sandhoefer     : DKH picture change effects
   Avijit Sen             : IP-ROCIS
   Kantharuban Sivalingam : CASSCF convergence, NEVPT2, FIC-MRCI
   Bernardo de Souza      : ESD, SOC TD-DFT
   Georgi Stoychev        : AutoAux, RI-MP2 NMR
   Willem Van den Heuvel  : Paramagnetic NMR
   Boris Wezisla          : Elementary symmetry handling
   Frank Wennmohs         : Technical directorship


 We gratefully acknowledge several colleagues who have allowed us to
 interface, adapt or use parts of their codes:
   Stefan Grimme, W. Hujo, H. Kruse, P. Pracht,  : VdW corrections, initial TS optimization,
                  C. Bannwarth, S. Ehlert          DFT functionals, gCP, sTDA/sTD-DF
   Ed Valeev, F. Pavosevic, A. Kumar             : LibInt (2-el integral package), F12 methods
   Garnet Chan, S. Sharma, J. Yang, R. Olivares  : DMRG
   Ulf Ekstrom                                   : XCFun DFT Library
   Mihaly Kallay                                 : mrcc  (arbitrary order and MRCC methods)
   Jiri Pittner, Ondrej Demel                    : Mk-CCSD
   Frank Weinhold                                : gennbo (NPA and NBO analysis)
   Christopher J. Cramer and Donald G. Truhlar   : smd solvation model
   Lars Goerigk                                  : TD-DFT with DH, B97 family of functionals
   V. Asgeirsson, H. Jonsson                     : NEB implementation
   FAccTs GmbH                                   : IRC, NEB, NEB-TS, DLPNO-Multilevel, CI-OPT
                                                   MM, QMMM, 2- and 3-layer-ONIOM, Crystal-QMMM,
                                                   LR-CPCM, SF, NACMEs, symmetry and pop. for TD-DFT,
                                                   nearIR, NL-DFT gradient (VV10), updates on ESD,
                                                   ML-optimized integration grids
   S Lehtola, MJT Oliveira, MAL Marques          : LibXC Library
   Liviu Ungur et al                             : ANISO software


 Your calculation uses the libint2 library for the computation of 2-el integrals
 For citations please refer to: http://libint.valeyev.net

 Your ORCA version has been built with support for libXC version: 5.1.0
 For citations please refer to: https://tddft.org/programs/libxc/

 This ORCA versions uses:
   CBLAS   interface :  Fast vector & matrix operations
   LAPACKE interface :  Fast linear algebra routines
   SCALAPACK package :  Parallel linear algebra routines
   Shared memory     :  Shared parallel matrices
   BLAS/LAPACK       :  OpenBLAS 0.3.15  USE64BITINT DYNAMIC_ARCH NO_AFFINITY SkylakeX SINGLE_THREADED
        Core in use  :  SkylakeX
   Copyright (c) 2011-2014, The OpenBLAS Project


================================================================================

----- Orbital basis set information -----
Your calculation utilizes the basis: cc-pVTZ 
       H, B-Ne : Obtained from the ccRepo (grant-hill.group.shef.ac.uk/ccrepo) Feb. 2017
                 T. H. Dunning, Jr., J. Chem. Phys. 90, 1007 (1989)
            He : Obtained from the ccRepo (grant-hill.group.shef.ac.uk/ccrepo) Feb. 2017
                 D. E. Woon, T. H. Dunning, Jr., J. Chem. Phys. 100, 2975 (1994)
  Li-Be, Na-Mg : Obtained from the ccRepo (grant-hill.group.shef.ac.uk/ccrepo) Feb. 2017
                 B. P. Prascher, D. E. Woon, K. A. Peterson, T. H. Dunning, Jr., A. K. Wilson, Theor. Chem. Acc. 128, 69 (2011)
         Al-Ar : Obtained from the ccRepo (grant-hill.group.shef.ac.uk/ccrepo) Feb. 2017
                 D. E. Woon, T. H. Dunning, Jr., J. Chem. Phys. 98, 1358 (1993)
            Ca : Obtained from the Peterson Research Group Website (tyr0.chem.wsu.edu/~kipeters) Feb. 2017
                 J. Koput, K. A. Peterson, J. Phys. Chem. 106, 9595 (2002)
         Sc-Zn : Obtained from the ccRepo (grant-hill.group.shef.ac.uk/ccrepo) Feb. 2017
                 N. B. Balabanov, K. A. Peterson, J. Chem. Phys. 123, 064107 (2005)
                 N. B. Balabanov, K. A. Peterson, J. Chem. Phys. 125, 074110 (2006)
         Ga-Kr : Obtained from the ccRepo (grant-hill.group.shef.ac.uk/ccrepo) Feb. 2017
                 A. K. Wilson, D. E. Woon, K. A. Peterson, T. H. Dunning, Jr., J. Chem. Phys. 110, 7667 (1999)
             Y : Obtained from the ccRepo (grant-hill.group.shef.ac.uk/ccrepo) Feb. 2017
                 K. A. Peterson, D. Figgen, M. Dolg, H. Stoll, J. Chem. Phys. 126, 124101 (2007)
        Ag, Au : Obtained from the Peterson Research Group Website (tyr0.chem.wsu.edu/~kipeters) Feb. 2017
                 K. A. Peterson, C. Puzzarini, Theor. Chem. Acc. 114, 283 (2005)

================================================================================
                                        WARNINGS
                       Please study these warnings very carefully!
================================================================================


INFO   : the flag for use of the SHARK integral package has been found!

================================================================================
                                       INPUT FILE
================================================================================
NAME = trans-1,3-bivinyl-cas44.inp
|  1> ! cc-pvtz pal8 UseSym
|  2> ! MOread
|  3> 
|  4> %moinp "trans-1,3-bivinyl-rhf.gbw"
|  5> 
|  6> %scf
|  7>     rotate {16,19,90}  end
|  8> end
|  9> 
| 10> %casscf
| 11>     nel     4
| 12>     norb    4
| 13>     irrep   0
| 14>     mult    1
| 15>     nroots  1
| 16> end
| 17> 
| 18> *xyz 0 1
| 19>  C   -6.64118154871840     -1.62152199820221     -0.00000009697356
| 20>  H   -6.14278421708044     -2.59598105665497     -0.00000014220472
| 21>  H   -7.73333554424968     -1.61977238029341     -0.00000042278070
| 22>  C   -5.93549956067656     -0.47904328673011      0.00000030766916
| 23>  H   -6.46384951769643      0.48219250457623      0.00000027918139
| 24>  C   -4.47901443536966     -0.41544209462766      0.00000033271928
| 25>  H   -3.95066484182954     -1.37667808135024      0.00000039582290
| 26>  C   -3.77333222954333      0.72703646535930     -0.00000006376917
| 27>  H   -4.27172926240940      1.70149564387711     -0.00000005020219
| 28>  H   -2.68117824242655      0.72528655404596     -0.00000053946240
| 29> *
| 30> 
| 31> 
| 32>                          ****END OF INPUT****
================================================================================

------------------------------------------------------------------------------
                            SYMMETRY HANDLING SETUP
------------------------------------------------------------------------------

------------------
SYMMETRY DETECTION
------------------
The point group will now be determined using a tolerance of 1.0000e-04.
Splitting atom subsets according to nuclear charge, mass and basis set.
Splitting atom subsets according to distance from the molecule's center.
Identifying relative distance patterns of the atoms.
Splitting atom subsets according to atoms' relative distance patterns.
Bring atoms of each subset into input order.
The molecule is planar.
The molecule has a center of inversion.
Analyzing the first atom subset for its symmetry.
The subset is a centered atom pair.
Testing point group C2h.
Success!
This point group has been found:    C2h
Largest non-degenerate subgroup:    C2h


Symmetry-perfected Cartesians (point group C2h):

Atom          Symmetry-perfected Cartesians (x, y, z; au)
  0      -2.709724903297   -2.219066152817   -0.000000000000
  1      -1.767890722922   -4.060527015457   -0.000000000000
  2      -4.773596842968   -2.215759576903    0.000000000000
  3      -1.376179002480   -0.060094417432    0.000000000000
  4      -2.374615380678    1.756378162901    0.000000000000
  5       1.376179002480    0.060094417432    0.000000000000
  6       2.374615380678   -1.756378162901    0.000000000000
  7       2.709724903297    2.219066152817   -0.000000000000
  8       1.767890722922    4.060527015457   -0.000000000000
  9       4.773596842968    2.215759576903    0.000000000000


-----------------------------------------------
SYMMETRY-PERFECTED CARTESIAN COORDINATES (A.U.)
-----------------------------------------------
Warning (ORCA_SYM): Coordinates were not cleaned so far!

------------------
SYMMETRY REDUCTION
------------------
ORCA supports only abelian point groups.
It is now checked, if the determined point group is supported:
Point Group ( C2h   ) is          ... supported

(Re)building abelian point group:
Creating Character Table          ... done
Making direct product table       ... done
Constructing symmetry operations  ... done
Creating atom transfer table      ... done
Creating asymmetric unit          ... done

----------------------
ASYMMETRIC UNIT IN C2h
----------------------
  #  AT     MASS              COORDS (A.U.)             BAS
   0 C   12.0110  -2.70972490  -2.21906615  -0.00000000   0
   1 H    1.0080  -1.76789072  -4.06052702  -0.00000000   0
   2 H    1.0080  -4.77359684  -2.21575958   0.00000000   0
   3 C   12.0110  -1.37617900  -0.06009442   0.00000000   0
   4 H    1.0080  -2.37461538   1.75637816   0.00000000   0

----------------------
SYMMETRY ADAPTED BASIS
----------------------
The coefficients for the symmetry adapted linear combinations (SALCS)
of basis functions will now be computed:
Number of basis functions         ...   204
Preparing memory                  ... done
Constructing Gamma(red)           ... done
Reducing Gamma(red)               ... done
Constructing SALCs                ... done
Checking SALC integrity           ... nothing suspicious
Normalizing SALCs                 ... done

Storing the symmetry object:
Symmetry file                     ... trans-1,3-bivinyl-cas44.sym.tmp
Writing symmetry information      ... done

                       ****************************
                       * Single Point Calculation *
                       ****************************

---------------------------------
CARTESIAN COORDINATES (ANGSTROEM)
---------------------------------
  C     -1.433925   -1.174279   -0.000000
  H     -0.935527   -2.148738   -0.000000
  H     -2.526079   -1.172529    0.000000
  C     -0.728243   -0.031801    0.000000
  H     -1.256592    0.929435    0.000000
  C      0.728243    0.031801    0.000000
  H      1.256592   -0.929435    0.000000
  C      1.433925    1.174279   -0.000000
  H      0.935527    2.148738   -0.000000
  H      2.526079    1.172529    0.000000

----------------------------
CARTESIAN COORDINATES (A.U.)
----------------------------
  NO LB      ZA    FRAG     MASS         X           Y           Z
   0 C     6.0000    0    12.011   -2.709725   -2.219066   -0.000000
   1 H     1.0000    0     1.008   -1.767891   -4.060527   -0.000000
   2 H     1.0000    0     1.008   -4.773597   -2.215760    0.000000
   3 C     6.0000    0    12.011   -1.376179   -0.060094    0.000000
   4 H     1.0000    0     1.008   -2.374615    1.756378    0.000000
   5 C     6.0000    0    12.011    1.376179    0.060094    0.000000
   6 H     1.0000    0     1.008    2.374615   -1.756378    0.000000
   7 C     6.0000    0    12.011    2.709725    2.219066   -0.000000
   8 H     1.0000    0     1.008    1.767891    4.060527   -0.000000
   9 H     1.0000    0     1.008    4.773597    2.215760    0.000000

--------------------------------
INTERNAL COORDINATES (ANGSTROEM)
--------------------------------
 C      0   0   0     0.000000000000     0.00000000     0.00000000
 H      1   0   0     1.094518321813     0.00000000     0.00000000
 H      1   2   0     1.092155396964   117.17973790     0.00000000
 C      1   2   3     1.342849460816   121.20940807   180.00000148
 H      4   1   2     1.096871881111   119.50165669   179.99999609
 C      4   1   2     1.457873119266   124.20302112     0.00000000
 H      6   4   1     1.096871877279   116.29530063     0.00000000
 C      6   4   1     1.342849446383   124.20303242   179.99995867
 H      8   6   4     1.094518292660   121.20941355     0.00000000
 H      8   6   4     1.092155389020   121.61084994   180.00003158

---------------------------
INTERNAL COORDINATES (A.U.)
---------------------------
 C      0   0   0     0.000000000000     0.00000000     0.00000000
 H      1   0   0     2.068339876786     0.00000000     0.00000000
 H      1   2   0     2.063874595946   117.17973790     0.00000000
 C      1   2   3     2.537617720026   121.20940807   180.00000148
 H      4   1   2     2.072787459298   119.50165669   179.99999609
 C      4   1   2     2.754980933417   124.20302112     0.00000000
 H      6   4   1     2.072787452057   116.29530063     0.00000000
 C      6   4   1     2.537617692751   124.20303242   179.99995867
 H      8   6   4     2.068339821694   121.20941355     0.00000000
 H      8   6   4     2.063874580934   121.61084994   180.00003158

---------------------
BASIS SET INFORMATION
---------------------
There are 2 groups of distinct atoms

 Group   1 Type C   : 18s5p2d1f contracted to 4s3p2d1f pattern {8811/311/11/1}
 Group   2 Type H   : 5s2p1d contracted to 3s2p1d pattern {311/11/1}

Atom   0C    basis set group =>   1
Atom   1H    basis set group =>   2
Atom   2H    basis set group =>   2
Atom   3C    basis set group =>   1
Atom   4H    basis set group =>   2
Atom   5C    basis set group =>   1
Atom   6H    basis set group =>   2
Atom   7C    basis set group =>   1
Atom   8H    basis set group =>   2
Atom   9H    basis set group =>   2
--------------------------------------------------------------------------
WARNING: There was an error initializing an OpenFabrics device.

  Local host:   cnode06
  Local device: mlx5_0
--------------------------------------------------------------------------


           ************************************************************
           *        Program running with 8 parallel MPI-processes     *
           *              working on a common directory               *
           ************************************************************
------------------------------------------------------------------------------
                           ORCA GTO INTEGRAL CALCULATION
------------------------------------------------------------------------------
------------------------------------------------------------------------------
                   ___                                                        
                  /   \      - P O W E R E D   B Y -                         
                 /     \                                                     
                 |  |  |   _    _      __       _____    __    __             
                 |  |  |  | |  | |    /  \     |  _  \  |  |  /  |          
                  \  \/   | |  | |   /    \    | | | |  |  | /  /          
                 / \  \   | |__| |  /  /\  \   | |_| |  |  |/  /          
                |  |  |   |  __  | /  /__\  \  |    /   |      \           
                |  |  |   | |  | | |   __   |  |    \   |  |\   \          
                \     /   | |  | | |  |  |  |  | |\  \  |  | \   \       
                 \___/    |_|  |_| |__|  |__|  |_| \__\ |__|  \__/        
                                                                              
                      - O R C A' S   B I G   F R I E N D -                    
                                      &                                       
                       - I N T E G R A L  F E E D E R -                       
                                                                              
 v1 FN, 2020, v2 2021                                                         
------------------------------------------------------------------------------


Reading SHARK input file trans-1,3-bivinyl-cas44.SHARKINP.tmp ... ok
----------------------
SHARK INTEGRAL PACKAGE
----------------------

Number of atoms                             ...     10
Number of basis functions                   ...    204
Number of shells                            ...     76
Maximum angular momentum                    ...      3
Integral batch strategy                     ... SHARK/LIBINT Hybrid
RI-J (if used) integral strategy            ... SPLIT-RIJ (Revised 2003 algorithm where possible)
Printlevel                                  ...      1
Contraction scheme used                     ... SEGMENTED contraction
Coulomb Range Separation                    ... NOT USED
Exchange Range Separation                   ... NOT USED
Finite Nucleus Model                        ... NOT USED
Auxiliary Coulomb fitting basis             ... NOT available
Auxiliary J/K fitting basis                 ... NOT available
Auxiliary Correlation fitting basis         ... NOT available
Auxiliary 'external' fitting basis          ... NOT available
Integral threshold                          ...     1.000000e-10
Primitive cut-off                           ...     1.000000e-11
Primitive pair pre-selection threshold      ...     1.000000e-11

Calculating pre-screening integrals         ... done (  0.2 sec) Dimension = 76
Organizing shell pair data                  ... done (  0.0 sec)
Shell pair information
Total number of shell pairs                 ...      2926
Shell pairs after pre-screening             ...      2821
Total number of primitive shell pairs       ...     11882
Primitive shell pairs kept                  ...      8996
          la=0 lb=0:    581 shell pairs
          la=1 lb=0:    790 shell pairs
          la=1 lb=1:    287 shell pairs
          la=2 lb=0:    458 shell pairs
          la=2 lb=1:    314 shell pairs
          la=2 lb=2:     99 shell pairs
          la=3 lb=0:    134 shell pairs
          la=3 lb=1:     94 shell pairs
          la=3 lb=2:     54 shell pairs
          la=3 lb=3:     10 shell pairs

Calculating one electron integrals          ... done (  0.0 sec)
Calculating Nuclear repulsion               ... done (  0.0 sec) ENN=    103.335139128354 Eh

SHARK setup successfully completed in   0.3 seconds

Maximum memory used throughout the entire GTOINT-calculation: 15.9 MB
[cnode06:239238] 7 more processes have sent help message help-mpi-btl-openib.txt / error in device init
[cnode06:239238] Set MCA parameter "orte_base_help_aggregate" to 0 to see all help / error messages
--------------------------------------------------------------------------
WARNING: There was an error initializing an OpenFabrics device.

  Local host:   cnode06
  Local device: mlx5_0
--------------------------------------------------------------------------


           ************************************************************
           *        Program running with 8 parallel MPI-processes     *
           *              working on a common directory               *
           ************************************************************
-------------------------------------------------------------------------------
                                 ORCA SCF
-------------------------------------------------------------------------------

------------
SCF SETTINGS
------------
Hamiltonian:
 Ab initio Hamiltonian  Method          .... Hartree-Fock(GTOs)


General Settings:
 Integral files         IntName         .... trans-1,3-bivinyl-cas44
 Hartree-Fock type      HFTyp           .... CASSCF
 Total Charge           Charge          ....    0
 Multiplicity           Mult            ....    1
 Number of Electrons    NEL             ....   30
 Basis Dimension        Dim             ....  204
 Nuclear Repulsion      ENuc            ....    103.3351391284 Eh

 Symmetry handling      UseSym         .... ON
 Point group                           .... C2h
 Used point group                      .... C2h
 Number of irreps                      .... 4
   Irrep   Ag has   70 symmetry adapted basis functions (ofs=   0)
   Irrep   Bg has   32 symmetry adapted basis functions (ofs=  70)
   Irrep   Au has   32 symmetry adapted basis functions (ofs= 102)
   Irrep   Bu has   70 symmetry adapted basis functions (ofs= 134)


Diagonalization of the overlap matrix:
Smallest eigenvalue                        ... 3.214e-04
Time for diagonalization                   ...    0.004 sec
Threshold for overlap eigenvalues          ... 1.000e-08
Number of eigenvalues below threshold      ... 0
Time for construction of square roots      ...    0.005 sec
Producing symmetrization matrix            ... done (   0.003 sec)
Total time needed                          ...    0.012 sec

---------------------
INITIAL GUESS: MOREAD
---------------------
Guess MOs are being read from file: trans-1,3-bivinyl-rhf.gbw
Input Geometry matches current geometry (good)
Input basis set matches current basis set (good)
Warning: Geometry matches/Basis set matches and symmetry is to be used
         We proceed in good trust that the input orbitals and irreps are correct
MOs were renormalized
Gram-Schmidt orthogonalization of all MOs with pivot on actives
-----------------
ORBITAL ROTATIONS
-----------------
  Rotation  16(0)   19(0) cos(t)= 0.000000  sin(t)= 1.000000
  Orbital Energies were swapped
  IRREP designations were swapped
Irrep occupations for operator 0
    Ag -    7
    Bg -    1
    Au -    1
    Bu -    6
                      ------------------
                      INITIAL GUESS DONE (   0.1 sec)
                      ------------------


 ... the calculation is a CASSCF calculation -I'm leaving here GOOD LUCK!!!

[cnode06:239309] 7 more processes have sent help message help-mpi-btl-openib.txt / error in device init
[cnode06:239309] Set MCA parameter "orte_base_help_aggregate" to 0 to see all help / error messages
--------------------------------------------------------------------------
WARNING: There was an error initializing an OpenFabrics device.

  Local host:   cnode06
  Local device: mlx5_0
--------------------------------------------------------------------------


           ************************************************************
           *        Program running with 8 parallel MPI-processes     *
           *              working on a common directory               *
           ************************************************************
-------------------------------------------------------------------------------
                              ORCA-CASSCF
-------------------------------------------------------------------------------

Symmetry handling      UseSym     ... ON
Point group                       ... C2h
Used point group                  ... C2h
Number of irreps                  ... 4
   Irrep   Ag has   70 SALCs (ofs=   0) #(closed)=   7 #(active)=   0
   Irrep   Bg has   32 SALCs (ofs=  70) #(closed)=   0 #(active)=   2
   Irrep   Au has   32 SALCs (ofs= 102) #(closed)=   0 #(active)=   2
   Irrep   Bu has   70 SALCs (ofs= 134) #(closed)=   6 #(active)=   0
 Symmetries of active orbitals:
   MO =   13  IRREP= 2 (Au)
   MO =   14  IRREP= 1 (Bg)
   MO =   15  IRREP= 2 (Au)
   MO =   16  IRREP= 1 (Bg)

Setting up the integral package       ... done
Building the CAS space                ... done (11 configurations for Mult=1 Irrep=0)

SYSTEM-SPECIFIC SETTINGS:
Number of active electrons          ...    4
Number of active orbitals           ...    4
Total number of electrons           ...   30
Total number of orbitals            ...  204

Determined orbital ranges:
   Internal       0 -   12 (  13 orbitals)
   Active        13 -   16 (   4 orbitals)
   External      17 -  203 ( 187 orbitals)
Number of rotation parameters      ...    945

CI-STEP:
CI strategy                         ... General CI
Number of symmetry/multplity blocks ...    1
BLOCK  1 WEIGHT=   1.0000
  Multiplicity                      ...    1
  Irrep                             ...    0 (Ag)
  #(Configurations)                 ...   11
  #(CSFs)                           ...   12
  #(Roots)                          ...    1
    ROOT=0 WEIGHT=    1.000000

  PrintLevel                        ...    1
  N(GuessMat)                       ...       512
  MaxDim(CI)                        ...        10
  MaxIter(CI)                       ...        64
  Energy Tolerance CI               ...  1.00e-08
  Residual Tolerance CI             ...  1.00e-08
  Shift(CI)                         ...  1.00e-04

INTEGRAL-TRANSFORMATION-STEP:
  Algorithm                         ... EXACT

ORBITAL-IMPROVEMENT-STEP:
  Algorithm                         ... SuperCI(PT)
  Default Parametrization           ... CAYLEY
  Act-Act rotations                 ... depends on algorithm used

  Note: SuperCI(PT) will ignore FreezeIE, FreezeAct and FreezeGrad. In general Default settings are encouraged.
        In conjunction with ShiftUp, ShiftDn or GradScaling the performance of SuperCI(PT) is less optimal.  

  MaxRot                            ... 2.00e-01 
  Max. no of vectors (DIIS)         ... 15
  DThresh (cut-off) metric          ... 1.00e-06
  Switch step at gradient           ...  3.00e-02 
  Switch step at iteration          ...        50   
  Switch step to                    ... SuperCI(PT)    

SCF-SETTINGS:
  Incremental                       ... on
  RIJCOSX approximation             ... off
  RI-JK approximation               ... off
  AO integral handling              ... DIRECT
  Integral Neglect Thresh           ...  1.00e-10
  Primitive cutoff TCut             ...  1.00e-11
  Energy convergence tolerance      ...  1.00e-07
  Orbital gradient convergence      ...  1.00e-03
  Max. number of iterations         ...        75  


FINAL ORBITALS:
  Active   Orbitals                 ... natural 
  Internal Orbitals                 ... canonical 
  External Orbitals                 ... canonical 

------------------
CAS-SCF ITERATIONS
------------------


MACRO-ITERATION   1: 
[cnode06:239369] 7 more processes have sent help message help-mpi-btl-openib.txt / error in device init
[cnode06:239369] Set MCA parameter "orte_base_help_aggregate" to 0 to see all help / error messages
   --- Inactive Energy E0 = -151.72863087 Eh
CI-ITERATION   0: 
  -155.003815831   0.000000000000 (    0.00)
   CI-PROBLEM SOLVED
   DENSITIES MADE

                 <<<<<<<<<<<<<<<<<<INITIAL CI STATE CHECK>>>>>>>>>>>>>>>>>>

BLOCK  1 MULT= 1 NROOTS= 1  IRREP=Ag 
ROOT   0:  E=    -155.0038158309 Eh
      0.94888 [     0]: 2200
      0.02325 [     2]: 2020
      0.01775 [     5]: 1111
      0.00460 [     7]: 0220
      0.00288 [     8]: 0202

                 <<<<<<<<<<<<<<<<<<INITIAL CI STATE CHECK>>>>>>>>>>>>>>>>>>

   E(CAS)=  -155.003815831 Eh DE=    0.000000e+00
   --- Energy gap subspaces: Ext-Act = -0.046   Act-Int = 0.054
   N(occ)=  1.96633 1.93059 0.07441 0.02867
   ||g|| =     8.364043e-02 Max(G)=    3.986834e-02 Rot=33,15
   --- Orbital Update [SuperCI(PT)]
   --- Canonicalize Internal Space
   --- Canonicalize External Space
   --- SX_PT (Skipped TA=0 IT=0): ||X|| =      0.560095454 Max(X)(32,16) =     -0.484316458 
   --- SFit(Active Orbitals)

MACRO-ITERATION   2: 
   --- Inactive Energy E0 = -151.73435804 Eh
CI-ITERATION   0: 
  -155.021436761   0.000000000000 (    0.00)
   CI-PROBLEM SOLVED
   DENSITIES MADE
   E(CAS)=  -155.021436761 Eh DE=   -1.762093e-02
   --- Energy gap subspaces: Ext-Act = -0.073   Act-Int = 0.058
   N(occ)=  1.94192 1.89391 0.11132 0.05285
   ||g|| =     7.002275e-02 Max(G)=   -3.667505e-02 Rot=32,16
   --- Orbital Update [SuperCI(PT)]
   --- Canonicalize Internal Space
   --- Canonicalize External Space
   --- SX_PT (Skipped TA=0 IT=0): ||X|| =      0.288256471 Max(X)(32,16) =      0.275155397 
   --- SFit(Active Orbitals)

MACRO-ITERATION   3: 
   --- Inactive Energy E0 = -151.72553357 Eh
CI-ITERATION   0: 
  -155.029363319   0.000000000000 (    0.00)
   CI-PROBLEM SOLVED
   DENSITIES MADE
   E(CAS)=  -155.029363319 Eh DE=   -7.926558e-03
   --- Energy gap subspaces: Ext-Act = -0.134   Act-Int = 0.059
   N(occ)=  1.93413 1.88676 0.11748 0.06163
   ||g|| =     3.455926e-02 Max(G)=    1.597254e-02 Rot=30,14
   --- Orbital Update [SuperCI(PT)]
   --- Canonicalize Internal Space
   --- Canonicalize External Space
   --- SX_PT (Skipped TA=0 IT=0): ||X|| =      0.069562791 Max(X)(32,16) =     -0.051694516 
   --- SFit(Active Orbitals)

MACRO-ITERATION   4: 
   --- Inactive Energy E0 = -151.71544954 Eh
CI-ITERATION   0: 
  -155.030076587   0.000000000000 (    0.00)
   CI-PROBLEM SOLVED
   DENSITIES MADE
   E(CAS)=  -155.030076587 Eh DE=   -7.132686e-04
   --- Energy gap subspaces: Ext-Act = -0.168   Act-Int = 0.057
   N(occ)=  1.93508 1.88737 0.11744 0.06010
   ||g|| =     8.703169e-03 Max(G)=    3.300020e-03 Rot=30,14
   --- Orbital Update [SuperCI(PT)]
   --- Canonicalize Internal Space
   --- Canonicalize External Space
   --- SX_PT (Skipped TA=0 IT=0): ||X|| =      0.015218103 Max(X)(30,16) =     -0.012526220 
   --- SFit(Active Orbitals)

MACRO-ITERATION   5: 
   --- Inactive Energy E0 = -151.71410325 Eh
CI-ITERATION   0: 
  -155.030104926   0.000000000000 (    0.00)
   CI-PROBLEM SOLVED
   DENSITIES MADE
   E(CAS)=  -155.030104926 Eh DE=   -2.833843e-05
   --- Energy gap subspaces: Ext-Act = -0.162   Act-Int = 0.057
   N(occ)=  1.93467 1.88705 0.11763 0.06065
   ||g|| =     4.034365e-03 Max(G)=    2.006011e-03 Rot=30,14
   --- Orbital Update [SuperCI(PT)]
   --- Canonicalize Internal Space
   --- Canonicalize External Space
   --- SX_PT (Skipped TA=0 IT=0): ||X|| =      0.005021610 Max(X)(30,16) =      0.003965723 
   --- SFit(Active Orbitals)

MACRO-ITERATION   6: 
   --- Inactive Energy E0 = -151.71274454 Eh
CI-ITERATION   0: 
  -155.030110888   0.000000000000 (    0.00)
   CI-PROBLEM SOLVED
   DENSITIES MADE
   E(CAS)=  -155.030110888 Eh DE=   -5.961812e-06
   --- Energy gap subspaces: Ext-Act = -0.164   Act-Int = 0.057
   N(occ)=  1.93471 1.88705 0.11767 0.06056
   ||g|| =     4.047624e-04 Max(G)=    9.753323e-05 Rot=30,14
                     ---- THE CAS-SCF GRADIENT HAS CONVERGED ----
                            --- FINALIZING ORBITALS ---
                    ---- DOING ONE FINAL ITERATION FOR PRINTING ----
   --- Forming Natural Orbitals
   --- Canonicalize Internal Space
   --- Canonicalize External Space

MACRO-ITERATION   7: 
   --- Inactive Energy E0 = -151.71274454 Eh
   --- All densities will be recomputed
CI-ITERATION   0: 
  -155.030110894   0.000000000000 (    0.00)
   CI-PROBLEM SOLVED
   DENSITIES MADE
   E(CAS)=  -155.030110894 Eh DE=   -6.128801e-09
   --- Energy gap subspaces: Ext-Act = -0.168   Act-Int = 0.057
   N(occ)=  0.11766 0.06046 1.93472 1.88715
   ||g|| =     3.538616e-04 Max(G)=   -9.044405e-05 Rot=26,15
--------------
CASSCF RESULTS
--------------

Final CASSCF energy       : -155.030110894 Eh   -4218.5838 eV

----------------
ORBITAL ENERGIES
----------------

  NO   OCC          E(Eh)            E(eV)    Irrep 
   0   2.0000     -11.228175      -305.5342    1-Ag
   1   2.0000     -11.227352      -305.5118    1-Bu
   2   2.0000     -11.219736      -305.3045    2-Ag
   3   2.0000     -11.219726      -305.3043    2-Bu
   4   2.0000      -1.082598       -29.4590    3-Ag
   5   2.0000      -0.991466       -26.9792    3-Bu
   6   2.0000      -0.818676       -22.2773    4-Ag
   7   2.0000      -0.745036       -20.2734    4-Bu
   8   2.0000      -0.635886       -17.3033    5-Bu
   9   2.0000      -0.626108       -17.0373    5-Ag
  10   2.0000      -0.550105       -14.9691    6-Ag
  11   2.0000      -0.536344       -14.5947    6-Bu
  12   2.0000      -0.486374       -13.2349    7-Ag
  13   0.1177       0.148328         4.0362    1-Au
  14   0.0605       0.328479         8.9384    1-Bg
  15   1.9347      -0.429217       -11.6796    2-Au
  16   1.8872      -0.306320        -8.3354    2-Bg
  17   0.0000       0.160189         4.3590    8-Ag
  18   0.0000       0.164539         4.4773    7-Bu
  19   0.0000       0.171858         4.6765    8-Bu
  20   0.0000       0.215296         5.8585    9-Ag
  21   0.0000       0.225302         6.1308   10-Ag
  22   0.0000       0.247797         6.7429    9-Bu
  23   0.0000       0.311320         8.4715   10-Bu
  24   0.0000       0.355493         9.6735   11-Ag
  25   0.0000       0.426759        11.6127   12-Ag
  26   0.0000       0.430935        11.7263    3-Au
  27   0.0000       0.448077        12.1928    3-Bg
  28   0.0000       0.458463        12.4754   13-Ag
  29   0.0000       0.467020        12.7083   11-Bu
  30   0.0000       0.474977        12.9248   12-Bu
  31   0.0000       0.494512        13.4564    4-Bg
  32   0.0000       0.508775        13.8445   13-Bu
  33   0.0000       0.537412        14.6237    4-Au
  34   0.0000       0.581000        15.8098   14-Bu
  35   0.0000       0.587313        15.9816   14-Ag
  36   0.0000       0.608616        16.5613   15-Bu
  37   0.0000       0.627999        17.0887   15-Ag
  38   0.0000       0.643664        17.5150   16-Ag
  39   0.0000       0.660578        17.9752   16-Bu
  40   0.0000       0.673660        18.3312   17-Ag
  41   0.0000       0.684823        18.6350   17-Bu
  42   0.0000       0.705541        19.1987    5-Au
  43   0.0000       0.755393        20.5553    5-Bg
  44   0.0000       0.773556        21.0495   18-Bu
  45   0.0000       0.817851        22.2548   19-Bu
  46   0.0000       0.828773        22.5521    6-Bg
  47   0.0000       0.835635        22.7388   18-Ag
  48   0.0000       0.866297        23.5731   19-Ag
  49   0.0000       0.874768        23.8036    6-Au
  50   0.0000       0.900195        24.4955   20-Bu
  51   0.0000       0.907566        24.6961   20-Ag
  52   0.0000       0.949115        25.8267    7-Au
  53   0.0000       1.064406        28.9640   21-Bu
  54   0.0000       1.082547        29.4576   22-Bu
  55   0.0000       1.092825        29.7373   21-Ag
  56   0.0000       1.096000        29.8237   22-Ag
  57   0.0000       1.134057        30.8593   23-Ag
  58   0.0000       1.137777        30.9605    7-Bg
  59   0.0000       1.191630        32.4259    8-Au
  60   0.0000       1.202727        32.7279    8-Bg
  61   0.0000       1.237012        33.6608    9-Bg
  62   0.0000       1.242000        33.7966    9-Au
  63   0.0000       1.308902        35.6170   24-Ag
  64   0.0000       1.335109        36.3302   23-Bu
  65   0.0000       1.343397        36.5557   24-Bu
  66   0.0000       1.373286        37.3690   25-Ag
  67   0.0000       1.407108        38.2893   10-Bg
  68   0.0000       1.418083        38.5880   25-Bu
  69   0.0000       1.424777        38.7702   26-Bu
  70   0.0000       1.477732        40.2111   10-Au
  71   0.0000       1.497367        40.7454   26-Ag
  72   0.0000       1.541885        41.9568   27-Bu
  73   0.0000       1.573356        42.8132   27-Ag
  74   0.0000       1.618695        44.0469   28-Bu
  75   0.0000       1.633438        44.4481   28-Ag
  76   0.0000       1.655191        45.0400   11-Au
  77   0.0000       1.680774        45.7362   29-Ag
  78   0.0000       1.699789        46.2536   11-Bg
  79   0.0000       1.709399        46.5151   30-Ag
  80   0.0000       1.725472        46.9525   29-Bu
  81   0.0000       1.767628        48.0996   30-Bu
  82   0.0000       1.886743        51.3409   31-Bu
  83   0.0000       1.970042        53.6076   31-Ag
  84   0.0000       1.977803        53.8187   32-Bu
  85   0.0000       2.243334        61.0442   32-Ag
  86   0.0000       2.346858        63.8613   12-Au
  87   0.0000       2.357040        64.1383   33-Ag
  88   0.0000       2.423173        65.9379   12-Bg
  89   0.0000       2.471742        67.2595   33-Bu
  90   0.0000       2.546292        69.2881   34-Ag
  91   0.0000       2.562155        69.7198   13-Au
  92   0.0000       2.601571        70.7923   34-Bu
  93   0.0000       2.607469        70.9528   13-Bg
  94   0.0000       2.650198        72.1156   35-Bu
  95   0.0000       2.729774        74.2809   14-Bg
  96   0.0000       2.747630        74.7668   14-Au
  97   0.0000       2.751929        74.8838   35-Ag
  98   0.0000       2.775363        75.5215   36-Ag
  99   0.0000       2.833487        77.1031   36-Bu
 100   0.0000       2.865425        77.9722   37-Ag
 101   0.0000       2.936890        79.9168   37-Bu
 102   0.0000       2.974934        80.9521   38-Ag
 103   0.0000       2.984063        81.2005   15-Au
 104   0.0000       3.039806        82.7173   39-Ag
 105   0.0000       3.046585        82.9018   16-Au
 106   0.0000       3.048788        82.9617   15-Bg
 107   0.0000       3.088951        84.0546   16-Bg
 108   0.0000       3.093204        84.1704   38-Bu
 109   0.0000       3.126838        85.0856   39-Bu
 110   0.0000       3.136758        85.3555   17-Au
 111   0.0000       3.183010        86.6141   17-Bg
 112   0.0000       3.189503        86.7908   18-Au
 113   0.0000       3.197243        87.0014   40-Ag
 114   0.0000       3.209618        87.3382   40-Bu
 115   0.0000       3.238765        88.1313   41-Ag
 116   0.0000       3.257233        88.6338   18-Bg
 117   0.0000       3.303305        89.8875   41-Bu
 118   0.0000       3.318585        90.3033   19-Au
 119   0.0000       3.331328        90.6500   42-Bu
 120   0.0000       3.358353        91.3854   42-Ag
 121   0.0000       3.369271        91.6825   19-Bg
 122   0.0000       3.388757        92.2128   43-Ag
 123   0.0000       3.422810        93.1394   43-Bu
 124   0.0000       3.428235        93.2870   44-Bu
 125   0.0000       3.453795        93.9825   20-Au
 126   0.0000       3.480235        94.7020   44-Ag
 127   0.0000       3.489247        94.9472   20-Bg
 128   0.0000       3.513730        95.6134   45-Bu
 129   0.0000       3.532613        96.1273   45-Ag
 130   0.0000       3.591086        97.7184   21-Au
 131   0.0000       3.614720        98.3615   21-Bg
 132   0.0000       3.624222        98.6201   22-Au
 133   0.0000       3.663890        99.6995   46-Bu
 134   0.0000       3.697526       100.6148   46-Ag
 135   0.0000       3.765811       102.4729   22-Bg
 136   0.0000       3.773918       102.6935   47-Ag
 137   0.0000       3.792943       103.2112   47-Bu
 138   0.0000       3.813166       103.7615   48-Ag
 139   0.0000       3.856965       104.9534   48-Bu
 140   0.0000       3.867117       105.2296   49-Ag
 141   0.0000       3.903851       106.2292   23-Bg
 142   0.0000       3.910263       106.4037   23-Au
 143   0.0000       3.975374       108.1754   49-Bu
 144   0.0000       4.023244       109.4780   50-Ag
 145   0.0000       4.048974       110.1782   24-Au
 146   0.0000       4.053792       110.3093   50-Bu
 147   0.0000       4.092857       111.3723   51-Ag
 148   0.0000       4.094495       111.4169   24-Bg
 149   0.0000       4.130311       112.3915   51-Bu
 150   0.0000       4.147513       112.8596   25-Au
 151   0.0000       4.148828       112.8953   52-Ag
 152   0.0000       4.188543       113.9760   52-Bu
 153   0.0000       4.207236       114.4847   25-Bg
 154   0.0000       4.270990       116.2196   26-Bg
 155   0.0000       4.272758       116.2677   53-Bu
 156   0.0000       4.307907       117.2241   54-Bu
 157   0.0000       4.317169       117.4761   26-Au
 158   0.0000       4.338302       118.0512   53-Ag
 159   0.0000       4.340977       118.1240   27-Au
 160   0.0000       4.393830       119.5622   27-Bg
 161   0.0000       4.402118       119.7877   54-Ag
 162   0.0000       4.454179       121.2044   55-Ag
 163   0.0000       4.492400       122.2444   28-Au
 164   0.0000       4.540342       123.5490   55-Bu
 165   0.0000       4.579021       124.6015   56-Ag
 166   0.0000       4.682551       127.4187   56-Bu
 167   0.0000       4.682812       127.4258   28-Bg
 168   0.0000       4.712248       128.2268   57-Bu
 169   0.0000       4.774548       129.9221   57-Ag
 170   0.0000       4.806753       130.7984   29-Au
 171   0.0000       4.860307       132.2557   29-Bg
 172   0.0000       4.863159       132.3333   58-Ag
 173   0.0000       4.912819       133.6846   58-Bu
 174   0.0000       4.957122       134.8901   30-Au
 175   0.0000       4.969282       135.2210   59-Ag
 176   0.0000       5.026519       136.7785   59-Bu
 177   0.0000       5.094476       138.6277   30-Bg
 178   0.0000       5.144418       139.9867   60-Ag
 179   0.0000       5.172579       140.7530   60-Bu
 180   0.0000       5.259680       143.1232   61-Ag
 181   0.0000       5.280546       143.6910   31-Au
 182   0.0000       5.288912       143.9186   61-Bu
 183   0.0000       5.311197       144.5250   31-Bg
 184   0.0000       5.401068       146.9705   62-Ag
 185   0.0000       5.431977       147.8116   63-Ag
 186   0.0000       5.459257       148.5539   32-Bg
 187   0.0000       5.488024       149.3367   32-Au
 188   0.0000       5.495398       149.5374   62-Bu
 189   0.0000       5.688541       154.7931   63-Bu
 190   0.0000       5.765132       156.8772   64-Ag
 191   0.0000       5.792921       157.6334   64-Bu
 192   0.0000       5.821573       158.4130   65-Ag
 193   0.0000       5.911026       160.8472   65-Bu
 194   0.0000       6.251709       170.1177   66-Bu
 195   0.0000       6.296676       171.3413   66-Ag
 196   0.0000       6.352098       172.8494   67-Bu
 197   0.0000       6.461087       175.8151   67-Ag
 198   0.0000       6.477894       176.2725   68-Bu
 199   0.0000       6.935286       188.7187   68-Ag
 200   0.0000      11.878339       323.2260   69-Ag
 201   0.0000      11.905777       323.9727   69-Bu
 202   0.0000      14.360913       390.7803   70-Ag
 203   0.0000      15.023578       408.8123   70-Bu


---------------------------------------------
CAS-SCF STATES FOR BLOCK  1 MULT= 1 IRREP= Ag NROOTS= 1
---------------------------------------------

ROOT   0:  E=    -155.0301108937 Eh
      0.91249 [    10]: 0022
      0.03571 [     5]: 1111
      0.03219 [     2]: 2020
      0.00718 [     3]: 2002
      0.00600 [     8]: 0202
      0.00477 [     7]: 0220


--------------
DENSITY MATRIX
--------------

                  0          1          2          3    
      0       0.117662   0.000000   0.000000   0.000000
      1       0.000000   0.060465   0.000000  -0.000000
      2       0.000000   0.000000   1.934722   0.000000
      3       0.000000  -0.000000   0.000000   1.887152
Trace of the electron density:  4.000000

-----------------
ENERGY COMPONENTS
-----------------

One electron energy          :   -412.307177519 Eh      -11219.4487 eV
Two electron energy          :    153.941927497 Eh        4188.9728 eV
Nuclear repulsion energy     :    103.335139128 Eh        2811.8921 eV
                               ----------------
                                 -155.030110894

Kinetic energy               :    154.793675875 Eh        4212.1501 eV
Potential energy             :   -309.823786768 Eh       -8430.7338 eV
Virial ratio                 :     -2.001527420 
                               ----------------
                                 -155.030110894

Core energy                  :   -151.712744540 Eh    -4128.3137 eV


----------------------------
LOEWDIN ORBITAL-COMPOSITIONS
----------------------------

                      0         1         2         3         4         5   
                 -11.22817 -11.22735 -11.21974 -11.21973  -1.08260  -0.99147
                   2.00000   2.00000   2.00000   2.00000   2.00000   2.00000
                  --------  --------  --------  --------  --------  --------
 0 C  s               0.5       0.6      47.6      47.4       9.9      16.7
 0 C  px              0.1       0.0       0.0       0.0       1.6       0.3
 0 C  py              0.2       0.2       0.0       0.0       2.4       1.3
 0 C  dz2             0.1       0.1       0.0       0.0       0.3       0.3
 0 C  dxy             0.3       0.2       0.0       0.0       0.5       0.1
 0 C  f+3             0.1       0.1       0.0       0.0       0.1       0.1
 1 H  s               0.0       0.0       0.1       0.1       2.2       3.8
 1 H  px              0.0       0.0       0.1       0.1       0.0       0.1
 1 H  py              0.0       0.0       0.3       0.3       0.5       0.8
 2 H  s               0.0       0.0       0.1       0.1       1.9       4.2
 2 H  px              0.0       0.0       0.3       0.3       0.4       1.0
 3 C  s              47.6      47.6       0.5       0.6      21.4       7.1
 3 C  px              0.2       0.2       0.1       0.1       1.1       6.5
 3 C  py              0.0       0.0       0.2       0.2       0.6       4.5
 3 C  dz2             0.1       0.1       0.1       0.1       0.7       0.1
 3 C  dx2y2           0.2       0.2       0.1       0.0       0.2       0.7
 3 C  dxy             0.0       0.0       0.3       0.2       0.3       0.1
 3 C  f+3             0.0       0.0       0.1       0.1       0.2       0.0
 4 H  s               0.2       0.1       0.0       0.0       4.5       1.3
 4 H  px              0.1       0.1       0.0       0.0       0.3       0.0
 4 H  py              0.3       0.3       0.0       0.0       0.8       0.5
 5 C  s              47.6      47.6       0.5       0.6      21.4       7.1
 5 C  px              0.2       0.2       0.1       0.1       1.1       6.5
 5 C  py              0.0       0.0       0.2       0.2       0.6       4.5
 5 C  dz2             0.1       0.1       0.1       0.1       0.7       0.1
 5 C  dx2y2           0.2       0.2       0.1       0.0       0.2       0.7
 5 C  dxy             0.0       0.0       0.3       0.2       0.3       0.1
 5 C  f+3             0.0       0.0       0.1       0.1       0.2       0.0
 6 H  s               0.2       0.1       0.0       0.0       4.5       1.3
 6 H  px              0.1       0.1       0.0       0.0       0.3       0.0
 6 H  py              0.3       0.3       0.0       0.0       0.8       0.5
 7 C  s               0.5       0.6      47.6      47.4       9.9      16.7
 7 C  px              0.1       0.0       0.0       0.0       1.6       0.3
 7 C  py              0.2       0.2       0.0       0.0       2.4       1.3
 7 C  dz2             0.1       0.1       0.0       0.0       0.3       0.3
 7 C  dxy             0.3       0.2       0.0       0.0       0.5       0.1
 7 C  f+3             0.1       0.1       0.0       0.0       0.1       0.1
 8 H  s               0.0       0.0       0.1       0.1       2.2       3.8
 8 H  px              0.0       0.0       0.1       0.1       0.0       0.1
 8 H  py              0.0       0.0       0.3       0.3       0.5       0.8
 9 H  s               0.0       0.0       0.1       0.1       1.9       4.2
 9 H  px              0.0       0.0       0.3       0.3       0.4       1.0

                      6         7         8         9        10        11   
                  -0.81868  -0.74504  -0.63589  -0.62611  -0.55010  -0.53634
                   2.00000   2.00000   2.00000   2.00000   2.00000   2.00000
                  --------  --------  --------  --------  --------  --------
 0 C  s              10.5       2.0       0.6       0.1       0.4       0.0
 0 C  px              2.5       0.0      16.2       6.3      10.0       7.6
 0 C  py              2.3       8.3       4.5      12.1       7.2      10.5
 0 C  dz2             0.0       0.0       0.0       0.0       0.2       0.0
 0 C  dx2y2           0.0       0.6       0.2       0.0       0.4       2.1
 0 C  dxy             0.6       0.2       0.4       0.1       0.2       0.7
 0 C  f-3             0.0       0.1       0.0       0.1       0.0       0.0
 1 H  s               5.2       5.7       0.4       9.0       0.7      11.2
 1 H  px              0.4       0.2       0.7       0.0       0.4       0.0
 1 H  py              0.5       0.3       0.1       0.3       0.2       0.1
 1 H  dx2y2           0.0       0.0       0.1       0.0       0.1       0.0
 2 H  s               7.3       0.9      10.8       2.0       5.9       5.1
 2 H  px              1.1       0.1       0.3       0.1       0.1       0.1
 2 H  py              0.0       0.2       0.2       0.5       0.3       0.4
 2 H  dxy             0.0       0.1       0.0       0.1       0.1       0.1
 3 C  s               4.1       5.4       0.7       0.1       0.2       0.3
 3 C  px              7.6       4.0       0.3      13.8       3.3       0.0
 3 C  py              3.5       8.7      11.0       0.8      12.8       4.8
 3 C  dz2             0.0       0.0       0.1       0.0       0.0       0.0
 3 C  dx2y2           0.6       0.2       0.2       0.1       0.3       1.9
 3 C  dxy             1.2       0.0       0.4       0.1       2.1       0.4
 3 C  f-3             0.0       0.0       0.0       0.2       0.2       0.3
 4 H  s               1.7      11.4       2.2       3.3       4.5       4.0
 4 H  px              0.5       0.2       0.1       0.2       0.4       0.1
 4 H  py              0.1       0.8       0.0       0.4       0.1       0.0
 4 H  dx2y2           0.0       0.0       0.0       0.1       0.0       0.0
 5 C  s               4.1       5.4       0.7       0.1       0.2       0.3
 5 C  px              7.6       4.0       0.3      13.8       3.3       0.0
 5 C  py              3.5       8.7      11.0       0.8      12.8       4.8
 5 C  dz2             0.0       0.0       0.1       0.0       0.0       0.0
 5 C  dx2y2           0.6       0.2       0.2       0.1       0.3       1.9
 5 C  dxy             1.2       0.0       0.4       0.1       2.1       0.4
 5 C  f-3             0.0       0.0       0.0       0.2       0.2       0.3
 6 H  s               1.7      11.4       2.2       3.3       4.5       4.0
 6 H  px              0.5       0.2       0.1       0.2       0.4       0.1
 6 H  py              0.1       0.8       0.0       0.4       0.1       0.0
 6 H  dx2y2           0.0       0.0       0.0       0.1       0.0       0.0
 7 C  s              10.5       2.0       0.6       0.1       0.4       0.0
 7 C  px              2.5       0.0      16.2       6.3      10.0       7.6
 7 C  py              2.3       8.3       4.5      12.1       7.2      10.5
 7 C  dz2             0.0       0.0       0.0       0.0       0.2       0.0
 7 C  dx2y2           0.0       0.6       0.2       0.0       0.4       2.1
 7 C  dxy             0.6       0.2       0.4       0.1       0.2       0.7
 7 C  f-3             0.0       0.1       0.0       0.1       0.0       0.0
 8 H  s               5.2       5.7       0.4       9.0       0.7      11.2
 8 H  px              0.4       0.2       0.7       0.0       0.4       0.0
 8 H  py              0.5       0.3       0.1       0.3       0.2       0.1
 8 H  dx2y2           0.0       0.0       0.1       0.0       0.1       0.0
 9 H  s               7.3       0.9      10.8       2.0       5.9       5.1
 9 H  px              1.1       0.1       0.3       0.1       0.1       0.1
 9 H  py              0.0       0.2       0.2       0.5       0.3       0.4
 9 H  dxy             0.0       0.1       0.0       0.1       0.1       0.1

                     12        13        14        15        16        17   
                  -0.48637   0.14833   0.32848  -0.42922  -0.30632   0.16019
                   2.00000   0.11766   0.06046   1.93472   1.88715   0.00000
                  --------  --------  --------  --------  --------  --------
 0 C  s               0.0       0.0       0.0       0.0       0.0       2.2
 0 C  pz              0.0      23.6      13.3      16.1      27.2       0.0
 0 C  px              5.1       0.0       0.0       0.0       0.0       0.7
 0 C  py              1.7       0.0       0.0       0.0       0.0       0.6
 0 C  dxz             0.0       0.6       0.8       0.4       0.2       0.0
 0 C  dyz             0.0       1.3       2.4       0.9       0.5       0.0
 0 C  dx2y2           3.1       0.0       0.0       0.0       0.0       0.5
 0 C  dxy             1.1       0.0       0.0       0.0       0.0       0.1
 0 C  f0              0.0       0.4       0.6       0.0       0.0       0.0
 0 C  f-2             0.0       0.2       0.3       0.1       0.1       0.0
 0 C  f-3             0.2       0.0       0.0       0.0       0.0       0.0
 1 H  s               4.6       0.0       0.0       0.0       0.0       8.9
 1 H  pz              0.0       1.6       0.9       0.7       1.4       0.0
 1 H  px              0.1       0.0       0.0       0.0       0.0       1.5
 1 H  py              0.0       0.0       0.0       0.0       0.0       0.9
 1 H  dyz             0.0       0.3       0.2       0.1       0.2       0.0
 2 H  s               4.5       0.0       0.0       0.0       0.0      11.2
 2 H  pz              0.0       1.7       0.9       0.7       1.5       0.0
 2 H  px              0.1       0.0       0.0       0.0       0.0       2.9
 2 H  py              0.0       0.0       0.0       0.0       0.0       0.3
 2 H  dxz             0.0       0.4       0.3       0.1       0.3       0.0
 3 C  s               0.2       0.0       0.0       0.0       0.0       0.7
 3 C  pz              0.0      13.1      24.4      28.4      13.2       0.0
 3 C  px             11.8       0.0       0.0       0.0       0.0       0.4
 3 C  py              3.4       0.0       0.0       0.0       0.0       1.1
 3 C  dxz             0.0       2.9       0.7       0.3       2.8       0.0
 3 C  dyz             0.0       2.0       1.0       0.4       1.5       0.0
 3 C  dx2y2           2.4       0.0       0.0       0.0       0.0       0.0
 3 C  dxy             2.2       0.0       0.0       0.0       0.0       0.0
 3 C  f0              0.0       0.2       1.2       0.1       0.0       0.0
 3 C  f+2             0.0       0.4       0.1       0.0       0.2       0.0
 3 C  f-2             0.0       0.3       0.2       0.1       0.1       0.0
 4 H  s               9.1       0.0       0.0       0.0       0.0      15.4
 4 H  pz              0.0       0.8       1.8       1.2       0.7       0.0
 4 H  px              0.2       0.0       0.0       0.0       0.0       0.5
 4 H  py              0.1       0.0       0.0       0.0       0.0       1.7
 4 H  dxz             0.0       0.1       0.1       0.1       0.0       0.0
 4 H  dyz             0.0       0.2       0.4       0.2       0.1       0.0
 5 C  s               0.2       0.0       0.0       0.0       0.0       0.7
 5 C  pz              0.0      13.1      24.4      28.4      13.2       0.0
 5 C  px             11.8       0.0       0.0       0.0       0.0       0.4
 5 C  py              3.4       0.0       0.0       0.0       0.0       1.1
 5 C  dxz             0.0       2.9       0.7       0.3       2.8       0.0
 5 C  dyz             0.0       2.0       1.0       0.4       1.5       0.0
 5 C  dx2y2           2.4       0.0       0.0       0.0       0.0       0.0
 5 C  dxy             2.2       0.0       0.0       0.0       0.0       0.0
 5 C  f0              0.0       0.2       1.2       0.1       0.0       0.0
 5 C  f+2             0.0       0.4       0.1       0.0       0.2       0.0
 5 C  f-2             0.0       0.3       0.2       0.1       0.1       0.0
 6 H  s               9.1       0.0       0.0       0.0       0.0      15.4
 6 H  pz              0.0       0.8       1.8       1.2       0.7       0.0
 6 H  px              0.2       0.0       0.0       0.0       0.0       0.5
 6 H  py              0.1       0.0       0.0       0.0       0.0       1.7
 6 H  dxz             0.0       0.1       0.1       0.1       0.0       0.0
 6 H  dyz             0.0       0.2       0.4       0.2       0.1       0.0
 7 C  s               0.0       0.0       0.0       0.0       0.0       2.2
 7 C  pz              0.0      23.6      13.3      16.1      27.2       0.0
 7 C  px              5.1       0.0       0.0       0.0       0.0       0.7
 7 C  py              1.7       0.0       0.0       0.0       0.0       0.6
 7 C  dxz             0.0       0.6       0.8       0.4       0.2       0.0
 7 C  dyz             0.0       1.3       2.4       0.9       0.5       0.0
 7 C  dx2y2           3.1       0.0       0.0       0.0       0.0       0.5
 7 C  dxy             1.1       0.0       0.0       0.0       0.0       0.1
 7 C  f0              0.0       0.4       0.6       0.0       0.0       0.0
 7 C  f-2             0.0       0.2       0.3       0.1       0.1       0.0
 7 C  f-3             0.2       0.0       0.0       0.0       0.0       0.0
 8 H  s               4.6       0.0       0.0       0.0       0.0       8.9
 8 H  pz              0.0       1.6       0.9       0.7       1.4       0.0
 8 H  px              0.1       0.0       0.0       0.0       0.0       1.5
 8 H  py              0.0       0.0       0.0       0.0       0.0       0.9
 8 H  dyz             0.0       0.3       0.2       0.1       0.2       0.0
 9 H  s               4.5       0.0       0.0       0.0       0.0      11.2
 9 H  pz              0.0       1.7       0.9       0.7       1.5       0.0
 9 H  px              0.1       0.0       0.0       0.0       0.0       2.9
 9 H  py              0.0       0.0       0.0       0.0       0.0       0.3
 9 H  dxz             0.0       0.4       0.3       0.1       0.3       0.0

                     18        19        20        21        22        23   
                   0.16454   0.17186   0.21530   0.22530   0.24780   0.31132
                   0.00000   0.00000   0.00000   0.00000   0.00000   0.00000
                  --------  --------  --------  --------  --------  --------
 0 C  s               0.4       2.6       0.1       0.8       0.0       0.2
 0 C  px              0.8       1.3       3.5       0.6       1.1       4.4
 0 C  py              1.5       0.1       0.4       4.1       0.4      15.3
 0 C  dz2             0.1       0.4       0.1       0.4       0.0       0.0
 0 C  dx2y2           0.5       0.2       0.1       1.1       0.0       0.0
 0 C  dxy             0.1       0.1       0.0       0.0       0.2       5.1
 1 H  s              16.3       6.2       8.7      16.7      11.2       2.6
 1 H  px              0.8       1.2       0.1       0.0       0.0       3.4
 1 H  py              2.9       1.0       1.0       5.5       2.7       0.4
 2 H  s               0.3      25.1      24.7       0.6      10.0       0.1
 2 H  px              0.0       5.5       3.8       0.1       2.2       0.0
 2 H  py              0.1       0.1       0.3       0.0       0.8       5.0
 3 C  s               0.5       0.2       0.4       1.1       0.9       2.9
 3 C  px              0.6       0.3       0.1       0.6       0.5       3.0
 3 C  py              1.5       0.2       0.1       0.4       0.6       1.9
 3 C  dz2             0.2       0.0       0.0       0.3       0.5       1.1
 3 C  dx2y2           0.3       0.0       0.4       0.8       1.6       0.9
 3 C  dxy             0.6       1.2       0.3       0.0       0.0       0.0
 4 H  s              17.6       2.8       5.0      13.2      13.2       0.8
 4 H  px              0.8       1.3       0.0       0.6       2.4       1.8
 4 H  py              3.9       0.1       0.8       3.1       1.4       0.8
 5 C  s               0.5       0.2       0.4       1.1       0.9       2.9
 5 C  px              0.6       0.3       0.1       0.6       0.5       3.0
 5 C  py              1.5       0.2       0.1       0.4       0.6       1.9
 5 C  dz2             0.2       0.0       0.0       0.3       0.5       1.1
 5 C  dx2y2           0.3       0.0       0.4       0.8       1.6       0.9
 5 C  dxy             0.6       1.2       0.3       0.0       0.0       0.0
 6 H  s              17.6       2.8       5.0      13.2      13.2       0.8
 6 H  px              0.8       1.3       0.0       0.6       2.4       1.8
 6 H  py              3.9       0.1       0.8       3.1       1.4       0.8
 7 C  s               0.4       2.6       0.1       0.8       0.0       0.2
 7 C  px              0.8       1.3       3.5       0.6       1.1       4.4
 7 C  py              1.5       0.1       0.4       4.1       0.4      15.3
 7 C  dz2             0.1       0.4       0.1       0.4       0.0       0.0
 7 C  dx2y2           0.5       0.2       0.1       1.1       0.0       0.0
 7 C  dxy             0.1       0.1       0.0       0.0       0.2       5.1
 8 H  s              16.3       6.2       8.7      16.7      11.2       2.6
 8 H  px              0.8       1.2       0.1       0.0       0.0       3.4
 8 H  py              2.9       1.0       1.0       5.5       2.7       0.4
 9 H  s               0.3      25.1      24.7       0.6      10.0       0.1
 9 H  px              0.0       5.5       3.8       0.1       2.2       0.0
 9 H  py              0.1       0.1       0.3       0.0       0.8       5.0

                     24        25        26        27        28        29   
                   0.35549   0.42676   0.43094   0.44808   0.45846   0.46702
                   0.00000   0.00000   0.00000   0.00000   0.00000   0.00000
                  --------  --------  --------  --------  --------  --------
 0 C  s               0.6       0.1       0.0       0.0       6.1       0.6
 0 C  pz              0.0       0.0      25.2      37.0       0.0       0.0
 0 C  px              7.7       0.5       0.0       0.0       1.3       2.0
 0 C  py              6.8      12.3       0.0       0.0       1.0       0.6
 0 C  dz2             0.0       0.0       0.0       0.0       7.9       1.8
 0 C  dxz             0.0       0.0       0.2       0.1       0.0       0.0
 0 C  dyz             0.0       0.0       0.9       1.2       0.0       0.0
 0 C  dx2y2           2.1       1.7       0.0       0.0       0.1       5.9
 0 C  dxy             3.3       3.1       0.0       0.0       0.0       1.1
 0 C  f-1             0.0       0.2       0.0       0.0       0.0       0.0
 0 C  f-2             0.0       0.0       0.1       0.0       0.0       0.0
 0 C  f+3             0.0       0.0       0.0       0.0       0.3       0.0
 1 H  s               1.0       4.3       0.0       0.0       2.0       1.3
 1 H  pz              0.0       0.0       0.1       1.2       0.0       0.0
 1 H  px              7.5       0.0       0.0       0.0       0.2       1.0
 1 H  py              0.1       1.3       0.0       0.0       0.3       0.4
 1 H  dyz             0.0       0.0       0.1       0.2       0.0       0.0
 2 H  s               2.8       0.9       0.0       0.0       2.0       8.3
 2 H  pz              0.0       0.0       0.1       0.1       0.0       0.0
 2 H  px              1.2       0.1       0.0       0.0       0.4       1.3
 2 H  py              3.0       4.8       0.0       0.0       0.2       0.8
 2 H  dxz             0.0       0.0       0.2       0.3       0.0       0.0
 3 C  s               1.5       0.1       0.0       0.0       8.8       0.6
 3 C  pz              0.0       0.0      21.2       5.9       0.0       0.0
 3 C  px              2.4       8.0       0.0       0.0       2.2       0.9
 3 C  py              0.9       0.7       0.0       0.0       1.1       3.2
 3 C  dz2             0.6       0.4       0.0       0.0      12.6       0.1
 3 C  dxz             0.0       0.0       0.1       0.7       0.0       0.0
 3 C  dyz             0.0       0.0       0.9       0.8       0.0       0.0
 3 C  dx2y2           0.8       4.3       0.0       0.0       0.0       1.3
 3 C  dxy             0.0       0.0       0.0       0.0       0.1       9.3
 3 C  f0              0.0       0.0       0.2       0.1       0.0       0.0
 3 C  f-1             0.0       0.0       0.0       0.0       0.0       0.1
 3 C  f-2             0.0       0.0       0.2       0.1       0.0       0.0
 3 C  f+3             0.0       0.0       0.0       0.0       0.4       0.0
 4 H  s               4.0       1.9       0.0       0.0       2.4       7.0
 4 H  pz              0.0       0.0       0.2       2.0       0.0       0.0
 4 H  px              3.1       1.2       0.0       0.0       0.2       1.5
 4 H  py              0.3       3.6       0.0       0.0       0.3       0.6
 4 H  dyz             0.0       0.0       0.1       0.1       0.0       0.0
 4 H  dxy             0.1       0.0       0.0       0.0       0.0       0.0
 5 C  s               1.5       0.1       0.0       0.0       8.8       0.6
 5 C  pz              0.0       0.0      21.2       5.9       0.0       0.0
 5 C  px              2.4       8.0       0.0       0.0       2.2       0.9
 5 C  py              0.9       0.7       0.0       0.0       1.1       3.2
 5 C  dz2             0.6       0.4       0.0       0.0      12.6       0.1
 5 C  dxz             0.0       0.0       0.1       0.7       0.0       0.0
 5 C  dyz             0.0       0.0       0.9       0.8       0.0       0.0
 5 C  dx2y2           0.8       4.3       0.0       0.0       0.0       1.3
 5 C  dxy             0.0       0.0       0.0       0.0       0.1       9.3
 5 C  f0              0.0       0.0       0.2       0.1       0.0       0.0
 5 C  f-1             0.0       0.0       0.0       0.0       0.0       0.1
 5 C  f-2             0.0       0.0       0.2       0.1       0.0       0.0
 5 C  f+3             0.0       0.0       0.0       0.0       0.4       0.0
 6 H  s               4.0       1.9       0.0       0.0       2.4       7.0
 6 H  pz              0.0       0.0       0.2       2.0       0.0       0.0
 6 H  px              3.1       1.2       0.0       0.0       0.2       1.5
 6 H  py              0.3       3.6       0.0       0.0       0.3       0.6
 6 H  dyz             0.0       0.0       0.1       0.1       0.0       0.0
 6 H  dxy             0.1       0.0       0.0       0.0       0.0       0.0
 7 C  s               0.6       0.1       0.0       0.0       6.1       0.6
 7 C  pz              0.0       0.0      25.2      37.0       0.0       0.0
 7 C  px              7.7       0.5       0.0       0.0       1.3       2.0
 7 C  py              6.8      12.3       0.0       0.0       1.0       0.6
 7 C  dz2             0.0       0.0       0.0       0.0       7.9       1.8
 7 C  dxz             0.0       0.0       0.2       0.1       0.0       0.0
 7 C  dyz             0.0       0.0       0.9       1.2       0.0       0.0
 7 C  dx2y2           2.1       1.7       0.0       0.0       0.1       5.9
 7 C  dxy             3.3       3.1       0.0       0.0       0.0       1.1
 7 C  f-1             0.0       0.2       0.0       0.0       0.0       0.0
 7 C  f-2             0.0       0.0       0.1       0.0       0.0       0.0
 7 C  f+3             0.0       0.0       0.0       0.0       0.3       0.0
 8 H  s               1.0       4.3       0.0       0.0       2.0       1.3
 8 H  pz              0.0       0.0       0.1       1.2       0.0       0.0
 8 H  px              7.5       0.0       0.0       0.0       0.2       1.0
 8 H  py              0.1       1.3       0.0       0.0       0.3       0.4
 8 H  dyz             0.0       0.0       0.1       0.2       0.0       0.0
 9 H  s               2.8       0.9       0.0       0.0       2.0       8.3
 9 H  pz              0.0       0.0       0.1       0.1       0.0       0.0
 9 H  px              1.2       0.1       0.0       0.0       0.4       1.3
 9 H  py              3.0       4.8       0.0       0.0       0.2       0.8
 9 H  dxz             0.0       0.0       0.2       0.3       0.0       0.0

                     30        31        32        33        34        35   
                   0.47498   0.49451   0.50877   0.53741   0.58100   0.58731
                   0.00000   0.00000   0.00000   0.00000   0.00000   0.00000
                  --------  --------  --------  --------  --------  --------
 0 C  s               2.4       0.0       7.9       0.0       0.3       7.2
 0 C  pz              0.0       9.0       0.0      19.7       0.0       0.0
 0 C  px              1.2       0.0       0.3       0.0       7.3       4.5
 0 C  py              5.6       0.0       2.0       0.0       5.9       0.3
 0 C  dz2             0.0       0.0      15.2       0.0       1.2       5.8
 0 C  dxz             0.0       2.9       0.0       0.8       0.0       0.0
 0 C  dyz             0.0       0.1       0.0       0.4       0.0       0.0
 0 C  dx2y2           2.2       0.0       1.0       0.0       0.2       1.0
 0 C  dxy             0.1       0.0       0.3       0.0       0.3       0.0
 0 C  f0              0.0       0.1       0.0       0.0       0.0       0.0
 0 C  f+1             0.0       0.0       0.0       0.0       0.1       0.1
 0 C  f-1             0.0       0.0       0.0       0.0       0.1       0.0
 0 C  f-2             0.0       0.1       0.0       0.1       0.0       0.0
 0 C  f+3             0.2       0.0       0.4       0.0       0.0       0.5
 0 C  f-3             0.1       0.0       0.0       0.0       0.2       0.1
 1 H  s               2.2       0.0       7.0       0.0       0.6       4.9
 1 H  pz              0.0       0.4       0.0       0.5       0.0       0.0
 1 H  px              0.8       0.0       0.1       0.0       0.8       0.1
 1 H  py              0.1       0.0       1.2       0.0       0.1       1.1
 1 H  dz2             0.0       0.0       0.0       0.0       0.2       0.0
 1 H  dyz             0.0       0.1       0.0       0.1       0.0       0.0
 1 H  dx2y2           0.2       0.0       0.0       0.0       0.0       0.1
 1 H  dxy             0.1       0.0       0.0       0.0       0.0       0.0
 2 H  s               2.3       0.0       1.1       0.0       1.2       1.9
 2 H  pz              0.0       0.5       0.0       1.7       0.0       0.0
 2 H  px              1.1       0.0       0.1       0.0       0.3       0.2
 2 H  py              1.4       0.0       0.0       0.0       0.0       0.9
 2 H  dz2             0.0       0.0       0.1       0.0       0.0       0.1
 2 H  dxz             0.0       0.0       0.0       0.2       0.0       0.0
 2 H  dx2y2           0.1       0.0       0.0       0.0       0.1       0.0
 2 H  dxy             0.0       0.0       0.0       0.0       0.1       0.0
 3 C  s               0.6       0.0       0.6       0.0       3.4       0.4
 3 C  pz              0.0      28.7       0.0      24.9       0.0       0.0
 3 C  px              8.5       0.0       3.6       0.0       9.9       7.5
 3 C  py              5.7       0.0       2.7       0.0       9.2       0.3
 3 C  dz2             0.1       0.0       4.1       0.0       2.1       5.9
 3 C  dxz             0.0       0.3       0.0       0.5       0.0       0.0
 3 C  dyz             0.0       4.5       0.0       0.0       0.0       0.0
 3 C  dx2y2           4.0       0.0       0.7       0.0       0.1       0.3
 3 C  dxy             2.5       0.0       0.0       0.0       2.0       0.4
 3 C  f+1             0.1       0.0       0.0       0.0       0.1       0.2
 3 C  f-1             0.1       0.0       0.0       0.0       0.2       0.1
 3 C  f+2             0.0       0.1       0.0       0.2       0.0       0.0
 3 C  f+3             0.0       0.0       0.2       0.0       0.0       0.1
 4 H  s               0.5       0.0       0.5       0.0       3.1       4.4
 4 H  pz              0.0       3.0       0.0       0.6       0.0       0.0
 4 H  px              5.5       0.0       0.8       0.0       0.3       0.1
 4 H  py              2.4       0.0       0.1       0.0       0.2       1.2
 4 H  dz2             0.0       0.0       0.0       0.0       0.2       0.0
 4 H  dyz             0.0       0.2       0.0       0.1       0.0       0.0
 4 H  dx2y2           0.0       0.0       0.1       0.0       0.1       0.2
 4 H  dxy             0.0       0.0       0.1       0.0       0.2       0.1
 5 C  s               0.6       0.0       0.6       0.0       3.4       0.4
 5 C  pz              0.0      28.7       0.0      24.9       0.0       0.0
 5 C  px              8.5       0.0       3.6       0.0       9.9       7.5
 5 C  py              5.7       0.0       2.7       0.0       9.2       0.3
 5 C  dz2             0.1       0.0       4.1       0.0       2.1       5.9
 5 C  dxz             0.0       0.3       0.0       0.5       0.0       0.0
 5 C  dyz             0.0       4.5       0.0       0.0       0.0       0.0
 5 C  dx2y2           4.0       0.0       0.7       0.0       0.1       0.3
 5 C  dxy             2.5       0.0       0.0       0.0       2.0       0.4
 5 C  f+1             0.1       0.0       0.0       0.0       0.1       0.2
 5 C  f-1             0.1       0.0       0.0       0.0       0.2       0.1
 5 C  f+2             0.0       0.1       0.0       0.2       0.0       0.0
 5 C  f+3             0.0       0.0       0.2       0.0       0.0       0.1
 6 H  s               0.5       0.0       0.5       0.0       3.1       4.4
 6 H  pz              0.0       3.0       0.0       0.6       0.0       0.0
 6 H  px              5.5       0.0       0.8       0.0       0.3       0.1
 6 H  py              2.4       0.0       0.1       0.0       0.2       1.2
 6 H  dz2             0.0       0.0       0.0       0.0       0.2       0.0
 6 H  dyz             0.0       0.2       0.0       0.1       0.0       0.0
 6 H  dx2y2           0.0       0.0       0.1       0.0       0.1       0.2
 6 H  dxy             0.0       0.0       0.1       0.0       0.2       0.1
 7 C  s               2.4       0.0       7.9       0.0       0.3       7.2
 7 C  pz              0.0       9.0       0.0      19.7       0.0       0.0
 7 C  px              1.2       0.0       0.3       0.0       7.3       4.5
 7 C  py              5.6       0.0       2.0       0.0       5.9       0.3
 7 C  dz2             0.0       0.0      15.2       0.0       1.2       5.8
 7 C  dxz             0.0       2.9       0.0       0.8       0.0       0.0
 7 C  dyz             0.0       0.1       0.0       0.4       0.0       0.0
 7 C  dx2y2           2.2       0.0       1.0       0.0       0.2       1.0
 7 C  dxy             0.1       0.0       0.3       0.0       0.3       0.0
 7 C  f0              0.0       0.1       0.0       0.0       0.0       0.0
 7 C  f+1             0.0       0.0       0.0       0.0       0.1       0.1
 7 C  f-1             0.0       0.0       0.0       0.0       0.1       0.0
 7 C  f-2             0.0       0.1       0.0       0.1       0.0       0.0
 7 C  f+3             0.2       0.0       0.4       0.0       0.0       0.5
 7 C  f-3             0.1       0.0       0.0       0.0       0.2       0.1
 8 H  s               2.2       0.0       7.0       0.0       0.6       4.9
 8 H  pz              0.0       0.4       0.0       0.5       0.0       0.0
 8 H  px              0.8       0.0       0.1       0.0       0.8       0.1
 8 H  py              0.1       0.0       1.2       0.0       0.1       1.1
 8 H  dz2             0.0       0.0       0.0       0.0       0.2       0.0
 8 H  dyz             0.0       0.1       0.0       0.1       0.0       0.0
[...]


----------------------------
LOEWDIN REDUCED ACTIVE MOs  
----------------------------

                     12        13        14        15        16        17   
                  -0.48637   0.14833   0.32848  -0.42922  -0.30632   0.16019
                   2.00000   0.11766   0.06046   1.93472   1.88715   0.00000
                  --------  --------  --------  --------  --------  --------
 0 C  pz              0.0      23.6      13.3      16.1      27.2       0.0
 0 C  px              5.1       0.0       0.0       0.0       0.0       0.7
 1 H  s               4.6       0.0       0.0       0.0       0.0       8.9
 2 H  s               4.5       0.0       0.0       0.0       0.0      11.2
 3 C  pz              0.0      13.1      24.4      28.4      13.2       0.0
 3 C  px             11.8       0.0       0.0       0.0       0.0       0.4
 4 H  s               9.1       0.0       0.0       0.0       0.0      15.4
 5 C  pz              0.0      13.1      24.4      28.4      13.2       0.0
 5 C  px             11.8       0.0       0.0       0.0       0.0       0.4
 6 H  s               9.1       0.0       0.0       0.0       0.0      15.4
 7 C  pz              0.0      23.6      13.3      16.1      27.2       0.0
 7 C  px              5.1       0.0       0.0       0.0       0.0       0.7
 8 H  s               4.6       0.0       0.0       0.0       0.0       8.9
 9 H  s               4.5       0.0       0.0       0.0       0.0      11.2

------------------------------------------------------------------------------
                           ORCA POPULATION ANALYSIS
------------------------------------------------------------------------------
Input electron density              ... trans-1,3-bivinyl-cas44.scfp
BaseName (.gbw .S,...)              ... trans-1,3-bivinyl-cas44

                    ********************************
                    * MULLIKEN POPULATION ANALYSIS *
                    ********************************

-----------------------
MULLIKEN ATOMIC CHARGES
-----------------------
   0 C :   -0.315331
   1 H :    0.125409
   2 H :    0.131922
   3 C :   -0.080420
   4 H :    0.138421
   5 C :   -0.080420
   6 H :    0.138421
   7 C :   -0.315331
   8 H :    0.125409
   9 H :    0.131922
Sum of atomic charges:   -0.0000000

--------------------------------
MULLIKEN REDUCED ORBITAL CHARGES
--------------------------------
  0 C s       :     3.326761  s :     3.326761
      pz      :     0.983721  p :     2.907853
      px      :     0.987887
      py      :     0.936245
      dz2     :     0.007502  d :     0.074231
      dxz     :     0.004431
      dyz     :     0.011190
      dx2y2   :     0.034302
      dxy     :     0.016808
      f0      :     0.000886  f :     0.006485
      f+1     :     0.000643
      f-1     :     0.000568
      f+2     :     0.000149
      f-2     :     0.000693
      f+3     :     0.002207
      f-3     :     0.001339
  1 H s       :     0.846595  s :     0.846595
      pz      :     0.009542  p :     0.025789
      px      :     0.008287
      py      :     0.007960
      dz2     :     0.000187  d :     0.002206
      dxz     :     0.000079
      dyz     :     0.000591
      dx2y2   :     0.000626
      dxy     :     0.000723
  2 H s       :     0.840078  s :     0.840078
      pz      :     0.009736  p :     0.025883
      px      :     0.009803
      py      :     0.006344
      dz2     :     0.000167  d :     0.002117
      dxz     :     0.000656
      dyz     :     0.000011
      dx2y2   :     0.000556
      dxy     :     0.000729
  3 C s       :     3.210404  s :     3.210404
      pz      :     0.936779  p :     2.773448
      px      :     0.884311
      py      :     0.952358
      dz2     :     0.005074  d :     0.087618
      dxz     :     0.015960
      dyz     :     0.012905
      dx2y2   :     0.030802
      dxy     :     0.022876
      f0      :     0.001309  f :     0.008950
      f+1     :     0.000889
      f-1     :     0.000700
      f+2     :     0.000561
      f-2     :     0.000647
      f+3     :     0.002515
      f-3     :     0.002329
  4 H s       :     0.834958  s :     0.834958
      pz      :     0.009523  p :     0.024307
      px      :     0.009052
      py      :     0.005732
      dz2     :     0.000194  d :     0.002314
      dxz     :     0.000100
      dyz     :     0.000531
      dx2y2   :     0.000761
      dxy     :     0.000727
  5 C s       :     3.210404  s :     3.210404
      pz      :     0.936779  p :     2.773448
      px      :     0.884311
      py      :     0.952358
      dz2     :     0.005074  d :     0.087618
      dxz     :     0.015960
      dyz     :     0.012905
      dx2y2   :     0.030802
      dxy     :     0.022876
      f0      :     0.001309  f :     0.008950
      f+1     :     0.000889
      f-1     :     0.000700
      f+2     :     0.000561
      f-2     :     0.000647
      f+3     :     0.002515
      f-3     :     0.002329
  6 H s       :     0.834958  s :     0.834958
      pz      :     0.009523  p :     0.024307
      px      :     0.009052
      py      :     0.005732
      dz2     :     0.000194  d :     0.002314
      dxz     :     0.000100
      dyz     :     0.000531
      dx2y2   :     0.000761
      dxy     :     0.000727
  7 C s       :     3.326761  s :     3.326761
      pz      :     0.983721  p :     2.907853
      px      :     0.987887
      py      :     0.936245
      dz2     :     0.007502  d :     0.074231
      dxz     :     0.004431
      dyz     :     0.011190
      dx2y2   :     0.034302
      dxy     :     0.016808
      f0      :     0.000886  f :     0.006485
      f+1     :     0.000643
      f-1     :     0.000568
      f+2     :     0.000149
      f-2     :     0.000693
      f+3     :     0.002207
      f-3     :     0.001339
  8 H s       :     0.846595  s :     0.846595
      pz      :     0.009542  p :     0.025789
      px      :     0.008287
      py      :     0.007960
      dz2     :     0.000187  d :     0.002206
      dxz     :     0.000079
      dyz     :     0.000591
      dx2y2   :     0.000626
      dxy     :     0.000723
  9 H s       :     0.840078  s :     0.840078
      pz      :     0.009736  p :     0.025883
      px      :     0.009803
      py      :     0.006344
      dz2     :     0.000167  d :     0.002117
      dxz     :     0.000656
      dyz     :     0.000011
      dx2y2   :     0.000556
      dxy     :     0.000729


                     *******************************
                     * LOEWDIN POPULATION ANALYSIS *
                     *******************************

----------------------
LOEWDIN ATOMIC CHARGES
----------------------
   0 C :    0.096971
   1 H :   -0.040077
   2 H :   -0.039823
   3 C :    0.004907
   4 H :   -0.021977
   5 C :    0.004907
   6 H :   -0.021977
   7 C :    0.096971
   8 H :   -0.040077
   9 H :   -0.039823

-------------------------------
LOEWDIN REDUCED ORBITAL CHARGES
-------------------------------
  0 C s       :     2.729488  s :     2.729488
      pz      :     0.859288  p :     2.864870
      px      :     0.991356
      py      :     1.014226
      dz2     :     0.019260  d :     0.280796
      dxz     :     0.012274
      dyz     :     0.031318
      dx2y2   :     0.131085
      dxy     :     0.086859
      f0      :     0.001623  f :     0.027875
      f+1     :     0.002385
      f-1     :     0.002780
      f+2     :     0.000981
      f-2     :     0.004142
      f+3     :     0.007340
      f-3     :     0.008624
  1 H s       :     0.860660  s :     0.860660
      pz      :     0.042337  p :     0.152786
      px      :     0.044008
      py      :     0.066441
      dz2     :     0.002292  d :     0.026632
      dxz     :     0.001460
      dyz     :     0.006920
      dx2y2   :     0.008265
      dxy     :     0.007695
  2 H s       :     0.859171  s :     0.859171
      pz      :     0.043171  p :     0.154020
      px      :     0.077561
      py      :     0.033288
      dz2     :     0.002306  d :     0.026633
      dxz     :     0.008388
      dyz     :     0.000021
      dx2y2   :     0.007414
      dxy     :     0.008505
  3 C s       :     2.713414  s :     2.713414
      pz      :     0.828015  p :     2.820467
      px      :     0.980269
      py      :     1.012182
      dz2     :     0.026587  d :     0.419651
      dxz     :     0.063546
      dyz     :     0.038353
      dx2y2   :     0.145235
      dxy     :     0.145930
      f0      :     0.003150  f :     0.041561
      f+1     :     0.003211
      f-1     :     0.003049
      f+2     :     0.004676
      f-2     :     0.003931
      f+3     :     0.008770
      f-3     :     0.014775
  4 H s       :     0.847963  s :     0.847963
      pz      :     0.038435  p :     0.147242
      px      :     0.042558
      py      :     0.066249
      dz2     :     0.002311  d :     0.026772
      dxz     :     0.001569
      dyz     :     0.006401
      dx2y2   :     0.008274
      dxy     :     0.008218
  5 C s       :     2.713414  s :     2.713414
      pz      :     0.828015  p :     2.820467
      px      :     0.980269
      py      :     1.012182
      dz2     :     0.026587  d :     0.419651
      dxz     :     0.063546
      dyz     :     0.038353
      dx2y2   :     0.145235
      dxy     :     0.145930
      f0      :     0.003150  f :     0.041561
      f+1     :     0.003211
      f-1     :     0.003049
      f+2     :     0.004676
      f-2     :     0.003931
      f+3     :     0.008770
      f-3     :     0.014775
  6 H s       :     0.847963  s :     0.847963
      pz      :     0.038435  p :     0.147242
      px      :     0.042558
      py      :     0.066249
      dz2     :     0.002311  d :     0.026772
      dxz     :     0.001569
      dyz     :     0.006401
      dx2y2   :     0.008274
      dxy     :     0.008218
  7 C s       :     2.729488  s :     2.729488
      pz      :     0.859288  p :     2.864870
      px      :     0.991356
      py      :     1.014226
      dz2     :     0.019260  d :     0.280796
      dxz     :     0.012274
      dyz     :     0.031318
      dx2y2   :     0.131085
      dxy     :     0.086859
      f0      :     0.001623  f :     0.027875
      f+1     :     0.002385
      f-1     :     0.002780
      f+2     :     0.000981
      f-2     :     0.004142
      f+3     :     0.007340
      f-3     :     0.008624
  8 H s       :     0.860660  s :     0.860660
      pz      :     0.042337  p :     0.152786
      px      :     0.044008
      py      :     0.066441
      dz2     :     0.002292  d :     0.026632
      dxz     :     0.001460
      dyz     :     0.006920
      dx2y2   :     0.008265
      dxy     :     0.007695
  9 H s       :     0.859171  s :     0.859171
      pz      :     0.043171  p :     0.154020
      px      :     0.077561
      py      :     0.033288
      dz2     :     0.002306  d :     0.026633
      dxz     :     0.008388
      dyz     :     0.000021
      dx2y2   :     0.007414
      dxy     :     0.008505


                      *****************************
                      * MAYER POPULATION ANALYSIS *
                      *****************************

  NA   - Mulliken gross atomic population
  ZA   - Total nuclear charge
  QA   - Mulliken gross atomic charge
  VA   - Mayer's total valence
  BVA  - Mayer's bonded valence
  FA   - Mayer's free valence

  ATOM       NA         ZA         QA         VA         BVA        FA
  0 C      6.3153     6.0000    -0.3153     3.8523     3.6721     0.1803
  1 H      0.8746     1.0000     0.1254     0.9826     0.9808     0.0018
  2 H      0.8681     1.0000     0.1319     0.9800     0.9781     0.0019
  3 C      6.0804     6.0000    -0.0804     3.7759     3.6223     0.1535
  4 H      0.8616     1.0000     0.1384     0.9811     0.9796     0.0016
  5 C      6.0804     6.0000    -0.0804     3.7759     3.6223     0.1535
  6 H      0.8616     1.0000     0.1384     0.9811     0.9796     0.0016
  7 C      6.3153     6.0000    -0.3153     3.8523     3.6721     0.1803
  8 H      0.8746     1.0000     0.1254     0.9826     0.9808     0.0018
  9 H      0.8681     1.0000     0.1319     0.9800     0.9781     0.0019

  Mayer bond orders larger than 0.100000
B(  0-C ,  1-H ) :   0.9734 B(  0-C ,  2-H ) :   0.9822 B(  0-C ,  3-C ) :   1.6730 
B(  3-C ,  4-H ) :   0.9615 B(  3-C ,  5-C ) :   1.0155 B(  5-C ,  6-H ) :   0.9615 
B(  5-C ,  7-C ) :   1.6730 B(  7-C ,  8-H ) :   0.9734 B(  7-C ,  9-H ) :   0.9822 



-------------------------------------------------------------
 Forming the transition density       ... done in 0.001966 sec
-------------------------------------------------------------



==========================================
CASSCF UV, CD spectra and dipole moments
==========================================
-------------------
ABSORPTION SPECTRUM
-------------------

Center of mass           = (  0.0000, -0.0000,  0.0000)
Nuclear contribution to the dipole moment =     0.000000,    0.000000,   -0.000000 au

Calculating the Dipole integrals                  ... done
Transforming integrals                            ... done
Calculating the Linear Momentum integrals         ... done
Transforming integrals                            ... done
Calculating the Angular Momentum integrals        ... done
Transforming integrals                            ... done

------------------------------------------------------------------------------
                                 DIPOLE MOMENTS
------------------------------------------------------------------------------
  Root  Block           TX        TY        TZ           |T|
                      (Debye)   (Debye)   (Debye)      (Debye)
------------------------------------------------------------------------------
    0    0           -0.00000  -0.00000   0.00000      0.00000

--------------
CASSCF TIMINGS
--------------

Total time                       ...       24.7 sec
Sum of individual times          ...       24.3 sec ( 98.4%)

Calculation of AO operators
   F(Core) operator              ...        5.0 sec ( 20.4%)
   G(Act) operator               ...        4.5 sec ( 18.4%)
   J(AO) operators               ...        0.0 sec (  0.0%)
Calculation of MO transformed quantities
   J(MO) operators               ...       14.5 sec ( 58.8%)
   (pq|rs) integrals             ...        0.0 sec (  0.0%)
   AO->MO one electron integrals ...        0.0 sec (  0.0%)
Configuration interaction steps
   CI-setup phase                ...        0.0 sec (  0.0%)
   CI-solution phase             ...        0.1 sec (  0.4%)
   Generation of densities       ...        0.0 sec (  0.0%)
Orbital improvement steps
   Orbital gradient              ...        0.0 sec (  0.1%)
   O(1) converger                ...        0.1 sec (  0.2%)
Properties                       ...        0.0 sec (  0.0%)
   SOC integral calculation      ...        0.0 sec (  0.0%)
   SSC RMEs (incl. integrals)    ...        0.0 sec (  0.0%)
   SOC RMEs                      ...        0.0 sec (  0.0%)

Maximum memory used throughout the entire CASSCF-calculation: 88.4 MB

-------------------------   --------------------
FINAL SINGLE POINT ENERGY      -155.030110893711
-------------------------   --------------------


                            ***************************************
                            *     ORCA property calculations      *
                            ***************************************

                                    ---------------------
                                    Active property flags
                                    ---------------------
   (+) Dipole Moment


------------------------------------------------------------------------------
                       ORCA ELECTRIC PROPERTIES CALCULATION
------------------------------------------------------------------------------

Dipole Moment Calculation                       ... on
Quadrupole Moment Calculation                   ... off
Polarizability Calculation                      ... off
GBWName                                         ... trans-1,3-bivinyl-cas44.gbw
Electron density file                           ... trans-1,3-bivinyl-cas44.scfp
The origin for moment calculation is the CENTER OF MASS  = ( 0.000000, -0.000000  0.000000)

-------------
DIPOLE MOMENT
-------------
                                X             Y             Z
Electronic contribution:      0.00000       0.00000       0.00000
Nuclear contribution   :      0.00000       0.00000      -0.00000
                        -----------------------------------------
Total Dipole Moment    :      0.00000       0.00000       0.00000
                        -----------------------------------------
Magnitude (a.u.)       :      0.00000
Magnitude (Debye)      :      0.00000



--------------------
Rotational spectrum 
--------------------
 
Rotational constants in cm-1:     1.397081     0.146782     0.132827 
Rotational constants in MHz : 41883.422262  4400.413202  3982.046052 

 Dipole components along the rotational axes: 
x,y,z [a.u.] :    -0.000000     0.000000     0.000000 
x,y,z [Debye]:    -0.000000     0.000000     0.000000 

 
--------------------------------------------------------------------------
WARNING: There was an error initializing an OpenFabrics device.

  Local host:   cnode06
  Local device: mlx5_0
--------------------------------------------------------------------------
[cnode06:239500] 7 more processes have sent help message help-mpi-btl-openib.txt / error in device init
[cnode06:239500] Set MCA parameter "orte_base_help_aggregate" to 0 to see all help / error messages

Timings for individual modules:

Sum of individual times         ...       29.352 sec (=   0.489 min)
GTO integral calculation        ...        0.664 sec (=   0.011 min)   2.3 %
SCF iterations                  ...        0.485 sec (=   0.008 min)   1.7 %
CASSCF iterations               ...       28.204 sec (=   0.470 min)  96.1 %
                             ****ORCA TERMINATED NORMALLY****
TOTAL RUN TIME: 0 days 0 hours 0 minutes 29 seconds 850 msec

Sender: Unischeduler System <lcz@mgt01>
Subject: Job 123633: <#!/bin/bash
#BSUB -J intel
#BSUB -o trans-1,3-bivinyl-cas44.out
#BSUB -n 8
#BSUB -q cqueue
#BSUB -R span[hosts=1]
export LD_LIBRARY_PATH=/apps/software/openmpi-4.1.1/lib:/apps/software/orca_5_0_0:$LD_LIBRARY_PATH
export PATH=/apps/software/openmpi-4.1.1/bin:/apps/software/orca_5_0_0:$PATH
/apps/software/orca_5_0_0/orca trans-1,3-bivinyl-cas44.inp >& trans-1,3-bivinyl-cas44.out> Done

Job <#!/bin/bash
#BSUB -J intel
#BSUB -o trans-1,3-bivinyl-cas44.out
#BSUB -n 8
#BSUB -q cqueue
#BSUB -R span[hosts=1]
export LD_LIBRARY_PATH=/apps/software/openmpi-4.1.1/lib:/apps/software/orca_5_0_0:$LD_LIBRARY_PATH
export PATH=/apps/software/openmpi-4.1.1/bin:/apps/software/orca_5_0_0:$PATH
/apps/software/orca_5_0_0/orca trans-1,3-bivinyl-cas44.inp >& trans-1,3-bivinyl-cas44.out> was submitted from host <mgt01> by user <lcz>.
Job was executed on host(s) <8*cnode06>, in queue <cqueue>, as user <lcz>.
</apps/users/lcz> was used as the home directory.
</apps/users/lcz/exe9/task2/orca/bivinyl> was used as the working directory.
Started at 2022-04-23 21:26:30
Results reported at 2022-04-23 21:27:00

Your job looked like:

------------------------------------------------------------
# User input
#!/bin/bash
#BSUB -J intel
#BSUB -o trans-1,3-bivinyl-cas44.out
#BSUB -n 8
#BSUB -q cqueue
#BSUB -R span[hosts=1]
export LD_LIBRARY_PATH=/apps/software/openmpi-4.1.1/lib:/apps/software/orca_5_0_0:$LD_LIBRARY_PATH
export PATH=/apps/software/openmpi-4.1.1/bin:/apps/software/orca_5_0_0:$PATH
/apps/software/orca_5_0_0/orca trans-1,3-bivinyl-cas44.inp >& trans-1,3-bivinyl-cas44.out
------------------------------------------------------------

Successfully completed.

Resource usage summary:

    CPU time   :          213.94 sec.
    Max Memory :              1433 MB
    Max Processes  :              13


The output (if any) follows:

