[Molden Format]
[N_ATOMS]
           21
[Atoms]  AU
C     1    6      -6.980248        2.543477       -0.151467
C     2    6      -4.145084        2.596083       -0.107359
H     3    1      -7.985053        2.230043       -1.909255
H     4    1      -8.041170        2.313115        1.586049
C     5    6      -2.937421       -0.044221       -0.030425
H     6    1      -3.448612        3.601264       -1.776059
H     7    1      -3.501307        3.673667        1.537018
C     8    6      -0.051128        0.027401        0.013833
H     9    1      -3.628110       -1.056761        1.637654
H    10    1      -3.578170       -1.130521       -1.671869
H    11    1       0.632580        1.042660       -1.657885
H    12    1       0.576452        1.123435        1.652263
C    13    6       1.151418       -2.597455        0.084885
H    14    1       0.496437       -3.687553       -1.547788
H    15    1       0.489964       -3.613270        1.763498
C    16    6       4.058792       -2.579021        0.070978
H    17    1       4.711369       -4.534967       -0.108775
H    18    1       4.721171       -1.586920       -1.617770
C    19    6       5.237459       -1.421136        2.378708
H    20    1       5.933844        0.503223        2.375775
H    21    1       5.079117       -2.364539        4.191600
[5D7F9G]
[GTO]
    1
    s    5
   0.123840169E+04   0.551736504E-02
   0.186290050E+03   0.410888285E-01
   0.422511764E+02   0.182253821E+00
   0.116765579E+02   0.468284594E+00
   0.359305065E+01   0.445758173E+00
    s    1
   0.402451470E+00   0.100000000E+01
    s    1
   0.130901830E+00   0.100000000E+01
    p    3
   0.946809706E+01   0.568883319E-01
   0.201035451E+01   0.312940593E+00
   0.547710050E+00   0.760650164E+00
    p    1
   0.152686140E+00   0.100000000E+01
    d    1
   0.800000000E+00   0.100000000E+01
 
    2
    s    5
   0.123840169E+04   0.551736504E-02
   0.186290050E+03   0.410888285E-01
   0.422511764E+02   0.182253821E+00
   0.116765579E+02   0.468284594E+00
   0.359305065E+01   0.445758173E+00
    s    1
   0.402451470E+00   0.100000000E+01
    s    1
   0.130901830E+00   0.100000000E+01
    p    3
   0.946809706E+01   0.568883319E-01
   0.201035451E+01   0.312940593E+00
   0.547710050E+00   0.760650164E+00
    p    1
   0.152686140E+00   0.100000000E+01
    d    1
   0.800000000E+00   0.100000000E+01
 
    3
    s    3
   0.130107010E+02   0.334854848E-01
   0.196225720E+01   0.234721871E+00
   0.444537960E+00   0.813770285E+00
    s    1
   0.121949620E+00   0.100000000E+01
    p    1
   0.800000000E+00   0.100000000E+01
 
    4
    s    3
   0.130107010E+02   0.334854848E-01
   0.196225720E+01   0.234721871E+00
   0.444537960E+00   0.813770285E+00
    s    1
   0.121949620E+00   0.100000000E+01
    p    1
   0.800000000E+00   0.100000000E+01
 
    5
    s    5
   0.123840169E+04   0.551736504E-02
   0.186290050E+03   0.410888285E-01
   0.422511764E+02   0.182253821E+00
   0.116765579E+02   0.468284594E+00
   0.359305065E+01   0.445758173E+00
    s    1
   0.402451470E+00   0.100000000E+01
    s    1
   0.130901830E+00   0.100000000E+01
    p    3
   0.946809706E+01   0.568883319E-01
   0.201035451E+01   0.312940593E+00
   0.547710050E+00   0.760650164E+00
    p    1
   0.152686140E+00   0.100000000E+01
    d    1
   0.800000000E+00   0.100000000E+01
 
    6
    s    3
   0.130107010E+02   0.334854848E-01
   0.196225720E+01   0.234721871E+00
   0.444537960E+00   0.813770285E+00
    s    1
   0.121949620E+00   0.100000000E+01
    p    1
   0.800000000E+00   0.100000000E+01
 
    7
    s    3
   0.130107010E+02   0.334854848E-01
   0.196225720E+01   0.234721871E+00
   0.444537960E+00   0.813770285E+00
    s    1
   0.121949620E+00   0.100000000E+01
    p    1
   0.800000000E+00   0.100000000E+01
 
    8
    s    5
   0.123840169E+04   0.551736504E-02
   0.186290050E+03   0.410888285E-01
   0.422511764E+02   0.182253821E+00
   0.116765579E+02   0.468284594E+00
   0.359305065E+01   0.445758173E+00
    s    1
   0.402451470E+00   0.100000000E+01
    s    1
   0.130901830E+00   0.100000000E+01
    p    3
   0.946809706E+01   0.568883319E-01
   0.201035451E+01   0.312940593E+00
   0.547710050E+00   0.760650164E+00
    p    1
   0.152686140E+00   0.100000000E+01
    d    1
   0.800000000E+00   0.100000000E+01
 
    9
    s    3
   0.130107010E+02   0.334854848E-01
   0.196225720E+01   0.234721871E+00
   0.444537960E+00   0.813770285E+00
    s    1
   0.121949620E+00   0.100000000E+01
    p    1
   0.800000000E+00   0.100000000E+01
 
   10
    s    3
   0.130107010E+02   0.334854848E-01
   0.196225720E+01   0.234721871E+00
   0.444537960E+00   0.813770285E+00
    s    1
   0.121949620E+00   0.100000000E+01
    p    1
   0.800000000E+00   0.100000000E+01
 
   11
    s    3
   0.130107010E+02   0.334854848E-01
   0.196225720E+01   0.234721871E+00
   0.444537960E+00   0.813770285E+00
    s    1
   0.121949620E+00   0.100000000E+01
    p    1
   0.800000000E+00   0.100000000E+01
 
   12
    s    3
   0.130107010E+02   0.334854848E-01
   0.196225720E+01   0.234721871E+00
   0.444537960E+00   0.813770285E+00
    s    1
   0.121949620E+00   0.100000000E+01
    p    1
   0.800000000E+00   0.100000000E+01
 
   13
    s    5
   0.123840169E+04   0.551736504E-02
   0.186290050E+03   0.410888285E-01
   0.422511764E+02   0.182253821E+00
   0.116765579E+02   0.468284594E+00
   0.359305065E+01   0.445758173E+00
    s    1
   0.402451470E+00   0.100000000E+01
    s    1
   0.130901830E+00   0.100000000E+01
    p    3
   0.946809706E+01   0.568883319E-01
   0.201035451E+01   0.312940593E+00
   0.547710050E+00   0.760650164E+00
    p    1
   0.152686140E+00   0.100000000E+01
    d    1
   0.800000000E+00   0.100000000E+01
 
   14
    s    3
   0.130107010E+02   0.334854848E-01
   0.196225720E+01   0.234721871E+00
   0.444537960E+00   0.813770285E+00
    s    1
   0.121949620E+00   0.100000000E+01
    p    1
   0.800000000E+00   0.100000000E+01
 
   15
    s    3
   0.130107010E+02   0.334854848E-01
   0.196225720E+01   0.234721871E+00
   0.444537960E+00   0.813770285E+00
    s    1
   0.121949620E+00   0.100000000E+01
    p    1
   0.800000000E+00   0.100000000E+01
 
   16
    s    5
   0.123840169E+04   0.551736504E-02
   0.186290050E+03   0.410888285E-01
   0.422511764E+02   0.182253821E+00
   0.116765579E+02   0.468284594E+00
   0.359305065E+01   0.445758173E+00
    s    1
   0.402451470E+00   0.100000000E+01
    s    1
   0.130901830E+00   0.100000000E+01
    p    3
   0.946809706E+01   0.568883319E-01
   0.201035451E+01   0.312940593E+00
   0.547710050E+00   0.760650164E+00
    p    1
   0.152686140E+00   0.100000000E+01
    d    1
   0.800000000E+00   0.100000000E+01
 
   17
    s    3
   0.130107010E+02   0.334854848E-01
   0.196225720E+01   0.234721871E+00
   0.444537960E+00   0.813770285E+00
    s    1
   0.121949620E+00   0.100000000E+01
    p    1
   0.800000000E+00   0.100000000E+01
 
   18
    s    3
   0.130107010E+02   0.334854848E-01
   0.196225720E+01   0.234721871E+00
   0.444537960E+00   0.813770285E+00
    s    1
   0.121949620E+00   0.100000000E+01
    p    1
   0.800000000E+00   0.100000000E+01
 
   19
    s    5
   0.123840169E+04   0.551736504E-02
   0.186290050E+03   0.410888285E-01
   0.422511764E+02   0.182253821E+00
   0.116765579E+02   0.468284594E+00
   0.359305065E+01   0.445758173E+00
    s    1
   0.402451470E+00   0.100000000E+01
    s    1
   0.130901830E+00   0.100000000E+01
    p    3
   0.946809706E+01   0.568883319E-01
   0.201035451E+01   0.312940593E+00
   0.547710050E+00   0.760650164E+00
    p    1
   0.152686140E+00   0.100000000E+01
    d    1
   0.800000000E+00   0.100000000E+01
 
   20
    s    3
   0.130107010E+02   0.334854848E-01
   0.196225720E+01   0.234721871E+00
   0.444537960E+00   0.813770285E+00
    s    1
   0.121949620E+00   0.100000000E+01
    p    1
   0.800000000E+00   0.100000000E+01
 
   21
    s    3
   0.130107010E+02   0.334854848E-01
   0.196225720E+01   0.234721871E+00
   0.444537960E+00   0.813770285E+00
    s    1
   0.121949620E+00   0.100000000E+01
    p    1
   0.800000000E+00   0.100000000E+01
 
[MO]
 Sym= A   
 Ene=       -11.225570
 Spin= Alpha
 Occup=       2.000000
   1        0.000189901
   2       -0.000048063
   3        0.001639687
   4        0.000034459
   5        0.000011435
   6        0.000000071
   7        0.000763418
   8       -0.000095434
   9        0.000069134
  10        0.000003982
  11        0.000007292
  12        0.000002762
  13        0.000039469
  14       -0.000003892
  15       -0.000390399
  16        0.000021689
  17       -0.002128653
  18       -0.000122338
  19        0.000040863
  20       -0.000001398
  21        0.001050214
  22        0.000193425
  23       -0.000214296
  24        0.000003825
  25       -0.000009709
  26        0.000008943
  27       -0.000024584
  28        0.000012142
  29       -0.000037558
  30       -0.000055417
  31       -0.000035928
  32        0.000012160
  33        0.000004550
  34       -0.000051714
  35       -0.000073488
  36       -0.000029805
  37        0.000008690
  38       -0.000010470
  39        0.000243837
  40       -0.000261300
  41        0.004916311
  42        0.000083883
  43       -0.000041768
  44       -0.000017598
  45        0.001597435
  46        0.000381609
  47        0.000558061
  48       -0.000038773
  49        0.000010926
  50       -0.000017437
  51        0.000064556
  52       -0.000005357
  53       -0.000072950
  54        0.000097231
  55       -0.000054189
  56        0.000015770
  57       -0.000013605
  58       -0.000037613
  59        0.000330725
  60       -0.000065089
  61        0.000008279
  62        0.000006016
  63        0.000884785
  64       -0.000815342
  65        0.002453272
  66       -0.000351210
  67        0.000104172
  68        0.000053825
  69        0.005360259
  70       -0.001079848
  71       -0.000570792
  72       -0.000030195
  73       -0.000002244
  74       -0.000013150
  75        0.000043000
  76       -0.000035110
  77       -0.000158326
  78       -0.000656822
  79       -0.000042219
  80       -0.000036797
  81       -0.000011341
  82       -0.000023534
  83       -0.000131794
  84       -0.000018535
  85        0.000000568
  86        0.000021343
  87       -0.000566029
  88       -0.001175768
  89       -0.000235610
  90        0.000058722
  91       -0.000072352
  92       -0.000248715
  93       -0.001074581
  94       -0.000293030
  95        0.000055697
  96        0.000109431
  97        0.053422907
  98        0.001536747
  99        0.004255812
 100       -0.000607946
 101        0.000028856
 102        0.000002563
 103        0.003108759
 104       -0.001618187
 105        0.000736591
 106        0.000416043
 107        0.000088680
 108        0.000022803
 109       -0.000606807
 110        0.000087435
 111       -0.000009356
 112       -0.000018919
 113        0.000226687
 114        0.000054617
 115       -0.000164702
 116       -0.000166071
 117        0.000334719
 118        0.000405687
 119        0.000066851
 120        0.000060402
 121        0.986981441
 122        0.039420582
 123       -0.041093596
 124        0.000210539
 125       -0.000029020
 126       -0.000292682
 127        0.001101072
 128       -0.002875652
 129       -0.003254605
 130        0.000003777
 131       -0.000228915
 132       -0.000189715
 133       -0.000426154
 134       -0.000152008
 135       -0.001369202
 136        0.005800893
 137        0.000330783
 138       -0.001277352
 139        0.000126882
 140       -0.000865480
 141        0.006940950
 142        0.000200911
 143        0.000880626
 144       -0.000820062
 145        0.064671097
 146        0.001128412
 147        0.010984212
 148        0.000235353
 149        0.000398154
 150        0.000654438
 151       -0.002707711
 152       -0.001916240
 153       -0.004049413
 154       -0.000397522
 155       -0.000363349
 156       -0.000570939
 157        0.000044174
 158       -0.000178974
 159       -0.000158231
 160        0.000040388
 161       -0.000022204
 162       -0.000109642
 163       -0.000003662
 164       -0.000267381
 165        0.000200243
 166        0.000001936
 167        0.000009758
 168       -0.000117785
 Sym= A   
 Ene=       -11.224484
 Spin= Alpha
 Occup=       2.000000
   1        0.077704747
   2        0.001579662
   3        0.007921118
   4       -0.000884340
   5       -0.000075607
   6       -0.000012163
   7        0.003908747
   8       -0.000399944
   9        0.000070853
  10        0.000444980
  11       -0.000020267
  12       -0.000000049
  13       -0.000680194
  14       -0.000120563
  15        0.985942103
  16        0.038733825
  17       -0.039902560
  18        0.000293583
  19        0.000480926
  20       -0.000006546
  21        0.000755100
  22        0.002303166
  23       -0.000044673
  24        0.000406156
  25       -0.000019458
  26        0.000018118
  27       -0.000068246
  28        0.000302346
  29       -0.000179280
  30        0.000287592
  31        0.000125586
  32        0.000022904
  33        0.000053708
  34       -0.000178725
  35        0.000287498
  36        0.000127027
  37        0.000020208
  38       -0.000050863
  39        0.056170550
  40        0.001082789
  41        0.008219163
  42        0.000273497
  43       -0.000689927
  44        0.000018441
  45       -0.001599426
  46        0.003263934
  47       -0.000097316
  48        0.000355235
  49       -0.000013034
  50        0.000029976
  51        0.000480654
  52        0.000427138
  53       -0.001029527
  54        0.006862851
  55        0.000363864
  56        0.000396709
  57       -0.001052171
  58       -0.001030777
  59        0.006885611
  60        0.000330554
  61        0.000440412
  62        0.001042967
  63        0.001563387
  64       -0.000351944
  65        0.000211399
  66        0.000090433
  67       -0.000116077
  68        0.000004456
  69       -0.000144831
  70        0.001814850
  71        0.000008862
  72       -0.000015772
  73        0.000003709
  74       -0.000004761
  75       -0.000098935
  76       -0.000065912
  77       -0.000121700
  78        0.000379409
  79       -0.000120325
  80        0.000342569
  81        0.000003761
  82       -0.000119441
  83        0.000383208
  84       -0.000117453
  85        0.000342153
  86       -0.000022200
  87       -0.000153019
  88       -0.000775480
  89        0.000014915
  90       -0.000074120
  91       -0.000048612
  92       -0.000152451
  93       -0.000876108
  94        0.000012115
  95       -0.000064845
  96        0.000057461
  97        0.000383382
  98       -0.000150254
  99        0.002377911
 100       -0.000037438
 101        0.000024680
 102        0.000005054
 103       -0.000345572
 104        0.000472607
 105       -0.000093794
 106       -0.000006241
 107        0.000002331
 108        0.000002750
 109        0.000023248
 110       -0.000015576
 111       -0.000072887
 112       -0.000397690
 113       -0.000006147
 114       -0.000006959
 115       -0.000016320
 116       -0.000044101
 117       -0.000326027
 118        0.000001270
 119        0.000000479
 120        0.000016417
 121        0.000356382
 122        0.000063225
 123       -0.000817098
 124        0.000023476
 125        0.000000107
 126       -0.000000396
 127        0.000060638
 128       -0.000133364
 129       -0.000013922
 130       -0.000003368
 131       -0.000000148
 132       -0.000000905
 133       -0.000004438
 134        0.000000113
 135        0.000015526
 136        0.000095238
 137       -0.000008108
 138        0.000006615
 139        0.000002145
 140        0.000021812
 141        0.000217920
 142       -0.000007237
 143        0.000004354
 144        0.000014749
 145       -0.000200275
 146       -0.000060131
 147        0.000328671
 148        0.000021361
 149       -0.000013497
 150       -0.000006144
 151       -0.000133785
 152        0.000029372
 153       -0.000110278
 154        0.000003868
 155        0.000004426
 156       -0.000000294
 157       -0.000005638
 158        0.000001103
 159       -0.000037508
 160        0.000010481
 161        0.000003176
 162       -0.000004863
 163        0.000003677
 164       -0.000017124
 165        0.000020333
 166        0.000012696
 167       -0.000003066
 168       -0.000002204
 Sym= A   
 Ene=       -11.220911
 Spin= Alpha
 Occup=       2.000000
   1       -0.001765076
   2       -0.000183223
   3        0.000971826
   4        0.000003170
   5        0.000006698
   6       -0.000004118
   7        0.000424229
   8       -0.000180931
   9       -0.000077131
  10       -0.000002015
  11       -0.000009499
  12        0.000002211
  13        0.000022825
  14       -0.000023624
  15        0.000693733
  16        0.000096845
  17       -0.001570672
  18       -0.000043587
  19       -0.000001482
  20       -0.000015700
  21        0.000139790
  22        0.000485293
  23        0.000372511
  24        0.000008028
  25        0.000020860
  26        0.000016716
  27       -0.000025406
  28        0.000035258
  29       -0.000034476
  30       -0.000108126
  31       -0.000019156
  32        0.000018234
  33        0.000007614
  34       -0.000031444
  35       -0.000003210
  36       -0.000020580
  37        0.000021708
  38       -0.000008253
  39       -0.003804774
  40       -0.000389943
  41        0.005328224
  42        0.000085535
  43       -0.000014334
  44        0.000050435
  45        0.002037380
  46        0.000412461
  47       -0.000117900
  48       -0.000052684
  49        0.000047009
  50        0.000019582
  51        0.000131639
  52        0.000009258
  53        0.000032230
  54        0.000284731
  55       -0.000017637
  56       -0.000001101
  57       -0.000002063
  58       -0.000011484
  59       -0.000401860
  60       -0.000008626
  61        0.000056401
  62        0.000033207
  63       -0.021917971
  64       -0.000463380
  65       -0.008123690
  66       -0.000288418
  67       -0.000063263
  68       -0.000053385
  69        0.002250223
  70        0.001238500
  71       -0.001242275
  72       -0.000058293
  73       -0.000091173
  74        0.000036345
  75       -0.000253896
  76       -0.000061091
  77       -0.000014933
  78       -0.000248180
  79       -0.000029286
  80        0.000009400
  81       -0.000018624
  82       -0.000188548
  83       -0.000174945
  84       -0.000062390
  85       -0.000009923
  86        0.000034742
  87       -0.000084648
  88       -0.000627556
  89       -0.000208236
  90        0.000184221
  91       -0.000094846
  92       -0.000018898
  93        0.001933365
  94       -0.000117090
  95       -0.000029720
  96       -0.000028037
  97       -0.229959444
  98       -0.010273753
  99        0.015857895
 100        0.000035454
 101       -0.000056747
 102       -0.000187359
 103        0.002136786
 104        0.002254477
 105        0.002432969
 106       -0.000150525
 107        0.000085100
 108       -0.000006608
 109        0.000224999
 110       -0.000074822
 111        0.000601859
 112       -0.001162649
 113        0.000004638
 114        0.000133797
 115        0.000275209
 116       -0.000335875
 117       -0.002452004
 118        0.000024414
 119       -0.000009740
 120       -0.000392021
 121       -0.050363688
 122       -0.001837649
 123       -0.002426128
 124       -0.000730989
 125       -0.000308150
 126       -0.000717711
 127        0.003323435
 128       -0.000688035
 129        0.000088197
 130       -0.000507751
 131       -0.000538540
 132       -0.000431015
 133        0.000107149
 134       -0.000261942
 135        0.000102819
 136        0.000374758
 137        0.000083710
 138        0.000223704
 139        0.000382637
 140        0.000395114
 141        0.000319674
 142        0.000091026
 143        0.000204676
 144        0.000397745
 145        0.962146268
 146        0.035508482
 147       -0.023131319
 148       -0.000500079
 149        0.000378682
 150        0.000443807
 151        0.001302674
 152        0.000131753
 153       -0.000385662
 154        0.000522920
 155        0.000325093
 156       -0.000327536
 157       -0.000948072
 158        0.000852400
 159       -0.002188055
 160        0.005241665
 161        0.000246692
 162        0.001305583
 163       -0.000095145
 164       -0.001940141
 165        0.005864413
 166       -0.000333033
 167       -0.000639910
 168        0.001068940
 Sym= A   
 Ene=       -11.220795
 Spin= Alpha
 Occup=       2.000000
   1        0.018317002
   2        0.000787739
   3       -0.000570599
   4        0.000021356
   5       -0.000031719
   6        0.000000106
   7       -0.000103188
   8        0.000038629
   9        0.000010294
  10        0.000026210
  11       -0.000001278
  12        0.000001539
  13        0.000027500
  14        0.000007476
  15        0.000297439
  16        0.000203970
  17       -0.002519649
  18       -0.000009648
  19        0.000017453
  20        0.000001783
  21       -0.000675226
  22        0.000714987
  23       -0.000020306
  24        0.000012264
  25       -0.000000269
  26       -0.000001707
  27       -0.000037475
  28        0.000011034
  29       -0.000015373
  30        0.000089210
  31        0.000001138
  32       -0.000013231
  33       -0.000034612
  34       -0.000020661
  35        0.000076268
  36       -0.000001712
  37       -0.000011614
  38        0.000035807
  39       -0.023051108
  40       -0.000444209
  41        0.000235317
  42        0.000146839
  43       -0.000130714
  44        0.000004796
  45       -0.000818470
  46        0.002116060
  47       -0.000107161
  48        0.000005364
  49       -0.000001351
  50        0.000004212
  51        0.000098302
  52        0.000062218
  53        0.000070426
  54        0.000379240
  55       -0.000003658
  56       -0.000001988
  57        0.000013561
  58        0.000080474
  59        0.000334872
  60       -0.000004691
  61       -0.000000175
  62       -0.000010061
  63       -0.086368140
  64       -0.002167104
  65       -0.007410747
  66        0.000272719
  67       -0.000709286
  68        0.000016867
  69       -0.002126093
  70        0.003317219
  71       -0.000040200
  72       -0.000367994
  73        0.000007365
  74       -0.000029219
  75       -0.000419817
  76       -0.000419200
  77        0.000209627
  78        0.000573582
  79        0.000036195
  80       -0.000085065
  81       -0.000064867
  82        0.000205096
  83        0.000504959
  84        0.000028019
  85       -0.000086149
  86        0.000065467
  87        0.000215762
  88       -0.000470736
  89       -0.000086980
  90        0.000302203
  91        0.000053715
  92        0.000146488
  93       -0.000365102
  94       -0.000098331
  95        0.000297126
  96       -0.000076936
  97       -0.957448385
  98       -0.037729668
  99        0.036727305
 100        0.000212577
 101        0.000470971
 102       -0.000023010
 103       -0.000395278
 104        0.002820141
 105       -0.000296103
 106       -0.000370402
 107       -0.000040246
 108       -0.000038438
 109       -0.000010402
 110       -0.000301777
 111        0.001078352
 112       -0.006284951
 113        0.000451675
 114        0.000411290
 115        0.001078970
 116        0.001081209
 117       -0.006360279
 118        0.000369657
 119        0.000353278
 120       -0.001056346
 121        0.066535674
 122        0.003187939
 123       -0.007296199
 124       -0.000512063
 125        0.000052948
 126        0.000042148
 127        0.002215936
 128       -0.000550345
 129        0.001467768
 130       -0.000283362
 131        0.000171797
 132        0.000086230
 133        0.000680856
 134        0.000185286
 135       -0.000299917
 136        0.000403883
 137        0.000260834
 138       -0.000053506
 139       -0.000175418
 140        0.000014271
 141        0.000527139
 142        0.000382458
 143       -0.000000612
 144       -0.000177867
 145       -0.227565688
 146       -0.007460270
 147        0.001740691
 148        0.000056847
 149       -0.000138201
 150       -0.000057346
 151        0.001275699
 152        0.001168942
 153       -0.000091230
 154       -0.000126458
 155       -0.000164957
 156        0.000093248
 157        0.000079948
 158       -0.000307367
 159        0.000452090
 160       -0.001062301
 161       -0.000237605
 162       -0.000292862
 163       -0.000034478
 164        0.000976445
 165       -0.000073913
 166       -0.000095917
 167        0.000095846
 168       -0.000387423
 Sym= A   
 Ene=       -11.220631
 Spin= Alpha
 Occup=       2.000000
   1       -0.987089945
   2       -0.036172329
   3        0.022126841
   4        0.000244455
   5        0.000813872
   6       -0.000015004
   7       -0.000453216
   8       -0.001082711
   9        0.000017213
  10       -0.000919538
  11        0.000013474
  12       -0.000069824
  13       -0.001170639
  14       -0.000276173
  15        0.075447691
  16        0.003116996
  17        0.002369903
  18       -0.000867100
  19        0.000138426
  20       -0.000016684
  21        0.000041671
  22       -0.003155293
  23        0.000072941
  24       -0.000428671
  25        0.000025542
  26        0.000000214
  27        0.000791594
  28       -0.000032006
  29        0.002180615
  30       -0.005693259
  31        0.000527462
  32        0.000370271
  33        0.001168746
  34        0.002181600
  35       -0.005693947
  36        0.000564798
  37        0.000315013
  38       -0.001167247
  39        0.036052130
  40        0.002193097
  41       -0.006208677
  42       -0.000346625
  43        0.000050881
  44       -0.000005945
  45        0.004934550
  46       -0.003068973
  47        0.000128217
  48        0.000146637
  49       -0.000009088
  50        0.000009692
  51        0.000019278
  52        0.000213765
  53       -0.000241647
  54       -0.000247465
  55        0.000491876
  56        0.000183967
  57       -0.000010864
  58       -0.000242025
  59       -0.000248660
  60        0.000491012
  61        0.000184488
  62        0.000018552
  63        0.000357145
  64       -0.000050456
  65       -0.003190750
  66        0.000226351
  67       -0.000122459
  68        0.000004644
  69       -0.000176453
  70        0.001535241
  71       -0.000004474
  72        0.000024820
  73        0.000000235
  74       -0.000001434
  75       -0.000053925
  76       -0.000049704
  77        0.000388016
  78        0.000573702
  79       -0.000275930
  80        0.000055351
  81        0.000047571
  82        0.000383715
  83        0.000562666
  84       -0.000274323
  85        0.000051841
  86       -0.000058285
  87       -0.000048933
  88        0.000358383
  89       -0.000002537
  90       -0.000094032
  91       -0.000014624
  92       -0.000061770
  93        0.000348295
  94       -0.000000930
  95       -0.000092728
  96        0.000017572
  97       -0.018233404
  98       -0.000674993
  99        0.003442766
 100       -0.000165879
 101        0.000081800
 102       -0.000002616
 103        0.001601481
 104        0.000635573
 105       -0.000041591
 106       -0.000028244
 107       -0.000002416
 108       -0.000001487
 109        0.000005396
 110       -0.000021715
 111        0.000099008
 112       -0.000156115
 113       -0.000084983
 114        0.000022280
 115        0.000065043
 116        0.000104076
 117       -0.000137683
 118       -0.000091056
 119        0.000020965
 120       -0.000065671
 121        0.001593205
 122        0.000125261
 123       -0.002218039
 124        0.000049765
 125       -0.000015841
 126        0.000003713
 127        0.001022799
 128        0.000226294
 129        0.000063916
 130        0.000022005
 131        0.000005037
 132       -0.000003418
 133       -0.000023897
 134        0.000008120
 135        0.000098503
 136        0.000246824
 137       -0.000022546
 138        0.000000091
 139       -0.000002090
 140        0.000028030
 141        0.000020621
 142        0.000006523
 143       -0.000005535
 144       -0.000023209
 145       -0.006000173
 146       -0.000128511
 147       -0.000059671
 148       -0.000010436
 149       -0.000003944
 150       -0.000006445
 151        0.000026633
 152        0.000004955
 153        0.000072446
 154       -0.000010154
 155        0.000002835
 156        0.000000590
 157       -0.000011454
 158       -0.000005616
 159        0.000036284
 160       -0.000020431
 161       -0.000005506
 162        0.000000533
 163       -0.000009646
 164        0.000033537
 165       -0.000011093
 166       -0.000006646
 167       -0.000006007
 168       -0.000016234
 Sym= A   
 Ene=       -11.220011
 Spin= Alpha
 Occup=       2.000000
   1        0.032061093
   2        0.000894083
   3       -0.000261199
   4        0.000041206
   5       -0.000066231
   6        0.000001926
   7       -0.000493955
   8       -0.000253757
   9       -0.000005160
  10       -0.000014605
  11        0.000001818
  12       -0.000001008
  13        0.000014372
  14       -0.000082363
  15       -0.058311025
  16       -0.003360680
  17        0.011090980
  18       -0.000334066
  19        0.000654033
  20       -0.000019961
  21        0.001630851
  22       -0.002870256
  23        0.000107853
  24        0.000342163
  25       -0.000010523
  26        0.000031734
  27        0.000493377
  28        0.000463012
  29       -0.000157842
  30       -0.000410304
  31       -0.000089638
  32        0.000035449
  33       -0.000069136
  34       -0.000158262
  35       -0.000405304
  36       -0.000091978
  37        0.000038899
  38        0.000064690
  39        0.981256973
  40        0.038596564
  41       -0.038551731
  42       -0.000376626
  43       -0.000474219
  44        0.000008535
  45       -0.001105616
  46       -0.001474342
  47        0.000002608
  48        0.000386245
  49       -0.000015635
  50        0.000014876
  51       -0.000214985
  52        0.000240954
  53        0.000034729
  54       -0.000449641