[Molden Format]
[N_ATOMS]
           21
[Atoms]  AU
C     1    6      -6.980248        2.543477       -0.151467
C     2    6      -4.145084        2.596083       -0.107359
H     3    1      -7.985053        2.230043       -1.909255
H     4    1      -8.041170        2.313115        1.586049
C     5    6      -2.937421       -0.044221       -0.030425
H     6    1      -3.448612        3.601264       -1.776059
H     7    1      -3.501307        3.673667        1.537018
C     8    6      -0.051128        0.027401        0.013833
H     9    1      -3.628110       -1.056761        1.637654
H    10    1      -3.578170       -1.130521       -1.671869
H    11    1       0.632580        1.042660       -1.657885
H    12    1       0.576452        1.123435        1.652263
C    13    6       1.151418       -2.597455        0.084885
H    14    1       0.496437       -3.687553       -1.547788
H    15    1       0.489964       -3.613270        1.763498
C    16    6       4.058792       -2.579021        0.070978
H    17    1       4.711369       -4.534967       -0.108775
H    18    1       4.721171       -1.586920       -1.617770
C    19    6       5.237459       -1.421136        2.378708
H    20    1       5.933844        0.503223        2.375775
H    21    1       5.079117       -2.364539        4.191600
[5D7F9G]
[GTO]
    1
    s    5
   0.123840169E+04   0.551736504E-02
   0.186290050E+03   0.410888285E-01
   0.422511764E+02   0.182253821E+00
   0.116765579E+02   0.468284594E+00
   0.359305065E+01   0.445758173E+00
    s    1
   0.402451470E+00   0.100000000E+01
    s    1
   0.130901830E+00   0.100000000E+01
    p    3
   0.946809706E+01   0.568883319E-01
   0.201035451E+01   0.312940593E+00
   0.547710050E+00   0.760650164E+00
    p    1
   0.152686140E+00   0.100000000E+01
    d    1
   0.800000000E+00   0.100000000E+01
 
    2
    s    5
   0.123840169E+04   0.551736504E-02
   0.186290050E+03   0.410888285E-01
   0.422511764E+02   0.182253821E+00
   0.116765579E+02   0.468284594E+00
   0.359305065E+01   0.445758173E+00
    s    1
   0.402451470E+00   0.100000000E+01
    s    1
   0.130901830E+00   0.100000000E+01
    p    3
   0.946809706E+01   0.568883319E-01
   0.201035451E+01   0.312940593E+00
   0.547710050E+00   0.760650164E+00
    p    1
   0.152686140E+00   0.100000000E+01
    d    1
   0.800000000E+00   0.100000000E+01
 
    3
    s    3
   0.130107010E+02   0.334854848E-01
   0.196225720E+01   0.234721871E+00
   0.444537960E+00   0.813770285E+00
    s    1
   0.121949620E+00   0.100000000E+01
    p    1
   0.800000000E+00   0.100000000E+01
 
    4
    s    3
   0.130107010E+02   0.334854848E-01
   0.196225720E+01   0.234721871E+00
   0.444537960E+00   0.813770285E+00
    s    1
   0.121949620E+00   0.100000000E+01
    p    1
   0.800000000E+00   0.100000000E+01
 
    5
    s    5
   0.123840169E+04   0.551736504E-02
   0.186290050E+03   0.410888285E-01
   0.422511764E+02   0.182253821E+00
   0.116765579E+02   0.468284594E+00
   0.359305065E+01   0.445758173E+00
    s    1
   0.402451470E+00   0.100000000E+01
    s    1
   0.130901830E+00   0.100000000E+01
    p    3
   0.946809706E+01   0.568883319E-01
   0.201035451E+01   0.312940593E+00
   0.547710050E+00   0.760650164E+00
    p    1
   0.152686140E+00   0.100000000E+01
    d    1
   0.800000000E+00   0.100000000E+01
 
    6
    s    3
   0.130107010E+02   0.334854848E-01
   0.196225720E+01   0.234721871E+00
   0.444537960E+00   0.813770285E+00
    s    1
   0.121949620E+00   0.100000000E+01
    p    1
   0.800000000E+00   0.100000000E+01
 
    7
    s    3
   0.130107010E+02   0.334854848E-01
   0.196225720E+01   0.234721871E+00
   0.444537960E+00   0.813770285E+00
    s    1
   0.121949620E+00   0.100000000E+01
    p    1
   0.800000000E+00   0.100000000E+01
 
    8
    s    5
   0.123840169E+04   0.551736504E-02
   0.186290050E+03   0.410888285E-01
   0.422511764E+02   0.182253821E+00
   0.116765579E+02   0.468284594E+00
   0.359305065E+01   0.445758173E+00
    s    1
   0.402451470E+00   0.100000000E+01
    s    1
   0.130901830E+00   0.100000000E+01
    p    3
   0.946809706E+01   0.568883319E-01
   0.201035451E+01   0.312940593E+00
   0.547710050E+00   0.760650164E+00
    p    1
   0.152686140E+00   0.100000000E+01
    d    1
   0.800000000E+00   0.100000000E+01
 
    9
    s    3
   0.130107010E+02   0.334854848E-01
   0.196225720E+01   0.234721871E+00
   0.444537960E+00   0.813770285E+00
    s    1
   0.121949620E+00   0.100000000E+01
    p    1
   0.800000000E+00   0.100000000E+01
 
   10
    s    3
   0.130107010E+02   0.334854848E-01
   0.196225720E+01   0.234721871E+00
   0.444537960E+00   0.813770285E+00
    s    1
   0.121949620E+00   0.100000000E+01
    p    1
   0.800000000E+00   0.100000000E+01
 
   11
    s    3
   0.130107010E+02   0.334854848E-01
   0.196225720E+01   0.234721871E+00
   0.444537960E+00   0.813770285E+00
    s    1
   0.121949620E+00   0.100000000E+01
    p    1
   0.800000000E+00   0.100000000E+01
 
   12
    s    3
   0.130107010E+02   0.334854848E-01
   0.196225720E+01   0.234721871E+00
   0.444537960E+00   0.813770285E+00
    s    1
   0.121949620E+00   0.100000000E+01
    p    1
   0.800000000E+00   0.100000000E+01
 
   13
    s    5
   0.123840169E+04   0.551736504E-02
   0.186290050E+03   0.410888285E-01
   0.422511764E+02   0.182253821E+00
   0.116765579E+02   0.468284594E+00
   0.359305065E+01   0.445758173E+00
    s    1
   0.402451470E+00   0.100000000E+01
    s    1
   0.130901830E+00   0.100000000E+01
    p    3
   0.946809706E+01   0.568883319E-01
   0.201035451E+01   0.312940593E+00
   0.547710050E+00   0.760650164E+00
    p    1
   0.152686140E+00   0.100000000E+01
    d    1
   0.800000000E+00   0.100000000E+01
 
   14
    s    3
   0.130107010E+02   0.334854848E-01
   0.196225720E+01   0.234721871E+00
   0.444537960E+00   0.813770285E+00
    s    1
   0.121949620E+00   0.100000000E+01
    p    1
   0.800000000E+00   0.100000000E+01
 
   15
    s    3
   0.130107010E+02   0.334854848E-01
   0.196225720E+01   0.234721871E+00
   0.444537960E+00   0.813770285E+00
    s    1
   0.121949620E+00   0.100000000E+01
    p    1
   0.800000000E+00   0.100000000E+01
 
   16
    s    5
   0.123840169E+04   0.551736504E-02
   0.186290050E+03   0.410888285E-01
   0.422511764E+02   0.182253821E+00
   0.116765579E+02   0.468284594E+00
   0.359305065E+01   0.445758173E+00
    s    1
   0.402451470E+00   0.100000000E+01
    s    1
   0.130901830E+00   0.100000000E+01
    p    3
   0.946809706E+01   0.568883319E-01
   0.201035451E+01   0.312940593E+00
   0.547710050E+00   0.760650164E+00
    p    1
   0.152686140E+00   0.100000000E+01
    d    1
   0.800000000E+00   0.100000000E+01
 
   17
    s    3
   0.130107010E+02   0.334854848E-01
   0.196225720E+01   0.234721871E+00
   0.444537960E+00   0.813770285E+00
    s    1
   0.121949620E+00   0.100000000E+01
    p    1
   0.800000000E+00   0.100000000E+01
 
   18
    s    3
   0.130107010E+02   0.334854848E-01
   0.196225720E+01   0.234721871E+00
   0.444537960E+00   0.813770285E+00
    s    1
   0.121949620E+00   0.100000000E+01
    p    1
   0.800000000E+00   0.100000000E+01
 
   19
    s    5
   0.123840169E+04   0.551736504E-02
   0.186290050E+03   0.410888285E-01
   0.422511764E+02   0.182253821E+00
   0.116765579E+02   0.468284594E+00
   0.359305065E+01   0.445758173E+00
    s    1
   0.402451470E+00   0.100000000E+01
    s    1
   0.130901830E+00   0.100000000E+01
    p    3
   0.946809706E+01   0.568883319E-01
   0.201035451E+01   0.312940593E+00
   0.547710050E+00   0.760650164E+00
    p    1
   0.152686140E+00   0.100000000E+01
    d    1
   0.800000000E+00   0.100000000E+01
 
   20
    s    3
   0.130107010E+02   0.334854848E-01
   0.196225720E+01   0.234721871E+00
   0.444537960E+00   0.813770285E+00
    s    1
   0.121949620E+00   0.100000000E+01
    p    1
   0.800000000E+00   0.100000000E+01
 
   21
    s    3
   0.130107010E+02   0.334854848E-01
   0.196225720E+01   0.234721871E+00
   0.444537960E+00   0.813770285E+00
    s    1
   0.121949620E+00   0.100000000E+01
    p    1
   0.800000000E+00   0.100000000E+01
 
[MO]
 Sym= A   
 Ene=         0.000000
 Spin= Alpha
 Occup=       0.000000
   1       -0.000190017
   2        0.000048062
   3       -0.001639705
   4       -0.000034460
   5       -0.000011435
   6       -0.000000071
   7       -0.000763428
   8        0.000095438
   9       -0.000069132
  10       -0.000003982
  11       -0.000007291
  12       -0.000002763
  13       -0.000039470
  14        0.000003893
  15        0.000390775
  16       -0.000021675
  17        0.002128668
  18        0.000122339
  19       -0.000040863
  20        0.000001398
  21       -0.001050221
  22       -0.000193434
  23        0.000214287
  24       -0.000003825
  25        0.000009708
  26       -0.000008944
  27        0.000024584
  28       -0.000012143
  29        0.000037559
  30        0.000055419
  31        0.000035929
  32       -0.000012160
  33       -0.000004550
  34        0.000051715
  35        0.000073487
  36        0.000029806
  37       -0.000008691
  38        0.000010470
  39       -0.000243892
  40        0.000261305
  41       -0.004916438
  42       -0.000083885
  43        0.000041768
  44        0.000017597
  45       -0.001597488
  46       -0.000381611
  47       -0.000558059
  48        0.000038774
  49       -0.000010927
  50        0.000017436
  51       -0.000064558
  52        0.000005357
  53        0.000072949
  54       -0.000097234
  55        0.000054189
  56       -0.000015770
  57        0.000013604
  58        0.000037613
  59       -0.000330711
  60        0.000065089
  61       -0.000008280
  62       -0.000006016
  63       -0.000884828
  64        0.000815335
  65       -0.002453092
  66        0.000351218
  67       -0.000104173
  68       -0.000053823
  69       -0.005360323
  70        0.001079831
  71        0.000570823
  72        0.000030195
  73        0.000002247
  74        0.000013149
  75       -0.000042995
  76        0.000035110
  77        0.000158328
  78        0.000656830
  79        0.000042219
  80        0.000036796
  81        0.000011341
  82        0.000023540
  83        0.000131800
  84        0.000018537
  85       -0.000000568
  86       -0.000021343
  87        0.000566033
  88        0.001175780
  89        0.000235615
  90       -0.000058726
  91        0.000072355
  92        0.000248716
  93        0.001074530
  94        0.000293033
  95       -0.000055695
  96       -0.000109431
  97       -0.053420694
  98       -0.001536631
  99       -0.004256068
 100        0.000607945
 101       -0.000028853
 102       -0.000002559
 103       -0.003108813
 104        0.001618142
 105       -0.000736652
 106       -0.000416041
 107       -0.000088683
 108       -0.000022803
 109        0.000606801
 110       -0.000087435
 111        0.000009345
 112        0.000018925
 113       -0.000226686
 114       -0.000054619
 115        0.000164700
 116        0.000166083
 117       -0.000334682
 118       -0.000405687
 119       -0.000066850
 120       -0.000060396
 121       -0.986979988
 122       -0.039420536
 123        0.041093642
 124       -0.000210527
 125        0.000029027
 126        0.000292698
 127       -0.001101143
 128        0.002875668
 129        0.003254610
 130       -0.000003766
 131        0.000228929
 132        0.000189725
 133        0.000426154
 134        0.000152015
 135        0.001369199
 136       -0.005800903
 137       -0.000330784
 138        0.001277347
 139       -0.000126892
 140        0.000865471
 141       -0.006940958
 142       -0.000200912
 143       -0.000880631
 144        0.000820053
 145       -0.064695156
 146       -0.001129297
 147       -0.010983651
 148       -0.000235343
 149       -0.000398163
 150       -0.000654449
 151        0.002707684
 152        0.001916242
 153        0.004049424
 154        0.000397509
 155        0.000363341
 156        0.000570947
 157       -0.000044150
 158        0.000178952
 159        0.000158286
 160       -0.000040518
 161        0.000022197
 162        0.000109609
 163        0.000003664
 164        0.000267431
 165       -0.000200385
 166       -0.000001928
 167       -0.000009742
 168        0.000117757
 Sym= A   
 Ene=         0.000000
 Spin= Alpha
 Occup=       0.000000
   1       -0.077754291
   2       -0.001581474
   3       -0.007920016
   4        0.000884353
   5        0.000075646
   6        0.000012163
   7       -0.003908769
   8        0.000399890
   9       -0.000070853
  10       -0.000445027
  11        0.000020267
  12        0.000000045
  13        0.000680136
  14        0.000120548
  15       -0.985938006
  16       -0.038733653
  17        0.039902628
  18       -0.000293618
  19       -0.000480922
  20        0.000006545
  21       -0.000755111
  22       -0.002303309
  23        0.000044676
  24       -0.000406179
  25        0.000019459
  26       -0.000018118
  27        0.000068283
  28       -0.000302350
  29        0.000179390
  30       -0.000287875
  31       -0.000125559
  32       -0.000022886
  33       -0.000053649
  34        0.000178835
  35       -0.000287780
  36       -0.000126999
  37       -0.000020193
  38        0.000050804
  39       -0.056174188
  40       -0.001082895
  41       -0.008219261
  42       -0.000273511
  43        0.000689932
  44       -0.000018441
  45        0.001599680
  46       -0.003264083
  47        0.000097322
  48       -0.000355229
  49        0.000013033
  50       -0.000029975
  51       -0.000480653
  52       -0.000427128
  53        0.001029514
  54       -0.006862862
  55       -0.000363840
  56       -0.000396697
  57        0.001052169
  58        0.001030764
  59       -0.006885622
  60       -0.000330530
  61       -0.000440400
  62       -0.001042965
  63       -0.001563573
  64        0.000351937
  65       -0.000211590
  66       -0.000090425
  67        0.000116071
  68       -0.000004456
  69        0.000144839
  70       -0.001814775
  71       -0.000008861
  72        0.000015772
  73       -0.000003709
  74        0.000004761
  75        0.000098936
  76        0.000065911
  77        0.000121725
  78       -0.000379419
  79        0.000120312
  80       -0.000342564
  81       -0.000003765
  82        0.000119466
  83       -0.000383218
  84        0.000117441
  85       -0.000342147
  86        0.000022203
  87        0.000153017
  88        0.000775496
  89       -0.000014913
  90        0.000074115
  91        0.000048611
  92        0.000152448
  93        0.000876123
  94       -0.000012113
  95        0.000064840
  96       -0.000057460
  97       -0.000383241
  98        0.000150265
  99       -0.002377781
 100        0.000037429
 101       -0.000024677
 102       -0.000005054
 103        0.000345662
 104       -0.000472574
 105        0.000093792
 106        0.000006240
 107       -0.000002331
 108       -0.000002750
 109       -0.000023248
 110        0.000015575
 111        0.000072891
 112        0.000397693
 113        0.000006142
 114        0.000006960
 115        0.000016322
 116        0.000044106
 117        0.000326032
 118       -0.000001276
 119       -0.000000478
 120       -0.000016419
 121       -0.000356747
 122       -0.000063237
 123        0.000816998
 124       -0.000023473
 125       -0.000000108
 126        0.000000396
 127       -0.000060585
 128        0.000133376
 129        0.000013925
 130        0.000003370
 131        0.000000148
 132        0.000000905
 133        0.000004436
 134       -0.000000113
 135       -0.000015520
 136       -0.000095228
 137        0.000008107
 138       -0.000006614
 139       -0.000002145
 140       -0.000021810
 141       -0.000217921
 142        0.000007237
 143       -0.000004355
 144       -0.000014750
 145        0.000200289
 146        0.000060136
 147       -0.000328680
 148       -0.000021361
 149        0.000013497
 150        0.000006144
 151        0.000133785
 152       -0.000029372
 153        0.000110283
 154       -0.000003868
 155       -0.000004425
 156        0.000000294
 157        0.000005637
 158       -0.000001103
 159        0.000037509
 160       -0.000010480
 161       -0.000003176
 162        0.000004863
 163       -0.000003678
 164        0.000017125
 165       -0.000020334
 166       -0.000012696
 167        0.000003065
 168        0.000002204
 Sym= A   
 Ene=         0.000000
 Spin= Alpha
 Occup=       0.000000
   1        0.001816314
   2        0.000185520
   3       -0.000973498
   4       -0.000003087
   5       -0.000006801
   6        0.000004118
   7       -0.000424593
   8        0.000181049
   9        0.000077170
  10        0.000002096
  11        0.000009495
  12       -0.000002206
  13       -0.000022742
  14        0.000023645
  15       -0.000692305
  16       -0.000096102
  17        0.001561614
  18        0.000043529
  19        0.000001557
  20        0.000015706
  21       -0.000142191
  22       -0.000482761
  23       -0.000372585
  24       -0.000007986
  25       -0.000020860
  26       -0.000016721
  27        0.000025288
  28       -0.000035212
  29        0.000034452
  30        0.000108351
  31        0.000019166
  32       -0.000018276
  33       -0.000007722
  34        0.000031400
  35        0.000003389
  36        0.000020581
  37       -0.000021744
  38        0.000008366
  39        0.003733815
  40        0.000388833
  41       -0.005327722
  42       -0.000085014
  43        0.000013852
  44       -0.000050418
  45       -0.002040216
  46       -0.000404805
  47        0.000117525
  48        0.000052713
  49       -0.000047014
  50       -0.000019567
  51       -0.000131287
  52       -0.000009026
  53       -0.000031980
  54       -0.000283362
  55        0.000017630
  56        0.000001092
  57        0.000002113
  58        0.000011771
  59        0.000403067
  60        0.000008615
  61       -0.000056403
  62       -0.000033244
  63        0.021612898
  64        0.000455834
  65        0.008096341
  66        0.000289417
  67        0.000060683
  68        0.000053447
  69       -0.002257862
  70       -0.001226388
  71        0.001242103
  72        0.000056959
  73        0.000091198
  74       -0.000036451
  75        0.000252354
  76        0.000059562
  77        0.000015686
  78        0.000250349
  79        0.000029413
  80       -0.000009716
  81        0.000018401
  82        0.000189286
  83        0.000176876
  84        0.000062488
  85        0.000009603
  86       -0.000034517
  87        0.000085409
  88        0.000625884
  89        0.000207910
  90       -0.000183114
  91        0.000095029
  92        0.000019415
  93       -0.001934628
  94        0.000116722
  95        0.000030807
  96        0.000027769
  97        0.226468070
  98        0.010136135
  99       -0.015723645
 100       -0.000034695
 101        0.000058458
 102        0.000187274
 103       -0.002138150
 104       -0.002244188
 105       -0.002434012
 106        0.000149186
 107       -0.000085244
 108        0.000006469
 109       -0.000225043
 110        0.000073728
 111       -0.000597923
 112        0.001139717
 113       -0.000002987
 114       -0.000132291
 115       -0.000271276
 116        0.000339809
 117        0.002428796
 118       -0.000023058
 119        0.000011033
 120        0.000388168
 121        0.050629807
 122        0.001850208
 123        0.002398524
 124        0.000729123
 125        0.000308339
 126        0.000717853
 127       -0.003315299
 128        0.000685970
 129       -0.000082922
 130        0.000506715
 131        0.000539156
 132        0.000431322
 133       -0.000104678
 134        0.000262610
 135       -0.000103942
 136       -0.000373135
 137       -0.000082751
 138       -0.000223929
 139       -0.000383271
 140       -0.000395082
 141       -0.000317593
 142       -0.000089625
 143       -0.000204656
 144       -0.000398411
 145       -0.962967836
 146       -0.035535410
 147        0.023137757
 148        0.000500274
 149       -0.000379172
 150       -0.000443999
 151       -0.001298078
 152       -0.000127530
 153        0.000385236
 154       -0.000523386
 155       -0.000325700
 156        0.000327860
 157        0.000948356
 158       -0.000853518
 159        0.002189688
 160       -0.005245507
 161       -0.000247558
 162       -0.001306644
 163        0.000095019
 164        0.001943685
 165       -0.005864637
 166        0.000332680
 167        0.000640257
 168       -0.001070349
 Sym= A   
 Ene=         0.000000
 Spin= Alpha
 Occup=       0.000000
   1       -0.018734641
   2       -0.000802626
   3        0.000576630
   4       -0.000021259
   5        0.000032040
   6       -0.000000098
   7        0.000101435
   8       -0.000038451
   9       -0.000010005
  10       -0.000026600
  11        0.000001319
  12       -0.000001577
  13       -0.000028088
  14       -0.000007515
  15       -0.000269902
  16       -0.000203154
  17        0.002527025
  18        0.000009409
  19       -0.000017349
  20       -0.000001735
  21        0.000674879
  22       -0.000718256
  23        0.000018988
  24       -0.000012460
  25        0.000000204
  26        0.000001648
  27        0.000037942
  28       -0.000011149
  29        0.000016430
  30       -0.000091298
  31       -0.000000846
  32        0.000013326
  33        0.000035084
  34        0.000021707
  35       -0.000078739
  36        0.000002025
  37        0.000011673
  38       -0.000036277
  39        0.023138497
  40        0.000448819
  41       -0.000259348
  42       -0.000147351
  43        0.000130758
  44       -0.000004983
  45        0.000813222
  46       -0.002118960
  47        0.000107645
  48       -0.000005072
  49        0.000001174
  50       -0.000004278
  51       -0.000098810
  52       -0.000062149
  53       -0.000070652
  54       -0.000380433
  55        0.000003937
  56        0.000002048
  57       -0.000013554
  58       -0.000080541
  59       -0.000333570
  60        0.000004937
  61        0.000000026
  62        0.000009946
  63        0.086492702
  64        0.002170487
  65        0.007437606
  66       -0.000271508
  67        0.000709480
  68       -0.000016671
  69        0.002117621
  70       -0.003320969
  71        0.000044717
  72        0.000368250
  73       -0.000007035
  74        0.000029086
  75        0.000420670
  76        0.000419402
  77       -0.000209465
  78       -0.000572020
  79       -0.000036207
  80        0.000085027
  81        0.000065017
  82       -0.000204304
  83       -0.000503671
  84       -0.000027907
  85        0.000086177
  86       -0.000065679
  87       -0.000215517
  88        0.000473501
  89        0.000087730
  90       -0.000302892
  91       -0.000053422
  92       -0.000146492
  93        0.000358547
  94        0.000098748
  95       -0.000297035
  96        0.000077088
  97        0.958266627
  98        0.037766291
  99       -0.036782807
 100       -0.000212757
 101       -0.000470754
 102        0.000023696
 103        0.000387991
 104       -0.002827951
 105        0.000287215
 106        0.000370945
 107        0.000039933
 108        0.000038461
 109        0.000009614
 110        0.000302057
 111       -0.001080496
 112        0.006289006
 113       -0.000451723
 114       -0.000411745
 115       -0.001079932
 116       -0.001079940
 117        0.006369035
 118       -0.000369783
 119       -0.000353214
 120        0.001057735
 121       -0.066354119
 122       -0.003181322
 123        0.007304341
 124        0.000514740
 125       -0.000051835
 126       -0.000039530
 127       -0.002227628
 128        0.000553013
 129       -0.001468025
 130        0.000285216
 131       -0.000169829
 132       -0.000084661
 133       -0.000681248
 134       -0.000184331
 135        0.000299586
 136       -0.000405147
 137       -0.000261147
 138        0.000052695
 139        0.000174020
 140       -0.000015707
 141       -0.000528367
 142       -0.000382781
 143       -0.000000142
 144        0.000176406
 145        0.224054540
 146        0.007330737
 147       -0.001656493
 148       -0.000055025
 149        0.000136817
 150        0.000055727
 151       -0.001280380
 152       -0.001169387
 153        0.000092691
 154        0.000124546
 155        0.000163773
 156       -0.000092048
 157       -0.000076499
 158        0.000304256
 159       -0.000444094
 160        0.001043151
 161        0.000236704
 162        0.000288106
 163        0.000034821
 164       -0.000969344
 165        0.000052539
 166        0.000097126
 167       -0.000093516
 168        0.000383516
 Sym= A   
 Ene=         0.000000
 Spin= Alpha
 Occup=       0.000000
   1        0.987081650
   2        0.036171989
   3       -0.022127019
   4       -0.000244419
   5       -0.000813851
   6        0.000015004
   7        0.000453002
   8        0.001082696
   9       -0.000017220
  10        0.000919500
  11       -0.000013472
  12        0.000069823
  13        0.001170660
  14        0.000276166
  15       -0.075503593
  16       -0.003119396
  17       -0.002365557
  18        0.000867053
  19       -0.000138384
  20        0.000016681
  21       -0.000041240
  22        0.003154538
  23       -0.000072925
  24        0.000428683
  25       -0.000025542
  26       -0.000000211
  27       -0.000791517
  28        0.000032036
  29       -0.002180617
  30        0.005693157
  31       -0.000527478
  32       -0.000370261
  33       -0.001168741
  34       -0.002181599
  35        0.005693850
  36       -0.000564813
  37       -0.000315004
  38        0.001167241
  39       -0.035935889
  40       -0.002188661
  41        0.006203780
  42        0.000346503
  43       -0.000050841
  44        0.000005942
  45       -0.004934272
  46        0.003067723
  47       -0.000128164
  48       -0.000146613
  49        0.000009086
  50       -0.000009694
  51       -0.000019371
  52       -0.000213786
  53        0.000241670
  54        0.000246902
  55       -0.000491884
  56       -0.000184030
  57        0.000010922
  58        0.000242045
  59        0.000248122
  60       -0.000491018
  61       -0.000184555
  62       -0.000018609
  63       -0.000307356
  64        0.000051787
  65        0.003194592
  66       -0.000226380
  67        0.000122779
  68       -0.000004650
  69        0.000176969
  70       -0.001536765
  71        0.000004499
  72       -0.000024618
  73       -0.000000239
  74        0.000001446
  75        0.000054041
  76        0.000049879
  77       -0.000388214
  78       -0.000573206
  79        0.000275894
  80       -0.000055388
  81       -0.000047425
  82       -0.000383909
  83       -0.000562143
  84        0.000274294
  85       -0.000051882
  86        0.000058142
  87        0.000048835
  88       -0.000358039
  89        0.000002538
  90        0.000093902
  91        0.000014596
  92        0.000061701
  93       -0.000348020
  94        0.000000934
  95        0.000092603
  96       -0.000017534
  97        0.018647214
  98        0.000691274
  99       -0.003458792
 100        0.000165807
 101       -0.000082010
 102        0.000002628
 103       -0.001601539
 104       -0.000636874
 105        0.000041691
 106        0.000028405
 107        0.000002431
 108        0.000001504
 109       -0.000005381
 110        0.000021852
 111       -0.000099492
 112        0.000158772
 113        0.000084798
 114       -0.000022453
 115       -0.000065513
 116       -0.000104550
 117        0.000140381
 118        0.000090905
 119       -0.000021112
 120        0.000066133
 121       -0.001621143
 122       -0.000126631
 123        0.002221512
 124       -0.000049537
 125        0.000015825
 126       -0.000003719
 127       -0.001023882
 128       -0.000226009
 129       -0.000064534
 130       -0.000021876
 131       -0.000005101
 132        0.000003389
 133        0.000023603
 134       -0.000008198
 135       -0.000098386
 136       -0.000247008
 137        0.000022434
 138       -0.000000072
 139        0.000002158
 140       -0.000028051
 141       -0.000020903
 142       -0.000006687
 143        0.000005530
 144        0.000023276
 145        0.006081241
 146        0.000131106
 147        0.000059240
 148        0.000010418
 149        0.000003999
 150        0.000006464
 151       -0.000027167
 152       -0.000005450
 153       -0.000072382
 154        0.000010198
 155       -0.000002771
 156       -0.000000623
 157        0.000011437
 158        0.000005732
 159       -0.000036434
 160        0.000020782
 161        0.000005603
 162       -0.000000428
 163        0.000009662
 164       -0.000033917
 165        0.000011035
 166        0.000006689
 167        0.000005978
 168        0.000016380
 Sym= A   
 Ene=         0.000000
 Spin= Alpha
 Occup=       0.000000
   1       -0.031952234
   2       -0.000890105
   3        0.000258821
   4       -0.000041239
   5        0.000066142
   6       -0.000001924
   7        0.000494034
   8        0.000253876
   9        0.000005159
  10        0.000014708
  11       -0.000001819
  12        0.000001016
  13       -0.000014248
  14        0.000082392
  15        0.058308136
  16        0.003360531
  17       -0.011091289
  18        0.000334164
  19       -0.000654047
  20        0.000019963
  21       -0.001630791
  22        0.002870581
  23       -0.000107865
  24       -0.000342115
  25        0.000010520
  26       -0.000031734
  27       -0.000493461
  28       -0.000463009
  29        0.000157600
  30        0.000410934
  31        0.000089581
  32       -0.000035490
  33        0.000069008
  34        0.000158021
  35        0.000405933
  36        0.000091916
  37       -0.000038934
  38       -0.000064563
  39       -0.981260760
  40       -0.038596845
  41        0.038552567
  42        0.000376650
  43        0.000474223
  44       -0.000008535
  45        0.001105127
  46        0.001474561
  47       -0.000002614
  48       -0.000386254
  49        0.000015635
  50       -0.000014877
  51        0.000214969
  52       -0.000240982
  53       -0.000034715
  54        0.000449668