 Entering Gaussian System, Link 0=/apps/software/g16/g16
 Initial command:
 /apps/software/g16/l1.exe "/scratch/Gau-369833.inp" -scrdir="/scratch/"
 Entering Link 1 = /apps/software/g16/l1.exe PID=    369834.
  
 Copyright (c) 1988,1990,1992,1993,1995,1998,2003,2009,2016,
            Gaussian, Inc.  All Rights Reserved.
  
 This is part of the Gaussian(R) 16 program.  It is based on
 the Gaussian(R) 09 system (copyright 2009, Gaussian, Inc.),
 the Gaussian(R) 03 system (copyright 2003, Gaussian, Inc.),
 the Gaussian(R) 98 system (copyright 1998, Gaussian, Inc.),
 the Gaussian(R) 94 system (copyright 1995, Gaussian, Inc.),
 the Gaussian 92(TM) system (copyright 1992, Gaussian, Inc.),
 the Gaussian 90(TM) system (copyright 1990, Gaussian, Inc.),
 the Gaussian 88(TM) system (copyright 1988, Gaussian, Inc.),
 the Gaussian 86(TM) system (copyright 1986, Carnegie Mellon
 University), and the Gaussian 82(TM) system (copyright 1983,
 Carnegie Mellon University). Gaussian is a federally registered
 trademark of Gaussian, Inc.
  
 This software contains proprietary and confidential information,
 including trade secrets, belonging to Gaussian, Inc.
  
 This software is provided under written license and may be
 used, copied, transmitted, or stored only in accord with that
 written license.
  
 The following legend is applicable only to US Government
 contracts under FAR:
  
                    RESTRICTED RIGHTS LEGEND
  
 Use, reproduction and disclosure by the US Government is
 subject to restrictions as set forth in subparagraphs (a)
 and (c) of the Commercial Computer Software - Restricted
 Rights clause in FAR 52.227-19.
  
 Gaussian, Inc.
 340 Quinnipiac St., Bldg. 40, Wallingford CT 06492
  
  
 ---------------------------------------------------------------
 Warning -- This program may not be used in any manner that
 competes with the business of Gaussian, Inc. or will provide
 assistance to any competitor of Gaussian, Inc.  The licensee
 of this program is prohibited from giving any competitor of
 Gaussian, Inc. access to this program.  By using this program,
 the user acknowledges that Gaussian, Inc. is engaged in the
 business of creating and licensing software in the field of
 computational chemistry and represents and warrants to the
 licensee that it is not a competitor of Gaussian, Inc. and that
 it will not use this program in any manner prohibited above.
 ---------------------------------------------------------------
  

 Cite this work as:
 Gaussian 16, Revision A.03,
 M. J. Frisch, G. W. Trucks, H. B. Schlegel, G. E. Scuseria, 
 M. A. Robb, J. R. Cheeseman, G. Scalmani, V. Barone, 
 G. A. Petersson, H. Nakatsuji, X. Li, M. Caricato, A. V. Marenich, 
 J. Bloino, B. G. Janesko, R. Gomperts, B. Mennucci, H. P. Hratchian, 
 J. V. Ortiz, A. F. Izmaylov, J. L. Sonnenberg, D. Williams-Young, 
 F. Ding, F. Lipparini, F. Egidi, J. Goings, B. Peng, A. Petrone, 
 T. Henderson, D. Ranasinghe, V. G. Zakrzewski, J. Gao, N. Rega, 
 G. Zheng, W. Liang, M. Hada, M. Ehara, K. Toyota, R. Fukuda, 
 J. Hasegawa, M. Ishida, T. Nakajima, Y. Honda, O. Kitao, H. Nakai, 
 T. Vreven, K. Throssell, J. A. Montgomery, Jr., J. E. Peralta, 
 F. Ogliaro, M. J. Bearpark, J. J. Heyd, E. N. Brothers, K. N. Kudin, 
 V. N. Staroverov, T. A. Keith, R. Kobayashi, J. Normand, 
 K. Raghavachari, A. P. Rendell, J. C. Burant, S. S. Iyengar, 
 J. Tomasi, M. Cossi, J. M. Millam, M. Klene, C. Adamo, R. Cammi, 
 J. W. Ochterski, R. L. Martin, K. Morokuma, O. Farkas, 
 J. B. Foresman, and D. J. Fox, Gaussian, Inc., Wallingford CT, 2016.
 
 ******************************************
 Gaussian 16:  ES64L-G16RevA.03 25-Dec-2016
                22-May-2022 
 ******************************************
 %chk=BH-0.8-UHF-G.chk
 ---------------------------------------
 #p UHF/aug-cc-pVQZ guess=mix stable=opt
 ---------------------------------------
 1/38=1,172=1/1;
 2/12=2,17=6,18=5,40=1/2;
 3/5=16,6=2,7=10,11=2,25=1,30=1,116=2/1,2,3;
 4/13=-1/1;
 5/5=2,38=5/2;
 6/7=2,8=2,9=2,10=2,28=1/1;
 8/6=1,10=90,11=11/1;
 9/8=-3,42=1,46=1/14;
 5/5=2,8=3,17=40,38=5/8(-2);
 6/7=2,8=2,9=2,10=2,28=1/1;
 99/5=1,9=1/99;
 Leave Link    1 at Sun May 22 21:02:29 2022, MaxMem=           0 cpu:               0.0 elap:               0.0
 (Enter /apps/software/g16/l101.exe)
 ----------------------
 BH UHF at 0.8 Angstrom
 ----------------------
 Symbolic Z-matrix:
 Charge =  0 Multiplicity = 1
 B                     0.        0.        0. 
 H                     0.8       0.        0. 
 
 ITRead=  0  0
 MicOpt= -1 -1
 NAtoms=      2 NQM=        2 NQMF=       0 NMMI=      0 NMMIF=      0
                NMic=       0 NMicF=      0.
                    Isotopes and Nuclear Properties:
 (Nuclear quadrupole moments (NQMom) in fm**2, nuclear magnetic moments (NMagM)
  in nuclear magnetons)

  Atom         1           2
 IAtWgt=          11           1
 AtmWgt=  11.0093053   1.0078250
 NucSpn=           3           1
 AtZEff=  -0.0000000  -0.0000000
 NQMom=    4.0590000   0.0000000
 NMagM=    2.6886370   2.7928460
 AtZNuc=   5.0000000   1.0000000
 Leave Link  101 at Sun May 22 21:02:29 2022, MaxMem=   104857600 cpu:               0.1 elap:               0.1
 (Enter /apps/software/g16/l202.exe)
                          Input orientation:                          
 ---------------------------------------------------------------------
 Center     Atomic      Atomic             Coordinates (Angstroms)
 Number     Number       Type             X           Y           Z
 ---------------------------------------------------------------------
      1          5           0        0.000000    0.000000    0.000000
      2          1           0        0.800000    0.000000    0.000000
 ---------------------------------------------------------------------
 Stoichiometry    BH
 Framework group  C*V[C*(HB)]
 Deg. of freedom     1
 Full point group                 C*V     NOp   4
 Largest Abelian subgroup         C2V     NOp   4
 Largest concise Abelian subgroup C1      NOp   1
                         Standard orientation:                         
 ---------------------------------------------------------------------
 Center     Atomic      Atomic             Coordinates (Angstroms)
 Number     Number       Type             X           Y           Z
 ---------------------------------------------------------------------
      1          5           0        0.000000    0.000000    0.133333
      2          1           0        0.000000    0.000000   -0.666667
 ---------------------------------------------------------------------
 Rotational constants (GHZ):           0.0000000         855.2497161         855.2497161
 Leave Link  202 at Sun May 22 21:02:29 2022, MaxMem=   104857600 cpu:               0.0 elap:               0.0
 (Enter /apps/software/g16/l301.exe)
 Standard basis: Aug-CC-pVQZ (5D, 7F)
 Ernie: Thresh=  0.10000D-02 Tol=  0.10000D-05 Strict=F.
 Ernie:  4 primitive shells out of 54 were deleted.
 There are    68 symmetry adapted cartesian basis functions of A1  symmetry.
 There are    18 symmetry adapted cartesian basis functions of A2  symmetry.
 There are    37 symmetry adapted cartesian basis functions of B1  symmetry.
 There are    37 symmetry adapted cartesian basis functions of B2  symmetry.
 There are    50 symmetry adapted basis functions of A1  symmetry.
 There are    16 symmetry adapted basis functions of A2  symmetry.
 There are    30 symmetry adapted basis functions of B1  symmetry.
 There are    30 symmetry adapted basis functions of B2  symmetry.
   126 basis functions,   180 primitive gaussians,   160 cartesian basis functions
     3 alpha electrons        3 beta electrons
       nuclear repulsion energy         3.3073575683 Hartrees.
 IExCor=    0 DFT=F Ex=HF Corr=None ExCW=0 ScaHFX=  1.000000
 ScaDFX=  1.000000  1.000000  1.000000  1.000000 ScalE2=  1.000000  1.000000
 IRadAn=      5 IRanWt=     -1 IRanGd=            0 ICorTp=0 IEmpDi=  4
 NAtoms=    2 NActive=    2 NUniq=    2 SFac= 1.00D+00 NAtFMM=   60 NAOKFM=F Big=F
 Integral buffers will be    131072 words long.
 Raffenetti 2 integral format.
 Two-electron integral symmetry is turned on.
 Leave Link  301 at Sun May 22 21:02:29 2022, MaxMem=   104857600 cpu:               0.1 elap:               0.1
 (Enter /apps/software/g16/l302.exe)
 NPDir=0 NMtPBC=     1 NCelOv=     1 NCel=       1 NClECP=     1 NCelD=      1
         NCelK=      1 NCelE2=     1 NClLst=     1 CellRange=     0.0.
 One-electron integrals computed using PRISM.
 One-electron integral symmetry used in STVInt
 NBasis=   126 RedAO= T EigKep=  3.13D-05  NBF=    50    16    30    30
 NBsUse=   126 1.00D-06 EigRej= -1.00D+00 NBFU=    50    16    30    30
 Leave Link  302 at Sun May 22 21:02:29 2022, MaxMem=   104857600 cpu:               0.1 elap:               0.1
 (Enter /apps/software/g16/l303.exe)
 DipDrv:  MaxL=1.
 Leave Link  303 at Sun May 22 21:02:29 2022, MaxMem=   104857600 cpu:               0.0 elap:               0.0
 (Enter /apps/software/g16/l401.exe)
 ExpMin= 1.88D-02 ExpMax= 2.39D+04 ExpMxC= 2.30D+02 IAcc=3 IRadAn=         5 AccDes= 0.00D+00
 Harris functional with IExCor=  205 and IRadAn=       5 diagonalized for initial guess.
 HarFok:  IExCor=  205 AccDes= 0.00D+00 IRadAn=         5 IDoV= 1 UseB2=F ITyADJ=14
 ICtDFT=  3500011 ScaDFX=  1.000000  1.000000  1.000000  1.000000
 FoFCou: FMM=F IPFlag=           0 FMFlag=      100000 FMFlg1=           0
         NFxFlg=           0 DoJE=T BraDBF=F KetDBF=T FulRan=T
         wScrn=  0.000000 ICntrl=       500 IOpCl=  0 I1Cent=   200000004 NGrid=           0
         NMat0=    1 NMatS0=      1 NMatT0=    0 NMatD0=    1 NMtDS0=    0 NMtDT0=    0
 Petite list used in FoFCou.
 Harris En= -24.9824301044623    
 JPrj=0 DoOrth=F DoCkMO=T.
 Mixing orbitals, IMix= 1 IMixAn=  0 NRI=1 NE=    3 Coef=  7.07106781D-01  7.07106781D-01
 Mixing orbitals, IMix= 1 IMixAn=  0 NRI=1 NE=    3 Coef= -7.07106781D-01  7.07106781D-01
 Initial guess orbital symmetries:
 Alpha Orbitals:
       Occupied  (SG) (SG) (?A)
       Virtual   (?A) (?A) (SG) (SG) (PI) (PI) (SG) (PI) (PI) (SG)
                 (DLTA) (DLTA) (SG) (PI) (PI) (SG) (PI) (PI) (SG)
                 (DLTA) (DLTA) (SG) (PI) (PI) (SG) (DLTA) (DLTA)
                 (PHI) (PHI) (PI) (PI) (SG) (PI) (PI) (SG) (DLTA)
                 (DLTA) (SG) (PI) (PI) (SG) (PI) (PI) (SG) (DLTA)
                 (DLTA) (PHI) (PHI) (DLTA) (DLTA) (?B) (?B) (SG)
                 (PI) (PI) (PHI) (PHI) (PI) (PI) (SG) (DLTA) (DLTA)
                 (SG) (PI) (PI) (SG) (DLTA) (DLTA) (PHI) (PHI)
                 (SG) (PI) (PI) (SG) (PI) (PI) (PI) (PI) (SG) (DLTA)
                 (DLTA) (SG) (DLTA) (DLTA) (PI) (PI) (PHI) (PHI)
                 (?B) (?B) (SG) (DLTA) (DLTA) (PHI) (PHI) (PI)
                 (PI) (SG) (PI) (PI) (DLTA) (DLTA) (SG) (PI) (PI)
                 (SG) (PHI) (PHI) (SG) (PI) (PI) (DLTA) (DLTA)
                 (SG) (DLTA) (DLTA) (PI) (PI) (SG) (PI) (PI) (SG)
                 (SG)
 Beta  Orbitals:
       Occupied  (SG) (SG) (?A)
       Virtual   (?A) (?A) (SG) (SG) (PI) (PI) (SG) (PI) (PI) (SG)
                 (DLTA) (DLTA) (SG) (PI) (PI) (SG) (PI) (PI) (SG)
                 (DLTA) (DLTA) (SG) (PI) (PI) (SG) (DLTA) (DLTA)
                 (PHI) (PHI) (PI) (PI) (SG) (PI) (PI) (SG) (DLTA)
                 (DLTA) (SG) (PI) (PI) (SG) (PI) (PI) (SG) (DLTA)
                 (DLTA) (PHI) (PHI) (DLTA) (DLTA) (?B) (?B) (SG)
                 (PI) (PI) (PHI) (PHI) (PI) (PI) (SG) (DLTA) (DLTA)
                 (SG) (PI) (PI) (SG) (DLTA) (DLTA) (PHI) (PHI)
                 (SG) (PI) (PI) (SG) (PI) (PI) (PI) (PI) (SG) (DLTA)
                 (DLTA) (SG) (DLTA) (DLTA) (PI) (PI) (PHI) (PHI)
                 (?B) (?B) (SG) (DLTA) (DLTA) (PHI) (PHI) (PI)
                 (PI) (SG) (PI) (PI) (DLTA) (DLTA) (SG) (PI) (PI)
                 (SG) (PHI) (PHI) (SG) (PI) (PI) (DLTA) (DLTA)
                 (SG) (DLTA) (DLTA) (PI) (PI) (SG) (PI) (PI) (SG)
                 (SG)
 Initial guess <Sx>= 0.0000 <Sy>= 0.0000 <Sz>= 0.0000 <S**2>= 1.0000 S= 0.6180
 Leave Link  401 at Sun May 22 21:02:29 2022, MaxMem=   104857600 cpu:               0.2 elap:               0.2
 (Enter /apps/software/g16/l502.exe)
 Keep R1 and R2 ints in memory in symmetry-blocked form, NReq=40143665.
 FoFCou: FMM=F IPFlag=           0 FMFlag=           0 FMFlg1=           0
         NFxFlg=           0 DoJE=F BraDBF=F KetDBF=F FulRan=T
         wScrn=  0.000000 ICntrl=       600 IOpCl=  0 I1Cent=           0 NGrid=           0
         NMat0=    1 NMatS0=   8001 NMatT0=    0 NMatD0=    1 NMtDS0=    0 NMtDT0=    0
 Petite list used in FoFCou.
 UHF open shell SCF:
 Using DIIS extrapolation, IDIIS=  1040.
 NGot=   104857600 LenX=    88563632 LenY=    88537591
 Requested convergence on RMS density matrix=1.00D-08 within 128 cycles.
 Requested convergence on MAX density matrix=1.00D-06.
 Requested convergence on             energy=1.00D-06.
 No special actions if energy rises.
 An orbital has undefined symmetry, so N**3 symmetry is turned off.

 Cycle   1  Pass 1  IDiag  1:
 Density matrix breaks symmetry, PCut= 1.00D-07
 Density matrix has no symmetry -- integrals replicated.
 E= -24.9115454507912    
 DIIS: error= 3.26D-02 at cycle   1 NSaved=   1.
 NSaved= 1 IEnMin= 1 EnMin= -24.9115454507912     IErMin= 1 ErrMin= 3.26D-02
 ErrMax= 3.26D-02  0.00D+00 EMaxC= 1.00D-01 BMatC= 2.45D-01 BMatP= 2.45D-01
 IDIUse=3 WtCom= 6.74D-01 WtEn= 3.26D-01
 Coeff-Com:  0.100D+01
 Coeff-En:   0.100D+01
 Coeff:      0.100D+01
 Gap=     0.482 Goal=   None    Shift=    0.000
 Gap=     0.482 Goal=   None    Shift=    0.000
 GapD=    0.482 DampG=2.000 DampE=0.500 DampFc=1.0000 IDamp=-1.
 RMSDP=2.29D-03 MaxDP=8.68D-02              OVMax= 1.52D-01

 Cycle   2  Pass 1  IDiag  1:
 Density matrix breaks symmetry, PCut= 1.00D-07
 Density matrix has no symmetry -- integrals replicated.
 E= -24.9718652348248     Delta-E=       -0.060319784034 Rises=F Damp=F
 DIIS: error= 1.03D-02 at cycle   2 NSaved=   2.
 NSaved= 2 IEnMin= 2 EnMin= -24.9718652348248     IErMin= 2 ErrMin= 1.03D-02
 ErrMax= 1.03D-02  0.00D+00 EMaxC= 1.00D-01 BMatC= 1.08D-02 BMatP= 2.45D-01
 IDIUse=3 WtCom= 8.97D-01 WtEn= 1.03D-01
 Coeff-Com: -0.482D-01 0.105D+01
 Coeff-En:   0.000D+00 0.100D+01
 Coeff:     -0.432D-01 0.104D+01
 Gap=     0.408 Goal=   None    Shift=    0.000
 Gap=     0.408 Goal=   None    Shift=    0.000
 RMSDP=5.13D-04 MaxDP=1.85D-02 DE=-6.03D-02 OVMax= 7.43D-02

 Cycle   3  Pass 1  IDiag  1:
 Density matrix breaks symmetry, PCut= 1.00D-07
 Density matrix has no symmetry -- integrals replicated.
 E= -24.9812811615791     Delta-E=       -0.009415926754 Rises=F Damp=F
 DIIS: error= 6.46D-03 at cycle   3 NSaved=   3.
 NSaved= 3 IEnMin= 3 EnMin= -24.9812811615791     IErMin= 3 ErrMin= 6.46D-03
 ErrMax= 6.46D-03  0.00D+00 EMaxC= 1.00D-01 BMatC= 2.48D-03 BMatP= 1.08D-02
 IDIUse=3 WtCom= 9.35D-01 WtEn= 6.46D-02
 Coeff-Com:  0.200D-01-0.574D+00 0.155D+01
 Coeff-En:   0.000D+00 0.000D+00 0.100D+01
 Coeff:      0.187D-01-0.537D+00 0.152D+01
 Gap=     0.405 Goal=   None    Shift=    0.000
 Gap=     0.405 Goal=   None    Shift=    0.000
 RMSDP=4.45D-04 MaxDP=1.60D-02 DE=-9.42D-03 OVMax= 6.53D-02

 Cycle   4  Pass 1  IDiag  1:
 Density matrix breaks symmetry, PCut= 1.00D-07
 Density matrix has no symmetry -- integrals replicated.
 E= -24.9856916823527     Delta-E=       -0.004410520774 Rises=F Damp=F
 DIIS: error= 3.23D-03 at cycle   4 NSaved=   4.
 NSaved= 4 IEnMin= 4 EnMin= -24.9856916823527     IErMin= 4 ErrMin= 3.23D-03
 ErrMax= 3.23D-03  0.00D+00 EMaxC= 1.00D-01 BMatC= 6.53D-04 BMatP= 2.48D-03
 IDIUse=3 WtCom= 9.68D-01 WtEn= 3.23D-02
 Coeff-Com: -0.365D-02 0.282D+00-0.128D+01 0.200D+01
 Coeff-En:   0.000D+00 0.000D+00 0.000D+00 0.100D+01
 Coeff:     -0.353D-02 0.273D+00-0.124D+01 0.197D+01
 Gap=     0.401 Goal=   None    Shift=    0.000
 Gap=     0.401 Goal=   None    Shift=    0.000
 RMSDP=3.42D-04 MaxDP=1.18D-02 DE=-4.41D-03 OVMax= 5.44D-02

 Cycle   5  Pass 1  IDiag  1:
 Density matrix breaks symmetry, PCut= 1.00D-07
 Density matrix has no symmetry -- integrals replicated.
 E= -24.9874701382918     Delta-E=       -0.001778455939 Rises=F Damp=F
 DIIS: error= 1.13D-03 at cycle   5 NSaved=   5.
 NSaved= 5 IEnMin= 5 EnMin= -24.9874701382918     IErMin= 5 ErrMin= 1.13D-03
 ErrMax= 1.13D-03  0.00D+00 EMaxC= 1.00D-01 BMatC= 1.40D-04 BMatP= 6.53D-04
 IDIUse=3 WtCom= 9.89D-01 WtEn= 1.13D-02
 Coeff-Com:  0.296D-02-0.119D+00 0.761D+00-0.198D+01 0.234D+01
 Coeff-En:   0.000D+00 0.000D+00 0.000D+00 0.000D+00 0.100D+01
 Coeff:      0.292D-02-0.117D+00 0.752D+00-0.196D+01 0.232D+01
 Gap=     0.396 Goal=   None    Shift=    0.000
 Gap=     0.396 Goal=   None    Shift=    0.000
 RMSDP=2.54D-04 MaxDP=9.08D-03 DE=-1.78D-03 OVMax= 4.02D-02

 Cycle   6  Pass 1  IDiag  1:
 Density matrix breaks symmetry, PCut= 1.00D-07
 Density matrix has no symmetry -- integrals replicated.
 E= -24.9879107567285     Delta-E=       -0.000440618437 Rises=F Damp=F
 DIIS: error= 1.17D-04 at cycle   6 NSaved=   6.
 NSaved= 6 IEnMin= 6 EnMin= -24.9879107567285     IErMin= 6 ErrMin= 1.17D-04
 ErrMax= 1.17D-04  0.00D+00 EMaxC= 1.00D-01 BMatC= 2.16D-06 BMatP= 1.40D-04
 IDIUse=3 WtCom= 9.99D-01 WtEn= 1.17D-03
 Coeff-Com: -0.387D-03 0.116D-01-0.940D-01 0.284D+00-0.477D+00 0.128D+01
 Coeff-En:   0.000D+00 0.000D+00 0.000D+00 0.000D+00 0.000D+00 0.100D+01
 Coeff:     -0.387D-03 0.116D-01-0.939D-01 0.283D+00-0.476D+00 0.128D+01
 Gap=     0.396 Goal=   None    Shift=    0.000
 Gap=     0.396 Goal=   None    Shift=    0.000
 RMSDP=3.32D-05 MaxDP=1.11D-03 DE=-4.41D-04 OVMax= 4.77D-03

 Cycle   7  Pass 1  IDiag  1:
 Density matrix breaks symmetry, PCut= 1.00D-07
 Density matrix has no symmetry -- integrals replicated.
 E= -24.9879165940209     Delta-E=       -0.000005837292 Rises=F Damp=F
 DIIS: error= 2.33D-05 at cycle   7 NSaved=   7.
 NSaved= 7 IEnMin= 7 EnMin= -24.9879165940209     IErMin= 7 ErrMin= 2.33D-05
 ErrMax= 2.33D-05  0.00D+00 EMaxC= 1.00D-01 BMatC= 6.66D-08 BMatP= 2.16D-06
 IDIUse=1 WtCom= 1.00D+00 WtEn= 0.00D+00
 Coeff-Com: -0.830D-04 0.449D-03 0.126D-01-0.544D-01 0.113D+00-0.439D+00
 Coeff-Com:  0.137D+01
 Coeff:     -0.830D-04 0.449D-03 0.126D-01-0.544D-01 0.113D+00-0.439D+00
 Coeff:      0.137D+01
 Gap=     0.396 Goal=   None    Shift=    0.000
 Gap=     0.396 Goal=   None    Shift=    0.000
 RMSDP=3.85D-06 MaxDP=1.40D-04 DE=-5.84D-06 OVMax= 3.57D-04

 Cycle   8  Pass 1  IDiag  1:
 Density matrix breaks symmetry, PCut= 1.00D-07
 Density matrix has no symmetry -- integrals replicated.
 E= -24.9879166693905     Delta-E=       -0.000000075370 Rises=F Damp=F
 DIIS: error= 1.23D-05 at cycle   8 NSaved=   8.
 NSaved= 8 IEnMin= 8 EnMin= -24.9879166693905     IErMin= 8 ErrMin= 1.23D-05
 ErrMax= 1.23D-05  0.00D+00 EMaxC= 1.00D-01 BMatC= 5.50D-09 BMatP= 6.66D-08
 IDIUse=1 WtCom= 1.00D+00 WtEn= 0.00D+00
 Coeff-Com:  0.563D-04-0.726D-03-0.165D-02 0.106D-01-0.256D-01 0.132D+00
 Coeff-Com: -0.566D+00 0.145D+01
 Coeff:      0.563D-04-0.726D-03-0.165D-02 0.106D-01-0.256D-01 0.132D+00
 Coeff:     -0.566D+00 0.145D+01
 Gap=     0.396 Goal=   None    Shift=    0.000
 Gap=     0.396 Goal=   None    Shift=    0.000
 RMSDP=5.24D-07 MaxDP=1.93D-05 DE=-7.54D-08 OVMax= 4.78D-05

 Cycle   9  Pass 1  IDiag  1:
 Density matrix breaks symmetry, PCut= 1.00D-07
 Density matrix has no symmetry -- integrals replicated.
 E= -24.9879166746666     Delta-E=       -0.000000005276 Rises=F Damp=F
 DIIS: error= 4.75D-06 at cycle   9 NSaved=   9.
 NSaved= 9 IEnMin= 9 EnMin= -24.9879166746666     IErMin= 9 ErrMin= 4.75D-06
 ErrMax= 4.75D-06  0.00D+00 EMaxC= 1.00D-01 BMatC= 9.20D-10 BMatP= 5.50D-09
 IDIUse=1 WtCom= 1.00D+00 WtEn= 0.00D+00
 Coeff-Com: -0.336D-04 0.438D-03-0.518D-03-0.153D-03 0.133D-02-0.241D-01
 Coeff-Com:  0.162D+00-0.924D+00 0.178D+01
 Coeff:     -0.336D-04 0.438D-03-0.518D-03-0.153D-03 0.133D-02-0.241D-01
 Coeff:      0.162D+00-0.924D+00 0.178D+01
 Gap=     0.396 Goal=   None    Shift=    0.000
 Gap=     0.396 Goal=   None    Shift=    0.000
 RMSDP=3.45D-07 MaxDP=1.59D-05 DE=-5.28D-09 OVMax= 3.99D-05

 Cycle  10  Pass 1  IDiag  1:
 Density matrix breaks symmetry, PCut= 1.00D-07
 Density matrix has no symmetry -- integrals replicated.
 E= -24.9879166758621     Delta-E=       -0.000000001195 Rises=F Damp=F
 DIIS: error= 7.75D-07 at cycle  10 NSaved=  10.
 NSaved=10 IEnMin=10 EnMin= -24.9879166758621     IErMin=10 ErrMin= 7.75D-07
 ErrMax= 7.75D-07  0.00D+00 EMaxC= 1.00D-01 BMatC= 4.17D-11 BMatP= 9.20D-10
 IDIUse=1 WtCom= 1.00D+00 WtEn= 0.00D+00
 Coeff-Com:  0.778D-05-0.904D-04 0.168D-03-0.360D-03 0.123D-02-0.244D-02
 Coeff-Com:  0.205D-02 0.133D+00-0.487D+00 0.135D+01
 Coeff:      0.778D-05-0.904D-04 0.168D-03-0.360D-03 0.123D-02-0.244D-02
 Coeff:      0.205D-02 0.133D+00-0.487D+00 0.135D+01
 Gap=     0.396 Goal=   None    Shift=    0.000
 Gap=     0.396 Goal=   None    Shift=    0.000
 RMSDP=7.53D-08 MaxDP=2.34D-06 DE=-1.20D-09 OVMax= 7.12D-06

 Cycle  11  Pass 1  IDiag  1:
 Density matrix breaks symmetry, PCut= 1.00D-07
 Density matrix has no symmetry -- integrals replicated.
 E= -24.9879166759076     Delta-E=       -0.000000000045 Rises=F Damp=F
 DIIS: error= 7.00D-08 at cycle  11 NSaved=  11.
 NSaved=11 IEnMin=11 EnMin= -24.9879166759076     IErMin=11 ErrMin= 7.00D-08
 ErrMax= 7.00D-08  0.00D+00 EMaxC= 1.00D-01 BMatC= 7.95D-13 BMatP= 4.17D-11
 IDIUse=1 WtCom= 1.00D+00 WtEn= 0.00D+00
 Coeff-Com: -0.134D-05 0.191D-04-0.679D-04 0.184D-03-0.431D-03 0.100D-02
 Coeff-Com: -0.321D-02-0.107D-01 0.678D-01-0.324D+00 0.127D+01
 Coeff:     -0.134D-05 0.191D-04-0.679D-04 0.184D-03-0.431D-03 0.100D-02
 Coeff:     -0.321D-02-0.107D-01 0.678D-01-0.324D+00 0.127D+01
 Gap=     0.396 Goal=   None    Shift=    0.000
 Gap=     0.396 Goal=   None    Shift=    0.000
 RMSDP=9.79D-09 MaxDP=3.25D-07 DE=-4.55D-11 OVMax= 1.07D-06

 Density matrix breaks symmetry, PCut= 1.00D-07
 Density matrix has no symmetry -- integrals replicated.
 SCF Done:  E(UHF) =  -24.9879166759     A.U. after   11 cycles
            NFock= 11  Conv=0.98D-08     -V/T= 1.9671
 <Sx>= 0.0000 <Sy>= 0.0000 <Sz>= 0.0000 <S**2>= 0.5592 S= 0.3995
 <L.S>=  0.00000000000    
 KE= 2.583794601588D+01 PE=-6.489833671153D+01 EE= 1.076511645149D+01
 Annihilation of the first spin contaminant:
 S**2 before annihilation     0.5592,   after     0.0035
 Leave Link  502 at Sun May 22 21:02:33 2022, MaxMem=   104857600 cpu:               3.8 elap:               3.8
 (Enter /apps/software/g16/l601.exe)
 Copying SCF densities to generalized density rwf, IOpCl= 1 IROHF=0.
 SCF density gives NOpUse=  1 NOpAll=  4.
 Marking SCF density as not fully symmetric.

 **********************************************************************

            Population analysis using the SCF density.

 **********************************************************************

 Orbital symmetries:
 Alpha Orbitals:
       Occupied  (SG) (SG) (?A)
       Virtual   (?A) (?A) (?A) (?A) (?A) (?A) (?A) (?A) (?A) (?A)
                 (?A) (?A) (?A) (?A) (?A) (?A) (?A) (?A) (?A) (?A)
                 (?A) (?A) (?A) (?A) (?A) (?A) (?A) (?A) (?A) (?A)
                 (?A) (?A) (?B) (?B) (?B) (?B) (?B) (?C) (?C) (?C)
                 (?C) (?D) (?D) (?D) (?D) (?D) (?D) (?D) (?D) (?D)
                 (?D) (?D) (?D) (?D) (?D) (?D) (?D) (?E) (?E) (?E)
                 (?E) (?E) (SG) (PI) (PI) (SG) (DLTA) (DLTA) (PHI)
                 (PHI) (?F) (?F) (?F) (SG) (PI) (PI) (PI) (PI)
                 (?G) (?G) (?G) (?H) (?H) (?H) (?H) (?H) (?H) (?H)
                 (?I) (?I) (?I) (?I) (?I) (?I) (?I) (PI) (PI) (SG)
                 (PI) (PI) (DLTA) (DLTA) (SG) (PI) (PI) (SG) (PHI)
                 (PHI) (SG) (PI) (PI) (DLTA) (DLTA) (SG) (DLTA)
                 (DLTA) (PI) (PI) (SG) (PI) (PI) (SG) (SG)
 Beta  Orbitals:
       Occupied  (SG) (SG) (?A)
       Virtual   (?A) (?A) (?A) (?A) (?A) (?A) (?A) (?A) (?A) (?A)
                 (?A) (?A) (?A) (?A) (?A) (?A) (?A) (?A) (?A) (?A)
                 (?A) (?A) (?A) (?A) (?A) (?A) (?A) (?A) (?A) (?A)
                 (?A) (?A) (?B) (?B) (?B) (?B) (?B) (?C) (?C) (?C)
                 (?C) (?D) (?D) (?D) (?D) (?D) (?D) (?D) (?D) (?D)
                 (?D) (?D) (?D) (?D) (?D) (?D) (?D) (?E) (?E) (?E)
                 (?E) (?E) (SG) (PI) (PI) (SG) (DLTA) (DLTA) (PHI)
                 (PHI) (?F) (?F) (?F) (SG) (PI) (PI) (PI) (PI)
                 (?G) (?G) (?G) (?H) (?H) (?H) (?H) (?H) (?H) (?H)
                 (?I) (?I) (?I) (?I) (?I) (?I) (?I) (PI) (PI) (SG)
                 (PI) (PI) (DLTA) (DLTA) (SG) (PI) (PI) (SG) (PHI)
                 (PHI) (SG) (PI) (PI) (DLTA) (DLTA) (SG) (DLTA)
                 (DLTA) (PI) (PI) (SG) (PI) (PI) (SG) (SG)
 Unable to determine electronic state:  an orbital has unidentified symmetry.
 Alpha  occ. eigenvalues --   -7.63329  -0.76288  -0.36890
 Alpha virt. eigenvalues --    0.02697   0.02788   0.03436   0.04259   0.08163
 Alpha virt. eigenvalues --    0.08970   0.12393   0.13046   0.13400   0.14336
 Alpha virt. eigenvalues --    0.14647   0.14656   0.17277   0.26766   0.26797
 Alpha virt. eigenvalues --    0.29602   0.33979   0.34015   0.41605   0.42651
 Alpha virt. eigenvalues --    0.42659   0.44148   0.46380   0.46414   0.46880
 Alpha virt. eigenvalues --    0.47336   0.49316   0.50571   0.50616   0.60495
 Alpha virt. eigenvalues --    0.60802   0.61426   0.78453   0.78593   0.79348
 Alpha virt. eigenvalues --    0.84011   0.84019   0.98982   1.03203   1.03750
 Alpha virt. eigenvalues --    1.09092   1.25085   1.25492   1.37255   1.37256
 Alpha virt. eigenvalues --    1.37430   1.37698   1.37698   1.40656   1.40662
 Alpha virt. eigenvalues --    1.42301   1.42330   1.44441   1.45021   1.45352
 Alpha virt. eigenvalues --    1.45402   1.46017   1.66790   1.66985   1.67581
 Alpha virt. eigenvalues --    1.77294   1.77303   1.92236   1.93627   1.94275
 Alpha virt. eigenvalues --    1.99155   2.04843   2.04848   2.07369   2.07370
 Alpha virt. eigenvalues --    2.19387   2.20017   2.20512   3.09865   3.26324
 Alpha virt. eigenvalues --    3.27027   3.36409   3.36988   3.42780   3.49012
 Alpha virt. eigenvalues --    3.49025   3.82900   3.93310   3.93318   3.93838
 Alpha virt. eigenvalues --    3.93841   3.95996   3.95997   4.04220   4.05328
 Alpha virt. eigenvalues --    4.07586   4.09564   4.09742   4.11401   4.11417
 Alpha virt. eigenvalues --    4.34785   4.35824   4.71535   4.85479   4.86408
 Alpha virt. eigenvalues --    5.00145   5.00160   5.69024   6.15876   6.16788
 Alpha virt. eigenvalues --    6.40539   7.13070   7.13070   7.96043   8.06665
 Alpha virt. eigenvalues --    8.07135   8.31935   8.31940   8.96462   9.20736
 Alpha virt. eigenvalues --    9.20738   9.34849   9.35367  10.60192  10.94190
 Alpha virt. eigenvalues --   10.94800  12.41274  19.59077
  Beta  occ. eigenvalues --   -7.63329  -0.76288  -0.36890
  Beta virt. eigenvalues --    0.02697   0.02788   0.03436   0.04259   0.08163
  Beta virt. eigenvalues --    0.08970   0.12393   0.13046   0.13400   0.14336
  Beta virt. eigenvalues --    0.14647   0.14656   0.17277   0.26766   0.26797
  Beta virt. eigenvalues --    0.29602   0.33979   0.34015   0.41605   0.42651
  Beta virt. eigenvalues --    0.42659   0.44148   0.46380   0.46414   0.46880
  Beta virt. eigenvalues --    0.47336   0.49316   0.50571   0.50616   0.60495
  Beta virt. eigenvalues --    0.60802   0.61426   0.78453   0.78593   0.79348
  Beta virt. eigenvalues --    0.84011   0.84019   0.98982   1.03203   1.03750
  Beta virt. eigenvalues --    1.09092   1.25085   1.25492   1.37255   1.37256
  Beta virt. eigenvalues --    1.37430   1.37698   1.37698   1.40656   1.40662
  Beta virt. eigenvalues --    1.42301   1.42330   1.44441   1.45021   1.45352
  Beta virt. eigenvalues --    1.45402   1.46017   1.66790   1.66985   1.67581
  Beta virt. eigenvalues --    1.77294   1.77303   1.92236   1.93627   1.94275
  Beta virt. eigenvalues --    1.99155   2.04843   2.04848   2.07369   2.07370
  Beta virt. eigenvalues --    2.19387   2.20017   2.20512   3.09865   3.26324
  Beta virt. eigenvalues --    3.27027   3.36409   3.36988   3.42780   3.49012
  Beta virt. eigenvalues --    3.49025   3.82900   3.93310   3.93318   3.93838
  Beta virt. eigenvalues --    3.93841   3.95996   3.95997   4.04220   4.05328
  Beta virt. eigenvalues --    4.07586   4.09564   4.09742   4.11401   4.11417
  Beta virt. eigenvalues --    4.34785   4.35824   4.71535   4.85479   4.86408
  Beta virt. eigenvalues --    5.00145   5.00160   5.69024   6.15876   6.16788
  Beta virt. eigenvalues --    6.40539   7.13070   7.13070   7.96043   8.06665
  Beta virt. eigenvalues --    8.07135   8.31935   8.31940   8.96462   9.20736
  Beta virt. eigenvalues --    9.20738   9.34849   9.35367  10.60192  10.94190
  Beta virt. eigenvalues --   10.94800  12.41274  19.59077
          Condensed to atoms (all electrons):
               1          2
     1  B    4.952426   0.104938
     2  H    0.104938   0.837698
          Atomic-Atomic Spin Densities.
               1          2
     1  B    0.000000   0.000000
     2  H    0.000000   0.000000
 Mulliken charges and spin densities:
               1          2
     1  B   -0.057364   0.000000
     2  H    0.057364   0.000000
 Sum of Mulliken charges =  -0.00000   0.00000
 Mulliken charges and spin densities with hydrogens summed into heavy atoms:
               1          2
     1  B   -0.000000   0.000000
 Electronic spatial extent (au):  <R**2>=             18.4090
 Charge=             -0.0000 electrons
 Dipole moment (field-independent basis, Debye):
    X=              0.0000    Y=             -0.0000    Z=             -1.8567  Tot=              1.8567
 Quadrupole moment (field-independent basis, Debye-Ang):
   XX=             -7.2326   YY=             -5.9685   ZZ=             -8.9979
   XY=              0.0000   XZ=              0.0000   YZ=             -0.0000
 Traceless Quadrupole moment (field-independent basis, Debye-Ang):
   XX=              0.1671   YY=              1.4311   ZZ=             -1.5983
   XY=              0.0000   XZ=              0.0000   YZ=             -0.0000
 Octapole moment (field-independent basis, Debye-Ang**2):
  XXX=              0.0000  YYY=              0.0000  ZZZ=             -5.5683  XYY=              0.0000
  XXY=             -0.0000  XXZ=             -2.1701  XZZ=              0.0000  YZZ=             -0.0000
  YYZ=             -1.7577  XYZ=              0.0000
 Hexadecapole moment (field-independent basis, Debye-Ang**3):
 XXXX=            -12.2717 YYYY=             -8.5289 ZZZZ=            -18.8023 XXXY=              0.0000
 XXXZ=              0.0000 YYYX=              0.0000 YYYZ=             -0.0000 ZZZX=              0.0000
 ZZZY=             -0.0000 XXYY=             -3.4665 XXZZ=             -5.3273 YYZZ=             -4.5898
 XXYZ=              0.0000 YYXZ=              0.0000 ZZXY=              0.0000
 N-N= 3.307357568250D+00 E-N=-6.489833698260D+01  KE= 2.583794601588D+01
 Symmetry A1   KE= 2.558030843702D+01
 Symmetry A2   KE= 1.557476321870D-29
 Symmetry B1   KE= 2.576375788601D-01
 Symmetry B2   KE= 1.051994411498D-29
 Symmetry A1   SP= 0.000000000000D+00
 Symmetry A2   SP= 0.000000000000D+00
 Symmetry B1   SP= 0.000000000000D+00
 Symmetry B2   SP= 0.000000000000D+00
                          Isotropic Fermi Contact Couplings
        Atom                 a.u.       MegaHertz       Gauss      10(-4) cm-1
     1  B(11)              0.00000       0.00000       0.00000       0.00000
     2  H(1)               0.00000       0.00000       0.00000       0.00000
 --------------------------------------------------------
       Center         ----  Spin Dipole Couplings  ----
                      3XX-RR        3YY-RR        3ZZ-RR
 --------------------------------------------------------
     1   Atom        0.000000      0.000000      0.000000
     2   Atom        0.000000      0.000000      0.000000
 --------------------------------------------------------
                        XY            XZ            YZ
 --------------------------------------------------------
     1   Atom        0.000000      0.547247      0.000000
     2   Atom        0.000000      0.001790      0.000000
 --------------------------------------------------------


 ---------------------------------------------------------------------------------
              Anisotropic Spin Dipole Couplings in Principal Axis System
 ---------------------------------------------------------------------------------

       Atom             a.u.   MegaHertz   Gauss  10(-4) cm-1        Axes

              Baa    -0.5472   -93.697   -33.433   -31.254  0.7071 -0.0000 -0.7071
     1 B(11)  Bbb     0.0000     0.000     0.000     0.000  0.0000  1.0000 -0.0000
              Bcc     0.5472    93.697    33.433    31.254  0.7071  0.0000  0.7071
 
              Baa    -0.0018    -0.955    -0.341    -0.319  0.7071 -0.0000 -0.7071
     2 H(1)   Bbb    -0.0000    -0.000    -0.000    -0.000 -0.0000  1.0000 -0.0000
              Bcc     0.0018     0.955     0.341     0.319  0.7071  0.0000  0.7071
 

 ---------------------------------------------------------------------------------

 No NMR shielding tensors so no spin-rotation constants.
 Leave Link  601 at Sun May 22 21:02:33 2022, MaxMem=   104857600 cpu:               0.2 elap:               0.2
 (Enter /apps/software/g16/l801.exe)
 Range of M.O.s used for correlation:     1   126
 NBasis=   126 NAE=     3 NBE=     3 NFC=     0 NFV=     0
 NROrb=    126 NOA=     3 NOB=     3 NVA=   123 NVB=   123

 **** Warning!!: The largest alpha MO coefficient is  0.53251227D+02


 **** Warning!!: The largest beta MO coefficient is  0.53251227D+02

 Leave Link  801 at Sun May 22 21:02:33 2022, MaxMem=   104857600 cpu:               0.0 elap:               0.0
 (Enter /apps/software/g16/l914.exe)
 UHF ground state
 Doing stability rather than CIS.
 Keep R1 and R2 ints in memory in symmetry-blocked form, NReq=40144005.
 FoFCou: FMM=F IPFlag=           0 FMFlag=           0 FMFlg1=           0
         NFxFlg=           0 DoJE=F BraDBF=F KetDBF=F FulRan=T
         wScrn=  0.000000 ICntrl=       600 IOpCl=  0 I1Cent=           0 NGrid=           0
         NMat0=    1 NMatS0=   8001 NMatT0=    0 NMatD0=    1 NMtDS0=    0 NMtDT0=    0
 Petite list used in FoFCou.
 MDV=   104857600 DFT=F DoStab=T Mixed=F DoRPA=F DoScal=F NonHer=F
 Making orbital integer symmetry assigments:
 Orbital symmetries:
 Alpha Orbitals:
       Occupied  (SG) (SG) (?A)
       Virtual   (?A) (?A) (?A) (?A) (?A) (?A) (?A) (?A) (?A) (?A)
                 (?A) (?A) (?A) (?A) (?A) (?A) (?A) (?A) (?A) (?A)
                 (?A) (?A) (?A) (?A) (?A) (?A) (?A) (?A) (?A) (?A)
                 (?A) (?A) (?B) (?B) (?B) (?B) (?B) (?C) (?C) (?C)
                 (?C) (?D) (?D) (?D) (?D) (?D) (?D) (?D) (?D) (?D)
                 (?D) (?D) (?D) (?D) (?D) (?D) (?D) (?E) (?E) (?E)
                 (?E) (?E) (SG) (PI) (PI) (SG) (DLTA) (DLTA) (PHI)
                 (PHI) (?F) (?F) (?F) (SG) (PI) (PI) (PI) (PI)
                 (?G) (?G) (?G) (?H) (?H) (?H) (?H) (?H) (?H) (?H)
                 (?I) (?I) (?I) (?I) (?I) (?I) (?I) (PI) (PI) (SG)
                 (PI) (PI) (DLTA) (DLTA) (SG) (PI) (PI) (SG) (PHI)
                 (PHI) (SG) (PI) (PI) (DLTA) (DLTA) (SG) (DLTA)
                 (DLTA) (PI) (PI) (SG) (PI) (PI) (SG) (SG)
 Beta  Orbitals:
       Occupied  (SG) (SG) (?A)
       Virtual   (?A) (?A) (?A) (?A) (?A) (?A) (?A) (?A) (?A) (?A)
                 (?A) (?A) (?A) (?A) (?A) (?A) (?A) (?A) (?A) (?A)
                 (?A) (?A) (?A) (?A) (?A) (?A) (?A) (?A) (?A) (?A)
                 (?A) (?A) (?B) (?B) (?B) (?B) (?B) (?C) (?C) (?C)
                 (?C) (?D) (?D) (?D) (?D) (?D) (?D) (?D) (?D) (?D)
                 (?D) (?D) (?D) (?D) (?D) (?D) (?D) (?E) (?E) (?E)
                 (?E) (?E) (SG) (PI) (PI) (SG) (DLTA) (DLTA) (PHI)
                 (PHI) (?F) (?F) (?F) (SG) (PI) (PI) (PI) (PI)
                 (?G) (?G) (?G) (?H) (?H) (?H) (?H) (?H) (?H) (?H)
                 (?I) (?I) (?I) (?I) (?I) (?I) (?I) (PI) (PI) (SG)
                 (PI) (PI) (DLTA) (DLTA) (SG) (PI) (PI) (SG) (PHI)
                 (PHI) (SG) (PI) (PI) (DLTA) (DLTA) (SG) (DLTA)
                 (DLTA) (PI) (PI) (SG) (PI) (PI) (SG) (SG)
    12 initial guesses have been made.
 Convergence on wavefunction:    0.001000000000000
 Davidson Disk Diagonalization:  ConvIn= 1.00D-03 SkipCon=T Conv= 1.00D-03.
 Max sub-space:  1476 roots to seek:    12 dimension of matrix:          738
 Iteration     1 Dimension    12 NMult     0 NNew     12
 CISAX will form    12 AO SS matrices at one time.
 NMat=    12 NSing=    12 JSym2X= 2.
 New state      1 was old state      2
 Excitation Energies [eV] at current iteration:
 Root      1 :     0.684000430938131
 Root      2 :     3.164240702942502
 Root      3 :     3.486225399891772
 Root      4 :     4.512668189843777
 Root      5 :     6.221240885440800
 Root      6 :     7.222818855811823
 Root      7 :     7.459785274964664
 Root      8 :     7.846937335244649
 Root      9 :     8.081290785456822
 Root     10 :     8.187853499482010
 Root     11 :     8.225906198025383
 Root     12 :     8.728362742080272
 Iteration     2 Dimension    24 NMult    12 NNew     12
 CISAX will form    12 AO SS matrices at one time.
 NMat=    12 NSing=    12 JSym2X= 2.
 Root      1 not converged, maximum delta is    0.058680720160321
 Excitation Energies [eV] at current iteration:
 Root      1 :     0.017984340670249   Change is   -0.666016090267882
 Root      2 :     2.561458052326127   Change is   -0.602782650616376
 Root      3 :     2.739852485831033   Change is   -0.746372914060739
 Root      4 :     3.722529042014537   Change is   -0.790139147829240
 Root      5 :     5.927881399504058   Change is   -0.293359485936742
 Root      6 :     7.003335061153639   Change is   -0.219483794658184
 Root      7 :     7.258846862308706   Change is   -0.200938412655958
 Root      8 :     7.763308714405205   Change is   -0.083628620839445
 Root      9 :     7.882092730456696   Change is   -0.199198055000127
 Root     10 :     7.970537416931195   Change is   -0.255368781094188
 Root     11 :     8.015316266436253   Change is   -0.172537233045758
 Root     12 :     8.035544823106106   Change is   -0.692817918974166
 Iteration     3 Dimension    27 NMult    24 NNew      3
 CISAX will form     3 AO SS matrices at one time.
 NMat=     3 NSing=     3 JSym2X= 2.
 Root      1 not converged, maximum delta is    0.009418323613989
 Excitation Energies [eV] at current iteration:
 Root      1 :     0.001937814980556   Change is   -0.016046525689693
 Root      2 :     2.536661256181979   Change is   -0.024796796144147
 Root      3 :     2.696775512625963   Change is   -0.043076973205070
 Iteration     4 Dimension    30 NMult    27 NNew      3
 CISAX will form     3 AO SS matrices at one time.
 NMat=     3 NSing=     3 JSym2X= 2.
 Root      1 not converged, maximum delta is    0.004192920393414
 Excitation Energies [eV] at current iteration:
 Root      1 :     0.000196265441310   Change is   -0.001741549539246
 Root      2 :     2.535921632473256   Change is   -0.000739623708723
 Root      3 :     2.694993041867916   Change is   -0.001782470758047
 Iteration     5 Dimension    33 NMult    30 NNew      3
 CISAX will form     3 AO SS matrices at one time.
 NMat=     3 NSing=     3 JSym2X= 2.
 Root      1 not converged, maximum delta is    0.001435587188131
 Excitation Energies [eV] at current iteration:
 Root      1 :     0.000006139064888   Change is   -0.000190126376422
 Root      2 :     2.535903109803385   Change is   -0.000018522669871
 Root      3 :     2.694918621196592   Change is   -0.000074420671324
 Iteration     6 Dimension    36 NMult    33 NNew      3
 CISAX will form     3 AO SS matrices at one time.
 NMat=     3 NSing=     3 JSym2X= 2.
 Root      1 has converged.
 Excitation Energies [eV] at current iteration:
 Root      1 :     0.000001728762122   Change is   -0.000004410302766
 Root      2 :     2.535901053267825   Change is   -0.000002056535560
 Root      3 :     2.694914806039899   Change is   -0.000003815156694
 Convergence achieved on expansion vectors.
 ***********************************************************************
 Stability analysis using <AA,BB:AA,BB> singles matrix:
 ***********************************************************************
 1PDM for each excited state written to RWF  633
 Ground to excited state transition densities written to RWF  633

 Eigenvectors of the stability matrix:
 
 Excited state symmetry could not be determined.
 Eigenvector   1:  2.762-?Sym  Eigenvalue= 0.0000001  <S**2>=1.658
      3A ->  4A       -0.41725
      3A ->  8A       -0.48465
      3A -> 11A       -0.13711
      3A -> 17A       -0.14554
      3A -> 21A        0.18574
      3B ->  4B        0.41725
      3B ->  8B        0.48465
      3B -> 11B        0.13711
      3B -> 17B        0.14554
      3B -> 21B       -0.18574
 The wavefunction is stable under the perturbations considered.
 Leave Link  914 at Sun May 22 21:02:38 2022, MaxMem=   104857600 cpu:               4.2 elap:               4.2
 (Enter /apps/software/g16/l508.exe)
 The wavefunction is already stable.
 Leave Link  508 at Sun May 22 21:02:38 2022, MaxMem=   104857600 cpu:               0.0 elap:               0.0
 (Enter /apps/software/g16/l601.exe)
 Copying SCF densities to generalized density rwf, IOpCl= 1 IROHF=0.
 SCF density gives NOpUse=  1 NOpAll=  4.
 Marking SCF density as not fully symmetric.

 **********************************************************************

            Population analysis using the SCF density.

 **********************************************************************

 Orbital symmetries:
 Alpha Orbitals:
       Occupied  (SG) (SG) (?A)
       Virtual   (?A) (?A) (?A) (?A) (?A) (?A) (?A) (?A) (?A) (?A)
                 (?A) (?A) (?A) (?A) (?A) (?A) (?A) (?A) (?A) (?A)
                 (?A) (?A) (?A) (?A) (?A) (?A) (?A) (?A) (?A) (?A)
                 (?A) (?A) (?B) (?B) (?B) (?B) (?B) (?C) (?C) (?C)
                 (?C) (?D) (?D) (?D) (?D) (?D) (?D) (?D) (?D) (?D)
                 (?D) (?D) (?D) (?D) (?D) (?D) (?D) (?E) (?E) (?E)
                 (?E) (?E) (SG) (PI) (PI) (SG) (DLTA) (DLTA) (PHI)
                 (PHI) (?F) (?F) (?F) (SG) (PI) (PI) (PI) (PI)
                 (?G) (?G) (?G) (?H) (?H) (?H) (?H) (?H) (?H) (?H)
                 (?I) (?I) (?I) (?I) (?I) (?I) (?I) (PI) (PI) (SG)
                 (PI) (PI) (DLTA) (DLTA) (SG) (PI) (PI) (SG) (PHI)
                 (PHI) (SG) (PI) (PI) (DLTA) (DLTA) (SG) (DLTA)
                 (DLTA) (PI) (PI) (SG) (PI) (PI) (SG) (SG)
 Beta  Orbitals:
       Occupied  (SG) (SG) (?A)
       Virtual   (?A) (?A) (?A) (?A) (?A) (?A) (?A) (?A) (?A) (?A)
                 (?A) (?A) (?A) (?A) (?A) (?A) (?A) (?A) (?A) (?A)
                 (?A) (?A) (?A) (?A) (?A) (?A) (?A) (?A) (?A) (?A)
                 (?A) (?A) (?B) (?B) (?B) (?B) (?B) (?C) (?C) (?C)
                 (?C) (?D) (?D) (?D) (?D) (?D) (?D) (?D) (?D) (?D)
                 (?D) (?D) (?D) (?D) (?D) (?D) (?D) (?E) (?E) (?E)
                 (?E) (?E) (SG) (PI) (PI) (SG) (DLTA) (DLTA) (PHI)
                 (PHI) (?F) (?F) (?F) (SG) (PI) (PI) (PI) (PI)
                 (?G) (?G) (?G) (?H) (?H) (?H) (?H) (?H) (?H) (?H)
                 (?I) (?I) (?I) (?I) (?I) (?I) (?I) (PI) (PI) (SG)
                 (PI) (PI) (DLTA) (DLTA) (SG) (PI) (PI) (SG) (PHI)
                 (PHI) (SG) (PI) (PI) (DLTA) (DLTA) (SG) (DLTA)
                 (DLTA) (PI) (PI) (SG) (PI) (PI) (SG) (SG)
 Unable to determine electronic state:  an orbital has unidentified symmetry.
 Alpha  occ. eigenvalues --   -7.63329  -0.76288  -0.36890
 Alpha virt. eigenvalues --    0.02697   0.02788   0.03436   0.04259   0.08163
 Alpha virt. eigenvalues --    0.08970   0.12393   0.13046   0.13400   0.14336
 Alpha virt. eigenvalues --    0.14647   0.14656   0.17277   0.26766   0.26797
 Alpha virt. eigenvalues --    0.29602   0.33979   0.34015   0.41605   0.42651
 Alpha virt. eigenvalues --    0.42659   0.44148   0.46380   0.46414   0.46880
 Alpha virt. eigenvalues --    0.47336   0.49316   0.50571   0.50616   0.60495
 Alpha virt. eigenvalues --    0.60802   0.61426   0.78453   0.78593   0.79348
 Alpha virt. eigenvalues --    0.84011   0.84019   0.98982   1.03203   1.03750
 Alpha virt. eigenvalues --    1.09092   1.25085   1.25492   1.37255   1.37256
 Alpha virt. eigenvalues --    1.37430   1.37698   1.37698   1.40656   1.40662
 Alpha virt. eigenvalues --    1.42301   1.42330   1.44441   1.45021   1.45352
 Alpha virt. eigenvalues --    1.45402   1.46017   1.66790   1.66985   1.67581
 Alpha virt. eigenvalues --    1.77294   1.77303   1.92236   1.93627   1.94275
 Alpha virt. eigenvalues --    1.99155   2.04843   2.04848   2.07369   2.07370
 Alpha virt. eigenvalues --    2.19387   2.20017   2.20512   3.09865   3.26324
 Alpha virt. eigenvalues --    3.27027   3.36409   3.36988   3.42780   3.49012
 Alpha virt. eigenvalues --    3.49025   3.82900   3.93310   3.93318   3.93838
 Alpha virt. eigenvalues --    3.93841   3.95996   3.95997   4.04220   4.05328
 Alpha virt. eigenvalues --    4.07586   4.09564   4.09742   4.11401   4.11417
 Alpha virt. eigenvalues --    4.34785   4.35824   4.71535   4.85479   4.86408
 Alpha virt. eigenvalues --    5.00145   5.00160   5.69024   6.15876   6.16788
 Alpha virt. eigenvalues --    6.40539   7.13070   7.13070   7.96043   8.06665
 Alpha virt. eigenvalues --    8.07135   8.31935   8.31940   8.96462   9.20736
 Alpha virt. eigenvalues --    9.20738   9.34849   9.35367  10.60192  10.94190
 Alpha virt. eigenvalues --   10.94800  12.41274  19.59077
  Beta  occ. eigenvalues --   -7.63329  -0.76288  -0.36890
  Beta virt. eigenvalues --    0.02697   0.02788   0.03436   0.04259   0.08163
  Beta virt. eigenvalues --    0.08970   0.12393   0.13046   0.13400   0.14336
  Beta virt. eigenvalues --    0.14647   0.14656   0.17277   0.26766   0.26797
  Beta virt. eigenvalues --    0.29602   0.33979   0.34015   0.41605   0.42651
  Beta virt. eigenvalues --    0.42659   0.44148   0.46380   0.46414   0.46880
  Beta virt. eigenvalues --    0.47336   0.49316   0.50571   0.50616   0.60495
  Beta virt. eigenvalues --    0.60802   0.61426   0.78453   0.78593   0.79348
  Beta virt. eigenvalues --    0.84011   0.84019   0.98982   1.03203   1.03750
  Beta virt. eigenvalues --    1.09092   1.25085   1.25492   1.37255   1.37256
  Beta virt. eigenvalues --    1.37430   1.37698   1.37698   1.40656   1.40662
  Beta virt. eigenvalues --    1.42301   1.42330   1.44441   1.45021   1.45352
  Beta virt. eigenvalues --    1.45402   1.46017   1.66790   1.66985   1.67581
  Beta virt. eigenvalues --    1.77294   1.77303   1.92236   1.93627   1.94275
  Beta virt. eigenvalues --    1.99155   2.04843   2.04848   2.07369   2.07370
  Beta virt. eigenvalues --    2.19387   2.20017   2.20512   3.09865   3.26324
  Beta virt. eigenvalues --    3.27027   3.36409   3.36988   3.42780   3.49012
  Beta virt. eigenvalues --    3.49025   3.82900   3.93310   3.93318   3.93838
  Beta virt. eigenvalues --    3.93841   3.95996   3.95997   4.04220   4.05328
  Beta virt. eigenvalues --    4.07586   4.09564   4.09742   4.11401   4.11417
  Beta virt. eigenvalues --    4.34785   4.35824   4.71535   4.85479   4.86408
  Beta virt. eigenvalues --    5.00145   5.00160   5.69024   6.15876   6.16788
  Beta virt. eigenvalues --    6.40539   7.13070   7.13070   7.96043   8.06665
  Beta virt. eigenvalues --    8.07135   8.31935   8.31940   8.96462   9.20736
  Beta virt. eigenvalues --    9.20738   9.34849   9.35367  10.60192  10.94190
  Beta virt. eigenvalues --   10.94800  12.41274  19.59077
          Condensed to atoms (all electrons):
               1          2
     1  B    4.952426   0.104938
     2  H    0.104938   0.837698
          Atomic-Atomic Spin Densities.
               1          2
     1  B    0.000000   0.000000
     2  H    0.000000   0.000000
 Mulliken charges and spin densities:
               1          2
     1  B   -0.057364   0.000000
     2  H    0.057364   0.000000
 Sum of Mulliken charges =  -0.00000   0.00000
 Mulliken charges and spin densities with hydrogens summed into heavy atoms:
               1          2
     1  B   -0.000000   0.000000
 Electronic spatial extent (au):  <R**2>=             18.4090
 Charge=             -0.0000 electrons
 Dipole moment (field-independent basis, Debye):
    X=              0.0000    Y=             -0.0000    Z=             -1.8567  Tot=              1.8567
 Quadrupole moment (field-independent basis, Debye-Ang):
   XX=             -7.2326   YY=             -5.9685   ZZ=             -8.9979
   XY=              0.0000   XZ=              0.0000   YZ=             -0.0000
 Traceless Quadrupole moment (field-independent basis, Debye-Ang):
   XX=              0.1671   YY=              1.4311   ZZ=             -1.5983
   XY=              0.0000   XZ=              0.0000   YZ=             -0.0000
 Octapole moment (field-independent basis, Debye-Ang**2):
  XXX=              0.0000  YYY=              0.0000  ZZZ=             -5.5683  XYY=              0.0000
  XXY=             -0.0000  XXZ=             -2.1701  XZZ=              0.0000  YZZ=             -0.0000
  YYZ=             -1.7577  XYZ=              0.0000
 Hexadecapole moment (field-independent basis, Debye-Ang**3):
 XXXX=            -12.2717 YYYY=             -8.5289 ZZZZ=            -18.8023 XXXY=              0.0000
 XXXZ=              0.0000 YYYX=              0.0000 YYYZ=             -0.0000 ZZZX=              0.0000
 ZZZY=             -0.0000 XXYY=             -3.4665 XXZZ=             -5.3273 YYZZ=             -4.5898
 XXYZ=              0.0000 YYXZ=              0.0000 ZZXY=              0.0000
 N-N= 3.307357568250D+00 E-N=-6.489833698260D+01  KE= 2.583794601588D+01
 Symmetry A1   KE= 2.558030843702D+01
 Symmetry A2   KE= 1.557476321870D-29
 Symmetry B1   KE= 2.576375788601D-01
 Symmetry B2   KE= 1.051994411498D-29
 Symmetry A1   SP= 0.000000000000D+00
 Symmetry A2   SP= 0.000000000000D+00
 Symmetry B1   SP= 0.000000000000D+00
 Symmetry B2   SP= 0.000000000000D+00
                          Isotropic Fermi Contact Couplings
        Atom                 a.u.       MegaHertz       Gauss      10(-4) cm-1
     1  B(11)              0.00000       0.00000       0.00000       0.00000
     2  H(1)               0.00000       0.00000       0.00000       0.00000
 --------------------------------------------------------
       Center         ----  Spin Dipole Couplings  ----
                      3XX-RR        3YY-RR        3ZZ-RR
 --------------------------------------------------------
     1   Atom        0.000000      0.000000      0.000000
     2   Atom        0.000000      0.000000      0.000000
 --------------------------------------------------------
                        XY            XZ            YZ
 --------------------------------------------------------
     1   Atom        0.000000      0.547247      0.000000
     2   Atom        0.000000      0.001790      0.000000
 --------------------------------------------------------


 ---------------------------------------------------------------------------------
              Anisotropic Spin Dipole Couplings in Principal Axis System
 ---------------------------------------------------------------------------------

       Atom             a.u.   MegaHertz   Gauss  10(-4) cm-1        Axes

              Baa    -0.5472   -93.697   -33.433   -31.254  0.7071 -0.0000 -0.7071
     1 B(11)  Bbb     0.0000     0.000     0.000     0.000  0.0000  1.0000 -0.0000
              Bcc     0.5472    93.697    33.433    31.254  0.7071  0.0000  0.7071
 
              Baa    -0.0018    -0.955    -0.341    -0.319  0.7071 -0.0000 -0.7071
     2 H(1)   Bbb    -0.0000    -0.000    -0.000    -0.000 -0.0000  1.0000 -0.0000
              Bcc     0.0018     0.955     0.341     0.319  0.7071  0.0000  0.7071
 

 ---------------------------------------------------------------------------------

 No NMR shielding tensors so no spin-rotation constants.
 Leave Link  601 at Sun May 22 21:02:38 2022, MaxMem=   104857600 cpu:               0.3 elap:               0.2
 (Enter /apps/software/g16/l9999.exe)
 1\1\GINC-CNODE01\Stability\UHF\Aug-CC-pVQZ\B1H1\LCZ\22-May-2022\0\\#p 
 UHF/aug-cc-pVQZ guess=mix stable=opt\\BH UHF at 0.8 Angstrom\\0,1\B,0,
 0.,0.,0.\H,0,0.8,0.,0.\\Version=ES64L-G16RevA.03\HF=-24.9879167\S2=0.5
 59154\S2-1=0.\S2A=0.003528\RMSD=9.787e-09\Dipole=0.7304829,0.,0.\Quadr
 upole=-1.1882742,1.0640216,0.1242526,0.,0.,0.\PG=C*V [C*(H1B1)]\\@


 IF YOU GET CONFUSED, LOGIC OUT YOUR DILEMMA

           --  PICKER X-RAY CORP.    DIGITAL PRINTER MANUAL CA. 1964
 Job cpu time:       0 days  0 hours  0 minutes  9.2 seconds.
 Elapsed time:       0 days  0 hours  0 minutes  9.2 seconds.
 File lengths (MBytes):  RWF=     29 Int=      0 D2E=      0 Chk=      4 Scr=      1
 Normal termination of Gaussian 16 at Sun May 22 21:02:38 2022.

Sender: Unischeduler System <lcz@mgt01>
Subject: Job 134339: <#!/bin/bash
#BSUB -J intel
#BSUB -o BH-0.8-UHF-G.out
#BSUB -n 8
#BSUB -q cqueue
#BSUB -R span[hosts=1]
export g16root=/apps/software
source /apps/software/g16/bsd/g16.profile
export GAUSS_SCRDIR=/scratch
/apps/software/g16/g16 < BH-0.8-UHF-G.inp > BH-0.8-UHF-G.out> Done

Job <#!/bin/bash
#BSUB -J intel
#BSUB -o BH-0.8-UHF-G.out
#BSUB -n 8
#BSUB -q cqueue
#BSUB -R span[hosts=1]
export g16root=/apps/software
source /apps/software/g16/bsd/g16.profile
export GAUSS_SCRDIR=/scratch
/apps/software/g16/g16 < BH-0.8-UHF-G.inp > BH-0.8-UHF-G.out> was submitted from host <mgt01> by user <lcz>.
Job was executed on host(s) <8*cnode01>, in queue <cqueue>, as user <lcz>.
</apps/users/lcz> was used as the home directory.
</apps/users/lcz/exe13/UCCSD_T> was used as the working directory.
Started at 2022-05-22 21:02:28
Results reported at 2022-05-22 21:02:38

Your job looked like:

------------------------------------------------------------
# User input
#!/bin/bash
#BSUB -J intel
#BSUB -o BH-0.8-UHF-G.out
#BSUB -n 8
#BSUB -q cqueue
#BSUB -R span[hosts=1]
export g16root=/apps/software
source /apps/software/g16/bsd/g16.profile
export GAUSS_SCRDIR=/scratch
/apps/software/g16/g16 < BH-0.8-UHF-G.inp > BH-0.8-UHF-G.out
------------------------------------------------------------

Successfully completed.

Resource usage summary:

    CPU time   :            0.06 sec.
    Max Memory :                14 MB
    Max Processes  :               2


The output (if any) follows:

