 Entering Gaussian System, Link 0=/apps/software/g16/g16
 Initial command:
 /apps/software/g16/l1.exe "/scratch/Gau-401871.inp" -scrdir="/scratch/"
 Entering Link 1 = /apps/software/g16/l1.exe PID=    401872.
  
 Copyright (c) 1988,1990,1992,1993,1995,1998,2003,2009,2016,
            Gaussian, Inc.  All Rights Reserved.
  
 This is part of the Gaussian(R) 16 program.  It is based on
 the Gaussian(R) 09 system (copyright 2009, Gaussian, Inc.),
 the Gaussian(R) 03 system (copyright 2003, Gaussian, Inc.),
 the Gaussian(R) 98 system (copyright 1998, Gaussian, Inc.),
 the Gaussian(R) 94 system (copyright 1995, Gaussian, Inc.),
 the Gaussian 92(TM) system (copyright 1992, Gaussian, Inc.),
 the Gaussian 90(TM) system (copyright 1990, Gaussian, Inc.),
 the Gaussian 88(TM) system (copyright 1988, Gaussian, Inc.),
 the Gaussian 86(TM) system (copyright 1986, Carnegie Mellon
 University), and the Gaussian 82(TM) system (copyright 1983,
 Carnegie Mellon University). Gaussian is a federally registered
 trademark of Gaussian, Inc.
  
 This software contains proprietary and confidential information,
 including trade secrets, belonging to Gaussian, Inc.
  
 This software is provided under written license and may be
 used, copied, transmitted, or stored only in accord with that
 written license.
  
 The following legend is applicable only to US Government
 contracts under FAR:
  
                    RESTRICTED RIGHTS LEGEND
  
 Use, reproduction and disclosure by the US Government is
 subject to restrictions as set forth in subparagraphs (a)
 and (c) of the Commercial Computer Software - Restricted
 Rights clause in FAR 52.227-19.
  
 Gaussian, Inc.
 340 Quinnipiac St., Bldg. 40, Wallingford CT 06492
  
  
 ---------------------------------------------------------------
 Warning -- This program may not be used in any manner that
 competes with the business of Gaussian, Inc. or will provide
 assistance to any competitor of Gaussian, Inc.  The licensee
 of this program is prohibited from giving any competitor of
 Gaussian, Inc. access to this program.  By using this program,
 the user acknowledges that Gaussian, Inc. is engaged in the
 business of creating and licensing software in the field of
 computational chemistry and represents and warrants to the
 licensee that it is not a competitor of Gaussian, Inc. and that
 it will not use this program in any manner prohibited above.
 ---------------------------------------------------------------
  

 Cite this work as:
 Gaussian 16, Revision A.03,
 M. J. Frisch, G. W. Trucks, H. B. Schlegel, G. E. Scuseria, 
 M. A. Robb, J. R. Cheeseman, G. Scalmani, V. Barone, 
 G. A. Petersson, H. Nakatsuji, X. Li, M. Caricato, A. V. Marenich, 
 J. Bloino, B. G. Janesko, R. Gomperts, B. Mennucci, H. P. Hratchian, 
 J. V. Ortiz, A. F. Izmaylov, J. L. Sonnenberg, D. Williams-Young, 
 F. Ding, F. Lipparini, F. Egidi, J. Goings, B. Peng, A. Petrone, 
 T. Henderson, D. Ranasinghe, V. G. Zakrzewski, J. Gao, N. Rega, 
 G. Zheng, W. Liang, M. Hada, M. Ehara, K. Toyota, R. Fukuda, 
 J. Hasegawa, M. Ishida, T. Nakajima, Y. Honda, O. Kitao, H. Nakai, 
 T. Vreven, K. Throssell, J. A. Montgomery, Jr., J. E. Peralta, 
 F. Ogliaro, M. J. Bearpark, J. J. Heyd, E. N. Brothers, K. N. Kudin, 
 V. N. Staroverov, T. A. Keith, R. Kobayashi, J. Normand, 
 K. Raghavachari, A. P. Rendell, J. C. Burant, S. S. Iyengar, 
 J. Tomasi, M. Cossi, J. M. Millam, M. Klene, C. Adamo, R. Cammi, 
 J. W. Ochterski, R. L. Martin, K. Morokuma, O. Farkas, 
 J. B. Foresman, and D. J. Fox, Gaussian, Inc., Wallingford CT, 2016.
 
 ******************************************
 Gaussian 16:  ES64L-G16RevA.03 25-Dec-2016
                22-May-2022 
 ******************************************
 %oldchk=BH-0.8-UHF-G.chk
 %chk=BH-0.8-UCCSD_T-G.chk
 Copying data from "BH-0.8-UHF-G.chk" to current chk file "BH-0.8-UCCSD_T-G.chk"
 IOpt=  2 FromEx=T IUOpen= 4 IOptOp= 5 NList=   0 IFRang= 0 IUIn= 4 IUOut= 2.
 ----------------------------------------
 #p UHF/aug-cc-pVQZ guess=read CCSD(T,FC)
 ----------------------------------------
 1/38=1,172=1/1;
 2/12=2,17=6,18=5,40=1/2;
 3/5=16,6=2,7=10,11=2,25=1,30=1,116=2/1,2,3;
 4/5=1/1;
 5/5=2,38=6/2;
 8/6=4,9=120000,10=1/1,4;
 9/5=7,14=2/13;
 6/7=2,8=2,9=2,10=2/1;
 99/5=1,9=1/99;
 Leave Link    1 at Sun May 22 21:06:23 2022, MaxMem=   104857600 cpu:               0.0 elap:               0.0
 (Enter /apps/software/g16/l101.exe)
 ------------------------
 BH UCCSD at 0.8 Angstrom
 ------------------------
 Symbolic Z-matrix:
 Charge =  0 Multiplicity = 1
 B                     0.        0.        0. 
 H                     0.8       0.        0. 
 
 ITRead=  0  0
 MicOpt= -1 -1
 NAtoms=      2 NQM=        2 NQMF=       0 NMMI=      0 NMMIF=      0
                NMic=       0 NMicF=      0.
                    Isotopes and Nuclear Properties:
 (Nuclear quadrupole moments (NQMom) in fm**2, nuclear magnetic moments (NMagM)
  in nuclear magnetons)

  Atom         1           2
 IAtWgt=          11           1
 AtmWgt=  11.0093053   1.0078250
 NucSpn=           3           1
 AtZEff=  -0.0000000  -0.0000000
 NQMom=    4.0590000   0.0000000
 NMagM=    2.6886370   2.7928460
 AtZNuc=   5.0000000   1.0000000
 Leave Link  101 at Sun May 22 21:06:23 2022, MaxMem=   104857600 cpu:               0.1 elap:               0.1
 (Enter /apps/software/g16/l202.exe)
                          Input orientation:                          
 ---------------------------------------------------------------------
 Center     Atomic      Atomic             Coordinates (Angstroms)
 Number     Number       Type             X           Y           Z
 ---------------------------------------------------------------------
      1          5           0        0.000000    0.000000    0.000000
      2          1           0        0.800000    0.000000    0.000000
 ---------------------------------------------------------------------
 Stoichiometry    BH
 Framework group  C*V[C*(HB)]
 Deg. of freedom     1
 Full point group                 C*V     NOp   4
 Largest Abelian subgroup         C2V     NOp   4
 Largest concise Abelian subgroup C1      NOp   1
                         Standard orientation:                         
 ---------------------------------------------------------------------
 Center     Atomic      Atomic             Coordinates (Angstroms)
 Number     Number       Type             X           Y           Z
 ---------------------------------------------------------------------
      1          5           0        0.000000    0.000000    0.133333
      2          1           0        0.000000    0.000000   -0.666667
 ---------------------------------------------------------------------
 Rotational constants (GHZ):           0.0000000         855.2497161         855.2497161
 Leave Link  202 at Sun May 22 21:06:23 2022, MaxMem=   104857600 cpu:               0.0 elap:               0.0
 (Enter /apps/software/g16/l301.exe)
 Standard basis: Aug-CC-pVQZ (5D, 7F)
 Ernie: Thresh=  0.10000D-02 Tol=  0.10000D-05 Strict=F.
 Ernie:  4 primitive shells out of 54 were deleted.
 There are    68 symmetry adapted cartesian basis functions of A1  symmetry.
 There are    18 symmetry adapted cartesian basis functions of A2  symmetry.
 There are    37 symmetry adapted cartesian basis functions of B1  symmetry.
 There are    37 symmetry adapted cartesian basis functions of B2  symmetry.
 There are    50 symmetry adapted basis functions of A1  symmetry.
 There are    16 symmetry adapted basis functions of A2  symmetry.
 There are    30 symmetry adapted basis functions of B1  symmetry.
 There are    30 symmetry adapted basis functions of B2  symmetry.
   126 basis functions,   180 primitive gaussians,   160 cartesian basis functions
     3 alpha electrons        3 beta electrons
       nuclear repulsion energy         3.3073575683 Hartrees.
 IExCor=    0 DFT=F Ex=HF Corr=None ExCW=0 ScaHFX=  1.000000
 ScaDFX=  1.000000  1.000000  1.000000  1.000000 ScalE2=  1.000000  1.000000
 IRadAn=      5 IRanWt=     -1 IRanGd=            0 ICorTp=0 IEmpDi=  4
 NAtoms=    2 NActive=    2 NUniq=    2 SFac= 1.00D+00 NAtFMM=   60 NAOKFM=F Big=F
 Integral buffers will be    131072 words long.
 Raffenetti 2 integral format.
 Two-electron integral symmetry is turned on.
 Leave Link  301 at Sun May 22 21:06:23 2022, MaxMem=   104857600 cpu:               0.1 elap:               0.1
 (Enter /apps/software/g16/l302.exe)
 NPDir=0 NMtPBC=     1 NCelOv=     1 NCel=       1 NClECP=     1 NCelD=      1
         NCelK=      1 NCelE2=     1 NClLst=     1 CellRange=     0.0.
 One-electron integrals computed using PRISM.
 One-electron integral symmetry used in STVInt
 NBasis=   126 RedAO= T EigKep=  3.13D-05  NBF=    50    16    30    30
 NBsUse=   126 1.00D-06 EigRej= -1.00D+00 NBFU=    50    16    30    30
 Leave Link  302 at Sun May 22 21:06:23 2022, MaxMem=   104857600 cpu:               0.1 elap:               0.1
 (Enter /apps/software/g16/l303.exe)
 DipDrv:  MaxL=1.
 Leave Link  303 at Sun May 22 21:06:23 2022, MaxMem=   104857600 cpu:               0.0 elap:               0.0
 (Enter /apps/software/g16/l401.exe)
 Initial guess from the checkpoint file:  "BH-0.8-UCCSD_T-G.chk"
 B after Tr=     0.000000    0.000000    0.000000
         Rot=    1.000000    0.000000    0.000000    0.000000 Ang=   0.00 deg.
 Guess basis will be translated and rotated to current coordinates.
 JPrj=2 DoOrth=T DoCkMO=T.
 Initial guess orbital symmetries:
 Alpha Orbitals:
       Occupied  (SG) (SG) (?A)
       Virtual   (?A) (?A) (?A) (?A) (?A) (?A) (?A) (?A) (?A) (?A)
                 (?A) (?A) (?A) (?A) (?A) (?A) (?A) (?A) (?A) (?A)
                 (?A) (?A) (?A) (?A) (?A) (?A) (?A) (?A) (?A) (?A)
                 (?A) (?A) (?B) (?B) (?B) (?B) (?B) (?C) (?C) (?C)
                 (?C) (?D) (?D) (?D) (?D) (?D) (?D) (?D) (?D) (?D)
                 (?D) (?D) (?D) (?D) (?D) (?D) (?D) (?E) (?E) (?E)
                 (?E) (?E) (SG) (PI) (PI) (SG) (DLTA) (DLTA) (PHI)
                 (PHI) (?F) (?F) (?F) (SG) (PI) (PI) (PI) (PI)
                 (?G) (?G) (?G) (?H) (?H) (?H) (?H) (?H) (?H) (?H)
                 (?I) (?I) (?I) (?I) (?I) (?I) (?I) (PI) (PI) (SG)
                 (PI) (PI) (DLTA) (DLTA) (SG) (PI) (PI) (SG) (PHI)
                 (PHI) (SG) (PI) (PI) (DLTA) (DLTA) (SG) (DLTA)
                 (DLTA) (PI) (PI) (SG) (PI) (PI) (SG) (SG)
 Beta  Orbitals:
       Occupied  (SG) (SG) (?A)
       Virtual   (?A) (?A) (?A) (?A) (?A) (?A) (?A) (?A) (?A) (?A)
                 (?A) (?A) (?A) (?A) (?A) (?A) (?A) (?A) (?A) (?A)
                 (?A) (?A) (?A) (?A) (?A) (?A) (?A) (?A) (?A) (?A)
                 (?A) (?A) (?B) (?B) (?B) (?B) (?B) (?C) (?C) (?C)
                 (?C) (?D) (?D) (?D) (?D) (?D) (?D) (?D) (?D) (?D)
                 (?D) (?D) (?D) (?D) (?D) (?D) (?D) (?E) (?E) (?E)
                 (?E) (?E) (SG) (PI) (PI) (SG) (DLTA) (DLTA) (PHI)
                 (PHI) (?F) (?F) (?F) (SG) (PI) (PI) (PI) (PI)
                 (?G) (?G) (?G) (?H) (?H) (?H) (?H) (?H) (?H) (?H)
                 (?I) (?I) (?I) (?I) (?I) (?I) (?I) (PI) (PI) (SG)
                 (PI) (PI) (DLTA) (DLTA) (SG) (PI) (PI) (SG) (PHI)
                 (PHI) (SG) (PI) (PI) (DLTA) (DLTA) (SG) (DLTA)
                 (DLTA) (PI) (PI) (SG) (PI) (PI) (SG) (SG)
 Initial guess <Sx>= 0.0000 <Sy>= 0.0000 <Sz>= 0.0000 <S**2>= 0.5592 S= 0.3995
 Leave Link  401 at Sun May 22 21:06:23 2022, MaxMem=   104857600 cpu:               0.1 elap:               0.1
 (Enter /apps/software/g16/l502.exe)
 Keep R1 and R2 ints in memory in symmetry-blocked form, NReq=40143665.
 FoFCou: FMM=F IPFlag=           0 FMFlag=           0 FMFlg1=           0
         NFxFlg=           0 DoJE=F BraDBF=F KetDBF=F FulRan=T
         wScrn=  0.000000 ICntrl=       600 IOpCl=  0 I1Cent=           0 NGrid=           0
         NMat0=    1 NMatS0=   8001 NMatT0=    0 NMatD0=    1 NMtDS0=    0 NMtDT0=    0
 Petite list used in FoFCou.
 UHF open shell SCF:
 Using DIIS extrapolation, IDIIS=  1040.
 NGot=   104857600 LenX=    88563632 LenY=    88537591
 Requested convergence on RMS density matrix=1.00D-08 within 128 cycles.
 Requested convergence on MAX density matrix=1.00D-06.
 Requested convergence on             energy=1.00D-06.
 No special actions if energy rises.
 An orbital has undefined symmetry, so N**3 symmetry is turned off.

 Cycle   1  Pass 1  IDiag  1:
 Density matrix breaks symmetry, PCut= 1.00D-07
 Density matrix has no symmetry -- integrals replicated.
 E= -24.9879166759086    
 DIIS: error= 1.65D-08 at cycle   1 NSaved=   1.
 NSaved= 1 IEnMin= 1 EnMin= -24.9879166759086     IErMin= 1 ErrMin= 1.65D-08
 ErrMax= 1.65D-08  0.00D+00 EMaxC= 1.00D-01 BMatC= 4.46D-14 BMatP= 4.46D-14
 IDIUse=1 WtCom= 1.00D+00 WtEn= 0.00D+00
 Coeff-Com:  0.100D+01
 Coeff:      0.100D+01
 Gap=     0.396 Goal=   None    Shift=    0.000
 Gap=     0.396 Goal=   None    Shift=    0.000
 RMSDP=2.88D-09 MaxDP=1.60D-07              OVMax= 1.48D-07

 Density matrix breaks symmetry, PCut= 1.00D-07
 Density matrix has no symmetry -- integrals replicated.
 SCF Done:  E(UHF) =  -24.9879166759     A.U. after    1 cycles
            NFock=  1  Conv=0.29D-08     -V/T= 1.9671
 <Sx>= 0.0000 <Sy>= 0.0000 <Sz>= 0.0000 <S**2>= 0.5592 S= 0.3995
 <L.S>=  0.00000000000    
 KE= 2.583794608444D+01 PE=-6.489833705116D+01 EE= 1.076511672256D+01
 Annihilation of the first spin contaminant:
 S**2 before annihilation     0.5592,   after     0.0035
 Leave Link  502 at Sun May 22 21:06:27 2022, MaxMem=   104857600 cpu:               3.6 elap:               3.6
 (Enter /apps/software/g16/l801.exe)
 Windowed orbitals will be sorted by symmetry type.
 ExpMin= 1.88D-02 ExpMax= 2.39D+04 ExpMxC= 2.30D+02 IAcc=3 IRadAn=         5 AccDes= 0.00D+00
 HarFok:  IExCor=  205 AccDes= 0.00D+00 IRadAn=         5 IDoV=-2 UseB2=F ITyADJ=14
 ICtDFT= 12500011 ScaDFX=  1.000000  1.000000  1.000000  1.000000
 DSYEVD-2 returned Info=        3401 IAlg= 4 N=    80 NDim=    80 NE2=     1309686 trying  DSYEV.
 Largest valence mixing into a core orbital is  2.68D-04
 Largest core mixing into a valence orbital is  4.05D-05
 Largest valence mixing into a core orbital is  2.68D-04
 Largest core mixing into a valence orbital is  4.05D-05
 Range of M.O.s used for correlation:     2   126
 NBasis=   126 NAE=     3 NBE=     3 NFC=     1 NFV=     0
 NROrb=    125 NOA=     2 NOB=     2 NVA=   123 NVB=   123

 **** Warning!!: The largest alpha MO coefficient is  0.53251227D+02


 **** Warning!!: The largest beta MO coefficient is  0.53251227D+02

 Leave Link  801 at Sun May 22 21:06:27 2022, MaxMem=   104857600 cpu:               0.1 elap:               0.1
 (Enter /apps/software/g16/l804.exe)
 Open-shell transformation, MDV=   104857600 ITran=4 ISComp=1.
 Unit  1 TFree=        991730 TCopy=        422292.
 Semi-Direct transformation.
 ModeAB=           2 MOrb=             2 LenV=     104170674
 LASXX=      1914004 LTotXX=     1914004 LenRXX=     1914004
 LTotAB=     1960875 MaxLAS=     3220000 LenRXY=     3220000
 NonZer=     3828008 LenScr=     6455808 LnRSAI=           0
 LnScr1=           0 LExtra=           0 Total=     11589812
 MaxDsk=          -1 SrtSym=           F ITran=            4
 DoSDTr:  NPSUse=  1
 JobTyp=1 Pass  1:  I=   1 to   2.
 (rs|ai) integrals will be sorted in core.
 Complete sort for first half transformation.
 First half transformation complete.
 Complete sort for second half transformation.
 Second half transformation complete.
 ModeAB=           2 MOrb=             2 LenV=     104170674
 LASXX=      1914004 LTotXX=     1914004 LenRXX=     3220000
 LTotAB=     1898874 MaxLAS=     3220000 LenRXY=     1898874
 NonZer=     3828008 LenScr=     6455808 LnRSAI=           0
 LnScr1=           0 LExtra=           0 Total=     11574682
 MaxDsk=          -1 SrtSym=           F ITran=            4
 DoSDTr:  NPSUse=  1
 JobTyp=2 Pass  1:  I=   1 to   2.
 (rs|ai) integrals will be sorted in core.
 Complete sort for first half transformation.
 First half transformation complete.
 Complete sort for second half transformation.
 Second half transformation complete.
 SymMOI:  orbitals are not symmetric.
 Spin components of T(2) and E(2):
     alpha-alpha T2 =       0.9373464543D-03 E2=     -0.2570208829D-02
     alpha-beta  T2 =       0.2073182399D-01 E2=     -0.5921184161D-01
     beta-beta   T2 =       0.9373464543D-03 E2=     -0.2570208829D-02
 ANorm=    0.1011240089D+01
 E2 =    -0.6435225927D-01 EUMP2 =    -0.25052268935180D+02
 (S**2,0)=  0.55915D+00           (S**2,1)=  0.54350D+00
 E(PUHF)=      -0.24995743835D+02        E(PMP2)=      -0.25059986848D+02
 Leave Link  804 at Sun May 22 21:06:37 2022, MaxMem=   104857600 cpu:              10.1 elap:              10.1
 (Enter /apps/software/g16/l913.exe)
 CIDS:  MDV=   104857600.
 Frozen-core window:  NFC=   1 NFV=   0.
 IFCWin=0 IBDFC=1 NFBD=     0     0 NFCmp=     0     0 NFFFC=     0     0
 Using original routines for 1st iteration.
 Using DD4UQ or CC4UQ for 2nd and later iterations.
 Keep R2 and R3 ints in memory in symmetry-blocked form, NReq=40147367.
 FoFCou: FMM=F IPFlag=           0 FMFlag=           0 FMFlg1=           0
         NFxFlg=           0 DoJE=F BraDBF=F KetDBF=F FulRan=T
         wScrn=  0.000000 ICntrl=       600 IOpCl=  0 I1Cent=           0 NGrid=           0
         NMat0=    1 NMatS0=   8001 NMatT0=    0 NMatD0=    1 NMtDS0=    0 NMtDT0=    0
 Petite list used in FoFCou.
 CIDS: In Core Option IDoMem=           1.
 CCSD(T)
 =======
 Iterations=  50 Convergence= 0.100D-06
 Produce multiple copies of IABC intergrals
 Iteration Nr.   1
 **********************
 DD1Dir will call FoFMem   1 times, MxPair=        10
 NAB=     4 NAA=     1 NBB=     1.
 E(PMP3)=      -0.25070947483D+02
 MP4(R+Q)=  0.97671490D-03
 Maximum subspace dimension=  5
 A-vector RMS=  2.9220173D-03 Max=  1.1509085D-02 conv= 1.00D-05.
 RLE energy=       -0.0766272166
 E3=       -0.11276035D-01        EUMP3=      -0.25063544970D+02
 E4(DQ)=   -0.29248523D-02        UMP4(DQ)=   -0.25066469823D+02
 E4(SDQ)=  -0.34917138D-02        UMP4(SDQ)=  -0.25067036684D+02
 VARIATIONAL ENERGIES WITH THE FIRST-ORDER WAVEFUNCTION:
 DE(Corr)= -0.74660886E-01 E(Corr)=     -25.062577562    
 NORM(A)=   0.10194457D+01
 Iteration Nr.   2
 **********************
 DD1Dir will call FoFMem   1 times, MxPair=        10
 NAB=     4 NAA=     1 NBB=     1.
 A-vector RMS=  2.3600933D-03 Max=  1.1605009D-02 conv= 1.00D-05.
 RLE energy=       -0.0820987867
 DE(Corr)= -0.79197289E-01 E(CORR)=     -25.067113964     Delta=-4.54D-03
 NORM(A)=   0.10284934D+01
 Iteration Nr.   3
 **********************
 DD1Dir will call FoFMem   1 times, MxPair=        10
 NAB=     4 NAA=     1 NBB=     1.
 A-vector RMS=  2.0694946D-03 Max=  1.0887536D-02 conv= 1.00D-05.
 RLE energy=       -0.0852580861
 DE(Corr)= -0.82143570E-01 E(CORR)=     -25.070060246     Delta=-2.95D-03
 NORM(A)=   0.10488985D+01
 Iteration Nr.   4
 **********************
 DD1Dir will call FoFMem   1 times, MxPair=        10
 NAB=     4 NAA=     1 NBB=     1.
 A-vector RMS=  1.5183358D-03 Max=  7.8535933D-03 conv= 1.00D-05.
 RLE energy=       -0.0881293328
 DE(Corr)= -0.85284445E-01 E(CORR)=     -25.073201121     Delta=-3.14D-03
 NORM(A)=   0.10879819D+01
 Iteration Nr.   5
 **********************
 DD1Dir will call FoFMem   1 times, MxPair=        10
 NAB=     4 NAA=     1 NBB=     1.
 A-vector RMS=  9.3829336D-04 Max=  4.6656793D-03 conv= 1.00D-05.
 RLE energy=       -0.0898669276
 DE(Corr)= -0.88033261E-01 E(CORR)=     -25.075949937     Delta=-2.75D-03
 NORM(A)=   0.11310801D+01
 Iteration Nr.   6
 **********************
 DD1Dir will call FoFMem   1 times, MxPair=        10
 NAB=     4 NAA=     1 NBB=     1.
 A-vector RMS=  3.9916435D-04 Max=  2.4790995D-03 conv= 1.00D-05.
 RLE energy=       -0.0907798580
 DE(Corr)= -0.89917946E-01 E(CORR)=     -25.077834622     Delta=-1.88D-03
 NORM(A)=   0.11511971D+01
 Iteration Nr.   7
 **********************
 DD1Dir will call FoFMem   1 times, MxPair=        10
 NAB=     4 NAA=     1 NBB=     1.
 A-vector RMS=  1.8673872D-04 Max=  1.4671614D-03 conv= 1.00D-05.
 RLE energy=       -0.0908251061
 DE(Corr)= -0.90706170E-01 E(CORR)=     -25.078622846     Delta=-7.88D-04
 NORM(A)=   0.11545572D+01
 Iteration Nr.   8
 **********************
 DD1Dir will call FoFMem   1 times, MxPair=        10
 NAB=     4 NAA=     1 NBB=     1.
 A-vector RMS=  8.0790105D-05 Max=  5.2413931D-04 conv= 1.00D-05.
 RLE energy=       -0.0908988470
 DE(Corr)= -0.90809742E-01 E(CORR)=     -25.078726418     Delta=-1.04D-04
 NORM(A)=   0.11566359D+01
 Iteration Nr.   9
 **********************
 DD1Dir will call FoFMem   1 times, MxPair=        10
 NAB=     4 NAA=     1 NBB=     1.
 A-vector RMS=  3.5347056D-05 Max=  2.4883743D-04 conv= 1.00D-05.
 RLE energy=       -0.0909025316
 DE(Corr)= -0.90888089E-01 E(CORR)=     -25.078804765     Delta=-7.83D-05
 NORM(A)=   0.11572964D+01
 Iteration Nr.  10
 **********************
 DD1Dir will call FoFMem   1 times, MxPair=        10
 NAB=     4 NAA=     1 NBB=     1.
 A-vector RMS=  1.1697772D-05 Max=  9.6090780D-05 conv= 1.00D-05.
 RLE energy=       -0.0908898656
 DE(Corr)= -0.90900104E-01 E(CORR)=     -25.078816780     Delta=-1.20D-05
 NORM(A)=   0.11572787D+01
 Iteration Nr.  11
 **********************
 DD1Dir will call FoFMem   1 times, MxPair=        10
 NAB=     4 NAA=     1 NBB=     1.
 A-vector RMS=  4.0862406D-06 Max=  4.6094451D-05 conv= 1.00D-05.
 RLE energy=       -0.0908825128
 DE(Corr)= -0.90891553E-01 E(CORR)=     -25.078808229     Delta= 8.55D-06
 NORM(A)=   0.11571809D+01
 Iteration Nr.  12
 **********************
 DD1Dir will call FoFMem   1 times, MxPair=        10
 NAB=     4 NAA=     1 NBB=     1.
 A-vector RMS=  2.3750176D-06 Max=  1.5512188D-05 conv= 1.00D-05.
 RLE energy=       -0.0908776728
 DE(Corr)= -0.90883657E-01 E(CORR)=     -25.078800333     Delta= 7.90D-06
 NORM(A)=   0.11570907D+01
 Iteration Nr.  13
 **********************
 DD1Dir will call FoFMem   1 times, MxPair=        10
 NAB=     4 NAA=     1 NBB=     1.
 A-vector RMS=  2.2915745D-06 Max=  1.0470722D-05 conv= 1.00D-05.
 RLE energy=       -0.0908754183
 DE(Corr)= -0.90879007E-01 E(CORR)=     -25.078795683     Delta= 4.65D-06
 NORM(A)=   0.11570162D+01
 Iteration Nr.  14
 **********************
 DD1Dir will call FoFMem   1 times, MxPair=        10
 NAB=     4 NAA=     1 NBB=     1.
 A-vector RMS=  1.7077232D-06 Max=  8.4891289D-06 conv= 1.00D-05.
 RLE energy=       -0.0908731418
 DE(Corr)= -0.90876088E-01 E(CORR)=     -25.078792764     Delta= 2.92D-06
 NORM(A)=   0.11569445D+01
 Iteration Nr.  15
 **********************
 DD1Dir will call FoFMem   1 times, MxPair=        10
 NAB=     4 NAA=     1 NBB=     1.
 A-vector RMS=  1.2099282D-06 Max=  6.1249714D-06 conv= 1.00D-05.
 RLE energy=       -0.0908719494
 DE(Corr)= -0.90873468E-01 E(CORR)=     -25.078790144     Delta= 2.62D-06
 NORM(A)=   0.11569008D+01
 Iteration Nr.  16
 **********************
 DD1Dir will call FoFMem   1 times, MxPair=        10
 NAB=     4 NAA=     1 NBB=     1.
 A-vector RMS=  6.2446069D-07 Max=  2.9171798D-06 conv= 1.00D-05.
 RLE energy=       -0.0908714839
 DE(Corr)= -0.90872022E-01 E(CORR)=     -25.078788698     Delta= 1.45D-06
 NORM(A)=   0.11568849D+01
 Iteration Nr.  17
 **********************
 DD1Dir will call FoFMem   1 times, MxPair=        10
 NAB=     4 NAA=     1 NBB=     1.
 A-vector RMS=  2.7492322D-07 Max=  1.0917354D-06 conv= 1.00D-05.
 RLE energy=       -0.0908713176
 DE(Corr)= -0.90871486E-01 E(CORR)=     -25.078788162     Delta= 5.36D-07
 NORM(A)=   0.11568806D+01
 Iteration Nr.  18
 **********************
 DD1Dir will call FoFMem   1 times, MxPair=        10
 NAB=     4 NAA=     1 NBB=     1.
 A-vector RMS=  1.1288194D-07 Max=  4.0204721D-07 conv= 1.00D-05.
 RLE energy=       -0.0908712700
 DE(Corr)= -0.90871316E-01 E(CORR)=     -25.078787992     Delta= 1.70D-07
 NORM(A)=   0.11568800D+01
 Iteration Nr.  19
 **********************
 DD1Dir will call FoFMem   1 times, MxPair=        10
 NAB=     4 NAA=     1 NBB=     1.
 A-vector RMS=  5.0271202D-08 Max=  2.3634208D-07 conv= 1.00D-05.
 RLE energy=       -0.0908712475
 DE(Corr)= -0.90871269E-01 E(CORR)=     -25.078787945     Delta= 4.67D-08
 NORM(A)=   0.11568799D+01
 CI/CC converged in   19 iterations to DelEn= 4.67D-08 Conv= 1.00D-07 ErrA1= 5.03D-08 Conv= 1.00D-05
 Wavefunction amplitudes converged. E(Corr)=     -25.078787945    
 Dominant configurations:
 ***********************
 Spin Case        I    J    A    B          Value
    AA            3         6           -0.138827D+00
    AA            3         9            0.230172D+00
    BB            3         6           -0.138827D+00
    BB            3         9            0.230172D+00
 Largest amplitude= 2.30D-01
 Time for triples=        3.02 seconds.
 T4(CCSD)= -0.25672928D-02
 T5(CCSD)=  0.42173636D-03
 CCSD(T)= -0.25080933501D+02

 S**2, projected HF & approx projected MPn energies after annihilation of
 unwanted spin states (see manual for definitions):

 spins       (S**2,0) (S**2,1)    PUHF        PMP2        PMP3        PMP4
 annihilated
 s+1        -0.00177 -0.00020  -24.995744  -25.059987  -25.070947
 s+1,s+2     0.00000  0.00000  -24.995429  -25.059679  -25.070653

 Discarding MO integrals.
 Leave Link  913 at Sun May 22 21:06:49 2022, MaxMem=   104857600 cpu:              12.0 elap:              12.1
 (Enter /apps/software/g16/l601.exe)
 Copying SCF densities to generalized density rwf, IOpCl= 1 IROHF=0.
 SCF density gives NOpUse=  1 NOpAll=  4.
 Marking SCF density as not fully symmetric.

 **********************************************************************

            Population analysis using the SCF density.

 **********************************************************************

 Orbital symmetries:
 Alpha Orbitals:
       Occupied  (SG) (SG) (?A)
       Virtual   (?A) (?A) (?A) (?A) (?A) (?A) (?A) (?A) (?A) (?A)
                 (?A) (?A) (?A) (?A) (?A) (?A) (?A) (?A) (?A) (?A)
                 (?A) (?A) (?A) (?A) (?A) (?A) (?A) (?A) (?A) (?A)
                 (?A) (?A) (?B) (?B) (?B) (?B) (?B) (?C) (?C) (?C)
                 (?C) (?D) (?D) (?D) (?D) (?D) (?D) (?D) (?D) (?D)
                 (?D) (?D) (?D) (?D) (?D) (?D) (?D) (?E) (?E) (?E)
                 (?E) (?E) (SG) (PI) (PI) (SG) (DLTA) (DLTA) (PHI)
                 (PHI) (?F) (?F) (?F) (SG) (PI) (PI) (PI) (PI)
                 (?G) (?G) (?G) (?H) (?H) (?H) (?H) (?H) (?H) (?H)
                 (?I) (?I) (?I) (?I) (?I) (?I) (?I) (PI) (PI) (SG)
                 (PI) (PI) (DLTA) (DLTA) (SG) (PI) (PI) (SG) (PHI)
                 (PHI) (SG) (PI) (PI) (DLTA) (DLTA) (SG) (DLTA)
                 (DLTA) (PI) (PI) (SG) (PI) (PI) (SG) (SG)
 Beta  Orbitals:
       Occupied  (SG) (SG) (?A)
       Virtual   (?A) (?A) (?A) (?A) (?A) (?A) (?A) (?A) (?A) (?A)
                 (?A) (?A) (?A) (?A) (?A) (?A) (?A) (?A) (?A) (?A)
                 (?A) (?A) (?A) (?A) (?A) (?A) (?A) (?A) (?A) (?A)
                 (?A) (?A) (?B) (?B) (?B) (?B) (?B) (?C) (?C) (?C)
                 (?C) (?D) (?D) (?D) (?D) (?D) (?D) (?D) (?D) (?D)
                 (?D) (?D) (?D) (?D) (?D) (?D) (?D) (?E) (?E) (?E)
                 (?E) (?E) (SG) (PI) (PI) (SG) (DLTA) (DLTA) (PHI)
                 (PHI) (?F) (?F) (?F) (SG) (PI) (PI) (PI) (PI)
                 (?G) (?G) (?G) (?H) (?H) (?H) (?H) (?H) (?H) (?H)
                 (?I) (?I) (?I) (?I) (?I) (?I) (?I) (PI) (PI) (SG)
                 (PI) (PI) (DLTA) (DLTA) (SG) (PI) (PI) (SG) (PHI)
                 (PHI) (SG) (PI) (PI) (DLTA) (DLTA) (SG) (DLTA)
                 (DLTA) (PI) (PI) (SG) (PI) (PI) (SG) (SG)
 Unable to determine electronic state:  an orbital has unidentified symmetry.
 Alpha  occ. eigenvalues --   -7.63329  -0.76288  -0.36890
 Alpha virt. eigenvalues --    0.02697   0.02788   0.03436   0.04259   0.08163
 Alpha virt. eigenvalues --    0.08970   0.12393   0.13046   0.13400   0.14336
 Alpha virt. eigenvalues --    0.14647   0.14656   0.17277   0.26766   0.26797
 Alpha virt. eigenvalues --    0.29602   0.33979   0.34015   0.41605   0.42651
 Alpha virt. eigenvalues --    0.42659   0.44148   0.46380   0.46414   0.46880
 Alpha virt. eigenvalues --    0.47336   0.49316   0.50571   0.50616   0.60495
 Alpha virt. eigenvalues --    0.60802   0.61426   0.78453   0.78593   0.79348
 Alpha virt. eigenvalues --    0.84011   0.84019   0.98982   1.03203   1.03750
 Alpha virt. eigenvalues --    1.09092   1.25085   1.25492   1.37255   1.37256
 Alpha virt. eigenvalues --    1.37430   1.37698   1.37698   1.40656   1.40662
 Alpha virt. eigenvalues --    1.42301   1.42330   1.44441   1.45021   1.45352
 Alpha virt. eigenvalues --    1.45402   1.46017   1.66790   1.66985   1.67581
 Alpha virt. eigenvalues --    1.77294   1.77303   1.92236   1.93627   1.94275
 Alpha virt. eigenvalues --    1.99155   2.04843   2.04848   2.07369   2.07370
 Alpha virt. eigenvalues --    2.19387   2.20017   2.20512   3.09865   3.26324
 Alpha virt. eigenvalues --    3.27027   3.36409   3.36988   3.42780   3.49012
 Alpha virt. eigenvalues --    3.49025   3.82900   3.93310   3.93318   3.93838
 Alpha virt. eigenvalues --    3.93841   3.95996   3.95997   4.04220   4.05328
 Alpha virt. eigenvalues --    4.07586   4.09564   4.09742   4.11401   4.11417
 Alpha virt. eigenvalues --    4.34785   4.35824   4.71535   4.85479   4.86408
 Alpha virt. eigenvalues --    5.00145   5.00160   5.69024   6.15876   6.16788
 Alpha virt. eigenvalues --    6.40539   7.13070   7.13070   7.96043   8.06665
 Alpha virt. eigenvalues --    8.07135   8.31935   8.31940   8.96462   9.20736
 Alpha virt. eigenvalues --    9.20738   9.34849   9.35367  10.60191  10.94190
 Alpha virt. eigenvalues --   10.94800  12.41274  19.59077
  Beta  occ. eigenvalues --   -7.63329  -0.76288  -0.36890
  Beta virt. eigenvalues --    0.02697   0.02788   0.03436   0.04259   0.08163
  Beta virt. eigenvalues --    0.08970   0.12393   0.13046   0.13400   0.14336
  Beta virt. eigenvalues --    0.14647   0.14656   0.17277   0.26766   0.26797
  Beta virt. eigenvalues --    0.29602   0.33979   0.34015   0.41605   0.42651
  Beta virt. eigenvalues --    0.42659   0.44148   0.46380   0.46414   0.46880
  Beta virt. eigenvalues --    0.47336   0.49316   0.50571   0.50616   0.60495
  Beta virt. eigenvalues --    0.60802   0.61426   0.78453   0.78593   0.79348
  Beta virt. eigenvalues --    0.84011   0.84019   0.98982   1.03203   1.03750
  Beta virt. eigenvalues --    1.09092   1.25085   1.25492   1.37255   1.37256
  Beta virt. eigenvalues --    1.37430   1.37698   1.37698   1.40656   1.40662
  Beta virt. eigenvalues --    1.42301   1.42330   1.44441   1.45021   1.45352
  Beta virt. eigenvalues --    1.45402   1.46017   1.66790   1.66985   1.67581
  Beta virt. eigenvalues --    1.77294   1.77303   1.92236   1.93627   1.94275
  Beta virt. eigenvalues --    1.99155   2.04843   2.04848   2.07369   2.07370
  Beta virt. eigenvalues --    2.19387   2.20017   2.20512   3.09865   3.26324
  Beta virt. eigenvalues --    3.27027   3.36409   3.36988   3.42780   3.49012
  Beta virt. eigenvalues --    3.49025   3.82900   3.93310   3.93318   3.93838
  Beta virt. eigenvalues --    3.93841   3.95996   3.95997   4.04220   4.05328
  Beta virt. eigenvalues --    4.07586   4.09564   4.09742   4.11401   4.11417
  Beta virt. eigenvalues --    4.34785   4.35824   4.71535   4.85479   4.86408
  Beta virt. eigenvalues --    5.00145   5.00160   5.69024   6.15876   6.16788
  Beta virt. eigenvalues --    6.40539   7.13070   7.13070   7.96043   8.06665
  Beta virt. eigenvalues --    8.07135   8.31935   8.31940   8.96462   9.20736
  Beta virt. eigenvalues --    9.20738   9.34849   9.35367  10.60191  10.94190
  Beta virt. eigenvalues --   10.94800  12.41274  19.59077
          Condensed to atoms (all electrons):
               1          2
     1  B    4.952426   0.104938
     2  H    0.104938   0.837698
          Atomic-Atomic Spin Densities.
               1          2
     1  B    0.000000   0.000000
     2  H    0.000000   0.000000
 Mulliken charges and spin densities:
               1          2
     1  B   -0.057364   0.000000
     2  H    0.057364   0.000000
 Sum of Mulliken charges =  -0.00000   0.00000
 Mulliken charges and spin densities with hydrogens summed into heavy atoms:
               1          2
     1  B   -0.000000   0.000000
 Electronic spatial extent (au):  <R**2>=             18.4090
 Charge=             -0.0000 electrons
 Dipole moment (field-independent basis, Debye):
    X=              0.0000    Y=             -0.0000    Z=             -1.8567  Tot=              1.8567
 Quadrupole moment (field-independent basis, Debye-Ang):
   XX=             -7.2326   YY=             -5.9685   ZZ=             -8.9979
   XY=              0.0000   XZ=              0.0000   YZ=             -0.0000
 Traceless Quadrupole moment (field-independent basis, Debye-Ang):
   XX=              0.1671   YY=              1.4311   ZZ=             -1.5983
   XY=              0.0000   XZ=              0.0000   YZ=             -0.0000
 Octapole moment (field-independent basis, Debye-Ang**2):
  XXX=              0.0000  YYY=             -0.0000  ZZZ=             -5.5683  XYY=              0.0000
  XXY=             -0.0000  XXZ=             -2.1701  XZZ=              0.0000  YZZ=             -0.0000
  YYZ=             -1.7577  XYZ=              0.0000
 Hexadecapole moment (field-independent basis, Debye-Ang**3):
 XXXX=            -12.2717 YYYY=             -8.5289 ZZZZ=            -18.8023 XXXY=              0.0000
 XXXZ=              0.0000 YYYX=              0.0000 YYYZ=             -0.0000 ZZZX=              0.0000
 ZZZY=             -0.0000 XXYY=             -3.4665 XXZZ=             -5.3273 YYZZ=             -4.5898
 XXYZ=             -0.0000 YYXZ=              0.0000 ZZXY=              0.0000
 N-N= 3.307357568250D+00 E-N=-6.489833711142D+01  KE= 2.583794608444D+01
 Leave Link  601 at Sun May 22 21:06:49 2022, MaxMem=   104857600 cpu:               0.0 elap:               0.1
 (Enter /apps/software/g16/l9999.exe)
 1\1\GINC-CNODE04\SP\UCCSD(T)-FC\Aug-CC-pVQZ\B1H1\LCZ\22-May-2022\0\\#p
  UHF/aug-cc-pVQZ guess=read CCSD(T,FC)\\BH UCCSD at 0.8 Angstrom\\0,1\
 B,0,0.,0.,0.\H,0,0.8,0.,0.\\Version=ES64L-G16RevA.03\HF=-24.9879167\MP
 2=-25.0522689\MP3=-25.063545\MP4D=-25.0674465\MP4DQ=-25.0664698\PUHF=-
 24.9957438\PMP2-0=-25.0599868\PMP3-0=-25.0709475\MP4SDQ=-25.0670367\CC
 SD=-25.0787879\CCSD(T)=-25.0809335\S2=0.559154\S2-1=0.543496\S2A=0.003
 528\RMSD=2.884e-09\PG=C*V [C*(H1B1)]\\@


 WHEN A MATHEMATICIAN ENGAGED IN INVESTIGATING
 PHYSICAL ACTIONS AND RESULTS HAS ARRIVED AT HIS
 CONCLUSIONS, MAY THEY NOT BE EXPRESSED IN COMMON
 LANGUAGE AS FULLY, CLEARLY, AND DEFINITELY AS IN
 MATHEMATICAL FORMULAE?
           - LETTER FROM M. FARADAY TO J.C. MAXWELL, 1857.
 Job cpu time:       0 days  0 hours  0 minutes 26.5 seconds.
 Elapsed time:       0 days  0 hours  0 minutes 26.5 seconds.
 File lengths (MBytes):  RWF=    377 Int=      0 D2E=      0 Chk=     67 Scr=      1
 Normal termination of Gaussian 16 at Sun May 22 21:06:49 2022.

Sender: Unischeduler System <lcz@mgt01>
Subject: Job 134340: <#!/bin/bash
#BSUB -J intel
#BSUB -o BH-0.8-UCCSD_T-G.out
#BSUB -n 8
#BSUB -q cqueue
#BSUB -R span[hosts=1]
export g16root=/apps/software
source /apps/software/g16/bsd/g16.profile
export GAUSS_SCRDIR=/scratch
/apps/software/g16/g16 < BH-0.8-UCCSD_T-G.inp > BH-0.8-UCCSD_T-G.out> Done

Job <#!/bin/bash
#BSUB -J intel
#BSUB -o BH-0.8-UCCSD_T-G.out
#BSUB -n 8
#BSUB -q cqueue
#BSUB -R span[hosts=1]
export g16root=/apps/software
source /apps/software/g16/bsd/g16.profile
export GAUSS_SCRDIR=/scratch
/apps/software/g16/g16 < BH-0.8-UCCSD_T-G.inp > BH-0.8-UCCSD_T-G.out> was submitted from host <mgt01> by user <lcz>.
Job was executed on host(s) <8*cnode04>, in queue <cqueue>, as user <lcz>.
</apps/users/lcz> was used as the home directory.
</apps/users/lcz/exe13/UCCSD_T> was used as the working directory.
Started at 2022-05-22 21:06:22
Results reported at 2022-05-22 21:06:49

Your job looked like:

------------------------------------------------------------
# User input
#!/bin/bash
#BSUB -J intel
#BSUB -o BH-0.8-UCCSD_T-G.out
#BSUB -n 8
#BSUB -q cqueue
#BSUB -R span[hosts=1]
export g16root=/apps/software
source /apps/software/g16/bsd/g16.profile
export GAUSS_SCRDIR=/scratch
/apps/software/g16/g16 < BH-0.8-UCCSD_T-G.inp > BH-0.8-UCCSD_T-G.out
------------------------------------------------------------

Successfully completed.

Resource usage summary:

    CPU time   :           24.76 sec.
    Max Memory :               529 MB
    Max Processes  :               5


The output (if any) follows:

