
                                        *****************
                                        * O   R   C   A *
                                        *****************

                                            #,                                       
                                            ###                                      
                                            ####                                     
                                            #####                                    
                                            ######                                   
                                           ########,                                 
                                     ,,################,,,,,                         
                               ,,#################################,,                 
                          ,,##########################################,,             
                       ,#########################################, ''#####,          
                    ,#############################################,,   '####,        
                  ,##################################################,,,,####,       
                ,###########''''           ''''###############################       
              ,#####''   ,,,,##########,,,,          '''####'''          '####       
            ,##' ,,,,###########################,,,                        '##       
           ' ,,###''''                  '''############,,,                           
         ,,##''                                '''############,,,,        ,,,,,,###''
      ,#''                                            '''#######################'''  
     '                                                          ''''####''''         
             ,#######,   #######,   ,#######,      ##                                
            ,#'     '#,  ##    ##  ,#'     '#,    #''#        ######   ,####,        
            ##       ##  ##   ,#'  ##            #'  '#       #        #'  '#        
            ##       ##  #######   ##           ,######,      #####,   #    #        
            '#,     ,#'  ##    ##  '#,     ,#' ,#      #,         ##   #,  ,#        
             '#######'   ##     ##  '#######'  #'      '#     #####' # '####'        



                  #######################################################
                  #                        -***-                        #
                  #          Department of theory and spectroscopy      #
                  #    Directorship and core code : Frank Neese         #
                  #        Max Planck Institute fuer Kohlenforschung    #
                  #                Kaiser Wilhelm Platz 1               #
                  #                 D-45470 Muelheim/Ruhr               #
                  #                      Germany                        #
                  #                                                     #
                  #                  All rights reserved                #
                  #                        -***-                        #
                  #######################################################


                         Program Version 5.0.0 -  RELEASE  -
                                (SVN: $Rev: 19529$)
                ($Date: 2021-06-28 11:36:33 +0200 (Mo, 28 Jun 2021) $)


 With contributions from (in alphabetic order):
   Daniel Aravena         : Magnetic Suceptibility
   Michael Atanasov       : Ab Initio Ligand Field Theory (pilot matlab implementation)
   Alexander A. Auer      : GIAO ZORA, VPT2 properties, NMR spectrum
   Ute Becker             : Parallelization
   Giovanni Bistoni       : ED, misc. LED, open-shell LED, HFLD
   Martin Brehm           : Molecular dynamics
   Dmytro Bykov           : SCF Hessian
   Vijay G. Chilkuri      : MRCI spin determinant printing, contributions to CSF-ICE
   Dipayan Datta          : RHF DLPNO-CCSD density
   Achintya Kumar Dutta   : EOM-CC, STEOM-CC
   Dmitry Ganyushin       : Spin-Orbit,Spin-Spin,Magnetic field MRCI
   Miquel Garcia          : C-PCM Hessian, Gaussian charge scheme
   Yang Guo               : DLPNO-NEVPT2, F12-NEVPT2, CIM, IAO-localization
   Andreas Hansen         : Spin unrestricted coupled pair/coupled cluster methods
   Benjamin Helmich-Paris : MC-RPA, TRAH-SCF, COSX integrals
   Lee Huntington         : MR-EOM, pCC
   Robert Izsak           : Overlap fitted RIJCOSX, COSX-SCS-MP3, EOM
   Marcus Kettner         : VPT2
   Christian Kollmar      : KDIIS, OOCD, Brueckner-CCSD(T), CCSD density, CASPT2, CASPT2-K
   Simone Kossmann        : Meta GGA functionals, TD-DFT gradient, OOMP2, MP2 Hessian
   Martin Krupicka        : Initial AUTO-CI
   Lucas Lang             : DCDCAS
   Marvin Lechner         : AUTO-CI (C++ implementation), FIC-MRCC
   Dagmar Lenk            : GEPOL surface, SMD
   Dimitrios Liakos       : Extrapolation schemes; Compound Job, initial MDCI parallelization
   Dimitrios Manganas     : Further ROCIS development; embedding schemes
   Dimitrios Pantazis     : SARC Basis sets
   Anastasios Papadopoulos: AUTO-CI, single reference methods and gradients
   Taras Petrenko         : DFT Hessian,TD-DFT gradient, ASA, ECA, R-Raman, ABS, FL, XAS/XES, NRVS
   Peter Pinski           : DLPNO-MP2, DLPNO-MP2 Gradient
   Christoph Reimann      : Effective Core Potentials
   Marius Retegan         : Local ZFS, SOC
   Christoph Riplinger    : Optimizer, TS searches, QM/MM, DLPNO-CCSD(T), (RO)-DLPNO pert. Triples
   Tobias Risthaus        : Range-separated hybrids, TD-DFT gradient, RPA, STAB
   Michael Roemelt        : Original ROCIS implementation
   Masaaki Saitow         : Open-shell DLPNO-CCSD energy and density
   Barbara Sandhoefer     : DKH picture change effects
   Avijit Sen             : IP-ROCIS
   Kantharuban Sivalingam : CASSCF convergence, NEVPT2, FIC-MRCI
   Bernardo de Souza      : ESD, SOC TD-DFT
   Georgi Stoychev        : AutoAux, RI-MP2 NMR
   Willem Van den Heuvel  : Paramagnetic NMR
   Boris Wezisla          : Elementary symmetry handling
   Frank Wennmohs         : Technical directorship


 We gratefully acknowledge several colleagues who have allowed us to
 interface, adapt or use parts of their codes:
   Stefan Grimme, W. Hujo, H. Kruse, P. Pracht,  : VdW corrections, initial TS optimization,
                  C. Bannwarth, S. Ehlert          DFT functionals, gCP, sTDA/sTD-DF
   Ed Valeev, F. Pavosevic, A. Kumar             : LibInt (2-el integral package), F12 methods
   Garnet Chan, S. Sharma, J. Yang, R. Olivares  : DMRG
   Ulf Ekstrom                                   : XCFun DFT Library
   Mihaly Kallay                                 : mrcc  (arbitrary order and MRCC methods)
   Jiri Pittner, Ondrej Demel                    : Mk-CCSD
   Frank Weinhold                                : gennbo (NPA and NBO analysis)
   Christopher J. Cramer and Donald G. Truhlar   : smd solvation model
   Lars Goerigk                                  : TD-DFT with DH, B97 family of functionals
   V. Asgeirsson, H. Jonsson                     : NEB implementation
   FAccTs GmbH                                   : IRC, NEB, NEB-TS, DLPNO-Multilevel, CI-OPT
                                                   MM, QMMM, 2- and 3-layer-ONIOM, Crystal-QMMM,
                                                   LR-CPCM, SF, NACMEs, symmetry and pop. for TD-DFT,
                                                   nearIR, NL-DFT gradient (VV10), updates on ESD,
                                                   ML-optimized integration grids
   S Lehtola, MJT Oliveira, MAL Marques          : LibXC Library
   Liviu Ungur et al                             : ANISO software


 Your calculation uses the libint2 library for the computation of 2-el integrals
 For citations please refer to: http://libint.valeyev.net

 Your ORCA version has been built with support for libXC version: 5.1.0
 For citations please refer to: https://tddft.org/programs/libxc/

 This ORCA versions uses:
   CBLAS   interface :  Fast vector & matrix operations
   LAPACKE interface :  Fast linear algebra routines
   SCALAPACK package :  Parallel linear algebra routines
   Shared memory     :  Shared parallel matrices
   BLAS/LAPACK       :  OpenBLAS 0.3.15  USE64BITINT DYNAMIC_ARCH NO_AFFINITY SkylakeX SINGLE_THREADED
        Core in use  :  SkylakeX
   Copyright (c) 2011-2014, The OpenBLAS Project


================================================================================

----- Orbital basis set information -----
Your calculation utilizes the basis: aug-cc-pVQZ 
    H, B-Ne : Obtained from the ccRepo (grant-hill.group.shef.ac.uk/ccrepo) Feb. 2017
              R. A. Kendall, T. H. Dunning, Jr., R. J. Harrison, J. Chem. Phys. 96, 6796 (1992)
         He : Obtained from the ccRepo (grant-hill.group.shef.ac.uk/ccrepo) Feb. 2017
              D. E. Woon, T. H. Dunning, Jr., J. Chem. Phys. 100, 2975 (1994)
  Li-Be, Na : Obtained from the ccRepo (grant-hill.group.shef.ac.uk/ccrepo) Feb. 2017
              B. P. Prascher, D. E. Woon, K. A. Peterson, T. H. Dunning, Jr., A. K. Wilson, Theor. Chem. Acc. 128, 69 (2011)
         Mg : Obtained from the Peterson Research Group Website (tyr0.chem.wsu.edu/~kipeters) Feb. 2017
              B. P. Prascher, D. E. Woon, K. A. Peterson, T. H. Dunning, Jr., A. K. Wilson, Theor. Chem. Acc. 128, 69 (2011)
      Al-Ar : Obtained from the ccRepo (grant-hill.group.shef.ac.uk/ccrepo) Feb. 2017
              D. E. Woon, T. H. Dunning, Jr., J. Chem. Phys. 98, 1358 (1993)
      Sc-Zn : Obtained from the ccRepo (grant-hill.group.shef.ac.uk/ccrepo) Feb. 2017
              N. B. Balabanov, K. A. Peterson, J. Chem. Phys. 123, 064107 (2005)
              N. B. Balabanov, K. A. Peterson, J. Chem. Phys. 125, 074110 (2006)
      Ga-Kr : Obtained from the ccRepo (grant-hill.group.shef.ac.uk/ccrepo) Feb. 2017
              A. K. Wilson, D. E. Woon, K. A. Peterson, T. H. Dunning, Jr., J. Chem. Phys. 110, 7667 (1999)

================================================================================
                                        WARNINGS
                       Please study these warnings very carefully!
================================================================================


WARNING: Post HF methods need fully converged wavefunctions
  ===> : Setting SCFConvForced true
         You can overwrite this default with %scf ConvForced false 


WARNING: MDCI localization with Augmented Hessian Foster-Boys
  ===> : Switching off randomization!

INFO   : the flag for use of the SHARK integral package has been found!

================================================================================
                                       INPUT FILE
================================================================================
NAME = /scratch/BH-1.4-UCCSD_T-O_958/BH-1.4-UCCSD_T-O.inp
|  1> ! UHF CCSD(T) aug-cc-pVQZ VeryTightSCF MOread
|  2> 
|  3> %moinp "BH-1.4-UHF-O.gbw"
|  4> 
|  5> *xyz 0 1
|  6>  B	0.0	0.0	0.0
|  7>  H	1.4	0.0	0.0
|  8> **                         ****END OF INPUT****
================================================================================

                       ****************************
                       * Single Point Calculation *
                       ****************************

---------------------------------
CARTESIAN COORDINATES (ANGSTROEM)
---------------------------------
  B      0.000000    0.000000    0.000000
  H      1.400000    0.000000    0.000000

----------------------------
CARTESIAN COORDINATES (A.U.)
----------------------------
  NO LB      ZA    FRAG     MASS         X           Y           Z
   0 B     5.0000    0    10.810    0.000000    0.000000    0.000000
   1 H     1.0000    0     1.008    2.645617    0.000000    0.000000

--------------------------------
INTERNAL COORDINATES (ANGSTROEM)
--------------------------------
 B      0   0   0     0.000000000000     0.00000000     0.00000000
 H      1   0   0     1.400000000000     0.00000000     0.00000000

---------------------------
INTERNAL COORDINATES (A.U.)
---------------------------
 B      0   0   0     0.000000000000     0.00000000     0.00000000
 H      1   0   0     2.645616587490     0.00000000     0.00000000

---------------------
BASIS SET INFORMATION
---------------------
There are 2 groups of distinct atoms

 Group   1 Type B   : 22s7p4d3f2g contracted to 6s5p4d3f2g pattern {991111/31111/1111/111/11}
 Group   2 Type H   : 7s4p3d2f contracted to 5s4p3d2f pattern {31111/1111/111/11}

Atom   0B    basis set group =>   1
Atom   1H    basis set group =>   2
------------------------------------------------------------------------------
                           ORCA GTO INTEGRAL CALCULATION
------------------------------------------------------------------------------
------------------------------------------------------------------------------
                   ___                                                        
                  /   \      - P O W E R E D   B Y -                         
                 /     \                                                     
                 |  |  |   _    _      __       _____    __    __             
                 |  |  |  | |  | |    /  \     |  _  \  |  |  /  |          
                  \  \/   | |  | |   /    \    | | | |  |  | /  /          
                 / \  \   | |__| |  /  /\  \   | |_| |  |  |/  /          
                |  |  |   |  __  | /  /__\  \  |    /   |      \           
                |  |  |   | |  | | |   __   |  |    \   |  |\   \          
                \     /   | |  | | |  |  |  |  | |\  \  |  | \   \       
                 \___/    |_|  |_| |__|  |__|  |_| \__\ |__|  \__/        
                                                                              
                      - O R C A' S   B I G   F R I E N D -                    
                                      &                                       
                       - I N T E G R A L  F E E D E R -                       
                                                                              
 v1 FN, 2020, v2 2021                                                         
------------------------------------------------------------------------------


Reading SHARK input file /scratch/BH-1.4-UCCSD_T-O_958/BH-1.4-UCCSD_T-O.SHARKINP.tmp ... ok
----------------------
SHARK INTEGRAL PACKAGE
----------------------

Number of atoms                             ...      2
Number of basis functions                   ...    126
Number of shells                            ...     34
Maximum angular momentum                    ...      4
Integral batch strategy                     ... SHARK/LIBINT Hybrid
RI-J (if used) integral strategy            ... SPLIT-RIJ (Revised 2003 algorithm where possible)
Printlevel                                  ...      1
Contraction scheme used                     ... SEGMENTED contraction
Coulomb Range Separation                    ... NOT USED
Exchange Range Separation                   ... NOT USED
Finite Nucleus Model                        ... NOT USED
Auxiliary Coulomb fitting basis             ... NOT available
Auxiliary J/K fitting basis                 ... NOT available
Auxiliary Correlation fitting basis         ... NOT available
Auxiliary 'external' fitting basis          ... NOT available
Integral threshold                          ...     1.000000e-12
Primitive cut-off                           ...     1.000000e-14
Primitive pair pre-selection threshold      ...     1.000000e-14

Calculating pre-screening integrals         ... done (  0.1 sec) Dimension = 34
Organizing shell pair data                  ... done (  0.0 sec)
Shell pair information
Total number of shell pairs                 ...       595
Shell pairs after pre-screening             ...       595
Total number of primitive shell pairs       ...      1563
Primitive shell pairs kept                  ...      1533
          la=0 lb=0:     66 shell pairs
          la=1 lb=0:     99 shell pairs
          la=1 lb=1:     45 shell pairs
          la=2 lb=0:     77 shell pairs
          la=2 lb=1:     63 shell pairs
          la=2 lb=2:     28 shell pairs
          la=3 lb=0:     55 shell pairs
          la=3 lb=1:     45 shell pairs
          la=3 lb=2:     35 shell pairs
          la=3 lb=3:     15 shell pairs
          la=4 lb=0:     22 shell pairs
          la=4 lb=1:     18 shell pairs
          la=4 lb=2:     14 shell pairs
          la=4 lb=3:     10 shell pairs
          la=4 lb=4:      3 shell pairs

Calculating one electron integrals          ... done (  0.0 sec)
Calculating Nuclear repulsion               ... done (  0.0 sec) ENN=      1.889918601071 Eh

SHARK setup successfully completed in   0.1 seconds

Maximum memory used throughout the entire GTOINT-calculation: 33.3 MB
-------------------------------------------------------------------------------
                                 ORCA SCF
-------------------------------------------------------------------------------

------------
SCF SETTINGS
------------
Hamiltonian:
 Ab initio Hamiltonian  Method          .... Hartree-Fock(GTOs)


General Settings:
 Integral files         IntName         .... /scratch/BH-1.4-UCCSD_T-O_958/BH-1.4-UCCSD_T-O
 Hartree-Fock type      HFTyp           .... UHF
 Total Charge           Charge          ....    0
 Multiplicity           Mult            ....    1
 Number of Electrons    NEL             ....    6
 Basis Dimension        Dim             ....  126
 Nuclear Repulsion      ENuc            ....      1.8899186011 Eh

Convergence Acceleration:
 DIIS                   CNVDIIS         .... on
   Start iteration      DIISMaxIt       ....    12
   Startup error        DIISStart       ....  0.200000
   # of expansion vecs  DIISMaxEq       ....     5
   Bias factor          DIISBfac        ....   1.050
   Max. coefficient     DIISMaxC        ....  10.000
 Trust-Rad. Augm. Hess. CNVTRAH         .... auto
   Auto Start mean grad. ratio tolernc. ....  1.125000
   Auto Start start iteration           ....     1
   Auto Start num. interpolation iter.  ....    10
   Max. Number of Micro iterations      ....    16
   Max. Number of Macro iterations      .... Maxiter - #DIIS iter
   Number of Davidson start vectors     ....     2
   Converg. threshold I  (grad. norm)   ....   2.000e-06
   Converg. threshold II (energy diff.) ....   1.000e-09
   Grad. Scal. Fac. for Micro threshold ....   0.100
   Minimum threshold for Micro iter.    ....   0.010
   NR start threshold (gradient norm)   ....   0.001
   Initial trust radius                 ....   0.400
   Minimum AH scaling param. (alpha)    ....   1.000
   Maximum AH scaling param. (alpha)    .... 1000.000
   Orbital update algorithm             .... Taylor
   White noise on init. David. guess    .... on
   Maximum white noise                  ....   0.010
   Quad. conv. algorithm                .... NR
 SOSCF                  CNVSOSCF        .... off
 Level Shifting         CNVShift        .... on
   Level shift para.    LevelShift      ....    0.2500
   Turn off err/grad.   ShiftErr        ....    0.0010
 Zerner damping         CNVZerner       .... off
 Static damping         CNVDamp         .... on
   Fraction old density DampFac         ....    0.7000
   Max. Damping (<1)    DampMax         ....    0.9800
   Min. Damping (>=0)   DampMin         ....    0.0000
   Turn off err/grad.   DampErr         ....    0.1000
 Fernandez-Rico         CNVRico         .... off

SCF Procedure:
 Maximum # iterations   MaxIter         ....   125
 SCF integral mode      SCFMode         .... Direct
   Integral package                     .... SHARK and LIBINT hybrid scheme
 Reset frequency        DirectResetFreq ....    20
 Integral Threshold     Thresh          ....  1.000e-12 Eh
 Primitive CutOff       TCut            ....  1.000e-14 Eh

Convergence Tolerance:
 Convergence Check Mode ConvCheckMode   .... Total+1el-Energy
 Convergence forced     ConvForced      .... 1
 Energy Change          TolE            ....  1.000e-09 Eh
 1-El. energy change                    ....  1.000e-06 Eh
 DIIS Error             TolErr          ....  1.000e-08


Diagonalization of the overlap matrix:
Smallest eigenvalue                        ... 1.678e-04
Time for diagonalization                   ...    0.002 sec
Threshold for overlap eigenvalues          ... 1.000e-08
Number of eigenvalues below threshold      ... 0
Time for construction of square roots      ...    0.000 sec
Total time needed                          ...    0.002 sec

---------------------
INITIAL GUESS: MOREAD
---------------------
Guess MOs are being read from file: BH-1.4-UHF-O.gbw
Input Geometry matches current geometry (good)
Input basis set matches current basis set (good)
MOs were renormalized
MOs were reorthogonalized (Cholesky)
                      ------------------
                      INITIAL GUESS DONE (   0.0 sec)
                      ------------------
--------------
SCF ITERATIONS
--------------
ITER       Energy         Delta-E        Max-DP      RMS-DP      [F,P]     Damp
               ***  Starting incremental Fock matrix formation  ***
  0    -25.1272646112   0.000000000000 0.00000000  0.00000000  0.0000000 0.7000
                 **** Energy Check signals convergence ****

               *****************************************************
               *                     SUCCESS                       *
               *           SCF CONVERGED AFTER   1 CYCLES          *
               *****************************************************


----------------
TOTAL SCF ENERGY
----------------

Total Energy       :          -25.12726461 Eh            -683.74763 eV

Components:
Nuclear Repulsion  :            1.88991860 Eh              51.42730 eV
Electronic Energy  :          -27.01718321 Eh            -735.17493 eV
One Electron Energy:          -36.68714275 Eh            -998.30791 eV
Two Electron Energy:            9.66995954 Eh             263.13298 eV

Virial components:
Potential Energy   :          -50.11701397 Eh           -1363.75328 eV
Kinetic Energy     :           24.98974936 Eh             680.00565 eV
Virial Ratio       :            2.00550287


---------------
SCF CONVERGENCE
---------------

  Last Energy change         ...    2.9807e-12  Tolerance :   1.0000e-09
  Last MAX-Density change    ...    2.0496e-09  Tolerance :   1.0000e-08
  Last RMS-Density change    ...    6.4123e-11  Tolerance :   1.0000e-09
  Last DIIS Error            ...    6.3838e-09  Tolerance :   1.0000e-08

             **** THE GBW FILE WAS UPDATED (/scratch/BH-1.4-UCCSD_T-O_958/BH-1.4-UCCSD_T-O.gbw) ****
             **** DENSITY /scratch/BH-1.4-UCCSD_T-O_958/BH-1.4-UCCSD_T-O.scfp WAS UPDATED ****
             **** ENERGY FILE WAS UPDATED (/scratch/BH-1.4-UCCSD_T-O_958/BH-1.4-UCCSD_T-O.en.tmp) ****
----------------------
UHF SPIN CONTAMINATION
----------------------

Expectation value of <S**2>     :     0.436313
Ideal value S*(S+1) for S=0.0   :     0.000000
Deviation                       :     0.436313

             **** THE GBW FILE WAS UPDATED (/scratch/BH-1.4-UCCSD_T-O_958/BH-1.4-UCCSD_T-O.gbw) ****
             **** DENSITY /scratch/BH-1.4-UCCSD_T-O_958/BH-1.4-UCCSD_T-O.scfp WAS UPDATED ****
----------------
ORBITAL ENERGIES
----------------
                 SPIN UP ORBITALS
  NO   OCC          E(Eh)            E(eV) 
   0   1.0000      -7.697808      -209.4680 
   1   1.0000      -0.605631       -16.4800 
   2   1.0000      -0.370173       -10.0729 
   3   0.0000       0.024480         0.6661 
   4   0.0000       0.028882         0.7859 
   5   0.0000       0.033573         0.9136 
   6   0.0000       0.045826         1.2470 
   7   0.0000       0.079093         2.1522 
   8   0.0000       0.084178         2.2906 
   9   0.0000       0.110378         3.0035 
  10   0.0000       0.136216         3.7066 
  11   0.0000       0.137538         3.7426 
  12   0.0000       0.146081         3.9751 
  13   0.0000       0.146131         3.9764 
  14   0.0000       0.148234         4.0336 
  15   0.0000       0.196240         5.3400 
  16   0.0000       0.253428         6.8961 
  17   0.0000       0.272239         7.4080 
  18   0.0000       0.273440         7.4407 
  19   0.0000       0.310982         8.4622 
  20   0.0000       0.312816         8.5122 
  21   0.0000       0.376112        10.2345 
  22   0.0000       0.400101        10.8873 
  23   0.0000       0.459734        12.5100 
  24   0.0000       0.459737        12.5101 
  25   0.0000       0.462427        12.5833 
  26   0.0000       0.462428        12.5833 
  27   0.0000       0.478956        13.0331 
  28   0.0000       0.482087        13.1183 
  29   0.0000       0.501427        13.6445 
  30   0.0000       0.501684        13.6515 
  31   0.0000       0.533046        14.5049 
  32   0.0000       0.548111        14.9149 
  33   0.0000       0.577324        15.7098 
  34   0.0000       0.579950        15.7812 
  35   0.0000       0.730801        19.8861 
  36   0.0000       0.784386        21.3442 
  37   0.0000       0.786169        21.3927 
  38   0.0000       0.806803        21.9542 
  39   0.0000       0.806823        21.9548 
  40   0.0000       0.816746        22.2248 
  41   0.0000       1.014058        27.5939 
  42   0.0000       1.014726        27.6121 
  43   0.0000       1.163237        31.6533 
  44   0.0000       1.201853        32.7041 
  45   0.0000       1.205269        32.7970 
  46   0.0000       1.335116        36.3304 
  47   0.0000       1.365864        37.1671 
  48   0.0000       1.365864        37.1671 
  49   0.0000       1.371703        37.3259 
  50   0.0000       1.371703        37.3259 
  51   0.0000       1.388146        37.7734 
  52   0.0000       1.388227        37.7756 
  53   0.0000       1.419476        38.6259 
  54   0.0000       1.420816        38.6624 
  55   0.0000       1.426731        38.8233 
  56   0.0000       1.438403        39.1409 
  57   0.0000       1.438986        39.1568 
  58   0.0000       1.456303        39.6280 
  59   0.0000       1.456666        39.6379 
  60   0.0000       1.526461        41.5371 
  61   0.0000       1.556651        42.3586 
  62   0.0000       1.562284        42.5119 
  63   0.0000       1.602442        43.6047 
  64   0.0000       1.602497        43.6062 
  65   0.0000       1.667141        45.3652 
  66   0.0000       1.844065        50.1795 
  67   0.0000       1.844102        50.1806 
  68   0.0000       1.851385        50.3788 
  69   0.0000       1.854563        50.4652 
  70   0.0000       1.943899        52.8962 
  71   0.0000       2.111573        57.4588 
  72   0.0000       2.111578        57.4590 
  73   0.0000       2.171398        59.0867 
  74   0.0000       2.175327        59.1936 
  75   0.0000       2.303310        62.6763 
  76   0.0000       2.422086        65.9083 
  77   0.0000       2.872751        78.1715 
  78   0.0000       2.872763        78.1719 
  79   0.0000       3.002221        81.6946 
  80   0.0000       3.005069        81.7721 
  81   0.0000       3.222746        87.6954 
  82   0.0000       3.303311        89.8877 
  83   0.0000       3.306760        89.9815 
  84   0.0000       3.374728        91.8310 
  85   0.0000       3.861447       105.0753 
  86   0.0000       3.868613       105.2703 
  87   0.0000       3.921634       106.7131 
  88   0.0000       3.921634       106.7131 
  89   0.0000       3.940957       107.2389 
  90   0.0000       3.940960       107.2390 
  91   0.0000       3.984771       108.4311 
  92   0.0000       3.984818       108.4324 
  93   0.0000       4.091888       111.3459 
  94   0.0000       4.091888       111.3459 
  95   0.0000       4.106177       111.7348 
  96   0.0000       4.109954       111.8375 
  97   0.0000       4.111563       111.8813 
  98   0.0000       4.113551       111.9354 
  99   0.0000       4.117861       112.0527 
 100   0.0000       4.168896       113.4414 
 101   0.0000       4.169324       113.4531 
 102   0.0000       4.273791       116.2958 
 103   0.0000       4.280872       116.4884 
 104   0.0000       4.409561       119.9903 
 105   0.0000       4.810157       130.8910 
 106   0.0000       4.987682       135.7217 
 107   0.0000       4.993804       135.8883 
 108   0.0000       5.475870       149.0060 
 109   0.0000       6.674834       181.6315 
 110   0.0000       6.674834       181.6315 
 111   0.0000       6.983326       190.0260 
 112   0.0000       6.983326       190.0260 
 113   0.0000       7.448680       202.6889 
 114   0.0000       7.451019       202.7525 
 115   0.0000       7.512544       204.4267 
 116   0.0000       8.103779       220.5150 
 117   0.0000       8.560598       232.9457 
 118   0.0000       8.561932       232.9820 
 119   0.0000       8.662701       235.7241 
 120   0.0000       8.662702       235.7241 
 121   0.0000       9.212909       250.6960 
 122   0.0000       9.214133       250.7293 
 123   0.0000       9.392418       255.5807 
 124   0.0000       9.972433       271.3637 
 125   0.0000      14.859666       404.3521 

                 SPIN DOWN ORBITALS
  NO   OCC          E(Eh)            E(eV) 
   0   1.0000      -7.697808      -209.4680 
   1   1.0000      -0.605631       -16.4800 
   2   1.0000      -0.370173       -10.0729 
   3   0.0000       0.024480         0.6661 
   4   0.0000       0.028882         0.7859 
   5   0.0000       0.033573         0.9136 
   6   0.0000       0.045826         1.2470 
   7   0.0000       0.079093         2.1522 
   8   0.0000       0.084178         2.2906 
   9   0.0000       0.110378         3.0035 
  10   0.0000       0.136216         3.7066 
  11   0.0000       0.137538         3.7426 
  12   0.0000       0.146081         3.9751 
  13   0.0000       0.146131         3.9764 
  14   0.0000       0.148234         4.0336 
  15   0.0000       0.196240         5.3400 
  16   0.0000       0.253428         6.8961 
  17   0.0000       0.272239         7.4080 
  18   0.0000       0.273440         7.4407 
  19   0.0000       0.310982         8.4622 
  20   0.0000       0.312816         8.5122 
  21   0.0000       0.376112        10.2345 
  22   0.0000       0.400101        10.8873 
  23   0.0000       0.459734        12.5100 
  24   0.0000       0.459737        12.5101 
  25   0.0000       0.462427        12.5833 
  26   0.0000       0.462428        12.5833 
  27   0.0000       0.478956        13.0331 
  28   0.0000       0.482087        13.1183 
  29   0.0000       0.501427        13.6445 
  30   0.0000       0.501684        13.6515 
  31   0.0000       0.533046        14.5049 
  32   0.0000       0.548111        14.9149 
  33   0.0000       0.577324        15.7098 
  34   0.0000       0.579950        15.7812 
  35   0.0000       0.730801        19.8861 
  36   0.0000       0.784386        21.3442 
  37   0.0000       0.786169        21.3927 
  38   0.0000       0.806803        21.9542 
  39   0.0000       0.806823        21.9548 
  40   0.0000       0.816746        22.2248 
  41   0.0000       1.014058        27.5939 
  42   0.0000       1.014726        27.6121 
  43   0.0000       1.163237        31.6533 
  44   0.0000       1.201853        32.7041 
  45   0.0000       1.205269        32.7970 
  46   0.0000       1.335116        36.3304 
  47   0.0000       1.365864        37.1671 
  48   0.0000       1.365864        37.1671 
  49   0.0000       1.371703        37.3259 
  50   0.0000       1.371703        37.3259 
  51   0.0000       1.388146        37.7734 
  52   0.0000       1.388227        37.7756 
  53   0.0000       1.419476        38.6259 
  54   0.0000       1.420816        38.6624 
  55   0.0000       1.426731        38.8233 
  56   0.0000       1.438403        39.1409 
  57   0.0000       1.438986        39.1568 
  58   0.0000       1.456303        39.6280 
  59   0.0000       1.456666        39.6379 
  60   0.0000       1.526461        41.5371 
  61   0.0000       1.556651        42.3586 
  62   0.0000       1.562284        42.5119 
  63   0.0000       1.602442        43.6047 
  64   0.0000       1.602497        43.6062 
  65   0.0000       1.667141        45.3652 
  66   0.0000       1.844065        50.1795 
  67   0.0000       1.844102        50.1806 
  68   0.0000       1.851385        50.3788 
  69   0.0000       1.854563        50.4652 
  70   0.0000       1.943899        52.8962 
  71   0.0000       2.111573        57.4588 
  72   0.0000       2.111578        57.4590 
  73   0.0000       2.171398        59.0867 
  74   0.0000       2.175327        59.1936 
  75   0.0000       2.303310        62.6763 
  76   0.0000       2.422086        65.9083 
  77   0.0000       2.872751        78.1715 
  78   0.0000       2.872763        78.1719 
  79   0.0000       3.002221        81.6946 
  80   0.0000       3.005069        81.7721 
  81   0.0000       3.222746        87.6954 
  82   0.0000       3.303311        89.8877 
  83   0.0000       3.306760        89.9815 
  84   0.0000       3.374728        91.8310 
  85   0.0000       3.861447       105.0753 
  86   0.0000       3.868613       105.2703 
  87   0.0000       3.921634       106.7131 
  88   0.0000       3.921634       106.7131 
  89   0.0000       3.940957       107.2389 
  90   0.0000       3.940960       107.2390 
  91   0.0000       3.984771       108.4311 
  92   0.0000       3.984818       108.4324 
  93   0.0000       4.091888       111.3459 
  94   0.0000       4.091888       111.3459 
  95   0.0000       4.106177       111.7348 
  96   0.0000       4.109954       111.8375 
  97   0.0000       4.111563       111.8813 
  98   0.0000       4.113551       111.9354 
  99   0.0000       4.117861       112.0527 
 100   0.0000       4.168896       113.4414 
 101   0.0000       4.169324       113.4531 
 102   0.0000       4.273791       116.2958 
 103   0.0000       4.280872       116.4884 
 104   0.0000       4.409561       119.9903 
 105   0.0000       4.810157       130.8910 
 106   0.0000       4.987682       135.7217 
 107   0.0000       4.993804       135.8883 
 108   0.0000       5.475870       149.0060 
 109   0.0000       6.674834       181.6315 
 110   0.0000       6.674834       181.6315 
 111   0.0000       6.983326       190.0260 
 112   0.0000       6.983326       190.0260 
 113   0.0000       7.448680       202.6889 
 114   0.0000       7.451019       202.7525 
 115   0.0000       7.512544       204.4267 
 116   0.0000       8.103779       220.5150 
 117   0.0000       8.560598       232.9457 
 118   0.0000       8.561932       232.9820 
 119   0.0000       8.662701       235.7241 
 120   0.0000       8.662702       235.7241 
 121   0.0000       9.212909       250.6960 
 122   0.0000       9.214133       250.7293 
 123   0.0000       9.392418       255.5807 
 124   0.0000       9.972433       271.3637 
 125   0.0000      14.859666       404.3521 

                    ********************************
                    * MULLIKEN POPULATION ANALYSIS *
                    ********************************

--------------------------------------------
MULLIKEN ATOMIC CHARGES AND SPIN POPULATIONS
--------------------------------------------
   0 B :    0.147161   -0.000000
   1 H :   -0.147161    0.000000
Sum of atomic charges         :    0.0000000
Sum of atomic spin populations:    0.0000000

-----------------------------------------------------
MULLIKEN REDUCED ORBITAL CHARGES AND SPIN POPULATIONS
-----------------------------------------------------
CHARGE
  0 B s       :     3.644795  s :     3.644795
      pz      :     0.192499  p :     1.167680
      px      :     0.923222
      py      :     0.051958
      dz2     :     0.010228  d :     0.038317
      dxz     :     0.002097
      dyz     :     0.000225
      dx2y2   :     0.025201
      dxy     :     0.000566
      f0      :     0.000029  f :     0.001756
      f+1     :     0.000626
      f-1     :     0.000003
      f+2     :     0.000047
      f-2     :     0.000006
      f+3     :     0.001027
      f-3     :     0.000018
      g0      :     0.000042  g :     0.000291
      g+1     :     0.000004
      g-1     :     0.000000
      g+2     :     0.000092
      g-2     :     0.000000
      g+3     :     0.000003
      g-3     :     0.000000
      g+4     :     0.000148
      g-4     :     0.000002
  1 H s       :     1.126397  s :     1.126397
      pz      :     0.001441  p :     0.019518
      px      :     0.017688
      py      :     0.000389
      dz2     :     0.000343  d :     0.001087
      dxz     :    -0.000211
      dyz     :     0.000001
      dx2y2   :     0.001011
      dxy     :    -0.000057
      f0      :     0.000010  f :     0.000159
      f+1     :     0.000045
      f-1     :     0.000001
      f+2     :     0.000017
      f-2     :     0.000000
      f+3     :     0.000078
      f-3     :     0.000007

SPIN
  0 B s       :    -0.000000  s :    -0.000000
      pz      :     0.000000  p :    -0.000000
      px      :    -0.000000
      py      :     0.000000
      dz2     :    -0.000000  d :    -0.000000
      dxz     :    -0.000000
      dyz     :    -0.000000
      dx2y2   :    -0.000000
      dxy     :    -0.000000
      f0      :     0.000000  f :    -0.000000
      f+1     :    -0.000000
      f-1     :     0.000000
      f+2     :     0.000000
      f-2     :     0.000000
      f+3     :    -0.000000
      f-3     :     0.000000
      g0      :    -0.000000  g :    -0.000000
      g+1     :     0.000000
      g-1     :    -0.000000
      g+2     :    -0.000000
      g-2     :     0.000000
      g+3     :     0.000000
      g-3     :     0.000000
      g+4     :    -0.000000
      g-4     :     0.000000
  1 H s       :     0.000000  s :     0.000000
      pz      :    -0.000000  p :     0.000000
      px      :     0.000000
      py      :    -0.000000
      dz2     :     0.000000  d :     0.000000
      dxz     :    -0.000000
      dyz     :    -0.000000
      dx2y2   :     0.000000
      dxy     :    -0.000000
      f0      :    -0.000000  f :    -0.000000
      f+1     :    -0.000000
      f-1     :    -0.000000
      f+2     :    -0.000000
      f-2     :    -0.000000
      f+3     :    -0.000000
      f-3     :    -0.000000


                     *******************************
                     * LOEWDIN POPULATION ANALYSIS *
                     *******************************

-------------------------------------------
LOEWDIN ATOMIC CHARGES AND SPIN POPULATIONS
-------------------------------------------
   0 B :    0.427196   -0.000000
   1 H :   -0.427196    0.000000

----------------------------------------------------
LOEWDIN REDUCED ORBITAL CHARGES AND SPIN POPULATIONS
----------------------------------------------------
CHARGE
  0 B s       :     3.172939  s :     3.172939
      pz      :     0.153867  p :     1.296729
      px      :     1.101331
      py      :     0.041531
      dz2     :     0.019864  d :     0.081608
      dxz     :     0.005514
      dyz     :     0.000204
      dx2y2   :     0.054538
      dxy     :     0.001488
      f0      :     0.000034  f :     0.016377
      f+1     :     0.006071
      f-1     :     0.000002
      f+2     :     0.000056
      f-2     :     0.000010
      f+3     :     0.010182
      f-3     :     0.000023
      g0      :     0.000715  g :     0.005152
      g+1     :     0.000021
      g-1     :     0.000000
      g+2     :     0.001591
      g-2     :     0.000001
      g+3     :     0.000017
      g-3     :     0.000000
      g+4     :     0.002797
      g-4     :     0.000009
  1 H s       :     0.993146  s :     0.993146
      pz      :     0.016648  p :     0.301425
      px      :     0.280283
      py      :     0.004494
      dz2     :     0.021173  d :     0.104781
      dxz     :     0.014344
      dyz     :     0.000011
      dx2y2   :     0.065380
      dxy     :     0.003872
      f0      :     0.002039  f :     0.027844
      f+1     :     0.007730
      f-1     :     0.000093
      f+2     :     0.003397
      f-2     :     0.000007
      f+3     :     0.013203
      f-3     :     0.001374

SPIN
  0 B s       :    -0.000000  s :    -0.000000
      pz      :    -0.000000  p :    -0.000000
      px      :    -0.000000
      py      :    -0.000000
      dz2     :     0.000000  d :    -0.000000
      dxz     :    -0.000000
      dyz     :    -0.000000
      dx2y2   :    -0.000000
      dxy     :    -0.000000
      f0      :    -0.000000  f :     0.000000
      f+1     :     0.000000
      f-1     :    -0.000000
      f+2     :    -0.000000
      f-2     :     0.000000
      f+3     :     0.000000
      f-3     :    -0.000000
      g0      :     0.000000  g :     0.000000
      g+1     :    -0.000000
      g-1     :     0.000000
      g+2     :     0.000000
      g-2     :     0.000000
      g+3     :    -0.000000
      g-3     :    -0.000000
      g+4     :     0.000000
      g-4     :     0.000000
  1 H s       :     0.000000  s :     0.000000
      pz      :    -0.000000  p :     0.000000
      px      :     0.000000
      py      :    -0.000000
      dz2     :     0.000000  d :    -0.000000
      dxz     :    -0.000000
      dyz     :    -0.000000
      dx2y2   :    -0.000000
      dxy     :    -0.000000
      f0      :    -0.000000  f :     0.000000
      f+1     :     0.000000
      f-1     :    -0.000000
      f+2     :     0.000000
      f-2     :    -0.000000
      f+3     :     0.000000
      f-3     :    -0.000000


                      *****************************
                      * MAYER POPULATION ANALYSIS *
                      *****************************

  NA   - Mulliken gross atomic population
  ZA   - Total nuclear charge
  QA   - Mulliken gross atomic charge
  VA   - Mayer's total valence
  BVA  - Mayer's bonded valence
  FA   - Mayer's free valence

  ATOM       NA         ZA         QA         VA         BVA        FA
  0 B      4.8528     5.0000     0.1472     1.7616     0.9282     0.8334
  1 H      1.1472     1.0000    -0.1472     0.9335     0.9282     0.0052

  Mayer bond orders larger than 0.100000
B(  0-B ,  1-H ) :   0.9282 

-------
TIMINGS
-------

Total SCF time: 0 days 0 hours 0 min 1 sec 

Total time                  ....       1.937 sec
Sum of individual times     ....       1.812 sec  ( 93.6%)

Fock matrix formation       ....       1.795 sec  ( 92.7%)
Diagonalization             ....       0.007 sec  (  0.4%)
Density matrix formation    ....       0.000 sec  (  0.0%)
Population analysis         ....       0.002 sec  (  0.1%)
Initial guess               ....       0.006 sec  (  0.3%)
Orbital Transformation      ....       0.000 sec  (  0.0%)
Orbital Orthonormalization  ....       0.003 sec  (  0.2%)
DIIS solution               ....       0.001 sec  (  0.1%)

Maximum memory used throughout the entire SCF-calculation: 257.5 MB


------------------------------------------------------------------------------- 
                              ORCA-MATRIX DRIVEN CI                            
------------------------------------------------------------------------------- 

--------------------------------
AUTOMATIC CHOICE OF INCORE LEVEL
--------------------------------

Memory available                           ...    256.00 MB
Memory needed for S+T                      ...      1.04 MB
Memory needed for J+K                      ...      2.08 MB
Memory needed for DIIS                     ...     14.54 MB
Memory needed for 3-ext                    ...     28.39 MB
Memory needed for 4-ext                    ...    880.23 MB
Memory needed for triples                  ...     70.99 MB
 -> Final InCoreLevel    ... 4
 -> check shows that triples correction can be computed


Wavefunction type
-----------------
Correlation treatment                      ...      CCSD     
Single excitations                         ... ON
Orbital optimization                       ... OFF
Calculation of Z vector                    ... OFF
Calculation of Brueckner orbitals          ... OFF
Perturbative triple excitations            ... ON
Calculation of F12 correction              ... OFF
Frozen core treatment                      ... chemical core (2 el)
Reference Wavefunction                     ... UHF
  Alpha-MOs occ    :     1 ...    2 (  2 MO's/  2 electrons)
  Beta-MOs occ     :     1 ...    2 (  2 MO's/  2 electrons)
  Alpha-MOs virt   :     3 ...  125 (123 MO's              )
  Beta-MOs virt    :     3 ...  125 (123 MO's              )
Number of AO's                             ...    126
Number of electrons                        ...      6
Number of correlated electrons             ...      4

Algorithmic settings
--------------------
Integral transformation                    ... AO direct full transformation
K(C) Formation                             ... FULL-MO TRAFO
Maximum number of iterations               ...        50
Convergence tolerance (max. residuum)      ... 1.000e-06
Level shift for amplitude update           ... 2.000e-01
Maximum number of DIIS vectors             ...         7
DIIS turned on at iteration                ...         0
Damping before turning on DIIS             ...     0.500
Damping after turning on DIIS              ...     0.000
Pair specific amplitude update             ... OFF
Natural orbital iterations                 ... OFF
Perturbative natural orbital generation    ... OFF
Printlevel                                 ... 2

Memory handling:
----------------
Maximum memory for working arrays          ...    256 MB
Data storage in matrix containers          ... UNCOMPRESSED
Data type for integral storage             ... DOUBLE
In-Core Storage of quantities:
   Amplitudes+Sigma Vector      ... YES
   J+K operators                ... YES
   DIIS vectors                 ... YES
   3-external integrals         ... YES
   4-external integrals         ... NO


Initializing the integral package          ... done
Warning: reference  - re-canonicalizations have been set to INT 1 VIRT 1

--------------------------
UNRESTRICTED FOCK OPERATOR
--------------------------

Restoring SHARK [2] ... ok
Recanonicalizing the internal orbitals
Recanonicalizing the virtual orbitals
Time needed for Fock operator              ...            1.353 sec
Reference energy                           ...    -25.127264611
Warning: for UHF the TrafoType has to be JK
Warning: for UHF the K(C)-option but must be AOX

-------------------------------
PARTIAL EXCHANGE TRANSFORMATION
-------------------------------

Transformation type                        ... two-operators
Generation of integrals (i,mue|j,nue)      ... ON
Generation of integrals (mue,kappa|nue,tau)... ON
Generation of integrals (i,mue|a,nue)      ... ON
Dimension of the basis                     ...  126
Number of internal alpha-MOs               ...    2 (   1-   2)
Number of internal beta-MOs                ...    2 (   1-   2)
Number of external alpha-MOs               ...  123 (   3- 125)
Number of external beta-MOs                ...  123 (   3- 125)
Pair cutoff                                ... 0.000e+00 Eh
Number of AO pairs in the trafo            ... 8001
Total Number of distinct AO pairs          ... 8001
Memory devoted for trafo                   ...  256.0 MB 
Max. Number of MO pairs treated together   ... 2113      
Number Format for Storage                  ... Double (8 Byte)
Integral package used                      ... LIBINT

Starting integral evaluation:
    ... done with AO integral generation
Closing buffer AOK[aa] ( 0.00 GB; CompressionRatio= 0.73)
Closing buffer AOK[bb] ( 0.00 GB; CompressionRatio= 0.73)
Closing buffer AOK[ab] ( 0.00 GB; CompressionRatio= 0.73)
Closing buffer AOK[ba] ( 0.00 GB; CompressionRatio= 0.73)
Collecting buffer AOK 
Closing buffer IAAO1[aa] ( 0.01 GB; CompressionRatio= 0.99)
Closing buffer IAAO1[bb] ( 0.01 GB; CompressionRatio= 0.99)
Closing buffer IAAO1[ab] ( 0.01 GB; CompressionRatio= 0.99)
Closing buffer IAAO1[ba] ( 0.01 GB; CompressionRatio= 0.99)
Closing buffer IAAO2[aa] ( 0.01 GB; CompressionRatio= 0.99)
Closing buffer IAAO2[bb] ( 0.01 GB; CompressionRatio= 0.99)
Closing buffer IAAO2[ab] ( 0.01 GB; CompressionRatio= 0.99)
Closing buffer IAAO2[ba] ( 0.01 GB; CompressionRatio= 0.99)
Collecting buffer IAAO 
Closing buffer PRQS    ( 0.95 GB; CompressionRatio= 1.00)
Collecting buffer PRQS 
Number of alpha/alpha MO pairs in trafo    ...    3
Number of beta /beta  MO pairs in trafo    ...    3
Number of alpha/ beta MO pairs in trafo    ...    4
------------------------
SORTING OF (i,mue|j,nue)
------------------------

SORTING OF ALPHA/ALPHA PAIRS
IBATCH = 1 of  1
Closing buffer KAO[aa] ( 0.00 GB; CompressionRatio= 1.00)
Collecting buffer KAO 
SORTING OF BETA /BETA  PAIRS
IBATCH = 1 of  1
Closing buffer KAO[bb] ( 0.00 GB; CompressionRatio= 1.00)
Collecting buffer KAO 
SORTING OF ALPHA/BETA  PAIRS
IBATCH = 1 of  1
Closing buffer KAO[ab] ( 0.00 GB; CompressionRatio= 0.999905526689)
Collecting buffer KAO[ab] 
------------------------
SORTING OF (i,mue|a,nue)
------------------------

Number of alpha/alpha (i,a) pairs in trafo  ...  246
Number of beta /beta  (i,a) pairs in trafo  ...  246
Number of alpha/ beta (i,a) pairs in trafo  ...  246
Number of beta /alpha (i,a) pairs in trafo  ...  246
Setting up the alpha/alpha list             ... done
Setting up the beta /beta  list             ... done
Setting up the alpha/beta  list             ... done
Setting up the beta /alpha list             ... done
    ... Now sorting (i,mue|a,nue)integrals
    ... Integrals (i,b|a,c) will be made on the fly
SORTING OF ALPHA/ALPHA PAIRS
IBATCH = 1 of  1
Closing buffer IPAQ[aa]  0.03 GB; CompressionRatio= 1.00)
SORTING OF BETA /BETA  PAIRS
IBATCH = 1 of  1
Closing buffer IPAQ[bb]( 0.03 GB; CompressionRatio= 1.00)
SORTING OF ALPHA/BETA  PAIRS (NMatSort_ab=246)
IBATCH = 1 of  1
Closing buffer IPAQ[ab]( 0.03 GB; CompressionRatio= 1.00)
SORTING OF BETA/ALPHA  PAIRS
IBATCH = 1 of  1
Closing buffer IPAQ[ba]( 0.03 GB; CompressionRatio= 1.00)
N(AO-Batches) Done                         ...    687820 
N(AO-Batches) Skipped                      ...         0 
N(IJ)-pairs Skipped                        ...         0 
TOTAL TIME for half transformation         ...     5.856 sec
AO-integral generation                     ...     3.972 sec
Half transformation                        ...     0.877 sec
K-integral sorting                         ...     0.395 sec

------------------------------
PARTIAL COULOMB TRANSFORMATION
------------------------------

Transformation type                        ... two-operators
Dimension of the basis                     ...  126
Number of internal alpha-MOs               ...    2 (1-2)
Number of internal beta-MOs                ...    2 (1-2)
Pair cutoff                                ... 0.000e+00 Eh
Number of AO pairs included in the trafo   ... 8001
Total Number of distinct AO pairs          ... 8001
Memory devoted for trafo                   ...  256.0 MB 
Max. Number of MO pairs treated together   ... 4193      
Max. Number of MOs treated per batch       ...   33      
Number Format for Storage                  ... Double (8 Byte)
AO-integral source                         ... DIRECT
Integral package used                      ... LIBINT

Starting integral evaluation:
<ss|**>:        39270 b        0 skpd     0.067 s (  0.002 ms/b)
<sp|**>:        58905 b        0 skpd     0.097 s (  0.002 ms/b)
<sd|**>:        45815 b        0 skpd     0.136 s (  0.003 ms/b)
<sf|**>:        32725 b        0 skpd     0.177 s (  0.005 ms/b)
<sg|**>:        13090 b        0 skpd     0.124 s (  0.009 ms/b)
<pp|**>:        26775 b        0 skpd     0.077 s (  0.003 ms/b)
<pd|**>:        37485 b        0 skpd     0.190 s (  0.005 ms/b)
<pf|**>:        26775 b        0 skpd     0.220 s (  0.008 ms/b)
<pg|**>:        10710 b        0 skpd     0.143 s (  0.013 ms/b)
<dd|**>:        16660 b        0 skpd     0.152 s (  0.009 ms/b)
<df|**>:        20825 b        0 skpd     0.324 s (  0.016 ms/b)
<dg|**>:         8330 b        0 skpd     0.193 s (  0.023 ms/b)
<ff|**>:         8925 b        0 skpd     0.238 s (  0.027 ms/b)
<fg|**>:         5950 b        0 skpd     0.247 s (  0.041 ms/b)
<gg|**>:         1785 b        0 skpd     0.111 s (  0.062 ms/b)
Closing buffer AOJ[aa] ( 0.00 GB; CompressionRatio= 0.67)
Closing buffer AOJ[bb] ( 0.00 GB; CompressionRatio= 0.67)
Collecting buffer AOJ 
    ... done with AO integral generation
Number of Alpha-MO pairs included          ...    3
Number of Beta-MO pairs included           ...    3
    ... Now sorting integrals
SORTING ALPHA/ALPHA PAIRS
IBATCH = 1 of  1
Closing buffer JAO[aa] ( 0.00 GB; CompressionRatio= 1.00)
SORTING BETA/BETA PAIRS
IBATCH = 1 of  1
Closing buffer JAO[bb] ( 0.00 GB; CompressionRatio= 1.00)
Collecting buffer JAO 
TOTAL TIME for half transformation         ...     2.505 sec
AO-integral generation                     ...     2.100 sec
Half transformation                        ...     0.398 sec
J-integral sorting                         ...     0.005 sec

-------------------------- SECOND HALF TRANSFORMATION -------------------------
Formation of (ij|kl),(ij|ka), (ij|ab)      ... ok (     0.004 sec)
Formation of (ik|jl),(ik|ja), (ia|jb)      ... ok (     0.004 sec)


-----------------------
SPIN UNRESTRICTED GUESS
-----------------------

Spin-components of the MP2 energy:
EMP2(aa)=     -0.002532203
EMP2(bb)=     -0.002532203
EMP2(ab)=     -0.061817065

Initial guess performed in     0.000 sec
E(0)                                       ...    -25.127264611
E(MP2)                                     ...     -0.066881471
Initial E(tot)                             ...    -25.194146082
<T|T>                                      ...      0.030306196
Number of pairs included                   ... 6

------------------------------------------------
                  UHF COUPLED CLUSTER ITERATIONS
------------------------------------------------

Number of amplitudes to be optimized       ...        75890

Iter       E(tot)           E(Corr)          Delta-E          Residual     Time      <S|S>**1/2
  0    -25.194146082     -0.066881471      0.000000000      0.011566583    1.29      0.000000058
                           *** Turning on DIIS ***
  1    -25.204565407     -0.077300796     -0.010419325      0.006562396    2.49      0.018643960
  2    -25.211997666     -0.084733055     -0.007432259      0.006504117    2.50      0.042941632
  3    -25.215517747     -0.088253135     -0.003520081      0.006144628    2.52      0.071529675
  4    -25.217783525     -0.090518913     -0.002265778      0.005385230    2.49      0.108392960
  5    -25.220320347     -0.093055735     -0.002536822      0.004063148    2.50      0.162724726
  6    -25.223107506     -0.095842895     -0.002787160      0.002303667    2.50      0.231517238
  7    -25.224540351     -0.097275739     -0.001432844      0.001047700    2.51      0.274366751
  8    -25.225220539     -0.097955928     -0.000680189      0.000459384    2.50      0.292546977
  9    -25.225309191     -0.098044580     -0.000088652      0.000184486    2.41      0.297453177
 10    -25.225429080     -0.098164469     -0.000119888      0.000134953    2.37      0.300198508
 11    -25.225425228     -0.098160617      0.000003851      0.000051527    2.33      0.300790402
 12    -25.225427039     -0.098162428     -0.000001811      0.000016379    2.33      0.300913674
 13    -25.225431891     -0.098167279     -0.000004852      0.000010557    2.37      0.300919967
 14    -25.225434644     -0.098170032     -0.000002753      0.000005594    2.40      0.300936748
 15    -25.225436037     -0.098171426     -0.000001393      0.000003358    2.45      0.300959221
 16    -25.225436689     -0.098172078     -0.000000652      0.000002547    2.49      0.300980353
 17    -25.225437728     -0.098173116     -0.000001038      0.000001512    2.50      0.301010433
 18    -25.225438701     -0.098174090     -0.000000974      0.000000732    2.50      0.301035294
               --- The Coupled-Cluster iterations have converged ---

----------------------
COUPLED CLUSTER ENERGY
----------------------

E(0)                                       ...    -25.127264611
E(CORR)                                    ...     -0.098174090
E(TOT)                                     ...    -25.225438701
Singles norm <S|S>**1/2                    ...      0.301035294 ( 0.150517647, 0.150517647)  
T1 diagnostic                              ...      0.150517647                              

------------------
LARGEST AMPLITUDES
------------------
   2b->  8b  -1b-> -1b       0.197302
   2a->  8a  -1a-> -1a       0.197302
   2b->  4b  -1b-> -1b       0.147951
   2a->  4a  -1a-> -1a       0.147951
   2b-> 19b  -1b-> -1b       0.091738
   2a-> 19a  -1a-> -1a       0.091738
   2b->  9b  -1b-> -1b       0.077021
   2a->  9a  -1a-> -1a       0.077021
   2b->  5b  -1b-> -1b       0.076173
   2a->  5a  -1a-> -1a       0.076173
   2a->  8a   2b->  8b       0.059983
   2a->  7a   2b->  7b       0.056208
   2a->  7a   2b->  3b       0.050145
   2a->  3a   2b->  7b       0.050145
   2a-> 21a   2b-> 21b       0.047323
   2a->  3a   2b->  3b       0.044745

----------------------
UHF TRIPLES CORRECTION (Algorithm 1)
----------------------

Multiplier for the singles contribution    ...      1.000000000

SPIN-CASE Alpha-Alpha-Alpha:

SPIN-CASE Beta-Beta-Beta:

SPIN-CASE Alpha-Alpha-Beta:
10% done
20% done
30% done
40% done
50% done
60% done
70% done
80% done
90% done


SPIN-CASE Beta-Beta-Alpha:
10% done
20% done
30% done
40% done
50% done
60% done
70% done
80% done
90% done


Triples Correction (T)                     ...     -0.002520650
    alpha-alpha-alpha ...  0.000000000 ( -0.0%)
    alpha-alpha-beta  ... -0.001260325 ( 50.0%)
    alpha-beta -beta  ... -0.001260325 ( 50.0%)
    beta -beta -beta  ...  0.000000000 ( -0.0%)
Scaling of triples based on CCSD energies (Peterson et al. Molecular Physics 113, 1551 (2015))
E(T*) = f*E(T) where f = E(F12-CCSD)/E(CCSD) 
f = CCSD (with F12)/ CCSD (without F12)    ...      1.000000000
Scaled triples correction (T)              ...     -0.002520650

Final correlation energy                   ...     -0.100694741
E(CCSD)                                    ...    -25.225438701
E(CCSD(T))                                 ...    -25.227959352



        !!!!!!!!!!!!!!!!!!!!!!!!!!!!!!!!!!!!!!!!!!!!!!!!!!!!!!!!!!!!!!!!!!!!!!!!!! 
        !  Warning: Densities are linearized densities                           !
        !!!!!!!!!!!!!!!!!!!!!!!!!!!!!!!!!!!!!!!!!!!!!!!!!!!!!!!!!!!!!!!!!!!!!!!!!! 

NORM  =      1.301874124 sqrt=     1.140996987
W(HF) =      0.768123416
------------------------------------------------------------------------------
                           ORCA POPULATION ANALYSIS
------------------------------------------------------------------------------
Input electron density              ... /scratch/BH-1.4-UCCSD_T-O_958/BH-1.4-UCCSD_T-O.mdcip
Input spin density                  ... /scratch/BH-1.4-UCCSD_T-O_958/BH-1.4-UCCSD_T-O.mdcir
BaseName (.gbw .S,...)              ... /scratch/BH-1.4-UCCSD_T-O_958/BH-1.4-UCCSD_T-O

                    ********************************
                    * MULLIKEN POPULATION ANALYSIS *
                    ********************************

------------------------------------------
MULLIKEN ATOMIC CHARGES AND SPIN DENSITIES
------------------------------------------
   0 B :    0.123168    0.000000
   1 H :   -0.123168   -0.000000
Sum of atomic charges       :   -0.0000000
Sum of atomic spin densities:    0.0000000

---------------------------------------------------
MULLIKEN REDUCED ORBITAL CHARGES AND SPIN DENSITIES
---------------------------------------------------
CHARGE
  0 B s       :     3.770383  s :     3.770383
      pz      :    -0.006364  p :     1.045917
      px      :     1.002663
      py      :     0.049618
      dz2     :     0.010704  d :     0.057347
      dxz     :     0.006614
      dyz     :     0.000217
      dx2y2   :     0.032372
      dxy     :     0.007441
      f0      :     0.000234  f :     0.002634
      f+1     :     0.000500
      f-1     :     0.000058
      f+2     :     0.000375
      f-2     :     0.000124
      f+3     :     0.000770
      f-3     :     0.000573
      g0      :     0.000052  g :     0.000550
      g+1     :     0.000052
      g-1     :     0.000006
      g+2     :     0.000101
      g-2     :     0.000021
      g+3     :     0.000043
      g-3     :     0.000024
      g+4     :     0.000176
      g-4     :     0.000076
  1 H s       :     1.091564  s :     1.091564
      pz      :     0.003678  p :     0.028491
      px      :     0.020923
      py      :     0.003890
      dz2     :     0.000453  d :     0.002577
      dxz     :     0.000490
      dyz     :     0.000089
      dx2y2   :     0.001170
      dxy     :     0.000375
      f0      :     0.000061  f :     0.000536
      f+1     :     0.000077
      f-1     :     0.000018
      f+2     :     0.000097
      f-2     :     0.000014
      f+3     :     0.000112
      f-3     :     0.000158

SPIN
  0 B s       :     0.000000  s :     0.000000
      pz      :     0.000000  p :    -0.000000
      px      :    -0.000000
      py      :     0.000000
      dz2     :    -0.000000  d :    -0.000000
      dxz     :    -0.000000
      dyz     :     0.000000
      dx2y2   :    -0.000000
      dxy     :    -0.000000
      f0      :     0.000000  f :    -0.000000
      f+1     :    -0.000000
      f-1     :     0.000000
      f+2     :     0.000000
      f-2     :     0.000000
      f+3     :    -0.000000
      f-3     :     0.000000
      g0      :    -0.000000  g :    -0.000000
      g+1     :     0.000000
      g-1     :     0.000000
      g+2     :    -0.000000
      g-2     :     0.000000
      g+3     :     0.000000
      g-3     :     0.000000
      g+4     :    -0.000000
      g-4     :     0.000000
  1 H s       :    -0.000000  s :    -0.000000
      pz      :     0.000000  p :    -0.000000
      px      :    -0.000000
      py      :     0.000000
      dz2     :    -0.000000  d :    -0.000000
      dxz     :     0.000000
      dyz     :     0.000000
      dx2y2   :    -0.000000
      dxy     :     0.000000
      f0      :     0.000000  f :    -0.000000
      f+1     :    -0.000000
      f-1     :     0.000000
      f+2     :    -0.000000
      f-2     :    -0.000000
      f+3     :     0.000000
      f-3     :     0.000000


                     *******************************
                     * LOEWDIN POPULATION ANALYSIS *
                     *******************************

-----------------------------------------
LOEWDIN ATOMIC CHARGES AND SPIN DENSITIES
-----------------------------------------
   0 B :    0.423231   -0.000000
   1 H :   -0.423231    0.000000

--------------------------------------------------
LOEWDIN REDUCED ORBITAL CHARGES AND SPIN DENSITIES
--------------------------------------------------
CHARGE
  0 B s       :     3.226094  s :     3.226094
      pz      :    -0.003972  p :     1.220314
      px      :     1.183138
      py      :     0.041149
      dz2     :     0.021592  d :     0.103096
      dxz     :     0.007045
      dyz     :     0.000199
      dx2y2   :     0.065002
      dxy     :     0.009257
      f0      :     0.000344  f :     0.020428
      f+1     :     0.006963
      f-1     :     0.000075
      f+2     :     0.000558
      f-2     :     0.000129
      f+3     :     0.011524
      f-3     :     0.000835
      g0      :     0.000903  g :     0.006836
      g+1     :     0.000117
      g-1     :     0.000006
      g+2     :     0.001989
      g-2     :     0.000036
      g+3     :     0.000093
      g-3     :     0.000029
      g+4     :     0.003476
      g-4     :     0.000186
  1 H s       :     0.976747  s :     0.976747
      pz      :     0.000907  p :     0.322498
      px      :     0.316656
      py      :     0.004936
      dz2     :     0.024077  d :     0.099729
      dxz     :    -0.000077
      dyz     :     0.000084
      dx2y2   :     0.071764
      dxy     :     0.003882
      f0      :     0.000101  f :     0.024257
      f+1     :     0.008309
      f-1     :     0.000123
      f+2     :     0.000164
      f-2     :     0.000026
      f+3     :     0.013784
      f-3     :     0.001748

SPIN
  0 B s       :    -0.000000  s :    -0.000000
      pz      :     0.000000  p :     0.000000
      px      :    -0.000000
      py      :     0.000000
      dz2     :     0.000000  d :    -0.000000
      dxz     :    -0.000000
      dyz     :     0.000000
      dx2y2   :    -0.000000
      dxy     :    -0.000000
      f0      :     0.000000  f :    -0.000000
      f+1     :    -0.000000
      f-1     :     0.000000
      f+2     :     0.000000
      f-2     :     0.000000
      f+3     :    -0.000000
      f-3     :     0.000000
      g0      :     0.000000  g :     0.000000
      g+1     :    -0.000000
      g-1     :     0.000000
      g+2     :     0.000000
      g-2     :     0.000000
      g+3     :    -0.000000
      g-3     :     0.000000
      g+4     :     0.000000
      g-4     :    -0.000000
  1 H s       :    -0.000000  s :    -0.000000
      pz      :     0.000000  p :     0.000000
      px      :     0.000000
      py      :     0.000000
      dz2     :    -0.000000  d :     0.000000
      dxz     :     0.000000
      dyz     :     0.000000
      dx2y2   :    -0.000000
      dxy     :     0.000000
      f0      :     0.000000  f :     0.000000
      f+1     :     0.000000
      f-1     :     0.000000
      f+2     :     0.000000
      f-2     :     0.000000
      f+3     :     0.000000
      f-3     :     0.000000


                      *****************************
                      * MAYER POPULATION ANALYSIS *
                      *****************************

  NA   - Mulliken gross atomic population
  ZA   - Total nuclear charge
  QA   - Mulliken gross atomic charge
  VA   - Mayer's total valence
  BVA  - Mayer's bonded valence
  FA   - Mayer's free valence

  ATOM       NA         ZA         QA         VA         BVA        FA
  0 B      4.8768     5.0000     0.1232     1.2374     0.8668     0.3705
  1 H      1.1232     1.0000    -0.1232     0.9838     0.8668     0.1170

  Mayer bond orders larger than 0.100000
B(  0-B ,  1-H ) :   0.8668 



------------------------------------------------------------------------------- 
                                     TIMINGS                                   
------------------------------------------------------------------------------- 


Total execution time                   ...       55.981 sec

Fock Matrix Formation                  ...        1.353 sec (  2.4%)
Initial Guess                          ...        0.000 sec (  0.0%)
DIIS Solver                            ...        0.101 sec (  0.2%)
State Vector Update                    ...        0.005 sec (  0.0%)
Sigma-vector construction              ...       45.346 sec ( 81.0%)
  <0|H|D>                              ...        0.008 sec (  0.0% of sigma)
  <D|H|D>(0-ext Fock)                  ...        0.010 sec (  0.0% of sigma)
  <D|H|D>(0-ext)                       ...        0.009 sec (  0.0% of sigma)
  <D|H|D>(2-ext Fock)                  ...        0.021 sec (  0.0% of sigma)
  <D|H|D>(2-ext)                       ...        0.153 sec (  0.3% of sigma)
  <D|H|D>(4-ext)                       ...       11.896 sec ( 26.2% of sigma)
  <S|H|D>(1-ext)                       ...        0.004 sec (  0.0% of sigma)
  <D|H|S>(1-ext)                       ...        0.023 sec (  0.1% of sigma)
  Fock-dressing                        ...       31.100 sec ( 68.6% of sigma)
  (ik|jl)-dressing                     ...        0.011 sec (  0.0% of sigma)
  (ij|ab),(ia|jb)-dressing             ...        1.655 sec (  3.6% of sigma)
  Pair energies                        ...        0.006 sec (  0.0% of sigma)
Total Time for computing (T)           ...        0.615 sec (  1.1% of ALL)
  I/O of integral and amplitudes       ...        0.182 sec ( 29.5% of (T))
  External N**7 contributions          ...        0.163 sec ( 26.5% of (T))
  Internal N**7 contributions          ...        0.023 sec (  3.7% of (T))
  N**6 triples energy contributions    ...        0.191 sec ( 31.1% of (T))


Maximum memory used throughout the entire MDCI-calculation: 397.2 MB

-------------------------   --------------------
FINAL SINGLE POINT ENERGY       -25.227959351777
-------------------------   --------------------


                            ***************************************
                            *     ORCA property calculations      *
                            ***************************************

                                    ---------------------
                                    Active property flags
                                    ---------------------
   (+) Dipole Moment


------------------------------------------------------------------------------
                       ORCA ELECTRIC PROPERTIES CALCULATION
------------------------------------------------------------------------------

Dipole Moment Calculation                       ... on
Quadrupole Moment Calculation                   ... off
Polarizability Calculation                      ... off
GBWName                                         ... /scratch/BH-1.4-UCCSD_T-O_958/BH-1.4-UCCSD_T-O.gbw
Electron density file                           ... /scratch/BH-1.4-UCCSD_T-O_958/BH-1.4-UCCSD_T-O.scfp
The origin for moment calculation is the CENTER OF MASS  = ( 0.225654,  0.000000  0.000000)

-------------
DIPOLE MOMENT
-------------
                                X             Y             Z
Electronic contribution:     -0.97758       0.00000       0.00000
Nuclear contribution   :      1.29169       0.00000       0.00000
                        -----------------------------------------
Total Dipole Moment    :      0.31411       0.00000       0.00000
                        -----------------------------------------
Magnitude (a.u.)       :      0.31411
Magnitude (Debye)      :      0.79840



--------------------
Rotational spectrum 
--------------------
 
Rotational constants in cm-1:     0.000000     9.328216     9.328216 
Rotational constants in MHz :     0.000000 279652.877368 279652.877368 

 Dipole components along the rotational axes: 
x,y,z [a.u.] :     0.314108     0.000000     0.000000 
x,y,z [Debye]:     0.798399     0.000000     0.000000 

 

                           *** MDCI DENSITY ***

------------------------------------------------------------------------------
                       ORCA ELECTRIC PROPERTIES CALCULATION
------------------------------------------------------------------------------

Dipole Moment Calculation                       ... on
Quadrupole Moment Calculation                   ... off
Polarizability Calculation                      ... off
GBWName                                         ... /scratch/BH-1.4-UCCSD_T-O_958/BH-1.4-UCCSD_T-O.gbw
Electron density file                           ... /scratch/BH-1.4-UCCSD_T-O_958/BH-1.4-UCCSD_T-O.mdcip
The origin for moment calculation is the CENTER OF MASS  = ( 0.225654,  0.000000  0.000000)

-------------
DIPOLE MOMENT
-------------
                                X             Y             Z
Electronic contribution:     -0.90435      -0.00000      -0.00000
Nuclear contribution   :      1.29169       0.00000       0.00000
                        -----------------------------------------
Total Dipole Moment    :      0.38735      -0.00000      -0.00000
                        -----------------------------------------
Magnitude (a.u.)       :      0.38735
Magnitude (Debye)      :      0.98455



--------------------
Rotational spectrum 
--------------------
 
Rotational constants in cm-1:     0.000000     9.328216     9.328216 
Rotational constants in MHz :     0.000000 279652.877368 279652.877368 

 Dipole components along the rotational axes: 
x,y,z [a.u.] :     0.387345    -0.000000    -0.000000 
x,y,z [Debye]:     0.984553    -0.000000    -0.000000 

 

Timings for individual modules:

Sum of individual times         ...       58.250 sec (=   0.971 min)
GTO integral calculation        ...        0.137 sec (=   0.002 min)   0.2 %
SCF iterations                  ...        1.952 sec (=   0.033 min)   3.4 %
MDCI module                     ...       56.161 sec (=   0.936 min)  96.4 %
                             ****ORCA TERMINATED NORMALLY****
TOTAL RUN TIME: 0 days 0 hours 0 minutes 58 seconds 382 msec

Sender: Unischeduler System <lcz@mgt01>
Subject: Job 134441: <#!/bin/bash
#BSUB -J intel
#BSUB -o BH-1.4-UCCSD_T-O.out
#BSUB -n 1
#BSUB -q cqueue
export LD_LIBRARY_PATH=/apps/software/openmpi-4.1.1/lib:/apps/software/orca_5_0_0:$LD_LIBRARY_PATH
export PATH=/apps/software/openmpi-4.1.1/bin:/apps/software/orca_5_0_0:$PATH
mkdir /scratch/BH-1.4-UCCSD_T-O_958
scp $USER@mgt01:/apps/users/lcz/exe13/UCCSD_T/BH-1.4-UCCSD_T-O.inp /scratch/BH-1.4-UCCSD_T-O_958
scp $USER@mgt01:/apps/users/lcz/exe13/UCCSD_T/BH-1.4-UHF-O.gbw /scratch/BH-1.4-UCCSD_T-O_958
/apps/software/orca_5_0_0/orca /scratch/BH-1.4-UCCSD_T-O_958/BH-1.4-UCCSD_T-O.inp >& BH-1.4-UCCSD_T-O.out
scp /scratch/BH-1.4-UCCSD_T-O_958/*.gbw $USER@mgt01:/apps/users/lcz/exe13/UCCSD_T
scp /scratch/BH-1.4-UCCSD_T-O_958/*.xyz $USER@mgt01:/apps/users/lcz/exe13/UCCSD_T
scp /scratch/BH-1.4-UCCSD_T-O_958/*.trj $USER@mgt01:/apps/users/lcz/exe13/UCCSD_T> Exited

Job <#!/bin/bash
#BSUB -J intel
#BSUB -o BH-1.4-UCCSD_T-O.out
#BSUB -n 1
#BSUB -q cqueue
export LD_LIBRARY_PATH=/apps/software/openmpi-4.1.1/lib:/apps/software/orca_5_0_0:$LD_LIBRARY_PATH
export PATH=/apps/software/openmpi-4.1.1/bin:/apps/software/orca_5_0_0:$PATH
mkdir /scratch/BH-1.4-UCCSD_T-O_958
scp $USER@mgt01:/apps/users/lcz/exe13/UCCSD_T/BH-1.4-UCCSD_T-O.inp /scratch/BH-1.4-UCCSD_T-O_958
scp $USER@mgt01:/apps/users/lcz/exe13/UCCSD_T/BH-1.4-UHF-O.gbw /scratch/BH-1.4-UCCSD_T-O_958
/apps/software/orca_5_0_0/orca /scratch/BH-1.4-UCCSD_T-O_958/BH-1.4-UCCSD_T-O.inp >& BH-1.4-UCCSD_T-O.out
scp /scratch/BH-1.4-UCCSD_T-O_958/*.gbw $USER@mgt01:/apps/users/lcz/exe13/UCCSD_T
scp /scratch/BH-1.4-UCCSD_T-O_958/*.xyz $USER@mgt01:/apps/users/lcz/exe13/UCCSD_T
scp /scratch/BH-1.4-UCCSD_T-O_958/*.trj $USER@mgt01:/apps/users/lcz/exe13/UCCSD_T> was submitted from host <mgt01> by user <lcz>.
Job was executed on host(s) <1*cnode03>, in queue <cqueue>, as user <lcz>.
</apps/users/lcz> was used as the home directory.
</apps/users/lcz/exe13/UCCSD_T> was used as the working directory.
Started at 2022-05-22 21:54:48
Results reported at 2022-05-22 21:55:48

Your job looked like:

------------------------------------------------------------
# User input
#!/bin/bash
#BSUB -J intel
#BSUB -o BH-1.4-UCCSD_T-O.out
#BSUB -n 1
#BSUB -q cqueue
export LD_LIBRARY_PATH=/apps/software/openmpi-4.1.1/lib:/apps/software/orca_5_0_0:$LD_LIBRARY_PATH
export PATH=/apps/software/openmpi-4.1.1/bin:/apps/software/orca_5_0_0:$PATH
mkdir /scratch/BH-1.4-UCCSD_T-O_958
scp $USER@mgt01:/apps/users/lcz/exe13/UCCSD_T/BH-1.4-UCCSD_T-O.inp /scratch/BH-1.4-UCCSD_T-O_958
scp $USER@mgt01:/apps/users/lcz/exe13/UCCSD_T/BH-1.4-UHF-O.gbw /scratch/BH-1.4-UCCSD_T-O_958
/apps/software/orca_5_0_0/orca /scratch/BH-1.4-UCCSD_T-O_958/BH-1.4-UCCSD_T-O.inp >& BH-1.4-UCCSD_T-O.out
scp /scratch/BH-1.4-UCCSD_T-O_958/*.gbw $USER@mgt01:/apps/users/lcz/exe13/UCCSD_T
scp /scratch/BH-1.4-UCCSD_T-O_958/*.xyz $USER@mgt01:/apps/users/lcz/exe13/UCCSD_T
scp /scratch/BH-1.4-UCCSD_T-O_958/*.trj $USER@mgt01:/apps/users/lcz/exe13/UCCSD_T
------------------------------------------------------------

Exited with exit code 1.

Resource usage summary:

    CPU time   :           53.91 sec.
    Max Memory :               499 MB
    Max Processes  :               5


The output (if any) follows:

/scratch/BH-1.4-UCCSD_T-O_958/*.xyz: No such file or directory
/scratch/BH-1.4-UCCSD_T-O_958/*.trj: No such file or directory
