
                                        *****************
                                        * O   R   C   A *
                                        *****************

                                            #,                                       
                                            ###                                      
                                            ####                                     
                                            #####                                    
                                            ######                                   
                                           ########,                                 
                                     ,,################,,,,,                         
                               ,,#################################,,                 
                          ,,##########################################,,             
                       ,#########################################, ''#####,          
                    ,#############################################,,   '####,        
                  ,##################################################,,,,####,       
                ,###########''''           ''''###############################       
              ,#####''   ,,,,##########,,,,          '''####'''          '####       
            ,##' ,,,,###########################,,,                        '##       
           ' ,,###''''                  '''############,,,                           
         ,,##''                                '''############,,,,        ,,,,,,###''
      ,#''                                            '''#######################'''  
     '                                                          ''''####''''         
             ,#######,   #######,   ,#######,      ##                                
            ,#'     '#,  ##    ##  ,#'     '#,    #''#        ######   ,####,        
            ##       ##  ##   ,#'  ##            #'  '#       #        #'  '#        
            ##       ##  #######   ##           ,######,      #####,   #    #        
            '#,     ,#'  ##    ##  '#,     ,#' ,#      #,         ##   #,  ,#        
             '#######'   ##     ##  '#######'  #'      '#     #####' # '####'        



                  #######################################################
                  #                        -***-                        #
                  #          Department of theory and spectroscopy      #
                  #    Directorship and core code : Frank Neese         #
                  #        Max Planck Institute fuer Kohlenforschung    #
                  #                Kaiser Wilhelm Platz 1               #
                  #                 D-45470 Muelheim/Ruhr               #
                  #                      Germany                        #
                  #                                                     #
                  #                  All rights reserved                #
                  #                        -***-                        #
                  #######################################################


                         Program Version 5.0.0 -  RELEASE  -
                                (SVN: $Rev: 19529$)
                ($Date: 2021-06-28 11:36:33 +0200 (Mo, 28 Jun 2021) $)


 With contributions from (in alphabetic order):
   Daniel Aravena         : Magnetic Suceptibility
   Michael Atanasov       : Ab Initio Ligand Field Theory (pilot matlab implementation)
   Alexander A. Auer      : GIAO ZORA, VPT2 properties, NMR spectrum
   Ute Becker             : Parallelization
   Giovanni Bistoni       : ED, misc. LED, open-shell LED, HFLD
   Martin Brehm           : Molecular dynamics
   Dmytro Bykov           : SCF Hessian
   Vijay G. Chilkuri      : MRCI spin determinant printing, contributions to CSF-ICE
   Dipayan Datta          : RHF DLPNO-CCSD density
   Achintya Kumar Dutta   : EOM-CC, STEOM-CC
   Dmitry Ganyushin       : Spin-Orbit,Spin-Spin,Magnetic field MRCI
   Miquel Garcia          : C-PCM Hessian, Gaussian charge scheme
   Yang Guo               : DLPNO-NEVPT2, F12-NEVPT2, CIM, IAO-localization
   Andreas Hansen         : Spin unrestricted coupled pair/coupled cluster methods
   Benjamin Helmich-Paris : MC-RPA, TRAH-SCF, COSX integrals
   Lee Huntington         : MR-EOM, pCC
   Robert Izsak           : Overlap fitted RIJCOSX, COSX-SCS-MP3, EOM
   Marcus Kettner         : VPT2
   Christian Kollmar      : KDIIS, OOCD, Brueckner-CCSD(T), CCSD density, CASPT2, CASPT2-K
   Simone Kossmann        : Meta GGA functionals, TD-DFT gradient, OOMP2, MP2 Hessian
   Martin Krupicka        : Initial AUTO-CI
   Lucas Lang             : DCDCAS
   Marvin Lechner         : AUTO-CI (C++ implementation), FIC-MRCC
   Dagmar Lenk            : GEPOL surface, SMD
   Dimitrios Liakos       : Extrapolation schemes; Compound Job, initial MDCI parallelization
   Dimitrios Manganas     : Further ROCIS development; embedding schemes
   Dimitrios Pantazis     : SARC Basis sets
   Anastasios Papadopoulos: AUTO-CI, single reference methods and gradients
   Taras Petrenko         : DFT Hessian,TD-DFT gradient, ASA, ECA, R-Raman, ABS, FL, XAS/XES, NRVS
   Peter Pinski           : DLPNO-MP2, DLPNO-MP2 Gradient
   Christoph Reimann      : Effective Core Potentials
   Marius Retegan         : Local ZFS, SOC
   Christoph Riplinger    : Optimizer, TS searches, QM/MM, DLPNO-CCSD(T), (RO)-DLPNO pert. Triples
   Tobias Risthaus        : Range-separated hybrids, TD-DFT gradient, RPA, STAB
   Michael Roemelt        : Original ROCIS implementation
   Masaaki Saitow         : Open-shell DLPNO-CCSD energy and density
   Barbara Sandhoefer     : DKH picture change effects
   Avijit Sen             : IP-ROCIS
   Kantharuban Sivalingam : CASSCF convergence, NEVPT2, FIC-MRCI
   Bernardo de Souza      : ESD, SOC TD-DFT
   Georgi Stoychev        : AutoAux, RI-MP2 NMR
   Willem Van den Heuvel  : Paramagnetic NMR
   Boris Wezisla          : Elementary symmetry handling
   Frank Wennmohs         : Technical directorship


 We gratefully acknowledge several colleagues who have allowed us to
 interface, adapt or use parts of their codes:
   Stefan Grimme, W. Hujo, H. Kruse, P. Pracht,  : VdW corrections, initial TS optimization,
                  C. Bannwarth, S. Ehlert          DFT functionals, gCP, sTDA/sTD-DF
   Ed Valeev, F. Pavosevic, A. Kumar             : LibInt (2-el integral package), F12 methods
   Garnet Chan, S. Sharma, J. Yang, R. Olivares  : DMRG
   Ulf Ekstrom                                   : XCFun DFT Library
   Mihaly Kallay                                 : mrcc  (arbitrary order and MRCC methods)
   Jiri Pittner, Ondrej Demel                    : Mk-CCSD
   Frank Weinhold                                : gennbo (NPA and NBO analysis)
   Christopher J. Cramer and Donald G. Truhlar   : smd solvation model
   Lars Goerigk                                  : TD-DFT with DH, B97 family of functionals
   V. Asgeirsson, H. Jonsson                     : NEB implementation
   FAccTs GmbH                                   : IRC, NEB, NEB-TS, DLPNO-Multilevel, CI-OPT
                                                   MM, QMMM, 2- and 3-layer-ONIOM, Crystal-QMMM,
                                                   LR-CPCM, SF, NACMEs, symmetry and pop. for TD-DFT,
                                                   nearIR, NL-DFT gradient (VV10), updates on ESD,
                                                   ML-optimized integration grids
   S Lehtola, MJT Oliveira, MAL Marques          : LibXC Library
   Liviu Ungur et al                             : ANISO software


 Your calculation uses the libint2 library for the computation of 2-el integrals
 For citations please refer to: http://libint.valeyev.net

 Your ORCA version has been built with support for libXC version: 5.1.0
 For citations please refer to: https://tddft.org/programs/libxc/

 This ORCA versions uses:
   CBLAS   interface :  Fast vector & matrix operations
   LAPACKE interface :  Fast linear algebra routines
   SCALAPACK package :  Parallel linear algebra routines
   Shared memory     :  Shared parallel matrices
   BLAS/LAPACK       :  OpenBLAS 0.3.15  USE64BITINT DYNAMIC_ARCH NO_AFFINITY SkylakeX SINGLE_THREADED
        Core in use  :  SkylakeX
   Copyright (c) 2011-2014, The OpenBLAS Project


================================================================================

----- Orbital basis set information -----
Your calculation utilizes the basis: aug-cc-pVQZ 
    H, B-Ne : Obtained from the ccRepo (grant-hill.group.shef.ac.uk/ccrepo) Feb. 2017
              R. A. Kendall, T. H. Dunning, Jr., R. J. Harrison, J. Chem. Phys. 96, 6796 (1992)
         He : Obtained from the ccRepo (grant-hill.group.shef.ac.uk/ccrepo) Feb. 2017
              D. E. Woon, T. H. Dunning, Jr., J. Chem. Phys. 100, 2975 (1994)
  Li-Be, Na : Obtained from the ccRepo (grant-hill.group.shef.ac.uk/ccrepo) Feb. 2017
              B. P. Prascher, D. E. Woon, K. A. Peterson, T. H. Dunning, Jr., A. K. Wilson, Theor. Chem. Acc. 128, 69 (2011)
         Mg : Obtained from the Peterson Research Group Website (tyr0.chem.wsu.edu/~kipeters) Feb. 2017
              B. P. Prascher, D. E. Woon, K. A. Peterson, T. H. Dunning, Jr., A. K. Wilson, Theor. Chem. Acc. 128, 69 (2011)
      Al-Ar : Obtained from the ccRepo (grant-hill.group.shef.ac.uk/ccrepo) Feb. 2017
              D. E. Woon, T. H. Dunning, Jr., J. Chem. Phys. 98, 1358 (1993)
      Sc-Zn : Obtained from the ccRepo (grant-hill.group.shef.ac.uk/ccrepo) Feb. 2017
              N. B. Balabanov, K. A. Peterson, J. Chem. Phys. 123, 064107 (2005)
              N. B. Balabanov, K. A. Peterson, J. Chem. Phys. 125, 074110 (2006)
      Ga-Kr : Obtained from the ccRepo (grant-hill.group.shef.ac.uk/ccrepo) Feb. 2017
              A. K. Wilson, D. E. Woon, K. A. Peterson, T. H. Dunning, Jr., J. Chem. Phys. 110, 7667 (1999)

================================================================================
                                        WARNINGS
                       Please study these warnings very carefully!
================================================================================


WARNING: Post HF methods need fully converged wavefunctions
  ===> : Setting SCFConvForced true
         You can overwrite this default with %scf ConvForced false 


WARNING: MDCI localization with Augmented Hessian Foster-Boys
  ===> : Switching off randomization!

INFO   : the flag for use of the SHARK integral package has been found!

================================================================================
                                       INPUT FILE
================================================================================
NAME = /scratch/BH-1.3-UCCSD_T-O_243/BH-1.3-UCCSD_T-O.inp
|  1> ! UHF CCSD(T) aug-cc-pVQZ VeryTightSCF MOread
|  2> 
|  3> %moinp "BH-1.3-UHF-O.gbw"
|  4> 
|  5> *xyz 0 1
|  6>  B	0.0	0.0	0.0
|  7>  H	1.3	0.0	0.0
|  8> **                         ****END OF INPUT****
================================================================================

                       ****************************
                       * Single Point Calculation *
                       ****************************

---------------------------------
CARTESIAN COORDINATES (ANGSTROEM)
---------------------------------
  B      0.000000    0.000000    0.000000
  H      1.300000    0.000000    0.000000

----------------------------
CARTESIAN COORDINATES (A.U.)
----------------------------
  NO LB      ZA    FRAG     MASS         X           Y           Z
   0 B     5.0000    0    10.810    0.000000    0.000000    0.000000
   1 H     1.0000    0     1.008    2.456644    0.000000    0.000000

--------------------------------
INTERNAL COORDINATES (ANGSTROEM)
--------------------------------
 B      0   0   0     0.000000000000     0.00000000     0.00000000
 H      1   0   0     1.300000000000     0.00000000     0.00000000

---------------------------
INTERNAL COORDINATES (A.U.)
---------------------------
 B      0   0   0     0.000000000000     0.00000000     0.00000000
 H      1   0   0     2.456643974098     0.00000000     0.00000000

---------------------
BASIS SET INFORMATION
---------------------
There are 2 groups of distinct atoms

 Group   1 Type B   : 22s7p4d3f2g contracted to 6s5p4d3f2g pattern {991111/31111/1111/111/11}
 Group   2 Type H   : 7s4p3d2f contracted to 5s4p3d2f pattern {31111/1111/111/11}

Atom   0B    basis set group =>   1
Atom   1H    basis set group =>   2
------------------------------------------------------------------------------
                           ORCA GTO INTEGRAL CALCULATION
------------------------------------------------------------------------------
------------------------------------------------------------------------------
                   ___                                                        
                  /   \      - P O W E R E D   B Y -                         
                 /     \                                                     
                 |  |  |   _    _      __       _____    __    __             
                 |  |  |  | |  | |    /  \     |  _  \  |  |  /  |          
                  \  \/   | |  | |   /    \    | | | |  |  | /  /          
                 / \  \   | |__| |  /  /\  \   | |_| |  |  |/  /          
                |  |  |   |  __  | /  /__\  \  |    /   |      \           
                |  |  |   | |  | | |   __   |  |    \   |  |\   \          
                \     /   | |  | | |  |  |  |  | |\  \  |  | \   \       
                 \___/    |_|  |_| |__|  |__|  |_| \__\ |__|  \__/        
                                                                              
                      - O R C A' S   B I G   F R I E N D -                    
                                      &                                       
                       - I N T E G R A L  F E E D E R -                       
                                                                              
 v1 FN, 2020, v2 2021                                                         
------------------------------------------------------------------------------


Reading SHARK input file /scratch/BH-1.3-UCCSD_T-O_243/BH-1.3-UCCSD_T-O.SHARKINP.tmp ... ok
----------------------
SHARK INTEGRAL PACKAGE
----------------------

Number of atoms                             ...      2
Number of basis functions                   ...    126
Number of shells                            ...     34
Maximum angular momentum                    ...      4
Integral batch strategy                     ... SHARK/LIBINT Hybrid
RI-J (if used) integral strategy            ... SPLIT-RIJ (Revised 2003 algorithm where possible)
Printlevel                                  ...      1
Contraction scheme used                     ... SEGMENTED contraction
Coulomb Range Separation                    ... NOT USED
Exchange Range Separation                   ... NOT USED
Finite Nucleus Model                        ... NOT USED
Auxiliary Coulomb fitting basis             ... NOT available
Auxiliary J/K fitting basis                 ... NOT available
Auxiliary Correlation fitting basis         ... NOT available
Auxiliary 'external' fitting basis          ... NOT available
Integral threshold                          ...     1.000000e-12
Primitive cut-off                           ...     1.000000e-14
Primitive pair pre-selection threshold      ...     1.000000e-14

Calculating pre-screening integrals         ... done (  0.1 sec) Dimension = 34
Organizing shell pair data                  ... done (  0.0 sec)
Shell pair information
Total number of shell pairs                 ...       595
Shell pairs after pre-screening             ...       595
Total number of primitive shell pairs       ...      1563
Primitive shell pairs kept                  ...      1535
          la=0 lb=0:     66 shell pairs
          la=1 lb=0:     99 shell pairs
          la=1 lb=1:     45 shell pairs
          la=2 lb=0:     77 shell pairs
          la=2 lb=1:     63 shell pairs
          la=2 lb=2:     28 shell pairs
          la=3 lb=0:     55 shell pairs
          la=3 lb=1:     45 shell pairs
          la=3 lb=2:     35 shell pairs
          la=3 lb=3:     15 shell pairs
          la=4 lb=0:     22 shell pairs
          la=4 lb=1:     18 shell pairs
          la=4 lb=2:     14 shell pairs
          la=4 lb=3:     10 shell pairs
          la=4 lb=4:      3 shell pairs

Calculating one electron integrals          ... done (  0.0 sec)
Calculating Nuclear repulsion               ... done (  0.0 sec) ENN=      2.035296955000 Eh

SHARK setup successfully completed in   0.1 seconds

Maximum memory used throughout the entire GTOINT-calculation: 33.3 MB
-------------------------------------------------------------------------------
                                 ORCA SCF
-------------------------------------------------------------------------------

------------
SCF SETTINGS
------------
Hamiltonian:
 Ab initio Hamiltonian  Method          .... Hartree-Fock(GTOs)


General Settings:
 Integral files         IntName         .... /scratch/BH-1.3-UCCSD_T-O_243/BH-1.3-UCCSD_T-O
 Hartree-Fock type      HFTyp           .... UHF
 Total Charge           Charge          ....    0
 Multiplicity           Mult            ....    1
 Number of Electrons    NEL             ....    6
 Basis Dimension        Dim             ....  126
 Nuclear Repulsion      ENuc            ....      2.0352969550 Eh

Convergence Acceleration:
 DIIS                   CNVDIIS         .... on
   Start iteration      DIISMaxIt       ....    12
   Startup error        DIISStart       ....  0.200000
   # of expansion vecs  DIISMaxEq       ....     5
   Bias factor          DIISBfac        ....   1.050
   Max. coefficient     DIISMaxC        ....  10.000
 Trust-Rad. Augm. Hess. CNVTRAH         .... auto
   Auto Start mean grad. ratio tolernc. ....  1.125000
   Auto Start start iteration           ....     1
   Auto Start num. interpolation iter.  ....    10
   Max. Number of Micro iterations      ....    16
   Max. Number of Macro iterations      .... Maxiter - #DIIS iter
   Number of Davidson start vectors     ....     2
   Converg. threshold I  (grad. norm)   ....   2.000e-06
   Converg. threshold II (energy diff.) ....   1.000e-09
   Grad. Scal. Fac. for Micro threshold ....   0.100
   Minimum threshold for Micro iter.    ....   0.010
   NR start threshold (gradient norm)   ....   0.001
   Initial trust radius                 ....   0.400
   Minimum AH scaling param. (alpha)    ....   1.000
   Maximum AH scaling param. (alpha)    .... 1000.000
   Orbital update algorithm             .... Taylor
   White noise on init. David. guess    .... on
   Maximum white noise                  ....   0.010
   Quad. conv. algorithm                .... NR
 SOSCF                  CNVSOSCF        .... off
 Level Shifting         CNVShift        .... on
   Level shift para.    LevelShift      ....    0.2500
   Turn off err/grad.   ShiftErr        ....    0.0010
 Zerner damping         CNVZerner       .... off
 Static damping         CNVDamp         .... on
   Fraction old density DampFac         ....    0.7000
   Max. Damping (<1)    DampMax         ....    0.9800
   Min. Damping (>=0)   DampMin         ....    0.0000
   Turn off err/grad.   DampErr         ....    0.1000
 Fernandez-Rico         CNVRico         .... off

SCF Procedure:
 Maximum # iterations   MaxIter         ....   125
 SCF integral mode      SCFMode         .... Direct
   Integral package                     .... SHARK and LIBINT hybrid scheme
 Reset frequency        DirectResetFreq ....    20
 Integral Threshold     Thresh          ....  1.000e-12 Eh
 Primitive CutOff       TCut            ....  1.000e-14 Eh

Convergence Tolerance:
 Convergence Check Mode ConvCheckMode   .... Total+1el-Energy
 Convergence forced     ConvForced      .... 1
 Energy Change          TolE            ....  1.000e-09 Eh
 1-El. energy change                    ....  1.000e-06 Eh
 DIIS Error             TolErr          ....  1.000e-08


Diagonalization of the overlap matrix:
Smallest eigenvalue                        ... 1.362e-04
Time for diagonalization                   ...    0.002 sec
Threshold for overlap eigenvalues          ... 1.000e-08
Number of eigenvalues below threshold      ... 0
Time for construction of square roots      ...    0.000 sec
Total time needed                          ...    0.002 sec

---------------------
INITIAL GUESS: MOREAD
---------------------
Guess MOs are being read from file: BH-1.3-UHF-O.gbw
Input Geometry matches current geometry (good)
Input basis set matches current basis set (good)
MOs were renormalized
MOs were reorthogonalized (Cholesky)
                      ------------------
                      INITIAL GUESS DONE (   0.0 sec)
                      ------------------
--------------
SCF ITERATIONS
--------------
ITER       Energy         Delta-E        Max-DP      RMS-DP      [F,P]     Damp
               ***  Starting incremental Fock matrix formation  ***
  0    -25.1352451448   0.000000000000 0.00000000  0.00000000  0.0000000 0.7000
                 **** Energy Check signals convergence ****

               *****************************************************
               *                     SUCCESS                       *
               *           SCF CONVERGED AFTER   1 CYCLES          *
               *****************************************************


----------------
TOTAL SCF ENERGY
----------------

Total Energy       :          -25.13524514 Eh            -683.96479 eV

Components:
Nuclear Repulsion  :            2.03529696 Eh              55.38325 eV
Electronic Energy  :          -27.17054210 Eh            -739.34804 eV
One Electron Energy:          -36.97997398 Eh           -1006.27625 eV
Two Electron Energy:            9.80943188 Eh             266.92821 eV

Virial components:
Potential Energy   :          -50.19379272 Eh           -1365.84254 eV
Kinetic Energy     :           25.05854758 Eh             681.87775 eV
Virial Ratio       :            2.00306073


---------------
SCF CONVERGENCE
---------------

  Last Energy change         ...   -2.0250e-12  Tolerance :   1.0000e-09
  Last MAX-Density change    ...    1.0127e-09  Tolerance :   1.0000e-08
  Last RMS-Density change    ...    2.5722e-11  Tolerance :   1.0000e-09
  Last DIIS Error            ...    1.8931e-09  Tolerance :   1.0000e-08

             **** THE GBW FILE WAS UPDATED (/scratch/BH-1.3-UCCSD_T-O_243/BH-1.3-UCCSD_T-O.gbw) ****
             **** DENSITY /scratch/BH-1.3-UCCSD_T-O_243/BH-1.3-UCCSD_T-O.scfp WAS UPDATED ****
             **** ENERGY FILE WAS UPDATED (/scratch/BH-1.3-UCCSD_T-O_243/BH-1.3-UCCSD_T-O.en.tmp) ****
----------------------
UHF SPIN CONTAMINATION
----------------------

Expectation value of <S**2>     :     0.461488
Ideal value S*(S+1) for S=0.0   :     0.000000
Deviation                       :     0.461488

             **** THE GBW FILE WAS UPDATED (/scratch/BH-1.3-UCCSD_T-O_243/BH-1.3-UCCSD_T-O.gbw) ****
             **** DENSITY /scratch/BH-1.3-UCCSD_T-O_243/BH-1.3-UCCSD_T-O.scfp WAS UPDATED ****
----------------
ORBITAL ENERGIES
----------------
                 SPIN UP ORBITALS
  NO   OCC          E(Eh)            E(eV) 
   0   1.0000      -7.684686      -209.1109 
   1   1.0000      -0.625387       -17.0176 
   2   1.0000      -0.370482       -10.0813 
   3   0.0000       0.025282         0.6879 
   4   0.0000       0.029431         0.8009 
   5   0.0000       0.033597         0.9142 
   6   0.0000       0.045137         1.2282 
   7   0.0000       0.080397         2.1877 
   8   0.0000       0.086055         2.3417 
   9   0.0000       0.113039         3.0759 
  10   0.0000       0.135043         3.6747 
  11   0.0000       0.136667         3.7189 
  12   0.0000       0.146346         3.9823 
  13   0.0000       0.146398         3.9837 
  14   0.0000       0.150249         4.0885 
  15   0.0000       0.191998         5.2245 
  16   0.0000       0.259868         7.0714 
  17   0.0000       0.273482         7.4418 
  18   0.0000       0.274810         7.4780 
  19   0.0000       0.314080         8.5465 
  20   0.0000       0.315670         8.5898 
  21   0.0000       0.392108        10.6698 
  22   0.0000       0.408389        11.1128 
  23   0.0000       0.457119        12.4388 
  24   0.0000       0.457120        12.4389 
  25   0.0000       0.462848        12.5947 
  26   0.0000       0.462856        12.5949 
  27   0.0000       0.477555        12.9949 
  28   0.0000       0.480977        13.0880 
  29   0.0000       0.502868        13.6837 
  30   0.0000       0.503089        13.6898 
  31   0.0000       0.536351        14.5949 
  32   0.0000       0.538382        14.6501 
  33   0.0000       0.585868        15.9423 
  34   0.0000       0.588742        16.0205 
  35   0.0000       0.749238        20.3878 
  36   0.0000       0.783219        21.3125 
  37   0.0000       0.785174        21.3657 
  38   0.0000       0.806646        21.9499 
  39   0.0000       0.806691        21.9512 
  40   0.0000       0.837061        22.7776 
  41   0.0000       1.027450        27.9583 
  42   0.0000       1.027899        27.9706 
  43   0.0000       1.141237        31.0546 
  44   0.0000       1.198077        32.6013 
  45   0.0000       1.201625        32.6979 
  46   0.0000       1.352967        36.8161 
  47   0.0000       1.371083        37.3091 
  48   0.0000       1.371083        37.3091 
  49   0.0000       1.373384        37.3717 
  50   0.0000       1.373384        37.3717 
  51   0.0000       1.389121        37.7999 
  52   0.0000       1.389262        37.8037 
  53   0.0000       1.435024        39.0490 
  54   0.0000       1.436989        39.1025 
  55   0.0000       1.440906        39.2090 
  56   0.0000       1.443107        39.2689 
  57   0.0000       1.446703        39.3668 
  58   0.0000       1.459549        39.7164 
  59   0.0000       1.460658        39.7465 
  60   0.0000       1.543068        41.9890 
  61   0.0000       1.572384        42.7868 
  62   0.0000       1.578402        42.9505 
  63   0.0000       1.621194        44.1149 
  64   0.0000       1.621312        44.1181 
  65   0.0000       1.707862        46.4733 
  66   0.0000       1.854486        50.4631 
  67   0.0000       1.857798        50.5533 
  68   0.0000       1.874586        51.0101 
  69   0.0000       1.874598        51.0104 
  70   0.0000       1.929868        52.5144 
  71   0.0000       2.079519        56.5866 
  72   0.0000       2.079529        56.5869 
  73   0.0000       2.206942        60.0540 
  74   0.0000       2.211460        60.1769 
  75   0.0000       2.306334        62.7585 
  76   0.0000       2.492691        67.8296 
  77   0.0000       2.991558        81.4044 
  78   0.0000       2.991574        81.4049 
  79   0.0000       3.064690        83.3944 
  80   0.0000       3.067945        83.4830 
  81   0.0000       3.269212        88.9598 
  82   0.0000       3.272863        89.0591 
  83   0.0000       3.302082        89.8542 
  84   0.0000       3.444732        93.7359 
  85   0.0000       3.921457       106.7083 
  86   0.0000       3.925456       106.8171 
  87   0.0000       3.925456       106.8171 
  88   0.0000       3.929524       106.9278 
  89   0.0000       3.940009       107.2131 
  90   0.0000       3.940018       107.2133 
  91   0.0000       3.999713       108.8377 
  92   0.0000       3.999754       108.8388 
  93   0.0000       4.098336       111.5214 
  94   0.0000       4.098395       111.5230 
  95   0.0000       4.112489       111.9065 
  96   0.0000       4.113678       111.9389 
  97   0.0000       4.130980       112.4097 
  98   0.0000       4.137938       112.5990 
  99   0.0000       4.146821       112.8407 
 100   0.0000       4.243457       115.4703 
 101   0.0000       4.243587       115.4739 
 102   0.0000       4.293314       116.8270 
 103   0.0000       4.300761       117.0296 
 104   0.0000       4.472923       121.7144 
 105   0.0000       4.925668       134.0342 
 106   0.0000       5.178925       140.9257 
 107   0.0000       5.185294       141.0990 
 108   0.0000       5.546674       150.9327 
 109   0.0000       6.697480       182.2477 
 110   0.0000       6.697480       182.2477 
 111   0.0000       7.102453       193.2676 
 112   0.0000       7.102454       193.2676 
 113   0.0000       7.618875       207.3201 
 114   0.0000       7.648045       208.1139 
 115   0.0000       7.650692       208.1859 
 116   0.0000       8.218566       223.6385 
 117   0.0000       8.727940       237.4993 
 118   0.0000       8.729944       237.5539 
 119   0.0000       8.738923       237.7982 
 120   0.0000       8.738929       237.7984 
 121   0.0000       9.257601       251.9121 
 122   0.0000       9.259159       251.9545 
 123   0.0000       9.483022       258.0462 
 124   0.0000      10.280234       279.7394 
 125   0.0000      15.604662       424.6245 

                 SPIN DOWN ORBITALS
  NO   OCC          E(Eh)            E(eV) 
   0   1.0000      -7.684686      -209.1109 
   1   1.0000      -0.625387       -17.0176 
   2   1.0000      -0.370482       -10.0813 
   3   0.0000       0.025282         0.6879 
   4   0.0000       0.029431         0.8009 
   5   0.0000       0.033597         0.9142 
   6   0.0000       0.045137         1.2282 
   7   0.0000       0.080397         2.1877 
   8   0.0000       0.086055         2.3417 
   9   0.0000       0.113039         3.0759 
  10   0.0000       0.135043         3.6747 
  11   0.0000       0.136667         3.7189 
  12   0.0000       0.146346         3.9823 
  13   0.0000       0.146398         3.9837 
  14   0.0000       0.150249         4.0885 
  15   0.0000       0.191998         5.2245 
  16   0.0000       0.259868         7.0714 
  17   0.0000       0.273482         7.4418 
  18   0.0000       0.274810         7.4780 
  19   0.0000       0.314080         8.5465 
  20   0.0000       0.315670         8.5898 
  21   0.0000       0.392108        10.6698 
  22   0.0000       0.408389        11.1128 
  23   0.0000       0.457119        12.4388 
  24   0.0000       0.457120        12.4389 
  25   0.0000       0.462848        12.5947 
  26   0.0000       0.462856        12.5949 
  27   0.0000       0.477555        12.9949 
  28   0.0000       0.480977        13.0880 
  29   0.0000       0.502868        13.6837 
  30   0.0000       0.503089        13.6898 
  31   0.0000       0.536351        14.5949 
  32   0.0000       0.538382        14.6501 
  33   0.0000       0.585868        15.9423 
  34   0.0000       0.588742        16.0205 
  35   0.0000       0.749238        20.3878 
  36   0.0000       0.783219        21.3125 
  37   0.0000       0.785174        21.3657 
  38   0.0000       0.806646        21.9499 
  39   0.0000       0.806691        21.9512 
  40   0.0000       0.837061        22.7776 
  41   0.0000       1.027450        27.9583 
  42   0.0000       1.027899        27.9706 
  43   0.0000       1.141237        31.0546 
  44   0.0000       1.198077        32.6013 
  45   0.0000       1.201625        32.6979 
  46   0.0000       1.352967        36.8161 
  47   0.0000       1.371083        37.3091 
  48   0.0000       1.371083        37.3091 
  49   0.0000       1.373384        37.3717 
  50   0.0000       1.373384        37.3717 
  51   0.0000       1.389121        37.7999 
  52   0.0000       1.389262        37.8037 
  53   0.0000       1.435024        39.0490 
  54   0.0000       1.436989        39.1025 
  55   0.0000       1.440906        39.2090 
  56   0.0000       1.443107        39.2689 
  57   0.0000       1.446703        39.3668 
  58   0.0000       1.459549        39.7164 
  59   0.0000       1.460658        39.7465 
  60   0.0000       1.543068        41.9890 
  61   0.0000       1.572384        42.7868 
  62   0.0000       1.578402        42.9505 
  63   0.0000       1.621194        44.1149 
  64   0.0000       1.621312        44.1181 
  65   0.0000       1.707862        46.4733 
  66   0.0000       1.854486        50.4631 
  67   0.0000       1.857798        50.5533 
  68   0.0000       1.874586        51.0101 
  69   0.0000       1.874598        51.0104 
  70   0.0000       1.929868        52.5144 
  71   0.0000       2.079519        56.5866 
  72   0.0000       2.079529        56.5869 
  73   0.0000       2.206942        60.0540 
  74   0.0000       2.211460        60.1769 
  75   0.0000       2.306334        62.7585 
  76   0.0000       2.492691        67.8296 
  77   0.0000       2.991558        81.4044 
  78   0.0000       2.991574        81.4049 
  79   0.0000       3.064690        83.3944 
  80   0.0000       3.067945        83.4830 
  81   0.0000       3.269212        88.9598 
  82   0.0000       3.272863        89.0591 
  83   0.0000       3.302082        89.8542 
  84   0.0000       3.444732        93.7359 
  85   0.0000       3.921457       106.7083 
  86   0.0000       3.925456       106.8171 
  87   0.0000       3.925456       106.8171 
  88   0.0000       3.929524       106.9278 
  89   0.0000       3.940009       107.2131 
  90   0.0000       3.940018       107.2133 
  91   0.0000       3.999713       108.8377 
  92   0.0000       3.999754       108.8388 
  93   0.0000       4.098336       111.5214 
  94   0.0000       4.098395       111.5230 
  95   0.0000       4.112489       111.9065 
  96   0.0000       4.113678       111.9389 
  97   0.0000       4.130980       112.4097 
  98   0.0000       4.137938       112.5990 
  99   0.0000       4.146821       112.8407 
 100   0.0000       4.243457       115.4703 
 101   0.0000       4.243587       115.4739 
 102   0.0000       4.293314       116.8270 
 103   0.0000       4.300761       117.0296 
 104   0.0000       4.472923       121.7144 
 105   0.0000       4.925668       134.0342 
 106   0.0000       5.178925       140.9257 
 107   0.0000       5.185294       141.0990 
 108   0.0000       5.546674       150.9327 
 109   0.0000       6.697480       182.2477 
 110   0.0000       6.697480       182.2477 
 111   0.0000       7.102453       193.2676 
 112   0.0000       7.102454       193.2676 
 113   0.0000       7.618875       207.3201 
 114   0.0000       7.648045       208.1139 
 115   0.0000       7.650692       208.1859 
 116   0.0000       8.218566       223.6385 
 117   0.0000       8.727940       237.4993 
 118   0.0000       8.729944       237.5539 
 119   0.0000       8.738923       237.7982 
 120   0.0000       8.738929       237.7984 
 121   0.0000       9.257601       251.9121 
 122   0.0000       9.259159       251.9545 
 123   0.0000       9.483022       258.0462 
 124   0.0000      10.280234       279.7394 
 125   0.0000      15.604662       424.6245 

                    ********************************
                    * MULLIKEN POPULATION ANALYSIS *
                    ********************************

--------------------------------------------
MULLIKEN ATOMIC CHARGES AND SPIN POPULATIONS
--------------------------------------------
   0 B :    0.136208   -0.000000
   1 H :   -0.136208    0.000000
Sum of atomic charges         :    0.0000000
Sum of atomic spin populations:    0.0000000

-----------------------------------------------------
MULLIKEN REDUCED ORBITAL CHARGES AND SPIN POPULATIONS
-----------------------------------------------------
CHARGE
  0 B s       :     3.624629  s :     3.624629
      pz      :     0.249172  p :     1.199734
      px      :     0.938865
      py      :     0.011697
      dz2     :     0.010892  d :     0.037377
      dxz     :     0.002683
      dyz     :     0.000065
      dx2y2   :     0.023611
      dxy     :     0.000126
      f0      :     0.000042  f :     0.001737
      f+1     :     0.000631
      f-1     :     0.000001
      f+2     :     0.000056
      f-2     :     0.000002
      f+3     :     0.001002
      f-3     :     0.000004
      g0      :     0.000048  g :     0.000315
      g+1     :     0.000005
      g-1     :     0.000000
      g+2     :     0.000101
      g-2     :     0.000000
      g+3     :     0.000004
      g-3     :     0.000000
      g+4     :     0.000157
      g-4     :     0.000000
  1 H s       :     1.119527  s :     1.119527
      pz      :     0.002066  p :     0.016010
      px      :     0.013848
      py      :     0.000097
      dz2     :     0.000176  d :     0.000495
      dxz     :    -0.000232
      dyz     :     0.000000
      dx2y2   :     0.000562
      dxy     :    -0.000011
      f0      :     0.000025  f :     0.000176
      f+1     :     0.000037
      f-1     :     0.000000
      f+2     :     0.000040
      f-2     :     0.000000
      f+3     :     0.000071
      f-3     :     0.000003

SPIN
  0 B s       :    -0.000000  s :    -0.000000
      pz      :     0.000000  p :     0.000000
      px      :     0.000000
      py      :     0.000000
      dz2     :    -0.000000  d :    -0.000000
      dxz     :    -0.000000
      dyz     :     0.000000
      dx2y2   :    -0.000000
      dxy     :    -0.000000
      f0      :     0.000000  f :    -0.000000
      f+1     :    -0.000000
      f-1     :    -0.000000
      f+2     :     0.000000
      f-2     :    -0.000000
      f+3     :    -0.000000
      f-3     :     0.000000
      g0      :    -0.000000  g :    -0.000000
      g+1     :     0.000000
      g-1     :     0.000000
      g+2     :    -0.000000
      g-2     :     0.000000
      g+3     :     0.000000
      g-3     :     0.000000
      g+4     :    -0.000000
      g-4     :     0.000000
  1 H s       :     0.000000  s :     0.000000
      pz      :    -0.000000  p :     0.000000
      px      :     0.000000
      py      :    -0.000000
      dz2     :     0.000000  d :     0.000000
      dxz     :    -0.000000
      dyz     :     0.000000
      dx2y2   :     0.000000
      dxy     :    -0.000000
      f0      :    -0.000000  f :     0.000000
      f+1     :     0.000000
      f-1     :    -0.000000
      f+2     :    -0.000000
      f-2     :     0.000000
      f+3     :     0.000000
      f-3     :    -0.000000


                     *******************************
                     * LOEWDIN POPULATION ANALYSIS *
                     *******************************

-------------------------------------------
LOEWDIN ATOMIC CHARGES AND SPIN POPULATIONS
-------------------------------------------
   0 B :    0.469784   -0.000000
   1 H :   -0.469784    0.000000

----------------------------------------------------
LOEWDIN REDUCED ORBITAL CHARGES AND SPIN POPULATIONS
----------------------------------------------------
CHARGE
  0 B s       :     3.121654  s :     3.121654
      pz      :     0.192172  p :     1.310460
      px      :     1.109266
      py      :     0.009021
      dz2     :     0.019714  d :     0.078259
      dxz     :     0.007096
      dyz     :     0.000058
      dx2y2   :     0.051058
      dxy     :     0.000333
      f0      :     0.000048  f :     0.015111
      f+1     :     0.005581
      f-1     :     0.000001
      f+2     :     0.000075
      f-2     :     0.000003
      f+3     :     0.009398
      f-3     :     0.000005
      g0      :     0.000654  g :     0.004733
      g+1     :     0.000032
      g-1     :     0.000000
      g+2     :     0.001455
      g-2     :     0.000000
      g+3     :     0.000025
      g-3     :     0.000000
      g+4     :     0.002564
      g-4     :     0.000002
  1 H s       :     1.006486  s :     1.006486
      pz      :     0.025748  p :     0.320539
      px      :     0.293582
      py      :     0.001209
      dz2     :     0.021045  d :     0.109869
      dxz     :     0.020987
      dyz     :     0.000004
      dx2y2   :     0.066847
      dxy     :     0.000985
      f0      :     0.002886  f :     0.032890
      f+1     :     0.009092
      f-1     :     0.000023
      f+2     :     0.004790
      f-2     :     0.000002
      f+3     :     0.015760
      f-3     :     0.000337

SPIN
  0 B s       :    -0.000000  s :    -0.000000
      pz      :    -0.000000  p :     0.000000
      px      :     0.000000
      py      :     0.000000
      dz2     :    -0.000000  d :    -0.000000
      dxz     :     0.000000
      dyz     :     0.000000
      dx2y2   :    -0.000000
      dxy     :     0.000000
      f0      :    -0.000000  f :    -0.000000
      f+1     :    -0.000000
      f-1     :    -0.000000
      f+2     :    -0.000000
      f-2     :    -0.000000
      f+3     :    -0.000000
      f-3     :    -0.000000
      g0      :    -0.000000  g :    -0.000000
      g+1     :     0.000000
      g-1     :     0.000000
      g+2     :    -0.000000
      g-2     :    -0.000000
      g+3     :     0.000000
      g-3     :    -0.000000
      g+4     :    -0.000000
      g-4     :     0.000000
  1 H s       :     0.000000  s :     0.000000
      pz      :    -0.000000  p :     0.000000
      px      :     0.000000
      py      :    -0.000000
      dz2     :     0.000000  d :     0.000000
      dxz     :    -0.000000
      dyz     :     0.000000
      dx2y2   :     0.000000
      dxy     :     0.000000
      f0      :     0.000000  f :     0.000000
      f+1     :     0.000000
      f-1     :     0.000000
      f+2     :    -0.000000
      f-2     :    -0.000000
      f+3     :     0.000000
      f-3     :    -0.000000


                      *****************************
                      * MAYER POPULATION ANALYSIS *
                      *****************************

  NA   - Mulliken gross atomic population
  ZA   - Total nuclear charge
  QA   - Mulliken gross atomic charge
  VA   - Mayer's total valence
  BVA  - Mayer's bonded valence
  FA   - Mayer's free valence

  ATOM       NA         ZA         QA         VA         BVA        FA
  0 B      4.8638     5.0000     0.1362     1.8071     0.9109     0.8963
  1 H      1.1362     1.0000    -0.1362     0.9164     0.9109     0.0055

  Mayer bond orders larger than 0.100000
B(  0-B ,  1-H ) :   0.9109 

-------
TIMINGS
-------

Total SCF time: 0 days 0 hours 0 min 1 sec 

Total time                  ....       1.605 sec
Sum of individual times     ....       1.482 sec  ( 92.3%)

Fock matrix formation       ....       1.466 sec  ( 91.4%)
Diagonalization             ....       0.007 sec  (  0.4%)
Density matrix formation    ....       0.000 sec  (  0.0%)
Population analysis         ....       0.003 sec  (  0.2%)
Initial guess               ....       0.005 sec  (  0.3%)
Orbital Transformation      ....       0.000 sec  (  0.0%)
Orbital Orthonormalization  ....       0.002 sec  (  0.1%)
DIIS solution               ....       0.001 sec  (  0.1%)

Maximum memory used throughout the entire SCF-calculation: 257.5 MB


------------------------------------------------------------------------------- 
                              ORCA-MATRIX DRIVEN CI                            
------------------------------------------------------------------------------- 

--------------------------------
AUTOMATIC CHOICE OF INCORE LEVEL
--------------------------------

Memory available                           ...    256.00 MB
Memory needed for S+T                      ...      1.04 MB
Memory needed for J+K                      ...      2.08 MB
Memory needed for DIIS                     ...     14.54 MB
Memory needed for 3-ext                    ...     28.39 MB
Memory needed for 4-ext                    ...    880.23 MB
Memory needed for triples                  ...     70.99 MB
 -> Final InCoreLevel    ... 4
 -> check shows that triples correction can be computed


Wavefunction type
-----------------
Correlation treatment                      ...      CCSD     
Single excitations                         ... ON
Orbital optimization                       ... OFF
Calculation of Z vector                    ... OFF
Calculation of Brueckner orbitals          ... OFF
Perturbative triple excitations            ... ON
Calculation of F12 correction              ... OFF
Frozen core treatment                      ... chemical core (2 el)
Reference Wavefunction                     ... UHF
  Alpha-MOs occ    :     1 ...    2 (  2 MO's/  2 electrons)
  Beta-MOs occ     :     1 ...    2 (  2 MO's/  2 electrons)
  Alpha-MOs virt   :     3 ...  125 (123 MO's              )
  Beta-MOs virt    :     3 ...  125 (123 MO's              )
Number of AO's                             ...    126
Number of electrons                        ...      6
Number of correlated electrons             ...      4

Algorithmic settings
--------------------
Integral transformation                    ... AO direct full transformation
K(C) Formation                             ... FULL-MO TRAFO
Maximum number of iterations               ...        50
Convergence tolerance (max. residuum)      ... 1.000e-06
Level shift for amplitude update           ... 2.000e-01
Maximum number of DIIS vectors             ...         7
DIIS turned on at iteration                ...         0
Damping before turning on DIIS             ...     0.500
Damping after turning on DIIS              ...     0.000
Pair specific amplitude update             ... OFF
Natural orbital iterations                 ... OFF
Perturbative natural orbital generation    ... OFF
Printlevel                                 ... 2

Memory handling:
----------------
Maximum memory for working arrays          ...    256 MB
Data storage in matrix containers          ... UNCOMPRESSED
Data type for integral storage             ... DOUBLE
In-Core Storage of quantities:
   Amplitudes+Sigma Vector      ... YES
   J+K operators                ... YES
   DIIS vectors                 ... YES
   3-external integrals         ... YES
   4-external integrals         ... NO


Initializing the integral package          ... done
Warning: reference  - re-canonicalizations have been set to INT 1 VIRT 1

--------------------------
UNRESTRICTED FOCK OPERATOR
--------------------------

Restoring SHARK [2] ... ok
Recanonicalizing the internal orbitals
Recanonicalizing the virtual orbitals
Time needed for Fock operator              ...            1.382 sec
Reference energy                           ...    -25.135245145
Warning: for UHF the TrafoType has to be JK
Warning: for UHF the K(C)-option but must be AOX

-------------------------------
PARTIAL EXCHANGE TRANSFORMATION
-------------------------------

Transformation type                        ... two-operators
Generation of integrals (i,mue|j,nue)      ... ON
Generation of integrals (mue,kappa|nue,tau)... ON
Generation of integrals (i,mue|a,nue)      ... ON
Dimension of the basis                     ...  126
Number of internal alpha-MOs               ...    2 (   1-   2)
Number of internal beta-MOs                ...    2 (   1-   2)
Number of external alpha-MOs               ...  123 (   3- 125)
Number of external beta-MOs                ...  123 (   3- 125)
Pair cutoff                                ... 0.000e+00 Eh
Number of AO pairs in the trafo            ... 8001
Total Number of distinct AO pairs          ... 8001
Memory devoted for trafo                   ...  256.0 MB 
Max. Number of MO pairs treated together   ... 2113      
Number Format for Storage                  ... Double (8 Byte)
Integral package used                      ... LIBINT

Starting integral evaluation:
    ... done with AO integral generation
Closing buffer AOK[aa] ( 0.00 GB; CompressionRatio= 0.73)
Closing buffer AOK[bb] ( 0.00 GB; CompressionRatio= 0.73)
Closing buffer AOK[ab] ( 0.00 GB; CompressionRatio= 0.73)
Closing buffer AOK[ba] ( 0.00 GB; CompressionRatio= 0.73)
Collecting buffer AOK 
Closing buffer IAAO1[aa] ( 0.01 GB; CompressionRatio= 0.99)
Closing buffer IAAO1[bb] ( 0.01 GB; CompressionRatio= 0.99)
Closing buffer IAAO1[ab] ( 0.01 GB; CompressionRatio= 0.99)
Closing buffer IAAO1[ba] ( 0.01 GB; CompressionRatio= 0.99)
Closing buffer IAAO2[aa] ( 0.01 GB; CompressionRatio= 0.99)
Closing buffer IAAO2[bb] ( 0.01 GB; CompressionRatio= 0.99)
Closing buffer IAAO2[ab] ( 0.01 GB; CompressionRatio= 0.99)
Closing buffer IAAO2[ba] ( 0.01 GB; CompressionRatio= 0.99)
Collecting buffer IAAO 
Closing buffer PRQS    ( 0.95 GB; CompressionRatio= 1.00)
Collecting buffer PRQS 
Number of alpha/alpha MO pairs in trafo    ...    3
Number of beta /beta  MO pairs in trafo    ...    3
Number of alpha/ beta MO pairs in trafo    ...    4
------------------------
SORTING OF (i,mue|j,nue)
------------------------

SORTING OF ALPHA/ALPHA PAIRS
IBATCH = 1 of  1
Closing buffer KAO[aa] ( 0.00 GB; CompressionRatio= 1.00)
Collecting buffer KAO 
SORTING OF BETA /BETA  PAIRS
IBATCH = 1 of  1
Closing buffer KAO[bb] ( 0.00 GB; CompressionRatio= 1.00)
Collecting buffer KAO 
SORTING OF ALPHA/BETA  PAIRS
IBATCH = 1 of  1
Closing buffer KAO[ab] ( 0.00 GB; CompressionRatio= 0.999905526689)
Collecting buffer KAO[ab] 
------------------------
SORTING OF (i,mue|a,nue)
------------------------

Number of alpha/alpha (i,a) pairs in trafo  ...  246
Number of beta /beta  (i,a) pairs in trafo  ...  246
Number of alpha/ beta (i,a) pairs in trafo  ...  246
Number of beta /alpha (i,a) pairs in trafo  ...  246
Setting up the alpha/alpha list             ... done
Setting up the beta /beta  list             ... done
Setting up the alpha/beta  list             ... done
Setting up the beta /alpha list             ... done
    ... Now sorting (i,mue|a,nue)integrals
    ... Integrals (i,b|a,c) will be made on the fly
SORTING OF ALPHA/ALPHA PAIRS
IBATCH = 1 of  1
Closing buffer IPAQ[aa]  0.03 GB; CompressionRatio= 1.00)
SORTING OF BETA /BETA  PAIRS
IBATCH = 1 of  1
Closing buffer IPAQ[bb]( 0.03 GB; CompressionRatio= 1.00)
SORTING OF ALPHA/BETA  PAIRS (NMatSort_ab=246)
IBATCH = 1 of  1
Closing buffer IPAQ[ab]( 0.03 GB; CompressionRatio= 1.00)
SORTING OF BETA/ALPHA  PAIRS
IBATCH = 1 of  1
Closing buffer IPAQ[ba]( 0.03 GB; CompressionRatio= 1.00)
N(AO-Batches) Done                         ...    687820 
N(AO-Batches) Skipped                      ...         0 
N(IJ)-pairs Skipped                        ...         0 
TOTAL TIME for half transformation         ...     6.209 sec
AO-integral generation                     ...     4.227 sec
Half transformation                        ...     0.921 sec
K-integral sorting                         ...     0.430 sec

------------------------------
PARTIAL COULOMB TRANSFORMATION
------------------------------

Transformation type                        ... two-operators
Dimension of the basis                     ...  126
Number of internal alpha-MOs               ...    2 (1-2)
Number of internal beta-MOs                ...    2 (1-2)
Pair cutoff                                ... 0.000e+00 Eh
Number of AO pairs included in the trafo   ... 8001
Total Number of distinct AO pairs          ... 8001
Memory devoted for trafo                   ...  256.0 MB 
Max. Number of MO pairs treated together   ... 4193      
Max. Number of MOs treated per batch       ...   33      
Number Format for Storage                  ... Double (8 Byte)
AO-integral source                         ... DIRECT
Integral package used                      ... LIBINT

Starting integral evaluation:
<ss|**>:        39270 b        0 skpd     0.076 s (  0.002 ms/b)
<sp|**>:        58905 b        0 skpd     0.105 s (  0.002 ms/b)
<sd|**>:        45815 b        0 skpd     0.143 s (  0.003 ms/b)
<sf|**>:        32725 b        0 skpd     0.187 s (  0.006 ms/b)
<sg|**>:        13090 b        0 skpd     0.135 s (  0.010 ms/b)
<pp|**>:        26775 b        0 skpd     0.081 s (  0.003 ms/b)
<pd|**>:        37485 b        0 skpd     0.200 s (  0.005 ms/b)
<pf|**>:        26775 b        0 skpd     0.232 s (  0.009 ms/b)
<pg|**>:        10710 b        0 skpd     0.151 s (  0.014 ms/b)
<dd|**>:        16660 b        0 skpd     0.162 s (  0.010 ms/b)
<df|**>:        20825 b        0 skpd     0.339 s (  0.016 ms/b)
<dg|**>:         8330 b        0 skpd     0.210 s (  0.025 ms/b)
<ff|**>:         8925 b        0 skpd     0.269 s (  0.030 ms/b)
<fg|**>:         5950 b        0 skpd     0.272 s (  0.046 ms/b)
<gg|**>:         1785 b        0 skpd     0.120 s (  0.067 ms/b)
Closing buffer AOJ[aa] ( 0.00 GB; CompressionRatio= 0.67)
Closing buffer AOJ[bb] ( 0.00 GB; CompressionRatio= 0.67)
Collecting buffer AOJ 
    ... done with AO integral generation
Number of Alpha-MO pairs included          ...    3
Number of Beta-MO pairs included           ...    3
    ... Now sorting integrals
SORTING ALPHA/ALPHA PAIRS
IBATCH = 1 of  1
Closing buffer JAO[aa] ( 0.00 GB; CompressionRatio= 1.00)
SORTING BETA/BETA PAIRS
IBATCH = 1 of  1
Closing buffer JAO[bb] ( 0.00 GB; CompressionRatio= 1.00)
Collecting buffer JAO 
TOTAL TIME for half transformation         ...     2.693 sec
AO-integral generation                     ...     2.263 sec
Half transformation                        ...     0.422 sec
J-integral sorting                         ...     0.006 sec

-------------------------- SECOND HALF TRANSFORMATION -------------------------
Formation of (ij|kl),(ij|ka), (ij|ab)      ... ok (     0.005 sec)
Formation of (ik|jl),(ik|ja), (ia|jb)      ... ok (     0.005 sec)


-----------------------
SPIN UNRESTRICTED GUESS
-----------------------

Spin-components of the MP2 energy:
EMP2(aa)=     -0.002521029
EMP2(bb)=     -0.002521029
EMP2(ab)=     -0.060869868

Initial guess performed in     0.001 sec
E(0)                                       ...    -25.135245145
E(MP2)                                     ...     -0.065911926
Initial E(tot)                             ...    -25.201157071
<T|T>                                      ...      0.028513228
Number of pairs included                   ... 6

------------------------------------------------
                  UHF COUPLED CLUSTER ITERATIONS
------------------------------------------------

Number of amplitudes to be optimized       ...        75890

Iter       E(tot)           E(Corr)          Delta-E          Residual     Time      <S|S>**1/2
  0    -25.201157071     -0.065911926      0.000000000      0.011966229    1.17      0.000000022
                           *** Turning on DIIS ***
  1    -25.211284720     -0.076039575     -0.010127649      0.006663359    2.44      0.017887031
  2    -25.218259111     -0.083013966     -0.006974392      0.006508493    2.43      0.041357444
  3    -25.221462601     -0.086217456     -0.003203489      0.006141259    2.42      0.069289779
  4    -25.223621364     -0.088376219     -0.002158763      0.005396209    2.44      0.105682696
  5    -25.226082427     -0.090837282     -0.002461063      0.004108364    2.42      0.160078850
  6    -25.228960428     -0.093715283     -0.002878001      0.002342195    2.42      0.233102210
  7    -25.230461559     -0.095216414     -0.001501131      0.001113940    2.44      0.278157600
  8    -25.231190062     -0.095944917     -0.000728503      0.000500935    2.42      0.298303956
  9    -25.231307538     -0.096062394     -0.000117476      0.000206972    2.46      0.303933520
 10    -25.231449141     -0.096203997     -0.000141603      0.000161048    2.43      0.307342107
 11    -25.231443549     -0.096198404      0.000005592      0.000061842    2.44      0.307981455
 12    -25.231445370     -0.096200225     -0.000001821      0.000018767    2.43      0.308161649
 13    -25.231449242     -0.096204097     -0.000003873      0.000011651    2.52      0.308166469
 14    -25.231452153     -0.096207008     -0.000002911      0.000006188    2.50      0.308184596
 15    -25.231453643     -0.096208498     -0.000001490      0.000003607    2.44      0.308209230
 16    -25.231454402     -0.096209258     -0.000000759      0.000002695    2.38      0.308233310
 17    -25.231455487     -0.096210342     -0.000001084      0.000001651    2.37      0.308265036
 18    -25.231456410     -0.096211265     -0.000000923      0.000000921    2.42      0.308289145
               --- The Coupled-Cluster iterations have converged ---

----------------------
COUPLED CLUSTER ENERGY
----------------------

E(0)                                       ...    -25.135245145
E(CORR)                                    ...     -0.096211265
E(TOT)                                     ...    -25.231456410
Singles norm <S|S>**1/2                    ...      0.308289145 ( 0.154144572, 0.154144573)  
T1 diagnostic                              ...      0.154144573                              

------------------
LARGEST AMPLITUDES
------------------
   2b->  8b  -1b-> -1b       0.206349
   2a->  8a  -1a-> -1a       0.206349
   2b->  4b  -1b-> -1b       0.136476
   2a->  4a  -1a-> -1a       0.136476
   2b-> 19b  -1b-> -1b       0.095817
   2a-> 19a  -1a-> -1a       0.095817
   2b->  5b  -1b-> -1b       0.095246
   2a->  5a  -1a-> -1a       0.095246
   2b->  9b  -1b-> -1b       0.078721
   2a->  9a  -1a-> -1a       0.078721
   2a->  8a   2b->  8b       0.066796
   2a->  7a   2b->  7b       0.062600
   2a->  7a   2b->  3b       0.053982
   2a->  3a   2b->  7b       0.053982
   2a-> 21a   2b-> 21b       0.047621
   2a->  3a   2b->  3b       0.046538

----------------------
UHF TRIPLES CORRECTION (Algorithm 1)
----------------------

Multiplier for the singles contribution    ...      1.000000000

SPIN-CASE Alpha-Alpha-Alpha:

SPIN-CASE Beta-Beta-Beta:

SPIN-CASE Alpha-Alpha-Beta:
10% done
20% done
30% done
40% done
50% done
60% done
70% done
80% done
90% done


SPIN-CASE Beta-Beta-Alpha:
10% done
20% done
30% done
40% done
50% done
60% done
70% done
80% done
90% done


Triples Correction (T)                     ...     -0.002397213
    alpha-alpha-alpha ...  0.000000000 ( -0.0%)
    alpha-alpha-beta  ... -0.001198606 ( 50.0%)
    alpha-beta -beta  ... -0.001198606 ( 50.0%)
    beta -beta -beta  ...  0.000000000 ( -0.0%)
Scaling of triples based on CCSD energies (Peterson et al. Molecular Physics 113, 1551 (2015))
E(T*) = f*E(T) where f = E(F12-CCSD)/E(CCSD) 
f = CCSD (with F12)/ CCSD (without F12)    ...      1.000000000
Scaled triples correction (T)              ...     -0.002397213

Final correlation energy                   ...     -0.098608478
E(CCSD)                                    ...    -25.231456410
E(CCSD(T))                                 ...    -25.233853623



        !!!!!!!!!!!!!!!!!!!!!!!!!!!!!!!!!!!!!!!!!!!!!!!!!!!!!!!!!!!!!!!!!!!!!!!!!! 
        !  Warning: Densities are linearized densities                           !
        !!!!!!!!!!!!!!!!!!!!!!!!!!!!!!!!!!!!!!!!!!!!!!!!!!!!!!!!!!!!!!!!!!!!!!!!!! 

NORM  =      1.309463260 sqrt=     1.144317814
W(HF) =      0.763671674
------------------------------------------------------------------------------
                           ORCA POPULATION ANALYSIS
------------------------------------------------------------------------------
Input electron density              ... /scratch/BH-1.3-UCCSD_T-O_243/BH-1.3-UCCSD_T-O.mdcip
Input spin density                  ... /scratch/BH-1.3-UCCSD_T-O_243/BH-1.3-UCCSD_T-O.mdcir
BaseName (.gbw .S,...)              ... /scratch/BH-1.3-UCCSD_T-O_243/BH-1.3-UCCSD_T-O

                    ********************************
                    * MULLIKEN POPULATION ANALYSIS *
                    ********************************

------------------------------------------
MULLIKEN ATOMIC CHARGES AND SPIN DENSITIES
------------------------------------------
   0 B :    0.113528    0.000000
   1 H :   -0.113528   -0.000000
Sum of atomic charges       :   -0.0000000
Sum of atomic spin densities:    0.0000000

---------------------------------------------------
MULLIKEN REDUCED ORBITAL CHARGES AND SPIN DENSITIES
---------------------------------------------------
CHARGE
  0 B s       :     3.763689  s :     3.763689
      pz      :    -0.029691  p :     1.061795
      px      :     1.024729
      py      :     0.066757
      dz2     :     0.010570  d :     0.057820
      dxz     :     0.006558
      dyz     :     0.000251
      dx2y2   :     0.032484
      dxy     :     0.007956
      f0      :     0.000226  f :     0.002608
      f+1     :     0.000488
      f-1     :     0.000058
      f+2     :     0.000369
      f-2     :     0.000128
      f+3     :     0.000764
      f-3     :     0.000574
      g0      :     0.000053  g :     0.000560
      g+1     :     0.000050
      g-1     :     0.000006
      g+2     :     0.000105
      g-2     :     0.000021
      g+3     :     0.000042
      g-3     :     0.000025
      g+4     :     0.000184
      g-4     :     0.000074
  1 H s       :     1.085122  s :     1.085122
      pz      :     0.003721  p :     0.025582
      px      :     0.017740
      py      :     0.004120
      dz2     :     0.000305  d :     0.002238
      dxz     :     0.000649
      dyz     :     0.000089
      dx2y2   :     0.000700
      dxy     :     0.000495
      f0      :     0.000069  f :     0.000586
      f+1     :     0.000072
      f-1     :     0.000021
      f+2     :     0.000110
      f-2     :     0.000012
      f+3     :     0.000093
      f-3     :     0.000208

SPIN
  0 B s       :    -0.000000  s :    -0.000000
      pz      :     0.000000  p :     0.000000
      px      :     0.000000
      py      :     0.000000
      dz2     :     0.000000  d :     0.000000
      dxz     :    -0.000000
      dyz     :     0.000000
      dx2y2   :     0.000000
      dxy     :    -0.000000
      f0      :     0.000000  f :     0.000000
      f+1     :     0.000000
      f-1     :     0.000000
      f+2     :     0.000000
      f-2     :    -0.000000
      f+3     :     0.000000
      f-3     :    -0.000000
      g0      :     0.000000  g :     0.000000
      g+1     :    -0.000000
      g-1     :     0.000000
      g+2     :     0.000000
      g-2     :    -0.000000
      g+3     :    -0.000000
      g-3     :    -0.000000
      g+4     :     0.000000
      g-4     :    -0.000000
  1 H s       :    -0.000000  s :    -0.000000
      pz      :     0.000000  p :    -0.000000
      px      :    -0.000000
      py      :     0.000000
      dz2     :     0.000000  d :     0.000000
      dxz     :     0.000000
      dyz     :     0.000000
      dx2y2   :     0.000000
      dxy     :     0.000000
      f0      :     0.000000  f :     0.000000
      f+1     :     0.000000
      f-1     :     0.000000
      f+2     :     0.000000
      f-2     :     0.000000
      f+3     :     0.000000
      f-3     :     0.000000


                     *******************************
                     * LOEWDIN POPULATION ANALYSIS *
                     *******************************

-----------------------------------------
LOEWDIN ATOMIC CHARGES AND SPIN DENSITIES
-----------------------------------------
   0 B :    0.462083    0.000000
   1 H :   -0.462083   -0.000000

--------------------------------------------------
LOEWDIN REDUCED ORBITAL CHARGES AND SPIN DENSITIES
--------------------------------------------------
CHARGE
  0 B s       :     3.180896  s :     3.180896
      pz      :    -0.021722  p :     1.231556
      px      :     1.200046
      py      :     0.053232
      dz2     :     0.020671  d :     0.100425
      dxz     :     0.006545
      dyz     :     0.000223
      dx2y2   :     0.062671
      dxy     :     0.010315
      f0      :     0.000348  f :     0.018876
      f+1     :     0.006361
      f-1     :     0.000078
      f+2     :     0.000570
      f-2     :     0.000135
      f+3     :     0.010521
      f-3     :     0.000864
      g0      :     0.000811  g :     0.006163
      g+1     :     0.000109
      g-1     :     0.000006
      g+2     :     0.001784
      g-2     :     0.000037
      g+3     :     0.000087
      g-3     :     0.000030
      g+4     :     0.003116
      g-4     :     0.000184
  1 H s       :     0.992867  s :     0.992867
      pz      :    -0.001541  p :     0.338980
      px      :     0.333614
      py      :     0.006907
      dz2     :     0.024635  d :     0.101938
      dxz     :    -0.001899
      dyz     :     0.000088
      dx2y2   :     0.073132
      dxy     :     0.005982
      f0      :    -0.000148  f :     0.028299
      f+1     :     0.009780
      f-1     :     0.000175
      f+2     :    -0.000245
      f-2     :     0.000029
      f+3     :     0.016195
      f-3     :     0.002513

SPIN
  0 B s       :    -0.000000  s :    -0.000000
      pz      :     0.000000  p :     0.000000
      px      :    -0.000000
      py      :     0.000000
      dz2     :    -0.000000  d :    -0.000000
      dxz     :    -0.000000
      dyz     :     0.000000
      dx2y2   :    -0.000000
      dxy     :    -0.000000
      f0      :    -0.000000  f :    -0.000000
      f+1     :    -0.000000
      f-1     :     0.000000
      f+2     :    -0.000000
      f-2     :    -0.000000
      f+3     :    -0.000000
      f-3     :    -0.000000
      g0      :    -0.000000  g :    -0.000000
      g+1     :    -0.000000
      g-1     :     0.000000
      g+2     :    -0.000000
      g-2     :    -0.000000
      g+3     :    -0.000000
      g-3     :    -0.000000
      g+4     :    -0.000000
      g-4     :    -0.000000
  1 H s       :    -0.000000  s :    -0.000000
      pz      :     0.000000  p :    -0.000000
      px      :    -0.000000
      py      :     0.000000
      dz2     :     0.000000  d :     0.000000
      dxz     :     0.000000
      dyz     :     0.000000
      dx2y2   :     0.000000
      dxy     :     0.000000
      f0      :     0.000000  f :     0.000000
      f+1     :    -0.000000
      f-1     :     0.000000
      f+2     :     0.000000
      f-2     :     0.000000
      f+3     :    -0.000000
      f-3     :     0.000000


                      *****************************
                      * MAYER POPULATION ANALYSIS *
                      *****************************

  NA   - Mulliken gross atomic population
  ZA   - Total nuclear charge
  QA   - Mulliken gross atomic charge
  VA   - Mayer's total valence
  BVA  - Mayer's bonded valence
  FA   - Mayer's free valence

  ATOM       NA         ZA         QA         VA         BVA        FA
  0 B      4.8865     5.0000     0.1135     1.1957     0.8606     0.3351
  1 H      1.1135     1.0000    -0.1135     0.9636     0.8606     0.1030

  Mayer bond orders larger than 0.100000
B(  0-B ,  1-H ) :   0.8606 



------------------------------------------------------------------------------- 
                                     TIMINGS                                   
------------------------------------------------------------------------------- 


Total execution time                   ...       56.075 sec

Fock Matrix Formation                  ...        1.382 sec (  2.5%)
Initial Guess                          ...        0.001 sec (  0.0%)
DIIS Solver                            ...        0.102 sec (  0.2%)
State Vector Update                    ...        0.005 sec (  0.0%)
Sigma-vector construction              ...       44.896 sec ( 80.1%)
  <0|H|D>                              ...        0.008 sec (  0.0% of sigma)
  <D|H|D>(0-ext Fock)                  ...        0.010 sec (  0.0% of sigma)
  <D|H|D>(0-ext)                       ...        0.009 sec (  0.0% of sigma)
  <D|H|D>(2-ext Fock)                  ...        0.019 sec (  0.0% of sigma)
  <D|H|D>(2-ext)                       ...        0.142 sec (  0.3% of sigma)
  <D|H|D>(4-ext)                       ...       11.889 sec ( 26.5% of sigma)
  <S|H|D>(1-ext)                       ...        0.004 sec (  0.0% of sigma)
  <D|H|S>(1-ext)                       ...        0.024 sec (  0.1% of sigma)
  Fock-dressing                        ...       30.606 sec ( 68.2% of sigma)
  (ik|jl)-dressing                     ...        0.012 sec (  0.0% of sigma)
  (ij|ab),(ia|jb)-dressing             ...        1.693 sec (  3.8% of sigma)
  Pair energies                        ...        0.007 sec (  0.0% of sigma)
Total Time for computing (T)           ...        0.580 sec (  1.0% of ALL)
  I/O of integral and amplitudes       ...        0.186 sec ( 32.1% of (T))
  External N**7 contributions          ...        0.136 sec ( 23.4% of (T))
  Internal N**7 contributions          ...        0.021 sec (  3.7% of (T))
  N**6 triples energy contributions    ...        0.181 sec ( 31.2% of (T))


Maximum memory used throughout the entire MDCI-calculation: 397.2 MB

-------------------------   --------------------
FINAL SINGLE POINT ENERGY       -25.233853622728
-------------------------   --------------------


                            ***************************************
                            *     ORCA property calculations      *
                            ***************************************

                                    ---------------------
                                    Active property flags
                                    ---------------------
   (+) Dipole Moment


------------------------------------------------------------------------------
                       ORCA ELECTRIC PROPERTIES CALCULATION
------------------------------------------------------------------------------

Dipole Moment Calculation                       ... on
Quadrupole Moment Calculation                   ... off
Polarizability Calculation                      ... off
GBWName                                         ... /scratch/BH-1.3-UCCSD_T-O_243/BH-1.3-UCCSD_T-O.gbw
Electron density file                           ... /scratch/BH-1.3-UCCSD_T-O_243/BH-1.3-UCCSD_T-O.scfp
The origin for moment calculation is the CENTER OF MASS  = ( 0.209536,  0.000000  0.000000)

-------------
DIPOLE MOMENT
-------------
                                X             Y             Z
Electronic contribution:     -0.77869       0.00000      -0.00000
Nuclear contribution   :      1.19943       0.00000       0.00000
                        -----------------------------------------
Total Dipole Moment    :      0.42074       0.00000      -0.00000
                        -----------------------------------------
Magnitude (a.u.)       :      0.42074
Magnitude (Debye)      :      1.06943



--------------------
Rotational spectrum 
--------------------
 
Rotational constants in cm-1:     0.000000    10.818523    10.818523 
Rotational constants in MHz :     0.000000 324331.147717 324331.147717 

 Dipole components along the rotational axes: 
x,y,z [a.u.] :     0.420737     0.000000    -0.000000 
x,y,z [Debye]:     1.069429     0.000000    -0.000000 

 

                           *** MDCI DENSITY ***

------------------------------------------------------------------------------
                       ORCA ELECTRIC PROPERTIES CALCULATION
------------------------------------------------------------------------------

Dipole Moment Calculation                       ... on
Quadrupole Moment Calculation                   ... off
Polarizability Calculation                      ... off
GBWName                                         ... /scratch/BH-1.3-UCCSD_T-O_243/BH-1.3-UCCSD_T-O.gbw
Electron density file                           ... /scratch/BH-1.3-UCCSD_T-O_243/BH-1.3-UCCSD_T-O.mdcip
The origin for moment calculation is the CENTER OF MASS  = ( 0.209536,  0.000000  0.000000)

-------------
DIPOLE MOMENT
-------------
                                X             Y             Z
Electronic contribution:     -0.68074       0.00000      -0.00000
Nuclear contribution   :      1.19943       0.00000       0.00000
                        -----------------------------------------
Total Dipole Moment    :      0.51869       0.00000      -0.00000
                        -----------------------------------------
Magnitude (a.u.)       :      0.51869
Magnitude (Debye)      :      1.31839



--------------------
Rotational spectrum 
--------------------
 
Rotational constants in cm-1:     0.000000    10.818523    10.818523 
Rotational constants in MHz :     0.000000 324331.147717 324331.147717 

 Dipole components along the rotational axes: 
x,y,z [a.u.] :     0.518685     0.000000    -0.000000 
x,y,z [Debye]:     1.318393     0.000000    -0.000000 

 

Timings for individual modules:

Sum of individual times         ...       58.018 sec (=   0.967 min)
GTO integral calculation        ...        0.129 sec (=   0.002 min)   0.2 %
SCF iterations                  ...        1.620 sec (=   0.027 min)   2.8 %
MDCI module                     ...       56.269 sec (=   0.938 min)  97.0 %
                             ****ORCA TERMINATED NORMALLY****
TOTAL RUN TIME: 0 days 0 hours 0 minutes 58 seconds 138 msec

Sender: Unischeduler System <lcz@mgt01>
Subject: Job 134440: <#!/bin/bash
#BSUB -J intel
#BSUB -o BH-1.3-UCCSD_T-O.out
#BSUB -n 1
#BSUB -q cqueue
export LD_LIBRARY_PATH=/apps/software/openmpi-4.1.1/lib:/apps/software/orca_5_0_0:$LD_LIBRARY_PATH
export PATH=/apps/software/openmpi-4.1.1/bin:/apps/software/orca_5_0_0:$PATH
mkdir /scratch/BH-1.3-UCCSD_T-O_243
scp $USER@mgt01:/apps/users/lcz/exe13/UCCSD_T/BH-1.3-UCCSD_T-O.inp /scratch/BH-1.3-UCCSD_T-O_243
scp $USER@mgt01:/apps/users/lcz/exe13/UCCSD_T/BH-1.3-UHF-O.gbw /scratch/BH-1.3-UCCSD_T-O_243
/apps/software/orca_5_0_0/orca /scratch/BH-1.3-UCCSD_T-O_243/BH-1.3-UCCSD_T-O.inp >& BH-1.3-UCCSD_T-O.out
scp /scratch/BH-1.3-UCCSD_T-O_243/*.gbw $USER@mgt01:/apps/users/lcz/exe13/UCCSD_T
scp /scratch/BH-1.3-UCCSD_T-O_243/*.xyz $USER@mgt01:/apps/users/lcz/exe13/UCCSD_T
scp /scratch/BH-1.3-UCCSD_T-O_243/*.trj $USER@mgt01:/apps/users/lcz/exe13/UCCSD_T> Exited

Job <#!/bin/bash
#BSUB -J intel
#BSUB -o BH-1.3-UCCSD_T-O.out
#BSUB -n 1
#BSUB -q cqueue
export LD_LIBRARY_PATH=/apps/software/openmpi-4.1.1/lib:/apps/software/orca_5_0_0:$LD_LIBRARY_PATH
export PATH=/apps/software/openmpi-4.1.1/bin:/apps/software/orca_5_0_0:$PATH
mkdir /scratch/BH-1.3-UCCSD_T-O_243
scp $USER@mgt01:/apps/users/lcz/exe13/UCCSD_T/BH-1.3-UCCSD_T-O.inp /scratch/BH-1.3-UCCSD_T-O_243
scp $USER@mgt01:/apps/users/lcz/exe13/UCCSD_T/BH-1.3-UHF-O.gbw /scratch/BH-1.3-UCCSD_T-O_243
/apps/software/orca_5_0_0/orca /scratch/BH-1.3-UCCSD_T-O_243/BH-1.3-UCCSD_T-O.inp >& BH-1.3-UCCSD_T-O.out
scp /scratch/BH-1.3-UCCSD_T-O_243/*.gbw $USER@mgt01:/apps/users/lcz/exe13/UCCSD_T
scp /scratch/BH-1.3-UCCSD_T-O_243/*.xyz $USER@mgt01:/apps/users/lcz/exe13/UCCSD_T
scp /scratch/BH-1.3-UCCSD_T-O_243/*.trj $USER@mgt01:/apps/users/lcz/exe13/UCCSD_T> was submitted from host <mgt01> by user <lcz>.
Job was executed on host(s) <1*cnode07>, in queue <cqueue>, as user <lcz>.
</apps/users/lcz> was used as the home directory.
</apps/users/lcz/exe13/UCCSD_T> was used as the working directory.
Started at 2022-05-22 21:44:07
Results reported at 2022-05-22 21:45:08

Your job looked like:

------------------------------------------------------------
# User input
#!/bin/bash
#BSUB -J intel
#BSUB -o BH-1.3-UCCSD_T-O.out
#BSUB -n 1
#BSUB -q cqueue
export LD_LIBRARY_PATH=/apps/software/openmpi-4.1.1/lib:/apps/software/orca_5_0_0:$LD_LIBRARY_PATH
export PATH=/apps/software/openmpi-4.1.1/bin:/apps/software/orca_5_0_0:$PATH
mkdir /scratch/BH-1.3-UCCSD_T-O_243
scp $USER@mgt01:/apps/users/lcz/exe13/UCCSD_T/BH-1.3-UCCSD_T-O.inp /scratch/BH-1.3-UCCSD_T-O_243
scp $USER@mgt01:/apps/users/lcz/exe13/UCCSD_T/BH-1.3-UHF-O.gbw /scratch/BH-1.3-UCCSD_T-O_243
/apps/software/orca_5_0_0/orca /scratch/BH-1.3-UCCSD_T-O_243/BH-1.3-UCCSD_T-O.inp >& BH-1.3-UCCSD_T-O.out
scp /scratch/BH-1.3-UCCSD_T-O_243/*.gbw $USER@mgt01:/apps/users/lcz/exe13/UCCSD_T
scp /scratch/BH-1.3-UCCSD_T-O_243/*.xyz $USER@mgt01:/apps/users/lcz/exe13/UCCSD_T
scp /scratch/BH-1.3-UCCSD_T-O_243/*.trj $USER@mgt01:/apps/users/lcz/exe13/UCCSD_T
------------------------------------------------------------

Exited with exit code 1.

Resource usage summary:

    CPU time   :           53.81 sec.
    Max Memory :               410 MB
    Max Processes  :               5


The output (if any) follows:

/scratch/BH-1.3-UCCSD_T-O_243/*.xyz: No such file or directory
/scratch/BH-1.3-UCCSD_T-O_243/*.trj: No such file or directory
