 Entering Gaussian System, Link 0=/apps/software/g16/g16
 Initial command:
 /apps/software/g16/l1.exe "/scratch/Gau-383154.inp" -scrdir="/scratch/"
 Entering Link 1 = /apps/software/g16/l1.exe PID=    383155.
  
 Copyright (c) 1988,1990,1992,1993,1995,1998,2003,2009,2016,
            Gaussian, Inc.  All Rights Reserved.
  
 This is part of the Gaussian(R) 16 program.  It is based on
 the Gaussian(R) 09 system (copyright 2009, Gaussian, Inc.),
 the Gaussian(R) 03 system (copyright 2003, Gaussian, Inc.),
 the Gaussian(R) 98 system (copyright 1998, Gaussian, Inc.),
 the Gaussian(R) 94 system (copyright 1995, Gaussian, Inc.),
 the Gaussian 92(TM) system (copyright 1992, Gaussian, Inc.),
 the Gaussian 90(TM) system (copyright 1990, Gaussian, Inc.),
 the Gaussian 88(TM) system (copyright 1988, Gaussian, Inc.),
 the Gaussian 86(TM) system (copyright 1986, Carnegie Mellon
 University), and the Gaussian 82(TM) system (copyright 1983,
 Carnegie Mellon University). Gaussian is a federally registered
 trademark of Gaussian, Inc.
  
 This software contains proprietary and confidential information,
 including trade secrets, belonging to Gaussian, Inc.
  
 This software is provided under written license and may be
 used, copied, transmitted, or stored only in accord with that
 written license.
  
 The following legend is applicable only to US Government
 contracts under FAR:
  
                    RESTRICTED RIGHTS LEGEND
  
 Use, reproduction and disclosure by the US Government is
 subject to restrictions as set forth in subparagraphs (a)
 and (c) of the Commercial Computer Software - Restricted
 Rights clause in FAR 52.227-19.
  
 Gaussian, Inc.
 340 Quinnipiac St., Bldg. 40, Wallingford CT 06492
  
  
 ---------------------------------------------------------------
 Warning -- This program may not be used in any manner that
 competes with the business of Gaussian, Inc. or will provide
 assistance to any competitor of Gaussian, Inc.  The licensee
 of this program is prohibited from giving any competitor of
 Gaussian, Inc. access to this program.  By using this program,
 the user acknowledges that Gaussian, Inc. is engaged in the
 business of creating and licensing software in the field of
 computational chemistry and represents and warrants to the
 licensee that it is not a competitor of Gaussian, Inc. and that
 it will not use this program in any manner prohibited above.
 ---------------------------------------------------------------
  

 Cite this work as:
 Gaussian 16, Revision A.03,
 M. J. Frisch, G. W. Trucks, H. B. Schlegel, G. E. Scuseria, 
 M. A. Robb, J. R. Cheeseman, G. Scalmani, V. Barone, 
 G. A. Petersson, H. Nakatsuji, X. Li, M. Caricato, A. V. Marenich, 
 J. Bloino, B. G. Janesko, R. Gomperts, B. Mennucci, H. P. Hratchian, 
 J. V. Ortiz, A. F. Izmaylov, J. L. Sonnenberg, D. Williams-Young, 
 F. Ding, F. Lipparini, F. Egidi, J. Goings, B. Peng, A. Petrone, 
 T. Henderson, D. Ranasinghe, V. G. Zakrzewski, J. Gao, N. Rega, 
 G. Zheng, W. Liang, M. Hada, M. Ehara, K. Toyota, R. Fukuda, 
 J. Hasegawa, M. Ishida, T. Nakajima, Y. Honda, O. Kitao, H. Nakai, 
 T. Vreven, K. Throssell, J. A. Montgomery, Jr., J. E. Peralta, 
 F. Ogliaro, M. J. Bearpark, J. J. Heyd, E. N. Brothers, K. N. Kudin, 
 V. N. Staroverov, T. A. Keith, R. Kobayashi, J. Normand, 
 K. Raghavachari, A. P. Rendell, J. C. Burant, S. S. Iyengar, 
 J. Tomasi, M. Cossi, J. M. Millam, M. Klene, C. Adamo, R. Cammi, 
 J. W. Ochterski, R. L. Martin, K. Morokuma, O. Farkas, 
 J. B. Foresman, and D. J. Fox, Gaussian, Inc., Wallingford CT, 2016.
 
 ******************************************
 Gaussian 16:  ES64L-G16RevA.03 25-Dec-2016
                22-May-2022 
 ******************************************
 %oldchk=BH-2.6-UHF-G.chk
 %chk=BH-2.6-UCCSD_T-G.chk
 Copying data from "BH-2.6-UHF-G.chk" to current chk file "BH-2.6-UCCSD_T-G.chk"
 IOpt=  2 FromEx=T IUOpen= 4 IOptOp= 5 NList=   0 IFRang= 0 IUIn= 4 IUOut= 2.
 ----------------------------------------
 #p UHF/aug-cc-pVQZ guess=read CCSD(T,FC)
 ----------------------------------------
 1/38=1,172=1/1;
 2/12=2,17=6,18=5,40=1/2;
 3/5=16,6=2,7=10,11=2,25=1,30=1,116=2/1,2,3;
 4/5=1/1;
 5/5=2,38=6/2;
 8/6=4,9=120000,10=1/1,4;
 9/5=7,14=2/13;
 6/7=2,8=2,9=2,10=2/1;
 99/5=1,9=1/99;
 Leave Link    1 at Sun May 22 21:14:05 2022, MaxMem=   104857600 cpu:               0.0 elap:               0.0
 (Enter /apps/software/g16/l101.exe)
 ------------------------
 BH UCCSD at 2.6 Angstrom
 ------------------------
 Symbolic Z-matrix:
 Charge =  0 Multiplicity = 1
 B                     0.        0.        0. 
 H                     2.6       0.        0. 
 
 ITRead=  0  0
 MicOpt= -1 -1
 NAtoms=      2 NQM=        2 NQMF=       0 NMMI=      0 NMMIF=      0
                NMic=       0 NMicF=      0.
                    Isotopes and Nuclear Properties:
 (Nuclear quadrupole moments (NQMom) in fm**2, nuclear magnetic moments (NMagM)
  in nuclear magnetons)

  Atom         1           2
 IAtWgt=          11           1
 AtmWgt=  11.0093053   1.0078250
 NucSpn=           3           1
 AtZEff=  -0.0000000  -0.0000000
 NQMom=    4.0590000   0.0000000
 NMagM=    2.6886370   2.7928460
 AtZNuc=   5.0000000   1.0000000
 Leave Link  101 at Sun May 22 21:14:05 2022, MaxMem=   104857600 cpu:               0.1 elap:               0.1
 (Enter /apps/software/g16/l202.exe)
                          Input orientation:                          
 ---------------------------------------------------------------------
 Center     Atomic      Atomic             Coordinates (Angstroms)
 Number     Number       Type             X           Y           Z
 ---------------------------------------------------------------------
      1          5           0        0.000000    0.000000    0.000000
      2          1           0        2.600000    0.000000    0.000000
 ---------------------------------------------------------------------
 Stoichiometry    BH
 Framework group  C*V[C*(HB)]
 Deg. of freedom     1
 Full point group                 C*V     NOp   4
 Largest Abelian subgroup         C2V     NOp   4
 Largest concise Abelian subgroup C1      NOp   1
                         Standard orientation:                         
 ---------------------------------------------------------------------
 Center     Atomic      Atomic             Coordinates (Angstroms)
 Number     Number       Type             X           Y           Z
 ---------------------------------------------------------------------
      1          5           0        0.000000    0.000000    0.433333
      2          1           0        0.000000    0.000000   -2.166667
 ---------------------------------------------------------------------
 Rotational constants (GHZ):           0.0000000          80.9703873          80.9703873
 Leave Link  202 at Sun May 22 21:14:05 2022, MaxMem=   104857600 cpu:               0.0 elap:               0.0
 (Enter /apps/software/g16/l301.exe)
 Standard basis: Aug-CC-pVQZ (5D, 7F)
 Ernie: Thresh=  0.10000D-02 Tol=  0.10000D-05 Strict=F.
 Ernie:  4 primitive shells out of 54 were deleted.
 There are    68 symmetry adapted cartesian basis functions of A1  symmetry.
 There are    18 symmetry adapted cartesian basis functions of A2  symmetry.
 There are    37 symmetry adapted cartesian basis functions of B1  symmetry.
 There are    37 symmetry adapted cartesian basis functions of B2  symmetry.
 There are    50 symmetry adapted basis functions of A1  symmetry.
 There are    16 symmetry adapted basis functions of A2  symmetry.
 There are    30 symmetry adapted basis functions of B1  symmetry.
 There are    30 symmetry adapted basis functions of B2  symmetry.
   126 basis functions,   180 primitive gaussians,   160 cartesian basis functions
     3 alpha electrons        3 beta electrons
       nuclear repulsion energy         1.0176484825 Hartrees.
 IExCor=    0 DFT=F Ex=HF Corr=None ExCW=0 ScaHFX=  1.000000
 ScaDFX=  1.000000  1.000000  1.000000  1.000000 ScalE2=  1.000000  1.000000
 IRadAn=      5 IRanWt=     -1 IRanGd=            0 ICorTp=0 IEmpDi=  4
 NAtoms=    2 NActive=    2 NUniq=    2 SFac= 1.00D+00 NAtFMM=   60 NAOKFM=F Big=F
 Integral buffers will be    131072 words long.
 Raffenetti 2 integral format.
 Two-electron integral symmetry is turned on.
 Leave Link  301 at Sun May 22 21:14:05 2022, MaxMem=   104857600 cpu:               0.1 elap:               0.1
 (Enter /apps/software/g16/l302.exe)
 NPDir=0 NMtPBC=     1 NCelOv=     1 NCel=       1 NClECP=     1 NCelD=      1
         NCelK=      1 NCelE2=     1 NClLst=     1 CellRange=     0.0.
 One-electron integrals computed using PRISM.
 One-electron integral symmetry used in STVInt
 NBasis=   126 RedAO= T EigKep=  1.22D-03  NBF=    50    16    30    30
 NBsUse=   126 1.00D-06 EigRej= -1.00D+00 NBFU=    50    16    30    30
 Leave Link  302 at Sun May 22 21:14:05 2022, MaxMem=   104857600 cpu:               0.1 elap:               0.1
 (Enter /apps/software/g16/l303.exe)
 DipDrv:  MaxL=1.
 Leave Link  303 at Sun May 22 21:14:05 2022, MaxMem=   104857600 cpu:               0.0 elap:               0.0
 (Enter /apps/software/g16/l401.exe)
 Initial guess from the checkpoint file:  "BH-2.6-UCCSD_T-G.chk"
 B after Tr=     0.000000    0.000000    0.000000
         Rot=    1.000000    0.000000    0.000000    0.000000 Ang=   0.00 deg.
 Guess basis will be translated and rotated to current coordinates.
 JPrj=2 DoOrth=T DoCkMO=T.
 Initial guess orbital symmetries:
 Alpha Orbitals:
       Occupied  (SG) (SG) (SG)
       Virtual   (PI) (PI) (SG) (SG) (PI) (PI) (SG) (SG) (DLTA)
                 (DLTA) (PI) (PI) (SG) (PI) (PI) (SG) (SG) (PI)
                 (PI) (SG) (PHI) (PHI) (DLTA) (DLTA) (PI) (PI)
                 (DLTA) (DLTA) (SG) (PI) (PI) (SG) (SG) (DLTA)
                 (DLTA) (PI) (PI) (SG) (PI) (PI) (SG) (PI) (PI)
                 (SG) (DLTA) (DLTA) (PHI) (PHI) (?A) (?A) (PI)
                 (PI) (SG) (DLTA) (DLTA) (SG) (PHI) (PHI) (PI)
                 (PI) (DLTA) (DLTA) (SG) (PI) (PI) (PHI) (PHI)
                 (SG) (DLTA) (DLTA) (SG) (SG) (PI) (PI) (DLTA)
                 (DLTA) (PI) (PI) (PI) (PI) (SG) (SG) (PI) (PI)
                 (?A) (?A) (PHI) (PHI) (SG) (DLTA) (DLTA) (PI)
                 (PI) (DLTA) (DLTA) (SG) (PHI) (PHI) (PI) (PI)
                 (DLTA) (DLTA) (PI) (PI) (SG) (SG) (PHI) (PHI)
                 (DLTA) (DLTA) (PI) (PI) (SG) (SG) (PI) (PI) (SG)
                 (DLTA) (DLTA) (PI) (PI) (SG) (SG)
 Beta  Orbitals:
       Occupied  (SG) (SG) (SG)
       Virtual   (PI) (PI) (SG) (SG) (PI) (PI) (SG) (SG) (DLTA)
                 (DLTA) (PI) (PI) (SG) (PI) (PI) (SG) (PI) (PI)
                 (SG) (SG) (PHI) (PHI) (DLTA) (DLTA) (SG) (DLTA)
                 (DLTA) (PI) (PI) (PI) (PI) (SG) (SG) (DLTA) (DLTA)
                 (PI) (PI) (SG) (PI) (PI) (SG) (PI) (PI) (SG) (DLTA)
                 (DLTA) (PHI) (PHI) (?A) (?A) (PI) (PI) (DLTA)
                 (DLTA) (PHI) (PHI) (SG) (SG) (PI) (PI) (DLTA)
                 (DLTA) (SG) (PHI) (PHI) (PI) (PI) (SG) (DLTA)
                 (DLTA) (SG) (SG) (PI) (PI) (DLTA) (DLTA) (PI)
                 (PI) (PI) (PI) (SG) (SG) (PI) (PI) (?A) (?A) (PHI)
                 (PHI) (DLTA) (DLTA) (SG) (PI) (PI) (DLTA) (DLTA)
                 (SG) (PHI) (PHI) (PI) (PI) (DLTA) (DLTA) (PI)
                 (PI) (SG) (SG) (PHI) (PHI) (DLTA) (DLTA) (PI)
                 (PI) (SG) (SG) (PI) (PI) (SG) (DLTA) (DLTA) (PI)
                 (PI) (SG) (SG)
 The electronic state of the initial guess is 1-SG.
 Initial guess <Sx>= 0.0000 <Sy>= 0.0000 <Sz>= 0.0000 <S**2>= 0.8841 S= 0.5649
 Leave Link  401 at Sun May 22 21:14:05 2022, MaxMem=   104857600 cpu:               0.1 elap:               0.1
 (Enter /apps/software/g16/l502.exe)
 Keep R1 and R2 ints in memory in symmetry-blocked form, NReq=40143665.
 FoFCou: FMM=F IPFlag=           0 FMFlag=           0 FMFlg1=           0
         NFxFlg=           0 DoJE=F BraDBF=F KetDBF=F FulRan=T
         wScrn=  0.000000 ICntrl=       600 IOpCl=  0 I1Cent=           0 NGrid=           0
         NMat0=    1 NMatS0=   8001 NMatT0=    0 NMatD0=    1 NMtDS0=    0 NMtDT0=    0
 Petite list used in FoFCou.
 UHF open shell SCF:
 Using DIIS extrapolation, IDIIS=  1040.
 NGot=   104857600 LenX=    88563632 LenY=    88537591
 Requested convergence on RMS density matrix=1.00D-08 within 128 cycles.
 Requested convergence on MAX density matrix=1.00D-06.
 Requested convergence on             energy=1.00D-06.
 No special actions if energy rises.

 Cycle   1  Pass 1  IDiag  1:
 E= -25.0366519830115    
 DIIS: error= 1.84D-08 at cycle   1 NSaved=   1.
 NSaved= 1 IEnMin= 1 EnMin= -25.0366519830115     IErMin= 1 ErrMin= 1.84D-08
 ErrMax= 1.84D-08  0.00D+00 EMaxC= 1.00D-01 BMatC= 5.43D-14 BMatP= 5.43D-14
 IDIUse=1 WtCom= 1.00D+00 WtEn= 0.00D+00
 Coeff-Com:  0.100D+01
 Coeff:      0.100D+01
 Gap=     0.344 Goal=   None    Shift=    0.000
 Gap=     0.458 Goal=   None    Shift=    0.000
 RMSDP=6.66D-10 MaxDP=2.89D-08              OVMax= 2.25D-08

 SCF Done:  E(UHF) =  -25.0366519830     A.U. after    1 cycles
            NFock=  1  Conv=0.67D-09     -V/T= 2.0012
 <Sx>= 0.0000 <Sy>= 0.0000 <Sz>= 0.0000 <S**2>= 0.8841 S= 0.5649
 <L.S>=  0.00000000000    
 KE= 2.500782639924D+01 PE=-5.989378837564D+01 EE= 8.831661510850D+00
 Annihilation of the first spin contaminant:
 S**2 before annihilation     0.8841,   after     0.0620
 Leave Link  502 at Sun May 22 21:14:09 2022, MaxMem=   104857600 cpu:               3.7 elap:               3.7
 (Enter /apps/software/g16/l801.exe)
 Windowed orbitals will be sorted by symmetry type.
 ExpMin= 1.88D-02 ExpMax= 2.39D+04 ExpMxC= 2.30D+02 IAcc=3 IRadAn=         5 AccDes= 0.00D+00
 HarFok:  IExCor=  205 AccDes= 0.00D+00 IRadAn=         5 IDoV=-2 UseB2=F ITyADJ=14
 ICtDFT= 12500011 ScaDFX=  1.000000  1.000000  1.000000  1.000000
 DSYEVD-2 returned Info=        3401 IAlg= 4 N=    80 NDim=    80 NE2=     1309686 trying  DSYEV.
 Largest valence mixing into a core orbital is  3.16D-04
 Largest core mixing into a valence orbital is  1.09D-04
 Largest valence mixing into a core orbital is  4.10D-04
 Largest core mixing into a valence orbital is  9.82D-05
 Range of M.O.s used for correlation:     2   126
 NBasis=   126 NAE=     3 NBE=     3 NFC=     1 NFV=     0
 NROrb=    125 NOA=     2 NOB=     2 NVA=   123 NVB=   123
 Leave Link  801 at Sun May 22 21:14:09 2022, MaxMem=   104857600 cpu:               0.1 elap:               0.1
 (Enter /apps/software/g16/l804.exe)
 Open-shell transformation, MDV=   104857600 ITran=4 ISComp=2.
 Unit  1 TFree=        991730 TCopy=        422292.
 Semi-Direct transformation.
 ModeAB=           2 MOrb=             2 LenV=     104169514
 LASXX=       493564 LTotXX=      493564 LenRXX=      493564
 LTotAB=      510115 MaxLAS=     3220000 LenRXY=     3220000
 NonZer=     3360750 LenScr=     5758976 LnRSAI=           0
 LnScr1=           0 LExtra=           0 Total=      9472540
 MaxDsk=          -1 SrtSym=           F ITran=            4
 DoSDTr:  NPSUse=  1
 JobTyp=1 Pass  1:  I=   1 to   2.
 (rs|ai) integrals will be sorted in core.
 Complete sort for first half transformation.
 First half transformation complete.
 Complete sort for second half transformation.
 Second half transformation complete.
 ModeAB=           2 MOrb=             2 LenV=     104169514
 LASXX=       493564 LTotXX=      493564 LenRXX=     3220000
 LTotAB=      492482 MaxLAS=     3220000 LenRXY=      492482
 NonZer=     3360750 LenScr=     5758976 LnRSAI=           0
 LnScr1=           0 LExtra=           0 Total=      9471458
 MaxDsk=          -1 SrtSym=           F ITran=            4
 DoSDTr:  NPSUse=  1
 JobTyp=2 Pass  1:  I=   1 to   2.
 (rs|ai) integrals will be sorted in core.
 Complete sort for first half transformation.
 First half transformation complete.
 Complete sort for second half transformation.
 Second half transformation complete.
 Spin components of T(2) and E(2):
     alpha-alpha T2 =       0.1745574762D-02 E2=     -0.3457675665D-02
     alpha-beta  T2 =       0.2716858061D-01 E2=     -0.4775528300D-01
     beta-beta   T2 =       0.2866947264D-03 E2=     -0.4826401953D-03
 ANorm=    0.1014495367D+01
 E2 =    -0.5169559886D-01 EUMP2 =    -0.25088347581867D+02
 (S**2,0)=  0.88405D+00           (S**2,1)=  0.84792D+00
 E(PUHF)=      -0.25056355183D+02        E(PMP2)=      -0.25107662012D+02
 Leave Link  804 at Sun May 22 21:14:19 2022, MaxMem=   104857600 cpu:              10.4 elap:              10.4
 (Enter /apps/software/g16/l913.exe)
 CIDS:  MDV=   104857600.
 Frozen-core window:  NFC=   1 NFV=   0.
 IFCWin=0 IBDFC=1 NFBD=     0     0 NFCmp=     0     0 NFFFC=     0     0
 Using original routines for 1st iteration.
 Using DD4UQ or CC4UQ for 2nd and later iterations.
 Keep R2 and R3 ints in memory in symmetry-blocked form, NReq=40147367.
 FoFCou: FMM=F IPFlag=           0 FMFlag=           0 FMFlg1=           0
         NFxFlg=           0 DoJE=F BraDBF=F KetDBF=F FulRan=T
         wScrn=  0.000000 ICntrl=       600 IOpCl=  0 I1Cent=           0 NGrid=           0
         NMat0=    1 NMatS0=   8001 NMatT0=    0 NMatD0=    1 NMtDS0=    0 NMtDT0=    0
 Petite list used in FoFCou.
 CIDS: In Core Option IDoMem=           1.
 CCSD(T)
 =======
 Iterations=  50 Convergence= 0.100D-06
 Produce multiple copies of IABC intergrals
 Iteration Nr.   1
 **********************
 DD1Dir will call FoFMem   1 times, MxPair=        10
 NAB=     4 NAA=     1 NBB=     1.
 E(PMP3)=      -0.25119936662D+02
 MP4(R+Q)=  0.13849674D-02
 Maximum subspace dimension=  5
 A-vector RMS=  2.7598807D-03 Max=  1.3352186D-02 conv= 1.00D-05.
 RLE energy=       -0.0663110430
 E3=       -0.12772371D-01        EUMP3=      -0.25101119953D+02
 E4(DQ)=   -0.44374570D-02        UMP4(DQ)=   -0.25105557410D+02
 E4(SDQ)=  -0.49512846D-02        UMP4(SDQ)=  -0.25106071237D+02
 VARIATIONAL ENERGIES WITH THE FIRST-ORDER WAVEFUNCTION:
 DE(Corr)= -0.63089692E-01 E(Corr)=     -25.099741675    
 NORM(A)=   0.10287959D+01
 Iteration Nr.   2
 **********************
 DD1Dir will call FoFMem   1 times, MxPair=        10
 NAB=     4 NAA=     1 NBB=     1.
 A-vector RMS=  1.5998972D-03 Max=  9.6077320D-03 conv= 1.00D-05.
 RLE energy=       -0.0732305919
 DE(Corr)= -0.69573645E-01 E(CORR)=     -25.106225628     Delta=-6.48D-03
 NORM(A)=   0.10403480D+01
 Iteration Nr.   3
 **********************
 DD1Dir will call FoFMem   1 times, MxPair=        10
 NAB=     4 NAA=     1 NBB=     1.
 A-vector RMS=  1.2583630D-03 Max=  8.5858325D-03 conv= 1.00D-05.
 RLE energy=       -0.0747116429
 DE(Corr)= -0.73251799E-01 E(CORR)=     -25.109903782     Delta=-3.68D-03
 NORM(A)=   0.10476996D+01
 Iteration Nr.   4
 **********************
 DD1Dir will call FoFMem   1 times, MxPair=        10
 NAB=     4 NAA=     1 NBB=     1.
 A-vector RMS=  7.3599473D-04 Max=  4.9578624D-03 conv= 1.00D-05.
 RLE energy=       -0.0772347299
 DE(Corr)= -0.74838471E-01 E(CORR)=     -25.111490454     Delta=-1.59D-03
 NORM(A)=   0.10675727D+01
 Iteration Nr.   5
 **********************
 DD1Dir will call FoFMem   1 times, MxPair=        10
 NAB=     4 NAA=     1 NBB=     1.
 A-vector RMS=  6.0324867D-04 Max=  4.3452017D-03 conv= 1.00D-05.
 RLE energy=       -0.0793593429
 DE(Corr)= -0.77033025E-01 E(CORR)=     -25.113685008     Delta=-2.19D-03
 NORM(A)=   0.11078612D+01
 Iteration Nr.   6
 **********************
 DD1Dir will call FoFMem   1 times, MxPair=        10
 NAB=     4 NAA=     1 NBB=     1.
 A-vector RMS=  7.4948148D-04 Max=  4.7448170D-03 conv= 1.00D-05.
 RLE energy=       -0.0799578342
 DE(Corr)= -0.79294976E-01 E(CORR)=     -25.115946959     Delta=-2.26D-03
 NORM(A)=   0.11235044D+01
 Iteration Nr.   7
 **********************
 DD1Dir will call FoFMem   1 times, MxPair=        10
 NAB=     4 NAA=     1 NBB=     1.
 A-vector RMS=  4.3432851D-04 Max=  3.0010243D-03 conv= 1.00D-05.
 RLE energy=       -0.0803435580
 DE(Corr)= -0.79920205E-01 E(CORR)=     -25.116572188     Delta=-6.25D-04
 NORM(A)=   0.11307663D+01
 Iteration Nr.   8
 **********************
 DD1Dir will call FoFMem   1 times, MxPair=        10
 NAB=     4 NAA=     1 NBB=     1.
 A-vector RMS=  2.1521462D-04 Max=  1.4424201D-03 conv= 1.00D-05.
 RLE energy=       -0.0803942015
 DE(Corr)= -0.80268226E-01 E(CORR)=     -25.116920209     Delta=-3.48D-04
 NORM(A)=   0.11338444D+01
 Iteration Nr.   9
 **********************
 DD1Dir will call FoFMem   1 times, MxPair=        10
 NAB=     4 NAA=     1 NBB=     1.
 A-vector RMS=  7.9065667D-05 Max=  3.7112573D-04 conv= 1.00D-05.
 RLE energy=       -0.0803924927
 DE(Corr)= -0.80376261E-01 E(CORR)=     -25.117028244     Delta=-1.08D-04
 NORM(A)=   0.11344515D+01
 Iteration Nr.  10
 **********************
 DD1Dir will call FoFMem   1 times, MxPair=        10
 NAB=     4 NAA=     1 NBB=     1.
 A-vector RMS=  2.8142458D-05 Max=  1.0784060D-04 conv= 1.00D-05.
 RLE energy=       -0.0803597928
 DE(Corr)= -0.80383364E-01 E(CORR)=     -25.117035347     Delta=-7.10D-06
 NORM(A)=   0.11343419D+01
 Iteration Nr.  11
 **********************
 DD1Dir will call FoFMem   1 times, MxPair=        10
 NAB=     4 NAA=     1 NBB=     1.
 A-vector RMS=  1.6463129D-05 Max=  8.7485938D-05 conv= 1.00D-05.
 RLE energy=       -0.0803492101
 DE(Corr)= -0.80362530E-01 E(CORR)=     -25.117014513     Delta= 2.08D-05
 NORM(A)=   0.11342617D+01
 Iteration Nr.  12
 **********************
 DD1Dir will call FoFMem   1 times, MxPair=        10
 NAB=     4 NAA=     1 NBB=     1.
 A-vector RMS=  6.9767252D-06 Max=  3.2146534D-05 conv= 1.00D-05.
 RLE energy=       -0.0803413343
 DE(Corr)= -0.80351912E-01 E(CORR)=     -25.117003895     Delta= 1.06D-05
 NORM(A)=   0.11341464D+01
 Iteration Nr.  13
 **********************
 DD1Dir will call FoFMem   1 times, MxPair=        10
 NAB=     4 NAA=     1 NBB=     1.
 A-vector RMS=  4.9879371D-06 Max=  3.4702593D-05 conv= 1.00D-05.
 RLE energy=       -0.0803382336
 DE(Corr)= -0.80344903E-01 E(CORR)=     -25.116996886     Delta= 7.01D-06
 NORM(A)=   0.11340344D+01
 Iteration Nr.  14
 **********************
 DD1Dir will call FoFMem   1 times, MxPair=        10
 NAB=     4 NAA=     1 NBB=     1.
 A-vector RMS=  2.4626946D-06 Max=  1.2786614D-05 conv= 1.00D-05.
 RLE energy=       -0.0803351575
 DE(Corr)= -0.80340285E-01 E(CORR)=     -25.116992268     Delta= 4.62D-06
 NORM(A)=   0.11339109D+01
 Iteration Nr.  15
 **********************
 DD1Dir will call FoFMem   1 times, MxPair=        10
 NAB=     4 NAA=     1 NBB=     1.
 A-vector RMS=  1.4769740D-06 Max=  6.7483669D-06 conv= 1.00D-05.
 RLE energy=       -0.0803334964
 DE(Corr)= -0.80336148E-01 E(CORR)=     -25.116988131     Delta= 4.14D-06
 NORM(A)=   0.11338466D+01
 Iteration Nr.  16
 **********************
 DD1Dir will call FoFMem   1 times, MxPair=        10
 NAB=     4 NAA=     1 NBB=     1.
 A-vector RMS=  9.2780743D-07 Max=  3.6775304D-06 conv= 1.00D-05.
 RLE energy=       -0.0803322703
 DE(Corr)= -0.80333939E-01 E(CORR)=     -25.116985922     Delta= 2.21D-06
 NORM(A)=   0.11338052D+01
 Iteration Nr.  17
 **********************
 DD1Dir will call FoFMem   1 times, MxPair=        10
 NAB=     4 NAA=     1 NBB=     1.
 A-vector RMS=  5.5326168D-07 Max=  2.4021840D-06 conv= 1.00D-05.
 RLE energy=       -0.0803312903
 DE(Corr)= -0.80332418E-01 E(CORR)=     -25.116984401     Delta= 1.52D-06
 NORM(A)=   0.11337802D+01
 Iteration Nr.  18
 **********************
 DD1Dir will call FoFMem   1 times, MxPair=        10
 NAB=     4 NAA=     1 NBB=     1.
 A-vector RMS=  2.8906776D-07 Max=  1.1613567D-06 conv= 1.00D-05.
 RLE energy=       -0.0803309540
 DE(Corr)= -0.80331360E-01 E(CORR)=     -25.116983343     Delta= 1.06D-06
 NORM(A)=   0.11337725D+01
 Iteration Nr.  19
 **********************
 DD1Dir will call FoFMem   1 times, MxPair=        10
 NAB=     4 NAA=     1 NBB=     1.
 A-vector RMS=  1.5662702D-07 Max=  6.8129148D-07 conv= 1.00D-05.
 RLE energy=       -0.0803307767
 DE(Corr)= -0.80330985E-01 E(CORR)=     -25.116982968     Delta= 3.75D-07
 NORM(A)=   0.11337688D+01
 Iteration Nr.  20
 **********************
 DD1Dir will call FoFMem   1 times, MxPair=        10
 NAB=     4 NAA=     1 NBB=     1.
 A-vector RMS=  7.6044559D-08 Max=  3.2542426D-07 conv= 1.00D-05.
 RLE energy=       -0.0803307532
 DE(Corr)= -0.80330809E-01 E(CORR)=     -25.116982792     Delta= 1.76D-07
 NORM(A)=   0.11337680D+01
 Iteration Nr.  21
 **********************
 DD1Dir will call FoFMem   1 times, MxPair=        10
 NAB=     4 NAA=     1 NBB=     1.
 A-vector RMS=  4.8356938D-08 Max=  2.0588483D-07 conv= 1.00D-05.
 RLE energy=       -0.0803307378
 DE(Corr)= -0.80330773E-01 E(CORR)=     -25.116982756     Delta= 3.57D-08
 NORM(A)=   0.11337673D+01
 CI/CC converged in   21 iterations to DelEn= 3.57D-08 Conv= 1.00D-07 ErrA1= 4.84D-08 Conv= 1.00D-05
 Wavefunction amplitudes converged. E(Corr)=     -25.116982756    
 Dominant configurations:
 ***********************
 Spin Case        I    J    A    B          Value
    AA            3         6           -0.112640D+00
    AA            3        11            0.152409D+00
   ABAB           3    2   11   11      -0.140410D+00
   ABAB           3    3   11   11       0.155083D+00
 Largest amplitude= 1.55D-01
 Time for triples=        2.56 seconds.
 T4(CCSD)= -0.47912892D-02
 T5(CCSD)=  0.77044302D-04
 CCSD(T)= -0.25121697001D+02

 S**2, projected HF & approx projected MPn energies after annihilation of
 unwanted spin states (see manual for definitions):

 spins       (S**2,0) (S**2,1)    PUHF        PMP2        PMP3        PMP4
 annihilated
 s+1        -0.03151 -0.00437  -25.056355  -25.107662  -25.119937
 s+1,s+2     0.00000 -0.00000  -25.052539  -25.103953  -25.116342

 Discarding MO integrals.
 Leave Link  913 at Sun May 22 21:14:27 2022, MaxMem=   104857600 cpu:               7.8 elap:               7.8
 (Enter /apps/software/g16/l601.exe)
 Copying SCF densities to generalized density rwf, IOpCl= 1 IROHF=0.

 **********************************************************************

            Population analysis using the SCF density.

 **********************************************************************

 Orbital symmetries:
 Alpha Orbitals:
       Occupied  (SG) (SG) (SG)
       Virtual   (PI) (PI) (SG) (SG) (PI) (PI) (SG) (SG) (DLTA)
                 (DLTA) (PI) (PI) (SG) (PI) (PI) (SG) (SG) (PI)
                 (PI) (SG) (PHI) (PHI) (DLTA) (DLTA) (PI) (PI)
                 (DLTA) (DLTA) (SG) (PI) (PI) (SG) (SG) (DLTA)
                 (DLTA) (PI) (PI) (SG) (PI) (PI) (SG) (PI) (PI)
                 (SG) (DLTA) (DLTA) (PHI) (PHI) (?A) (?A) (PI)
                 (PI) (SG) (DLTA) (DLTA) (SG) (PHI) (PHI) (PI)
                 (PI) (DLTA) (DLTA) (SG) (PI) (PI) (PHI) (PHI)
                 (SG) (DLTA) (DLTA) (SG) (SG) (PI) (PI) (DLTA)
                 (DLTA) (PI) (PI) (PI) (PI) (SG) (SG) (PI) (PI)
                 (?A) (?A) (PHI) (PHI) (SG) (DLTA) (DLTA) (PI)
                 (PI) (DLTA) (DLTA) (SG) (PHI) (PHI) (PI) (PI)
                 (DLTA) (DLTA) (PI) (PI) (SG) (SG) (PHI) (PHI)
                 (DLTA) (DLTA) (PI) (PI) (SG) (SG) (PI) (PI) (SG)
                 (DLTA) (DLTA) (PI) (PI) (SG) (SG)
 Beta  Orbitals:
       Occupied  (SG) (SG) (SG)
       Virtual   (PI) (PI) (SG) (SG) (PI) (PI) (SG) (SG) (DLTA)
                 (DLTA) (PI) (PI) (SG) (PI) (PI) (SG) (PI) (PI)
                 (SG) (SG) (PHI) (PHI) (DLTA) (DLTA) (SG) (DLTA)
                 (DLTA) (PI) (PI) (PI) (PI) (SG) (SG) (DLTA) (DLTA)
                 (PI) (PI) (SG) (PI) (PI) (SG) (PI) (PI) (SG) (DLTA)
                 (DLTA) (PHI) (PHI) (?A) (?A) (PI) (PI) (DLTA)
                 (DLTA) (PHI) (PHI) (SG) (SG) (PI) (PI) (DLTA)
                 (DLTA) (SG) (PHI) (PHI) (PI) (PI) (SG) (DLTA)
                 (DLTA) (SG) (SG) (PI) (PI) (DLTA) (DLTA) (PI)
                 (PI) (PI) (PI) (SG) (SG) (PI) (PI) (?A) (?A) (PHI)
                 (PHI) (DLTA) (DLTA) (SG) (PI) (PI) (DLTA) (DLTA)
                 (SG) (PHI) (PHI) (PI) (PI) (DLTA) (DLTA) (PI)
                 (PI) (SG) (SG) (PHI) (PHI) (DLTA) (DLTA) (PI)
                 (PI) (SG) (SG) (PI) (PI) (SG) (DLTA) (DLTA) (PI)
                 (PI) (SG) (SG)
 The electronic state is 1-SG.
 Alpha  occ. eigenvalues --   -7.71583  -0.55137  -0.32355
 Alpha virt. eigenvalues --    0.02066   0.02066   0.03011   0.04687   0.07378
 Alpha virt. eigenvalues --    0.07378   0.08701   0.10751   0.14418   0.14418
 Alpha virt. eigenvalues --    0.14450   0.14450   0.18913   0.26277   0.26277
 Alpha virt. eigenvalues --    0.28520   0.29485   0.31201   0.31201   0.36163
 Alpha virt. eigenvalues --    0.45920   0.45920   0.45944   0.45944   0.47861
 Alpha virt. eigenvalues --    0.47861   0.49571   0.49571   0.50744   0.53077
 Alpha virt. eigenvalues --    0.53077   0.58104   0.62690   0.70782   0.70782
 Alpha virt. eigenvalues --    0.86066   0.86066   0.87470   0.89215   0.89215
 Alpha virt. eigenvalues --    0.92803   1.04903   1.04903   1.26606   1.35407
 Alpha virt. eigenvalues --    1.35407   1.35954   1.35954   1.36534   1.36534
 Alpha virt. eigenvalues --    1.37534   1.37534   1.40110   1.40334   1.40334
 Alpha virt. eigenvalues --    1.41798   1.43303   1.43303   1.43603   1.43603
 Alpha virt. eigenvalues --    1.45458   1.45458   1.54181   1.61279   1.61279
 Alpha virt. eigenvalues --    1.61667   1.61667   1.69069   1.81581   1.81581
 Alpha virt. eigenvalues --    1.92081   2.08696   2.09449   2.09449   2.54389
 Alpha virt. eigenvalues --    2.54389   2.65915   2.65915   2.76223   2.76223
 Alpha virt. eigenvalues --    2.82840   3.09008   3.74232   3.74232   3.91172
 Alpha virt. eigenvalues --    3.91172   3.92962   3.92962   3.93690   3.94475
 Alpha virt. eigenvalues --    3.94475   3.95729   3.95729   3.98684   3.98684
 Alpha virt. eigenvalues --    3.99832   4.07692   4.07692   4.08485   4.08485
 Alpha virt. eigenvalues --    4.09576   4.09576   4.20748   4.20748   4.26406
 Alpha virt. eigenvalues --    4.44267   6.60890   6.60890   6.65804   6.65804
 Alpha virt. eigenvalues --    6.76258   6.76258   6.78029   7.66117   8.08218
 Alpha virt. eigenvalues --    8.08218   8.45001   8.47608   8.47608   8.55315
 Alpha virt. eigenvalues --    8.55315   8.69550  13.23142
  Beta  occ. eigenvalues --   -7.70302  -0.49503  -0.43384
  Beta virt. eigenvalues --    0.02406   0.02406   0.03668   0.05518   0.07939
  Beta virt. eigenvalues --    0.07939   0.08853   0.11487   0.14419   0.14419
  Beta virt. eigenvalues --    0.14463   0.14463   0.18826   0.24811   0.24811
  Beta virt. eigenvalues --    0.25874   0.31798   0.31798   0.34885   0.36883
  Beta virt. eigenvalues --    0.45915   0.45915   0.46165   0.46165   0.49536
  Beta virt. eigenvalues --    0.49668   0.49668   0.50475   0.50475   0.53351
  Beta virt. eigenvalues --    0.53351   0.54237   0.62215   0.69721   0.69721
  Beta virt. eigenvalues --    0.80454   0.80454   0.87421   0.88507   0.88507
  Beta virt. eigenvalues --    0.94459   1.05598   1.05598   1.28708   1.35888
  Beta virt. eigenvalues --    1.35888   1.36329   1.36329   1.36505   1.36505
  Beta virt. eigenvalues --    1.40624   1.40624   1.40765   1.40765   1.43333
  Beta virt. eigenvalues --    1.43333   1.43383   1.43890   1.46572   1.46572
  Beta virt. eigenvalues --    1.46856   1.46856   1.55661   1.60658   1.60658
  Beta virt. eigenvalues --    1.62212   1.62212   1.63882   1.80958   1.80958
  Beta virt. eigenvalues --    1.89665   2.07101   2.08524   2.08524   2.50736
  Beta virt. eigenvalues --    2.50736   2.62090   2.62090   2.70547   2.70547
  Beta virt. eigenvalues --    2.80211   3.05514   3.74755   3.74755   3.91194
  Beta virt. eigenvalues --    3.91194   3.93948   3.93948   3.95033   3.95033
  Beta virt. eigenvalues --    3.96511   3.99136   3.99136   4.00239   4.00239
  Beta virt. eigenvalues --    4.03279   4.07873   4.07873   4.10599   4.10599
  Beta virt. eigenvalues --    4.11520   4.11520   4.23595   4.23595   4.29258
  Beta virt. eigenvalues --    4.47534   6.58167   6.58167   6.63143   6.63143
  Beta virt. eigenvalues --    6.73667   6.73667   6.75458   7.58682   8.02811
  Beta virt. eigenvalues --    8.02811   8.40073   8.43621   8.43621   8.51401
  Beta virt. eigenvalues --    8.51401   8.65679  13.24022
          Condensed to atoms (all electrons):
               1          2
     1  B    4.955930   0.008077
     2  H    0.008077   1.027916
          Atomic-Atomic Spin Densities.
               1          2
     1  B    0.919677   0.044862
     2  H    0.044862  -1.009401
 Mulliken charges and spin densities:
               1          2
     1  B    0.035993   0.964539
     2  H   -0.035993  -0.964539
 Sum of Mulliken charges =   0.00000   0.00000
 Mulliken charges and spin densities with hydrogens summed into heavy atoms:
               1          2
     1  B    0.000000   0.000000
 Electronic spatial extent (au):  <R**2>=             39.6133
 Charge=              0.0000 electrons
 Dipole moment (field-independent basis, Debye):
    X=              0.0000    Y=              0.0000    Z=              0.4550  Tot=              0.4550
 Quadrupole moment (field-independent basis, Debye-Ang):
   XX=             -7.3150   YY=             -7.3150   ZZ=            -11.5932
   XY=              0.0000   XZ=              0.0000   YZ=              0.0000
 Traceless Quadrupole moment (field-independent basis, Debye-Ang):
   XX=              1.4261   YY=              1.4261   ZZ=             -2.8521
   XY=              0.0000   XZ=              0.0000   YZ=              0.0000
 Octapole moment (field-independent basis, Debye-Ang**2):
  XXX=              0.0000  YYY=              0.0000  ZZZ=             -0.0087  XYY=              0.0000
  XXY=              0.0000  XXZ=              0.6310  XZZ=              0.0000  YZZ=              0.0000
  YYZ=              0.6310  XYZ=              0.0000
 Hexadecapole moment (field-independent basis, Debye-Ang**3):
 XXXX=            -10.6897 YYYY=            -10.6897 ZZZZ=            -77.7096 XXXY=              0.0000
 XXXZ=              0.0000 YYYX=              0.0000 YYYZ=              0.0000 ZZZX=              0.0000
 ZZZY=              0.0000 XXYY=             -3.5632 XXZZ=            -13.3707 YYZZ=            -13.3707
 XXYZ=              0.0000 YYXZ=              0.0000 ZZXY=              0.0000
 N-N= 1.017648482538D+00 E-N=-5.989378839367D+01  KE= 2.500782639924D+01
 Symmetry A1   KE= 2.500782639924D+01
 Symmetry A2   KE= 3.690900736170D-49
 Symmetry B1   KE= 0.000000000000D+00
 Symmetry B2   KE= 0.000000000000D+00
 Symmetry A1   SP=-1.649090250308D-15
 Symmetry A2   SP= 4.809026225312D-49
 Symmetry B1   SP= 0.000000000000D+00
 Symmetry B2   SP= 0.000000000000D+00
 Leave Link  601 at Sun May 22 21:14:27 2022, MaxMem=   104857600 cpu:               0.1 elap:               0.1
 (Enter /apps/software/g16/l9999.exe)
 1\1\GINC-CNODE16\SP\UCCSD(T)-FC\Aug-CC-pVQZ\B1H1\LCZ\22-May-2022\0\\#p
  UHF/aug-cc-pVQZ guess=read CCSD(T,FC)\\BH UCCSD at 2.6 Angstrom\\0,1\
 B,0,0.,0.,0.\H,0,2.6,0.,0.\\Version=ES64L-G16RevA.03\State=1-SG\HF=-25
 .036652\MP2=-25.0883476\MP3=-25.10112\MP4D=-25.1069424\MP4DQ=-25.10555
 74\PUHF=-25.0563552\PMP2-0=-25.107662\PMP3-0=-25.1199367\MP4SDQ=-25.10
 60712\CCSD=-25.1169828\CCSD(T)=-25.121697\S2=0.884051\S2-1=0.84792\S2A
 =0.062047\RMSD=6.657e-10\PG=C*V [C*(H1B1)]\\@


 ADAM SMITH SAID, "THE REAL PRICE OF ANYTHING IS THE TOIL AND TROUBLE
 OF ACQUIRING IT."  BUT IN ALL UNDERTAKINGS WITH NATURE WE SHOULD FIRST
 READ CAREFULLY THE SMALL PRINT IN THE CONTRACT. THIS MIGHT DISCLOSE
 THAT THE REAL PRICE IS TO BE PAID BY THOSE WHO INHERIT THE DEPLETION
 AND DESPOILATION THAT FOLLOWS.
                               -- E. R. HARRISON IN "COSMOLOGY" (1980)
 Job cpu time:       0 days  0 hours  0 minutes 22.6 seconds.
 Elapsed time:       0 days  0 hours  0 minutes 22.6 seconds.
 File lengths (MBytes):  RWF=    140 Int=      0 D2E=      0 Chk=     67 Scr=      1
 Normal termination of Gaussian 16 at Sun May 22 21:14:28 2022.

Sender: Unischeduler System <lcz@mgt01>
Subject: Job 134381: <#!/bin/bash
#BSUB -J intel
#BSUB -o BH-2.6-UCCSD_T-G.out
#BSUB -n 8
#BSUB -q cqueue
#BSUB -R span[hosts=1]
export g16root=/apps/software
source /apps/software/g16/bsd/g16.profile
export GAUSS_SCRDIR=/scratch
/apps/software/g16/g16 < BH-2.6-UCCSD_T-G.inp > BH-2.6-UCCSD_T-G.out> Done

Job <#!/bin/bash
#BSUB -J intel
#BSUB -o BH-2.6-UCCSD_T-G.out
#BSUB -n 8
#BSUB -q cqueue
#BSUB -R span[hosts=1]
export g16root=/apps/software
source /apps/software/g16/bsd/g16.profile
export GAUSS_SCRDIR=/scratch
/apps/software/g16/g16 < BH-2.6-UCCSD_T-G.inp > BH-2.6-UCCSD_T-G.out> was submitted from host <mgt01> by user <lcz>.
Job was executed on host(s) <8*cnode16>, in queue <cqueue>, as user <lcz>.
</apps/users/lcz> was used as the home directory.
</apps/users/lcz/exe13/UCCSD_T> was used as the working directory.
Started at 2022-05-22 21:14:05
Results reported at 2022-05-22 21:14:28

Your job looked like:

------------------------------------------------------------
# User input
#!/bin/bash
#BSUB -J intel
#BSUB -o BH-2.6-UCCSD_T-G.out
#BSUB -n 8
#BSUB -q cqueue
#BSUB -R span[hosts=1]
export g16root=/apps/software
source /apps/software/g16/bsd/g16.profile
export GAUSS_SCRDIR=/scratch
/apps/software/g16/g16 < BH-2.6-UCCSD_T-G.inp > BH-2.6-UCCSD_T-G.out
------------------------------------------------------------

Successfully completed.

Resource usage summary:

    CPU time   :           20.18 sec.
    Max Memory :               484 MB
    Max Processes  :               5


The output (if any) follows:

