 Entering Gaussian System, Link 0=/apps/software/g16/g16
 Initial command:
 /apps/software/g16/l1.exe "/scratch/Gau-383190.inp" -scrdir="/scratch/"
 Entering Link 1 = /apps/software/g16/l1.exe PID=    383191.
  
 Copyright (c) 1988,1990,1992,1993,1995,1998,2003,2009,2016,
            Gaussian, Inc.  All Rights Reserved.
  
 This is part of the Gaussian(R) 16 program.  It is based on
 the Gaussian(R) 09 system (copyright 2009, Gaussian, Inc.),
 the Gaussian(R) 03 system (copyright 2003, Gaussian, Inc.),
 the Gaussian(R) 98 system (copyright 1998, Gaussian, Inc.),
 the Gaussian(R) 94 system (copyright 1995, Gaussian, Inc.),
 the Gaussian 92(TM) system (copyright 1992, Gaussian, Inc.),
 the Gaussian 90(TM) system (copyright 1990, Gaussian, Inc.),
 the Gaussian 88(TM) system (copyright 1988, Gaussian, Inc.),
 the Gaussian 86(TM) system (copyright 1986, Carnegie Mellon
 University), and the Gaussian 82(TM) system (copyright 1983,
 Carnegie Mellon University). Gaussian is a federally registered
 trademark of Gaussian, Inc.
  
 This software contains proprietary and confidential information,
 including trade secrets, belonging to Gaussian, Inc.
  
 This software is provided under written license and may be
 used, copied, transmitted, or stored only in accord with that
 written license.
  
 The following legend is applicable only to US Government
 contracts under FAR:
  
                    RESTRICTED RIGHTS LEGEND
  
 Use, reproduction and disclosure by the US Government is
 subject to restrictions as set forth in subparagraphs (a)
 and (c) of the Commercial Computer Software - Restricted
 Rights clause in FAR 52.227-19.
  
 Gaussian, Inc.
 340 Quinnipiac St., Bldg. 40, Wallingford CT 06492
  
  
 ---------------------------------------------------------------
 Warning -- This program may not be used in any manner that
 competes with the business of Gaussian, Inc. or will provide
 assistance to any competitor of Gaussian, Inc.  The licensee
 of this program is prohibited from giving any competitor of
 Gaussian, Inc. access to this program.  By using this program,
 the user acknowledges that Gaussian, Inc. is engaged in the
 business of creating and licensing software in the field of
 computational chemistry and represents and warrants to the
 licensee that it is not a competitor of Gaussian, Inc. and that
 it will not use this program in any manner prohibited above.
 ---------------------------------------------------------------
  

 Cite this work as:
 Gaussian 16, Revision A.03,
 M. J. Frisch, G. W. Trucks, H. B. Schlegel, G. E. Scuseria, 
 M. A. Robb, J. R. Cheeseman, G. Scalmani, V. Barone, 
 G. A. Petersson, H. Nakatsuji, X. Li, M. Caricato, A. V. Marenich, 
 J. Bloino, B. G. Janesko, R. Gomperts, B. Mennucci, H. P. Hratchian, 
 J. V. Ortiz, A. F. Izmaylov, J. L. Sonnenberg, D. Williams-Young, 
 F. Ding, F. Lipparini, F. Egidi, J. Goings, B. Peng, A. Petrone, 
 T. Henderson, D. Ranasinghe, V. G. Zakrzewski, J. Gao, N. Rega, 
 G. Zheng, W. Liang, M. Hada, M. Ehara, K. Toyota, R. Fukuda, 
 J. Hasegawa, M. Ishida, T. Nakajima, Y. Honda, O. Kitao, H. Nakai, 
 T. Vreven, K. Throssell, J. A. Montgomery, Jr., J. E. Peralta, 
 F. Ogliaro, M. J. Bearpark, J. J. Heyd, E. N. Brothers, K. N. Kudin, 
 V. N. Staroverov, T. A. Keith, R. Kobayashi, J. Normand, 
 K. Raghavachari, A. P. Rendell, J. C. Burant, S. S. Iyengar, 
 J. Tomasi, M. Cossi, J. M. Millam, M. Klene, C. Adamo, R. Cammi, 
 J. W. Ochterski, R. L. Martin, K. Morokuma, O. Farkas, 
 J. B. Foresman, and D. J. Fox, Gaussian, Inc., Wallingford CT, 2016.
 
 ******************************************
 Gaussian 16:  ES64L-G16RevA.03 25-Dec-2016
                22-May-2022 
 ******************************************
 %oldchk=BH-2.8-UHF-G.chk
 %chk=BH-2.8-UCCSD_T-G.chk
 Copying data from "BH-2.8-UHF-G.chk" to current chk file "BH-2.8-UCCSD_T-G.chk"
 IOpt=  2 FromEx=T IUOpen= 4 IOptOp= 5 NList=   0 IFRang= 0 IUIn= 4 IUOut= 2.
 ----------------------------------------
 #p UHF/aug-cc-pVQZ guess=read CCSD(T,FC)
 ----------------------------------------
 1/38=1,172=1/1;
 2/12=2,17=6,18=5,40=1/2;
 3/5=16,6=2,7=10,11=2,25=1,30=1,116=2/1,2,3;
 4/5=1/1;
 5/5=2,38=6/2;
 8/6=4,9=120000,10=1/1,4;
 9/5=7,14=2/13;
 6/7=2,8=2,9=2,10=2/1;
 99/5=1,9=1/99;
 Leave Link    1 at Sun May 22 21:14:09 2022, MaxMem=   104857600 cpu:               0.0 elap:               0.0
 (Enter /apps/software/g16/l101.exe)
 ------------------------
 BH UCCSD at 2.8 Angstrom
 ------------------------
 Symbolic Z-matrix:
 Charge =  0 Multiplicity = 1
 B                     0.        0.        0. 
 H                     2.8       0.        0. 
 
 ITRead=  0  0
 MicOpt= -1 -1
 NAtoms=      2 NQM=        2 NQMF=       0 NMMI=      0 NMMIF=      0
                NMic=       0 NMicF=      0.
                    Isotopes and Nuclear Properties:
 (Nuclear quadrupole moments (NQMom) in fm**2, nuclear magnetic moments (NMagM)
  in nuclear magnetons)

  Atom         1           2
 IAtWgt=          11           1
 AtmWgt=  11.0093053   1.0078250
 NucSpn=           3           1
 AtZEff=  -0.0000000  -0.0000000
 NQMom=    4.0590000   0.0000000
 NMagM=    2.6886370   2.7928460
 AtZNuc=   5.0000000   1.0000000
 Leave Link  101 at Sun May 22 21:14:09 2022, MaxMem=   104857600 cpu:               0.1 elap:               0.1
 (Enter /apps/software/g16/l202.exe)
                          Input orientation:                          
 ---------------------------------------------------------------------
 Center     Atomic      Atomic             Coordinates (Angstroms)
 Number     Number       Type             X           Y           Z
 ---------------------------------------------------------------------
      1          5           0        0.000000    0.000000    0.000000
      2          1           0        2.800000    0.000000    0.000000
 ---------------------------------------------------------------------
 Stoichiometry    BH
 Framework group  C*V[C*(HB)]
 Deg. of freedom     1
 Full point group                 C*V     NOp   4
 Largest Abelian subgroup         C2V     NOp   4
 Largest concise Abelian subgroup C1      NOp   1
                         Standard orientation:                         
 ---------------------------------------------------------------------
 Center     Atomic      Atomic             Coordinates (Angstroms)
 Number     Number       Type             X           Y           Z
 ---------------------------------------------------------------------
      1          5           0        0.000000    0.000000    0.466667
      2          1           0        0.000000    0.000000   -2.333333
 ---------------------------------------------------------------------
 Rotational constants (GHZ):           0.0000000          69.8163034          69.8163034
 Leave Link  202 at Sun May 22 21:14:09 2022, MaxMem=   104857600 cpu:               0.0 elap:               0.0
 (Enter /apps/software/g16/l301.exe)
 Standard basis: Aug-CC-pVQZ (5D, 7F)
 Ernie: Thresh=  0.10000D-02 Tol=  0.10000D-05 Strict=F.
 Ernie:  4 primitive shells out of 54 were deleted.
 There are    68 symmetry adapted cartesian basis functions of A1  symmetry.
 There are    18 symmetry adapted cartesian basis functions of A2  symmetry.
 There are    37 symmetry adapted cartesian basis functions of B1  symmetry.
 There are    37 symmetry adapted cartesian basis functions of B2  symmetry.
 There are    50 symmetry adapted basis functions of A1  symmetry.
 There are    16 symmetry adapted basis functions of A2  symmetry.
 There are    30 symmetry adapted basis functions of B1  symmetry.
 There are    30 symmetry adapted basis functions of B2  symmetry.
   126 basis functions,   180 primitive gaussians,   160 cartesian basis functions
     3 alpha electrons        3 beta electrons
       nuclear repulsion energy         0.9449593052 Hartrees.
 IExCor=    0 DFT=F Ex=HF Corr=None ExCW=0 ScaHFX=  1.000000
 ScaDFX=  1.000000  1.000000  1.000000  1.000000 ScalE2=  1.000000  1.000000
 IRadAn=      5 IRanWt=     -1 IRanGd=            0 ICorTp=0 IEmpDi=  4
 NAtoms=    2 NActive=    2 NUniq=    2 SFac= 1.00D+00 NAtFMM=   60 NAOKFM=F Big=F
 Integral buffers will be    131072 words long.
 Raffenetti 2 integral format.
 Two-electron integral symmetry is turned on.
 Leave Link  301 at Sun May 22 21:14:09 2022, MaxMem=   104857600 cpu:               0.1 elap:               0.1
 (Enter /apps/software/g16/l302.exe)
 NPDir=0 NMtPBC=     1 NCelOv=     1 NCel=       1 NClECP=     1 NCelD=      1
         NCelK=      1 NCelE2=     1 NClLst=     1 CellRange=     0.0.
 One-electron integrals computed using PRISM.
 One-electron integral symmetry used in STVInt
 NBasis=   126 RedAO= T EigKep=  1.64D-03  NBF=    50    16    30    30
 NBsUse=   126 1.00D-06 EigRej= -1.00D+00 NBFU=    50    16    30    30
 Leave Link  302 at Sun May 22 21:14:09 2022, MaxMem=   104857600 cpu:               0.1 elap:               0.1
 (Enter /apps/software/g16/l303.exe)
 DipDrv:  MaxL=1.
 Leave Link  303 at Sun May 22 21:14:09 2022, MaxMem=   104857600 cpu:               0.0 elap:               0.0
 (Enter /apps/software/g16/l401.exe)
 Initial guess from the checkpoint file:  "BH-2.8-UCCSD_T-G.chk"
 B after Tr=     0.000000    0.000000    0.000000
         Rot=    1.000000    0.000000    0.000000    0.000000 Ang=   0.00 deg.
 Guess basis will be translated and rotated to current coordinates.
 JPrj=2 DoOrth=T DoCkMO=T.
 Initial guess orbital symmetries:
 Alpha Orbitals:
       Occupied  (SG) (SG) (SG)
       Virtual   (PI) (PI) (SG) (SG) (PI) (PI) (SG) (SG) (DLTA)
                 (DLTA) (PI) (PI) (SG) (PI) (PI) (SG) (PI) (PI)
                 (SG) (SG) (PHI) (PHI) (DLTA) (DLTA) (SG) (DLTA)
                 (DLTA) (PI) (PI) (PI) (PI) (SG) (SG) (DLTA) (DLTA)
                 (PI) (PI) (PI) (PI) (SG) (SG) (PI) (PI) (SG) (DLTA)
                 (DLTA) (?A) (?A) (PHI) (PHI) (PI) (PI) (SG) (DLTA)
                 (DLTA) (PHI) (PHI) (SG) (PI) (PI) (DLTA) (DLTA)
                 (SG) (PI) (PI) (PHI) (PHI) (SG) (DLTA) (DLTA)
                 (SG) (PI) (PI) (SG) (DLTA) (DLTA) (PI) (PI) (PI)
                 (PI) (SG) (SG) (PI) (PI) (?A) (?A) (SG) (PHI)
                 (PHI) (DLTA) (DLTA) (DLTA) (DLTA) (PI) (PI) (SG)
                 (PHI) (PHI) (PI) (PI) (DLTA) (DLTA) (PI) (PI)
                 (SG) (SG) (PHI) (PHI) (DLTA) (DLTA) (PI) (PI)
                 (SG) (SG) (PI) (PI) (SG) (DLTA) (DLTA) (PI) (PI)
                 (SG) (SG)
 Beta  Orbitals:
       Occupied  (SG) (SG) (SG)
       Virtual   (PI) (PI) (SG) (SG) (PI) (PI) (SG) (SG) (DLTA)
                 (DLTA) (PI) (PI) (SG) (PI) (PI) (SG) (SG) (PI)
                 (PI) (SG) (DLTA) (DLTA) (PHI) (PHI) (PI) (PI)
                 (DLTA) (DLTA) (SG) (PI) (PI) (SG) (SG) (DLTA)
                 (DLTA) (PI) (PI) (SG) (PI) (PI) (SG) (PI) (PI)
                 (SG) (DLTA) (DLTA) (?A) (?A) (PHI) (PHI) (PI)
                 (PI) (SG) (SG) (DLTA) (DLTA) (PI) (PI) (PHI) (PHI)
                 (DLTA) (DLTA) (SG) (PI) (PI) (PHI) (PHI) (SG)
                 (DLTA) (DLTA) (SG) (PI) (PI) (SG) (DLTA) (DLTA)
                 (PI) (PI) (PI) (PI) (SG) (SG) (PI) (PI) (SG) (?A)
                 (?A) (PHI) (PHI) (DLTA) (DLTA) (PI) (PI) (DLTA)
                 (DLTA) (SG) (PHI) (PHI) (PI) (PI) (DLTA) (DLTA)
                 (PI) (PI) (SG) (SG) (PHI) (PHI) (DLTA) (DLTA)
                 (PI) (PI) (SG) (SG) (PI) (PI) (SG) (DLTA) (DLTA)
                 (PI) (PI) (SG) (SG)
 The electronic state of the initial guess is 1-SG.
 Initial guess <Sx>= 0.0000 <Sy>= 0.0000 <Sz>= 0.0000 <S**2>= 0.9345 S= 0.5883
 Leave Link  401 at Sun May 22 21:14:09 2022, MaxMem=   104857600 cpu:               0.1 elap:               0.1
 (Enter /apps/software/g16/l502.exe)
 Keep R1 and R2 ints in memory in symmetry-blocked form, NReq=40143665.
 FoFCou: FMM=F IPFlag=           0 FMFlag=           0 FMFlg1=           0
         NFxFlg=           0 DoJE=F BraDBF=F KetDBF=F FulRan=T
         wScrn=  0.000000 ICntrl=       600 IOpCl=  0 I1Cent=           0 NGrid=           0
         NMat0=    1 NMatS0=   8001 NMatT0=    0 NMatD0=    1 NMtDS0=    0 NMtDT0=    0
 Petite list used in FoFCou.
 UHF open shell SCF:
 Using DIIS extrapolation, IDIIS=  1040.
 NGot=   104857600 LenX=    88563632 LenY=    88537591
 Requested convergence on RMS density matrix=1.00D-08 within 128 cycles.
 Requested convergence on MAX density matrix=1.00D-06.
 Requested convergence on             energy=1.00D-06.
 No special actions if energy rises.

 Cycle   1  Pass 1  IDiag  1:
 E= -25.0350126639543    
 DIIS: error= 1.94D-08 at cycle   1 NSaved=   1.
 NSaved= 1 IEnMin= 1 EnMin= -25.0350126639543     IErMin= 1 ErrMin= 1.94D-08
 ErrMax= 1.94D-08  0.00D+00 EMaxC= 1.00D-01 BMatC= 4.59D-14 BMatP= 4.59D-14
 IDIUse=1 WtCom= 1.00D+00 WtEn= 0.00D+00
 Coeff-Com:  0.100D+01
 Coeff:      0.100D+01
 Gap=     0.466 Goal=   None    Shift=    0.000
 Gap=     0.343 Goal=   None    Shift=    0.000
 RMSDP=9.03D-10 MaxDP=4.49D-08              OVMax= 3.00D-08

 SCF Done:  E(UHF) =  -25.0350126640     A.U. after    1 cycles
            NFock=  1  Conv=0.90D-09     -V/T= 2.0007
 <Sx>= 0.0000 <Sy>= 0.0000 <Sz>= 0.0000 <S**2>= 0.9345 S= 0.5883
 <L.S>=  0.00000000000    
 KE= 2.501768962870D+01 PE=-5.976671014268D+01 EE= 8.769048544806D+00
 Annihilation of the first spin contaminant:
 S**2 before annihilation     0.9345,   after     0.0718
 Leave Link  502 at Sun May 22 21:14:13 2022, MaxMem=   104857600 cpu:               3.7 elap:               3.7
 (Enter /apps/software/g16/l801.exe)
 Windowed orbitals will be sorted by symmetry type.
 ExpMin= 1.88D-02 ExpMax= 2.39D+04 ExpMxC= 2.30D+02 IAcc=3 IRadAn=         5 AccDes= 0.00D+00
 HarFok:  IExCor=  205 AccDes= 0.00D+00 IRadAn=         5 IDoV=-2 UseB2=F ITyADJ=14
 ICtDFT= 12500011 ScaDFX=  1.000000  1.000000  1.000000  1.000000
 DSYEVD-2 returned Info=        3401 IAlg= 4 N=    80 NDim=    80 NE2=     1309686 trying  DSYEV.
 Largest valence mixing into a core orbital is  4.09D-04
 Largest core mixing into a valence orbital is  1.19D-04
 Largest valence mixing into a core orbital is  3.13D-04
 Largest core mixing into a valence orbital is  1.08D-04
 Range of M.O.s used for correlation:     2   126
 NBasis=   126 NAE=     3 NBE=     3 NFC=     1 NFV=     0
 NROrb=    125 NOA=     2 NOB=     2 NVA=   123 NVB=   123
 Leave Link  801 at Sun May 22 21:14:13 2022, MaxMem=   104857600 cpu:               0.1 elap:               0.1
 (Enter /apps/software/g16/l804.exe)
 Open-shell transformation, MDV=   104857600 ITran=4 ISComp=2.
 Unit  1 TFree=        991730 TCopy=        422292.
 Semi-Direct transformation.
 ModeAB=           2 MOrb=             2 LenV=     104169681
 LASXX=       493564 LTotXX=      493564 LenRXX=      493564
 LTotAB=      510115 MaxLAS=     3220000 LenRXY=     3220000
 NonZer=     3359250 LenScr=     5754880 LnRSAI=           0
 LnScr1=           0 LExtra=           0 Total=      9468444
 MaxDsk=          -1 SrtSym=           F ITran=            4
 DoSDTr:  NPSUse=  1
 JobTyp=1 Pass  1:  I=   1 to   2.
 (rs|ai) integrals will be sorted in core.
 Complete sort for first half transformation.
 First half transformation complete.
 Complete sort for second half transformation.
 Second half transformation complete.
 ModeAB=           2 MOrb=             2 LenV=     104169681
 LASXX=       493564 LTotXX=      493564 LenRXX=     3220000
 LTotAB=      492482 MaxLAS=     3220000 LenRXY=      492482
 NonZer=     3359250 LenScr=     5754880 LnRSAI=           0
 LnScr1=           0 LExtra=           0 Total=      9467362
 MaxDsk=          -1 SrtSym=           F ITran=            4
 DoSDTr:  NPSUse=  1
 JobTyp=2 Pass  1:  I=   1 to   2.
 (rs|ai) integrals will be sorted in core.
 Complete sort for first half transformation.
 First half transformation complete.
 Complete sort for second half transformation.
 Second half transformation complete.
 Spin components of T(2) and E(2):
     alpha-alpha T2 =       0.2072195243D-03 E2=     -0.3420196887D-03
     alpha-beta  T2 =       0.2638756352D-01 E2=     -0.4628161085D-01
     beta-beta   T2 =       0.1727970916D-02 E2=     -0.3456967270D-02
 ANorm=    0.1014062500D+01
 E2 =    -0.5008059781D-01 EUMP2 =    -0.25085093261766D+02
 (S**2,0)=  0.93448D+00           (S**2,1)=  0.90775D+00
 E(PUHF)=      -0.25050804233D+02        E(PMP2)=      -0.25100667458D+02
 Leave Link  804 at Sun May 22 21:14:24 2022, MaxMem=   104857600 cpu:              11.2 elap:              11.3
 (Enter /apps/software/g16/l913.exe)
 CIDS:  MDV=   104857600.
 Frozen-core window:  NFC=   1 NFV=   0.
 IFCWin=0 IBDFC=1 NFBD=     0     0 NFCmp=     0     0 NFFFC=     0     0
 Using original routines for 1st iteration.
 Using DD4UQ or CC4UQ for 2nd and later iterations.
 Keep R2 and R3 ints in memory in symmetry-blocked form, NReq=40147367.
 FoFCou: FMM=F IPFlag=           0 FMFlag=           0 FMFlg1=           0
         NFxFlg=           0 DoJE=F BraDBF=F KetDBF=F FulRan=T
         wScrn=  0.000000 ICntrl=       600 IOpCl=  0 I1Cent=           0 NGrid=           0
         NMat0=    1 NMatS0=   8001 NMatT0=    0 NMatD0=    1 NMtDS0=    0 NMtDT0=    0
 Petite list used in FoFCou.
 CIDS: In Core Option IDoMem=           1.
 CCSD(T)
 =======
 Iterations=  50 Convergence= 0.100D-06
 Produce multiple copies of IABC intergrals
 Iteration Nr.   1
 **********************
 DD1Dir will call FoFMem   1 times, MxPair=        10
 NAB=     4 NAA=     1 NBB=     1.
 E(PMP3)=      -0.25112801087D+02
 MP4(R+Q)=  0.13429571D-02
 Maximum subspace dimension=  5
 A-vector RMS=  2.4316390D-03 Max=  1.2704447D-02 conv= 1.00D-05.
 RLE energy=       -0.0642645068
 E3=       -0.12394174D-01        EUMP3=      -0.25097487436D+02
 E4(DQ)=   -0.42775725D-02        UMP4(DQ)=   -0.25101765009D+02
 E4(SDQ)=  -0.46952666D-02        UMP4(SDQ)=  -0.25102182703D+02
 VARIATIONAL ENERGIES WITH THE FIRST-ORDER WAVEFUNCTION:
 DE(Corr)= -0.61133957E-01 E(Corr)=     -25.096146620    
 NORM(A)=   0.10277851D+01
 Iteration Nr.   2
 **********************
 DD1Dir will call FoFMem   1 times, MxPair=        10
 NAB=     4 NAA=     1 NBB=     1.
 A-vector RMS=  1.2472088D-03 Max=  6.9498316D-03 conv= 1.00D-05.
 RLE energy=       -0.0704604161
 DE(Corr)= -0.67276407E-01 E(CORR)=     -25.102289071     Delta=-6.14D-03
 NORM(A)=   0.10376666D+01
 Iteration Nr.   3
 **********************
 DD1Dir will call FoFMem   1 times, MxPair=        10
 NAB=     4 NAA=     1 NBB=     1.
 A-vector RMS=  8.7681016D-04 Max=  6.1102153D-03 conv= 1.00D-05.
 RLE energy=       -0.0713014922
 DE(Corr)= -0.70464991E-01 E(CORR)=     -25.105477655     Delta=-3.19D-03
 NORM(A)=   0.10415086D+01
 Iteration Nr.   4
 **********************
 DD1Dir will call FoFMem   1 times, MxPair=        10
 NAB=     4 NAA=     1 NBB=     1.
 A-vector RMS=  4.8632576D-04 Max=  3.6798329D-03 conv= 1.00D-05.
 RLE energy=       -0.0723119929
 DE(Corr)= -0.71381217E-01 E(CORR)=     -25.106393881     Delta=-9.16D-04
 NORM(A)=   0.10477388D+01
 Iteration Nr.   5
 **********************
 DD1Dir will call FoFMem   1 times, MxPair=        10
 NAB=     4 NAA=     1 NBB=     1.
 A-vector RMS=  4.0213180D-04 Max=  3.5653250D-03 conv= 1.00D-05.
 RLE energy=       -0.0732605605
 DE(Corr)= -0.72199224E-01 E(CORR)=     -25.107211887     Delta=-8.18D-04
 NORM(A)=   0.10647637D+01
 Iteration Nr.   6
 **********************
 DD1Dir will call FoFMem   1 times, MxPair=        10
 NAB=     4 NAA=     1 NBB=     1.
 A-vector RMS=  5.3456174D-04 Max=  3.5298430D-03 conv= 1.00D-05.
 RLE energy=       -0.0739010272
 DE(Corr)= -0.73242162E-01 E(CORR)=     -25.108254826     Delta=-1.04D-03
 NORM(A)=   0.10797447D+01
 Iteration Nr.   7
 **********************
 DD1Dir will call FoFMem   1 times, MxPair=        10
 NAB=     4 NAA=     1 NBB=     1.
 A-vector RMS=  4.1906847D-04 Max=  2.9209131D-03 conv= 1.00D-05.
 RLE energy=       -0.0742655446
 DE(Corr)= -0.73856955E-01 E(CORR)=     -25.108869619     Delta=-6.15D-04
 NORM(A)=   0.10875599D+01
 Iteration Nr.   8
 **********************
 DD1Dir will call FoFMem   1 times, MxPair=        10
 NAB=     4 NAA=     1 NBB=     1.
 A-vector RMS=  2.3899609D-04 Max=  1.6360410D-03 conv= 1.00D-05.
 RLE energy=       -0.0743686469
 DE(Corr)= -0.74188152E-01 E(CORR)=     -25.109200816     Delta=-3.31D-04
 NORM(A)=   0.10925921D+01
 Iteration Nr.   9
 **********************
 DD1Dir will call FoFMem   1 times, MxPair=        10
 NAB=     4 NAA=     1 NBB=     1.
 A-vector RMS=  8.5943080D-05 Max=  4.0463030D-04 conv= 1.00D-05.
 RLE energy=       -0.0743594824
 DE(Corr)= -0.74345521E-01 E(CORR)=     -25.109358185     Delta=-1.57D-04
 NORM(A)=   0.10934592D+01
 Iteration Nr.  10
 **********************
 DD1Dir will call FoFMem   1 times, MxPair=        10
 NAB=     4 NAA=     1 NBB=     1.
 A-vector RMS=  3.0949535D-05 Max=  1.5224951D-04 conv= 1.00D-05.
 RLE energy=       -0.0743244550
 DE(Corr)= -0.74347457E-01 E(CORR)=     -25.109360121     Delta=-1.94D-06
 NORM(A)=   0.10933697D+01
 Iteration Nr.  11
 **********************
 DD1Dir will call FoFMem   1 times, MxPair=        10
 NAB=     4 NAA=     1 NBB=     1.
 A-vector RMS=  1.7279937D-05 Max=  1.0028542D-04 conv= 1.00D-05.
 RLE energy=       -0.0743116171
 DE(Corr)= -0.74325279E-01 E(CORR)=     -25.109337943     Delta= 2.22D-05
 NORM(A)=   0.10933153D+01
 Iteration Nr.  12
 **********************
 DD1Dir will call FoFMem   1 times, MxPair=        10
 NAB=     4 NAA=     1 NBB=     1.
 A-vector RMS=  6.1461452D-06 Max=  5.0845553D-05 conv= 1.00D-05.
 RLE energy=       -0.0743047808
 DE(Corr)= -0.74312667E-01 E(CORR)=     -25.109325331     Delta= 1.26D-05
 NORM(A)=   0.10932234D+01
 Iteration Nr.  13
 **********************
 DD1Dir will call FoFMem   1 times, MxPair=        10
 NAB=     4 NAA=     1 NBB=     1.
 A-vector RMS=  4.6336312D-06 Max=  2.7972179D-05 conv= 1.00D-05.
 RLE energy=       -0.0743042616
 DE(Corr)= -0.74307143E-01 E(CORR)=     -25.109319806     Delta= 5.52D-06
 NORM(A)=   0.10931718D+01
 Iteration Nr.  14
 **********************
 DD1Dir will call FoFMem   1 times, MxPair=        10
 NAB=     4 NAA=     1 NBB=     1.
 A-vector RMS=  2.2175984D-06 Max=  1.0544995D-05 conv= 1.00D-05.
 RLE energy=       -0.0743035192
 DE(Corr)= -0.74305523E-01 E(CORR)=     -25.109318187     Delta= 1.62D-06
 NORM(A)=   0.10931068D+01
 Iteration Nr.  15
 **********************
 DD1Dir will call FoFMem   1 times, MxPair=        10
 NAB=     4 NAA=     1 NBB=     1.
 A-vector RMS=  1.6608470D-06 Max=  1.1430047D-05 conv= 1.00D-05.
 RLE energy=       -0.0743031617
 DE(Corr)= -0.74304202E-01 E(CORR)=     -25.109316866     Delta= 1.32D-06
 NORM(A)=   0.10930760D+01
 Iteration Nr.  16
 **********************
 DD1Dir will call FoFMem   1 times, MxPair=        10
 NAB=     4 NAA=     1 NBB=     1.
 A-vector RMS=  1.1411287D-06 Max=  7.5160403D-06 conv= 1.00D-05.
 RLE energy=       -0.0743024658
 DE(Corr)= -0.74303532E-01 E(CORR)=     -25.109316196     Delta= 6.69D-07
 NORM(A)=   0.10930466D+01
 Iteration Nr.  17
 **********************
 DD1Dir will call FoFMem   1 times, MxPair=        10
 NAB=     4 NAA=     1 NBB=     1.
 A-vector RMS=  7.1034384D-07 Max=  4.2986137D-06 conv= 1.00D-05.
 RLE energy=       -0.0743015858
 DE(Corr)= -0.74302632E-01 E(CORR)=     -25.109315296     Delta= 9.00D-07
 NORM(A)=   0.10930219D+01
 Iteration Nr.  18
 **********************
 DD1Dir will call FoFMem   1 times, MxPair=        10
 NAB=     4 NAA=     1 NBB=     1.
 A-vector RMS=  3.9236175D-07 Max=  1.7156047D-06 conv= 1.00D-05.
 RLE energy=       -0.0743009966
 DE(Corr)= -0.74301706E-01 E(CORR)=     -25.109314370     Delta= 9.26D-07
 NORM(A)=   0.10930066D+01
 Iteration Nr.  19
 **********************
 DD1Dir will call FoFMem   1 times, MxPair=        10
 NAB=     4 NAA=     1 NBB=     1.
 A-vector RMS=  2.1276187D-07 Max=  1.0577264D-06 conv= 1.00D-05.
 RLE energy=       -0.0743007105
 DE(Corr)= -0.74301066E-01 E(CORR)=     -25.109313730     Delta= 6.41D-07
 NORM(A)=   0.10929992D+01
 Iteration Nr.  20
 **********************
 DD1Dir will call FoFMem   1 times, MxPair=        10
 NAB=     4 NAA=     1 NBB=     1.
 A-vector RMS=  1.5296209D-07 Max=  9.0018027D-07 conv= 1.00D-05.
 RLE energy=       -0.0743006668
 DE(Corr)= -0.74300771E-01 E(CORR)=     -25.109313435     Delta= 2.94D-07
 NORM(A)=   0.10929968D+01
 Iteration Nr.  21
 **********************
 DD1Dir will call FoFMem   1 times, MxPair=        10
 NAB=     4 NAA=     1 NBB=     1.
 A-vector RMS=  1.1782492D-07 Max=  7.4618438D-07 conv= 1.00D-05.
 RLE energy=       -0.0743006616
 DE(Corr)= -0.74300703E-01 E(CORR)=     -25.109313367     Delta= 6.84D-08
 NORM(A)=   0.10929953D+01
 CI/CC converged in   21 iterations to DelEn= 6.84D-08 Conv= 1.00D-07 ErrA1= 1.18D-07 Conv= 1.00D-05
 Wavefunction amplitudes converged. E(Corr)=     -25.109313367    
 Dominant configurations:
 ***********************
 Spin Case        I    J    A    B          Value
    BB            3        11            0.103538D+00
   ABAB           2    3   11   11      -0.126600D+00
   ABAB           3    3   11   11       0.103287D+00
 Largest amplitude= 1.27D-01
 Time for triples=        2.47 seconds.
 T4(CCSD)= -0.35209357D-02
 T5(CCSD)=  0.42656857D-04
 CCSD(T)= -0.25112791646D+02

 S**2, projected HF & approx projected MPn energies after annihilation of
 unwanted spin states (see manual for definitions):

 spins       (S**2,0) (S**2,1)    PUHF        PMP2        PMP3        PMP4
 annihilated
 s+1        -0.03657 -0.00586  -25.050804  -25.100667  -25.112801
 s+1,s+2     0.00000 -0.00000  -25.046520  -25.096468  -25.108689

 Discarding MO integrals.
 Leave Link  913 at Sun May 22 21:14:32 2022, MaxMem=   104857600 cpu:               7.6 elap:               7.6
 (Enter /apps/software/g16/l601.exe)
 Copying SCF densities to generalized density rwf, IOpCl= 1 IROHF=0.

 **********************************************************************

            Population analysis using the SCF density.

 **********************************************************************

 Orbital symmetries:
 Alpha Orbitals:
       Occupied  (SG) (SG) (SG)
       Virtual   (PI) (PI) (SG) (SG) (PI) (PI) (SG) (SG) (DLTA)
                 (DLTA) (PI) (PI) (SG) (PI) (PI) (SG) (PI) (PI)
                 (SG) (SG) (PHI) (PHI) (DLTA) (DLTA) (SG) (DLTA)
                 (DLTA) (PI) (PI) (PI) (PI) (SG) (SG) (DLTA) (DLTA)
                 (PI) (PI) (PI) (PI) (SG) (SG) (PI) (PI) (SG) (DLTA)
                 (DLTA) (?A) (?A) (PHI) (PHI) (PI) (PI) (SG) (DLTA)
                 (DLTA) (PHI) (PHI) (SG) (PI) (PI) (DLTA) (DLTA)
                 (SG) (PI) (PI) (PHI) (PHI) (SG) (DLTA) (DLTA)
                 (SG) (PI) (PI) (SG) (DLTA) (DLTA) (PI) (PI) (PI)
                 (PI) (SG) (SG) (PI) (PI) (?A) (?A) (SG) (PHI)
                 (PHI) (DLTA) (DLTA) (DLTA) (DLTA) (PI) (PI) (SG)
                 (PHI) (PHI) (PI) (PI) (DLTA) (DLTA) (PI) (PI)
                 (SG) (SG) (PHI) (PHI) (DLTA) (DLTA) (PI) (PI)
                 (SG) (SG) (PI) (PI) (SG) (DLTA) (DLTA) (PI) (PI)
                 (SG) (SG)
 Beta  Orbitals:
       Occupied  (SG) (SG) (SG)
       Virtual   (PI) (PI) (SG) (SG) (PI) (PI) (SG) (SG) (DLTA)
                 (DLTA) (PI) (PI) (SG) (PI) (PI) (SG) (SG) (PI)
                 (PI) (SG) (DLTA) (DLTA) (PHI) (PHI) (PI) (PI)
                 (DLTA) (DLTA) (SG) (PI) (PI) (SG) (SG) (DLTA)
                 (DLTA) (PI) (PI) (SG) (PI) (PI) (SG) (PI) (PI)
                 (SG) (DLTA) (DLTA) (?A) (?A) (PHI) (PHI) (PI)
                 (PI) (SG) (SG) (DLTA) (DLTA) (PI) (PI) (PHI) (PHI)
                 (DLTA) (DLTA) (SG) (PI) (PI) (PHI) (PHI) (SG)
                 (DLTA) (DLTA) (SG) (PI) (PI) (SG) (DLTA) (DLTA)
                 (PI) (PI) (PI) (PI) (SG) (SG) (PI) (PI) (SG) (?A)
                 (?A) (PHI) (PHI) (DLTA) (DLTA) (PI) (PI) (DLTA)
                 (DLTA) (SG) (PHI) (PHI) (PI) (PI) (DLTA) (DLTA)
                 (PI) (PI) (SG) (SG) (PHI) (PHI) (DLTA) (DLTA)
                 (PI) (PI) (SG) (SG) (PI) (PI) (SG) (DLTA) (DLTA)
                 (PI) (PI) (SG) (SG)
 The electronic state is 1-SG.
 Alpha  occ. eigenvalues --   -7.69707  -0.49124  -0.44098
 Alpha virt. eigenvalues --    0.02505   0.02505   0.03806   0.05517   0.08097
 Alpha virt. eigenvalues --    0.08097   0.08668   0.11478   0.14460   0.14460
 Alpha virt. eigenvalues --    0.14466   0.14466   0.18749   0.24188   0.24188
 Alpha virt. eigenvalues --    0.26283   0.31953   0.31953   0.35094   0.36688
 Alpha virt. eigenvalues --    0.45992   0.45992   0.46149   0.46149   0.48492
 Alpha virt. eigenvalues --    0.49834   0.49834   0.50501   0.50501   0.52945
 Alpha virt. eigenvalues --    0.52945   0.53519   0.61480   0.68045   0.68045
 Alpha virt. eigenvalues --    0.79449   0.79449   0.85700   0.85700   0.85989
 Alpha virt. eigenvalues --    0.94797   1.05406   1.05406   1.24303   1.35260
 Alpha virt. eigenvalues --    1.35260   1.36654   1.36654   1.37172   1.37172
 Alpha virt. eigenvalues --    1.39515   1.39515   1.40721   1.41053   1.41053
 Alpha virt. eigenvalues --    1.43505   1.43505   1.43600   1.45860   1.45860
 Alpha virt. eigenvalues --    1.46807   1.46807   1.53652   1.58135   1.58135
 Alpha virt. eigenvalues --    1.58939   1.58939   1.65453   1.74276   1.74276
 Alpha virt. eigenvalues --    1.85633   2.01322   2.01322   2.01673   2.49470
 Alpha virt. eigenvalues --    2.49470   2.60809   2.60809   2.64944   2.64944
 Alpha virt. eigenvalues --    2.74735   2.96001   3.74421   3.74421   3.91480
 Alpha virt. eigenvalues --    3.91480   3.93601   3.94097   3.94097   3.95444
 Alpha virt. eigenvalues --    3.95444   3.99088   3.99088   3.99296   3.99296
 Alpha virt. eigenvalues --    4.02920   4.08225   4.08225   4.11339   4.11339
 Alpha virt. eigenvalues --    4.11785   4.11785   4.19305   4.19305   4.24209
 Alpha virt. eigenvalues --    4.41573   6.57320   6.57320   6.60767   6.60767
 Alpha virt. eigenvalues --    6.70018   6.70018   6.72647   7.54473   7.99399
 Alpha virt. eigenvalues --    7.99399   8.29870   8.42470   8.42470   8.49878
 Alpha virt. eigenvalues --    8.49878   8.59841  13.16681
  Beta  occ. eigenvalues --   -7.71072  -0.54931  -0.32159
  Beta virt. eigenvalues --    0.02159   0.02159   0.02861   0.04690   0.07481
  Beta virt. eigenvalues --    0.07481   0.08537   0.10668   0.14458   0.14458
  Beta virt. eigenvalues --    0.14484   0.14484   0.18817   0.25703   0.25703
  Beta virt. eigenvalues --    0.28484   0.29761   0.31289   0.31289   0.36167
  Beta virt. eigenvalues --    0.45916   0.45916   0.45998   0.45998   0.47924
  Beta virt. eigenvalues --    0.47924   0.49729   0.49729   0.50441   0.52481
  Beta virt. eigenvalues --    0.52481   0.56546   0.61671   0.69148   0.69148
  Beta virt. eigenvalues --    0.85055   0.85055   0.86592   0.86839   0.86839
  Beta virt. eigenvalues --    0.93659   1.04588   1.04588   1.21527   1.34861
  Beta virt. eigenvalues --    1.34861   1.36682   1.36682   1.36744   1.36744
  Beta virt. eigenvalues --    1.37410   1.37410   1.39107   1.40256   1.40547
  Beta virt. eigenvalues --    1.40547   1.42085   1.42085   1.43465   1.43465
  Beta virt. eigenvalues --    1.45292   1.45292   1.51502   1.56723   1.56723
  Beta virt. eigenvalues --    1.60040   1.60040   1.70213   1.74981   1.74981
  Beta virt. eigenvalues --    1.88862   2.02001   2.02001   2.02696   2.53238
  Beta virt. eigenvalues --    2.53238   2.65169   2.65169   2.70829   2.70829
  Beta virt. eigenvalues --    2.77875   2.99970   3.73824   3.73824   3.90447
  Beta virt. eigenvalues --    3.91442   3.91442   3.93072   3.93072   3.94832
  Beta virt. eigenvalues --    3.94832   3.95781   3.95781   3.97494   3.97494
  Beta virt. eigenvalues --    3.99251   4.08012   4.08012   4.09164   4.09164
  Beta virt. eigenvalues --    4.09765   4.09765   4.16314   4.16314   4.21149
  Beta virt. eigenvalues --    4.38193   6.60119   6.60119   6.63523   6.63523
  Beta virt. eigenvalues --    6.72708   6.72708   6.75327   7.62197   8.04981
  Beta virt. eigenvalues --    8.04981   8.35073   8.46565   8.46565   8.53909
  Beta virt. eigenvalues --    8.53909   8.63817  13.15690
          Condensed to atoms (all electrons):
               1          2
     1  B    4.977360   0.001412
     2  H    0.001412   1.019815
          Atomic-Atomic Spin Densities.
               1          2
     1  B   -0.957459  -0.026763
     2  H   -0.026763   1.010985
 Mulliken charges and spin densities:
               1          2
     1  B    0.021228  -0.984222
     2  H   -0.021228   0.984222
 Sum of Mulliken charges =  -0.00000   0.00000
 Mulliken charges and spin densities with hydrogens summed into heavy atoms:
               1          2
     1  B   -0.000000   0.000000
 Electronic spatial extent (au):  <R**2>=             42.6696
 Charge=             -0.0000 electrons
 Dipole moment (field-independent basis, Debye):
    X=              0.0000    Y=              0.0000    Z=              0.3268  Tot=              0.3268
 Quadrupole moment (field-independent basis, Debye-Ang):
   XX=             -7.3159   YY=             -7.3159   ZZ=            -11.3792
   XY=              0.0000   XZ=              0.0000   YZ=              0.0000
 Traceless Quadrupole moment (field-independent basis, Debye-Ang):
   XX=              1.3544   YY=              1.3544   ZZ=             -2.7089
   XY=              0.0000   XZ=              0.0000   YZ=              0.0000
 Octapole moment (field-independent basis, Debye-Ang**2):
  XXX=              0.0000  YYY=              0.0000  ZZZ=             -0.8962  XYY=              0.0000
  XXY=              0.0000  XXZ=              0.5807  XZZ=              0.0000  YZZ=              0.0000
  YYZ=              0.5807  XYZ=              0.0000
 Hexadecapole moment (field-independent basis, Debye-Ang**3):
 XXXX=            -10.7188 YYYY=            -10.7188 ZZZZ=            -84.6346 XXXY=              0.0000
 XXXZ=              0.0000 YYYX=              0.0000 YYYZ=              0.0000 ZZZX=              0.0000
 ZZZY=              0.0000 XXYY=             -3.5729 XXZZ=            -14.4261 YYZZ=            -14.4261
 XXYZ=              0.0000 YYXZ=              0.0000 ZZXY=              0.0000
 N-N= 9.449593052143D-01 E-N=-5.976671016580D+01  KE= 2.501768962870D+01
 Symmetry A1   KE= 2.501768962870D+01
 Symmetry A2   KE= 3.487431853507D-49
 Symmetry B1   KE= 0.000000000000D+00
 Symmetry B2   KE= 0.000000000000D+00
 Symmetry A1   SP= 2.910196863885D-15
 Symmetry A2   SP=-7.718394267426D-50
 Symmetry B1   SP= 0.000000000000D+00
 Symmetry B2   SP= 0.000000000000D+00
 Leave Link  601 at Sun May 22 21:14:32 2022, MaxMem=   104857600 cpu:               0.0 elap:               0.1
 (Enter /apps/software/g16/l9999.exe)
 1\1\GINC-CNODE16\SP\UCCSD(T)-FC\Aug-CC-pVQZ\B1H1\LCZ\22-May-2022\0\\#p
  UHF/aug-cc-pVQZ guess=read CCSD(T,FC)\\BH UCCSD at 2.8 Angstrom\\0,1\
 B,0,0.,0.,0.\H,0,2.8,0.,0.\\Version=ES64L-G16RevA.03\State=1-SG\HF=-25
 .0350127\MP2=-25.0850933\MP3=-25.0974874\MP4D=-25.103108\MP4DQ=-25.101
 765\PUHF=-25.0508042\PMP2-0=-25.1006675\PMP3-0=-25.1128011\MP4SDQ=-25.
 1021827\CCSD=-25.1093134\CCSD(T)=-25.1127916\S2=0.934481\S2-1=0.907747
 \S2A=0.071836\RMSD=9.027e-10\PG=C*V [C*(H1B1)]\\@


 TO ERR IS HUMAN - AND TO BLAME IT ON A COMPUTER IS EVEN MORE SO.
 Job cpu time:       0 days  0 hours  0 minutes 23.2 seconds.
 Elapsed time:       0 days  0 hours  0 minutes 23.2 seconds.
 File lengths (MBytes):  RWF=    140 Int=      0 D2E=      0 Chk=     67 Scr=      1
 Normal termination of Gaussian 16 at Sun May 22 21:14:32 2022.

Sender: Unischeduler System <lcz@mgt01>
Subject: Job 134382: <#!/bin/bash
#BSUB -J intel
#BSUB -o BH-2.8-UCCSD_T-G.out
#BSUB -n 8
#BSUB -q cqueue
#BSUB -R span[hosts=1]
export g16root=/apps/software
source /apps/software/g16/bsd/g16.profile
export GAUSS_SCRDIR=/scratch
/apps/software/g16/g16 < BH-2.8-UCCSD_T-G.inp > BH-2.8-UCCSD_T-G.out> Done

Job <#!/bin/bash
#BSUB -J intel
#BSUB -o BH-2.8-UCCSD_T-G.out
#BSUB -n 8
#BSUB -q cqueue
#BSUB -R span[hosts=1]
export g16root=/apps/software
source /apps/software/g16/bsd/g16.profile
export GAUSS_SCRDIR=/scratch
/apps/software/g16/g16 < BH-2.8-UCCSD_T-G.inp > BH-2.8-UCCSD_T-G.out> was submitted from host <mgt01> by user <lcz>.
Job was executed on host(s) <8*cnode16>, in queue <cqueue>, as user <lcz>.
</apps/users/lcz> was used as the home directory.
</apps/users/lcz/exe13/UCCSD_T> was used as the working directory.
Started at 2022-05-22 21:14:09
Results reported at 2022-05-22 21:14:32

Your job looked like:

------------------------------------------------------------
# User input
#!/bin/bash
#BSUB -J intel
#BSUB -o BH-2.8-UCCSD_T-G.out
#BSUB -n 8
#BSUB -q cqueue
#BSUB -R span[hosts=1]
export g16root=/apps/software
source /apps/software/g16/bsd/g16.profile
export GAUSS_SCRDIR=/scratch
/apps/software/g16/g16 < BH-2.8-UCCSD_T-G.inp > BH-2.8-UCCSD_T-G.out
------------------------------------------------------------

Successfully completed.

Resource usage summary:

    CPU time   :           16.28 sec.
    Max Memory :               452 MB
    Max Processes  :               5


The output (if any) follows:

