 Entering Gaussian System, Link 0=/apps/software/g16/g16
 Initial command:
 /apps/software/g16/l1.exe "/scratch/Gau-370827.inp" -scrdir="/scratch/"
 Entering Link 1 = /apps/software/g16/l1.exe PID=    370828.
  
 Copyright (c) 1988,1990,1992,1993,1995,1998,2003,2009,2016,
            Gaussian, Inc.  All Rights Reserved.
  
 This is part of the Gaussian(R) 16 program.  It is based on
 the Gaussian(R) 09 system (copyright 2009, Gaussian, Inc.),
 the Gaussian(R) 03 system (copyright 2003, Gaussian, Inc.),
 the Gaussian(R) 98 system (copyright 1998, Gaussian, Inc.),
 the Gaussian(R) 94 system (copyright 1995, Gaussian, Inc.),
 the Gaussian 92(TM) system (copyright 1992, Gaussian, Inc.),
 the Gaussian 90(TM) system (copyright 1990, Gaussian, Inc.),
 the Gaussian 88(TM) system (copyright 1988, Gaussian, Inc.),
 the Gaussian 86(TM) system (copyright 1986, Carnegie Mellon
 University), and the Gaussian 82(TM) system (copyright 1983,
 Carnegie Mellon University). Gaussian is a federally registered
 trademark of Gaussian, Inc.
  
 This software contains proprietary and confidential information,
 including trade secrets, belonging to Gaussian, Inc.
  
 This software is provided under written license and may be
 used, copied, transmitted, or stored only in accord with that
 written license.
  
 The following legend is applicable only to US Government
 contracts under FAR:
  
                    RESTRICTED RIGHTS LEGEND
  
 Use, reproduction and disclosure by the US Government is
 subject to restrictions as set forth in subparagraphs (a)
 and (c) of the Commercial Computer Software - Restricted
 Rights clause in FAR 52.227-19.
  
 Gaussian, Inc.
 340 Quinnipiac St., Bldg. 40, Wallingford CT 06492
  
  
 ---------------------------------------------------------------
 Warning -- This program may not be used in any manner that
 competes with the business of Gaussian, Inc. or will provide
 assistance to any competitor of Gaussian, Inc.  The licensee
 of this program is prohibited from giving any competitor of
 Gaussian, Inc. access to this program.  By using this program,
 the user acknowledges that Gaussian, Inc. is engaged in the
 business of creating and licensing software in the field of
 computational chemistry and represents and warrants to the
 licensee that it is not a competitor of Gaussian, Inc. and that
 it will not use this program in any manner prohibited above.
 ---------------------------------------------------------------
  

 Cite this work as:
 Gaussian 16, Revision A.03,
 M. J. Frisch, G. W. Trucks, H. B. Schlegel, G. E. Scuseria, 
 M. A. Robb, J. R. Cheeseman, G. Scalmani, V. Barone, 
 G. A. Petersson, H. Nakatsuji, X. Li, M. Caricato, A. V. Marenich, 
 J. Bloino, B. G. Janesko, R. Gomperts, B. Mennucci, H. P. Hratchian, 
 J. V. Ortiz, A. F. Izmaylov, J. L. Sonnenberg, D. Williams-Young, 
 F. Ding, F. Lipparini, F. Egidi, J. Goings, B. Peng, A. Petrone, 
 T. Henderson, D. Ranasinghe, V. G. Zakrzewski, J. Gao, N. Rega, 
 G. Zheng, W. Liang, M. Hada, M. Ehara, K. Toyota, R. Fukuda, 
 J. Hasegawa, M. Ishida, T. Nakajima, Y. Honda, O. Kitao, H. Nakai, 
 T. Vreven, K. Throssell, J. A. Montgomery, Jr., J. E. Peralta, 
 F. Ogliaro, M. J. Bearpark, J. J. Heyd, E. N. Brothers, K. N. Kudin, 
 V. N. Staroverov, T. A. Keith, R. Kobayashi, J. Normand, 
 K. Raghavachari, A. P. Rendell, J. C. Burant, S. S. Iyengar, 
 J. Tomasi, M. Cossi, J. M. Millam, M. Klene, C. Adamo, R. Cammi, 
 J. W. Ochterski, R. L. Martin, K. Morokuma, O. Farkas, 
 J. B. Foresman, and D. J. Fox, Gaussian, Inc., Wallingford CT, 2016.
 
 ******************************************
 Gaussian 16:  ES64L-G16RevA.03 25-Dec-2016
                22-May-2022 
 ******************************************
 %oldchk=BH-2.2-UHF-G.chk
 %chk=BH-2.2-UCCSD_T-G.chk
 Copying data from "BH-2.2-UHF-G.chk" to current chk file "BH-2.2-UCCSD_T-G.chk"
 IOpt=  2 FromEx=T IUOpen= 4 IOptOp= 5 NList=   0 IFRang= 0 IUIn= 4 IUOut= 2.
 ----------------------------------------
 #p UHF/aug-cc-pVQZ guess=read CCSD(T,FC)
 ----------------------------------------
 1/38=1,172=1/1;
 2/12=2,17=6,18=5,40=1/2;
 3/5=16,6=2,7=10,11=2,25=1,30=1,116=2/1,2,3;
 4/5=1/1;
 5/5=2,38=6/2;
 8/6=4,9=120000,10=1/1,4;
 9/5=7,14=2/13;
 6/7=2,8=2,9=2,10=2/1;
 99/5=1,9=1/99;
 Leave Link    1 at Sun May 22 21:09:10 2022, MaxMem=   104857600 cpu:               0.0 elap:               0.0
 (Enter /apps/software/g16/l101.exe)
 ------------------------
 BH UCCSD at 2.2 Angstrom
 ------------------------
 Symbolic Z-matrix:
 Charge =  0 Multiplicity = 1
 B                     0.        0.        0. 
 H                     2.2       0.        0. 
 
 ITRead=  0  0
 MicOpt= -1 -1
 NAtoms=      2 NQM=        2 NQMF=       0 NMMI=      0 NMMIF=      0
                NMic=       0 NMicF=      0.
                    Isotopes and Nuclear Properties:
 (Nuclear quadrupole moments (NQMom) in fm**2, nuclear magnetic moments (NMagM)
  in nuclear magnetons)

  Atom         1           2
 IAtWgt=          11           1
 AtmWgt=  11.0093053   1.0078250
 NucSpn=           3           1
 AtZEff=  -0.0000000  -0.0000000
 NQMom=    4.0590000   0.0000000
 NMagM=    2.6886370   2.7928460
 AtZNuc=   5.0000000   1.0000000
 Leave Link  101 at Sun May 22 21:09:10 2022, MaxMem=   104857600 cpu:               0.1 elap:               0.1
 (Enter /apps/software/g16/l202.exe)
                          Input orientation:                          
 ---------------------------------------------------------------------
 Center     Atomic      Atomic             Coordinates (Angstroms)
 Number     Number       Type             X           Y           Z
 ---------------------------------------------------------------------
      1          5           0        0.000000    0.000000    0.000000
      2          1           0        2.200000    0.000000    0.000000
 ---------------------------------------------------------------------
 Stoichiometry    BH
 Framework group  C*V[C*(HB)]
 Deg. of freedom     1
 Full point group                 C*V     NOp   4
 Largest Abelian subgroup         C2V     NOp   4
 Largest concise Abelian subgroup C1      NOp   1
                         Standard orientation:                         
 ---------------------------------------------------------------------
 Center     Atomic      Atomic             Coordinates (Angstroms)
 Number     Number       Type             X           Y           Z
 ---------------------------------------------------------------------
      1          5           0        0.000000    0.000000    0.366667
      2          1           0        0.000000    0.000000   -1.833333
 ---------------------------------------------------------------------
 Rotational constants (GHZ):           0.0000000         113.0908715         113.0908715
 Leave Link  202 at Sun May 22 21:09:10 2022, MaxMem=   104857600 cpu:               0.0 elap:               0.0
 (Enter /apps/software/g16/l301.exe)
 Standard basis: Aug-CC-pVQZ (5D, 7F)
 Ernie: Thresh=  0.10000D-02 Tol=  0.10000D-05 Strict=F.
 Ernie:  4 primitive shells out of 54 were deleted.
 There are    68 symmetry adapted cartesian basis functions of A1  symmetry.
 There are    18 symmetry adapted cartesian basis functions of A2  symmetry.
 There are    37 symmetry adapted cartesian basis functions of B1  symmetry.
 There are    37 symmetry adapted cartesian basis functions of B2  symmetry.
 There are    50 symmetry adapted basis functions of A1  symmetry.
 There are    16 symmetry adapted basis functions of A2  symmetry.
 There are    30 symmetry adapted basis functions of B1  symmetry.
 There are    30 symmetry adapted basis functions of B2  symmetry.
   126 basis functions,   180 primitive gaussians,   160 cartesian basis functions
     3 alpha electrons        3 beta electrons
       nuclear repulsion energy         1.2026754794 Hartrees.
 IExCor=    0 DFT=F Ex=HF Corr=None ExCW=0 ScaHFX=  1.000000
 ScaDFX=  1.000000  1.000000  1.000000  1.000000 ScalE2=  1.000000  1.000000
 IRadAn=      5 IRanWt=     -1 IRanGd=            0 ICorTp=0 IEmpDi=  4
 NAtoms=    2 NActive=    2 NUniq=    2 SFac= 1.00D+00 NAtFMM=   60 NAOKFM=F Big=F
 Integral buffers will be    131072 words long.
 Raffenetti 2 integral format.
 Two-electron integral symmetry is turned on.
 Leave Link  301 at Sun May 22 21:09:11 2022, MaxMem=   104857600 cpu:               0.1 elap:               0.1
 (Enter /apps/software/g16/l302.exe)
 NPDir=0 NMtPBC=     1 NCelOv=     1 NCel=       1 NClECP=     1 NCelD=      1
         NCelK=      1 NCelE2=     1 NClLst=     1 CellRange=     0.0.
 One-electron integrals computed using PRISM.
 One-electron integral symmetry used in STVInt
 NBasis=   126 RedAO= T EigKep=  7.12D-04  NBF=    50    16    30    30
 NBsUse=   126 1.00D-06 EigRej= -1.00D+00 NBFU=    50    16    30    30
 Leave Link  302 at Sun May 22 21:09:11 2022, MaxMem=   104857600 cpu:               0.1 elap:               0.1
 (Enter /apps/software/g16/l303.exe)
 DipDrv:  MaxL=1.
 Leave Link  303 at Sun May 22 21:09:11 2022, MaxMem=   104857600 cpu:               0.0 elap:               0.0
 (Enter /apps/software/g16/l401.exe)
 Initial guess from the checkpoint file:  "BH-2.2-UCCSD_T-G.chk"
 B after Tr=     0.000000    0.000000    0.000000
         Rot=    1.000000    0.000000    0.000000    0.000000 Ang=   0.00 deg.
 Guess basis will be translated and rotated to current coordinates.
 JPrj=2 DoOrth=T DoCkMO=T.
 Initial guess orbital symmetries:
 Alpha Orbitals:
       Occupied  (SG) (SG) (SG)
       Virtual   (PI) (PI) (SG) (SG) (PI) (PI) (SG) (SG) (DLTA)
                 (DLTA) (PI) (PI) (SG) (SG) (PI) (PI) (PI) (PI)
                 (SG) (SG) (PHI) (PHI) (DLTA) (DLTA) (DLTA) (DLTA)
                 (PI) (PI) (SG) (PI) (PI) (SG) (SG) (DLTA) (DLTA)
                 (PI) (PI) (SG) (PI) (PI) (SG) (PI) (PI) (SG) (PHI)
                 (PHI) (?A) (?A) (DLTA) (DLTA) (PI) (PI) (DLTA)
                 (DLTA) (PHI) (PHI) (SG) (DLTA) (DLTA) (SG) (PI)
                 (PI) (SG) (PHI) (PHI) (SG) (PI) (PI) (DLTA) (DLTA)
                 (SG) (SG) (PI) (PI) (DLTA) (DLTA) (PI) (PI) (PI)
                 (PI) (SG) (SG) (PI) (PI) (?A) (?A) (PHI) (PHI)
                 (DLTA) (DLTA) (SG) (PI) (PI) (DLTA) (DLTA) (SG)
                 (PHI) (PHI) (DLTA) (DLTA) (PI) (PI) (PI) (PI)
                 (SG) (SG) (PHI) (PHI) (DLTA) (DLTA) (PI) (PI)
                 (SG) (SG) (PI) (PI) (DLTA) (DLTA) (SG) (PI) (PI)
                 (SG) (SG)
 Beta  Orbitals:
       Occupied  (SG) (SG) (SG)
       Virtual   (PI) (PI) (SG) (SG) (PI) (PI) (SG) (SG) (PI) (PI)
                 (DLTA) (DLTA) (SG) (SG) (PI) (PI) (PI) (PI) (SG)
                 (SG) (PHI) (PHI) (DLTA) (DLTA) (PI) (PI) (DLTA)
                 (DLTA) (SG) (PI) (PI) (SG) (SG) (DLTA) (DLTA)
                 (PI) (PI) (SG) (PI) (PI) (SG) (PI) (PI) (SG) (PHI)
                 (PHI) (?A) (?A) (PI) (PI) (DLTA) (DLTA) (DLTA)
                 (DLTA) (SG) (PHI) (PHI) (SG) (PI) (PI) (DLTA)
                 (DLTA) (SG) (PHI) (PHI) (PI) (PI) (SG) (SG) (DLTA)
                 (DLTA) (SG) (PI) (PI) (DLTA) (DLTA) (PI) (PI)
                 (PI) (PI) (SG) (SG) (PI) (PI) (?A) (?A) (PHI)
                 (PHI) (DLTA) (DLTA) (PI) (PI) (SG) (DLTA) (DLTA)
                 (SG) (PHI) (PHI) (DLTA) (DLTA) (PI) (PI) (PI)
                 (PI) (SG) (SG) (PHI) (PHI) (DLTA) (DLTA) (PI)
                 (PI) (SG) (SG) (PI) (PI) (DLTA) (DLTA) (SG) (PI)
                 (PI) (SG) (SG)
 The electronic state of the initial guess is 1-SG.
 Initial guess <Sx>= 0.0000 <Sy>= 0.0000 <Sz>= 0.0000 <S**2>= 0.6580 S= 0.4529
 Leave Link  401 at Sun May 22 21:09:11 2022, MaxMem=   104857600 cpu:               0.1 elap:               0.1
 (Enter /apps/software/g16/l502.exe)
 Keep R1 and R2 ints in memory in symmetry-blocked form, NReq=40143665.
 FoFCou: FMM=F IPFlag=           0 FMFlag=           0 FMFlg1=           0
         NFxFlg=           0 DoJE=F BraDBF=F KetDBF=F FulRan=T
         wScrn=  0.000000 ICntrl=       600 IOpCl=  0 I1Cent=           0 NGrid=           0
         NMat0=    1 NMatS0=   8001 NMatT0=    0 NMatD0=    1 NMtDS0=    0 NMtDT0=    0
 Petite list used in FoFCou.
 UHF open shell SCF:
 Using DIIS extrapolation, IDIIS=  1040.
 NGot=   104857600 LenX=    88563632 LenY=    88537591
 Requested convergence on RMS density matrix=1.00D-08 within 128 cycles.
 Requested convergence on MAX density matrix=1.00D-06.
 Requested convergence on             energy=1.00D-06.
 No special actions if energy rises.

 Cycle   1  Pass 1  IDiag  1:
 E= -25.0450981726671    
 DIIS: error= 1.66D-08 at cycle   1 NSaved=   1.
 NSaved= 1 IEnMin= 1 EnMin= -25.0450981726671     IErMin= 1 ErrMin= 1.66D-08
 ErrMax= 1.66D-08  0.00D+00 EMaxC= 1.00D-01 BMatC= 3.02D-14 BMatP= 3.02D-14
 IDIUse=1 WtCom= 1.00D+00 WtEn= 0.00D+00
 Coeff-Com:  0.100D+01
 Coeff:      0.100D+01
 Gap=     0.424 Goal=   None    Shift=    0.000
 Gap=     0.350 Goal=   None    Shift=    0.000
 RMSDP=1.34D-09 MaxDP=5.69D-08              OVMax= 6.44D-08

 SCF Done:  E(UHF) =  -25.0450981727     A.U. after    1 cycles
            NFock=  1  Conv=0.13D-08     -V/T= 2.0032
 <Sx>= 0.0000 <Sy>= 0.0000 <Sz>= 0.0000 <S**2>= 0.6580 S= 0.4529
 <L.S>=  0.00000000000    
 KE= 2.496442151298D+01 PE=-6.019486630309D+01 EE= 8.982671138083D+00
 Annihilation of the first spin contaminant:
 S**2 before annihilation     0.6580,   after     0.0299
 Leave Link  502 at Sun May 22 21:09:14 2022, MaxMem=   104857600 cpu:               3.6 elap:               3.6
 (Enter /apps/software/g16/l801.exe)
 Windowed orbitals will be sorted by symmetry type.
 ExpMin= 1.88D-02 ExpMax= 2.39D+04 ExpMxC= 2.30D+02 IAcc=3 IRadAn=         5 AccDes= 0.00D+00
 HarFok:  IExCor=  205 AccDes= 0.00D+00 IRadAn=         5 IDoV=-2 UseB2=F ITyADJ=14
 ICtDFT= 12500011 ScaDFX=  1.000000  1.000000  1.000000  1.000000
 Largest valence mixing into a core orbital is  4.13D-04
 Largest core mixing into a valence orbital is  9.95D-05
 Largest valence mixing into a core orbital is  3.26D-04
 Largest core mixing into a valence orbital is  1.12D-04
 Range of M.O.s used for correlation:     2   126
 NBasis=   126 NAE=     3 NBE=     3 NFC=     1 NFV=     0
 NROrb=    125 NOA=     2 NOB=     2 NVA=   123 NVB=   123

 **** Warning!!: The largest alpha MO coefficient is  0.10498774D+02


 **** Warning!!: The largest beta MO coefficient is  0.12798646D+02

 Leave Link  801 at Sun May 22 21:09:15 2022, MaxMem=   104857600 cpu:               0.1 elap:               0.1
 (Enter /apps/software/g16/l804.exe)
 Open-shell transformation, MDV=   104857600 ITran=4 ISComp=2.
 Unit  1 TFree=        991730 TCopy=        422292.
 Semi-Direct transformation.
 ModeAB=           2 MOrb=             2 LenV=     104169182
 LASXX=       493564 LTotXX=      493564 LenRXX=      493564
 LTotAB=      510115 MaxLAS=     3220000 LenRXY=     3220000
 NonZer=     3361750 LenScr=     5758976 LnRSAI=           0
 LnScr1=           0 LExtra=           0 Total=      9472540
 MaxDsk=          -1 SrtSym=           F ITran=            4
 DoSDTr:  NPSUse=  1
 JobTyp=1 Pass  1:  I=   1 to   2.
 (rs|ai) integrals will be sorted in core.
 Complete sort for first half transformation.
 First half transformation complete.
 Complete sort for second half transformation.
 Second half transformation complete.
 ModeAB=           2 MOrb=             2 LenV=     104169182
 LASXX=       493564 LTotXX=      493564 LenRXX=     3220000
 LTotAB=      492482 MaxLAS=     3220000 LenRXY=      492482
 NonZer=     3361750 LenScr=     5758976 LnRSAI=           0
 LnScr1=           0 LExtra=           0 Total=      9471458
 MaxDsk=          -1 SrtSym=           F ITran=            4
 DoSDTr:  NPSUse=  1
 JobTyp=2 Pass  1:  I=   1 to   2.
 (rs|ai) integrals will be sorted in core.
 Complete sort for first half transformation.
 First half transformation complete.
 Complete sort for second half transformation.
 Second half transformation complete.
 Spin components of T(2) and E(2):
     alpha-alpha T2 =       0.5797222317D-03 E2=     -0.1006744386D-02
     alpha-beta  T2 =       0.3083623564D-01 E2=     -0.5446979938D-01
     beta-beta   T2 =       0.1752788618D-02 E2=     -0.3389014061D-02
 ANorm=    0.1016449087D+01
 E2 =    -0.5886555783D-01 EUMP2 =    -0.25103963730498D+02
 (S**2,0)=  0.65801D+00           (S**2,1)=  0.59788D+00
 E(PUHF)=      -0.25071463809D+02        E(PMP2)=      -0.25129151528D+02
 Leave Link  804 at Sun May 22 21:09:25 2022, MaxMem=   104857600 cpu:              10.3 elap:              10.3
 (Enter /apps/software/g16/l913.exe)
 CIDS:  MDV=   104857600.
 Frozen-core window:  NFC=   1 NFV=   0.
 IFCWin=0 IBDFC=1 NFBD=     0     0 NFCmp=     0     0 NFFFC=     0     0
 Using original routines for 1st iteration.
 Using DD4UQ or CC4UQ for 2nd and later iterations.
 Keep R2 and R3 ints in memory in symmetry-blocked form, NReq=40147367.
 FoFCou: FMM=F IPFlag=           0 FMFlag=           0 FMFlg1=           0
         NFxFlg=           0 DoJE=F BraDBF=F KetDBF=F FulRan=T
         wScrn=  0.000000 ICntrl=       600 IOpCl=  0 I1Cent=           0 NGrid=           0
         NMat0=    1 NMatS0=   8001 NMatT0=    0 NMatD0=    1 NMtDS0=    0 NMtDT0=    0
 Petite list used in FoFCou.
 CIDS: In Core Option IDoMem=           1.
 CCSD(T)
 =======
 Iterations=  50 Convergence= 0.100D-06
 Produce multiple copies of IABC intergrals
 Iteration Nr.   1
 **********************
 DD1Dir will call FoFMem   1 times, MxPair=        10
 NAB=     4 NAA=     1 NBB=     1.
 E(PMP3)=      -0.25141822831D+02
 MP4(R+Q)=  0.15763206D-02
 Maximum subspace dimension=  5
 A-vector RMS=  3.9584948D-03 Max=  2.0195177D-02 conv= 1.00D-05.
 RLE energy=       -0.0752922404
 E3=       -0.14385911D-01        EUMP3=      -0.25118349642D+02
 E4(DQ)=   -0.51441551D-02        UMP4(DQ)=   -0.25123493797D+02
 E4(SDQ)=  -0.61350900D-02        UMP4(SDQ)=  -0.25124484732D+02
 VARIATIONAL ENERGIES WITH THE FIRST-ORDER WAVEFUNCTION:
 DE(Corr)= -0.71708417E-01 E(Corr)=     -25.116806590    
 NORM(A)=   0.10333201D+01
 Iteration Nr.   2
 **********************
 DD1Dir will call FoFMem   1 times, MxPair=        10
 NAB=     4 NAA=     1 NBB=     1.
 A-vector RMS=  2.8677772D-03 Max=  1.6806883D-02 conv= 1.00D-05.
 RLE energy=       -0.0860070403
 DE(Corr)= -0.79762137E-01 E(CORR)=     -25.124860310     Delta=-8.05D-03
 NORM(A)=   0.10541264D+01
 Iteration Nr.   3
 **********************
 DD1Dir will call FoFMem   1 times, MxPair=        10
 NAB=     4 NAA=     1 NBB=     1.
 A-vector RMS=  2.5391846D-03 Max=  1.5309651D-02 conv= 1.00D-05.
 RLE energy=       -0.0914180777
 DE(Corr)= -0.86100663E-01 E(CORR)=     -25.131198835     Delta=-6.34D-03
 NORM(A)=   0.10851471D+01
 Iteration Nr.   4
 **********************
 DD1Dir will call FoFMem   1 times, MxPair=        10
 NAB=     4 NAA=     1 NBB=     1.
 A-vector RMS=  1.4915475D-03 Max=  9.5606212D-03 conv= 1.00D-05.
 RLE energy=       -0.0985549176
 DE(Corr)= -0.91729576E-01 E(CORR)=     -25.136827749     Delta=-5.63D-03
 NORM(A)=   0.11462858D+01
 Iteration Nr.   5
 **********************
 DD1Dir will call FoFMem   1 times, MxPair=        10
 NAB=     4 NAA=     1 NBB=     1.
 A-vector RMS=  8.8601618D-04 Max=  6.1401418D-03 conv= 1.00D-05.
 RLE energy=       -0.0985813997
 DE(Corr)= -0.98110249E-01 E(CORR)=     -25.143208421     Delta=-6.38D-03
 NORM(A)=   0.11585087D+01
 Iteration Nr.   6
 **********************
 DD1Dir will call FoFMem   1 times, MxPair=        10
 NAB=     4 NAA=     1 NBB=     1.
 A-vector RMS=  3.3717476D-04 Max=  1.8622518D-03 conv= 1.00D-05.
 RLE energy=       -0.0992338936
 DE(Corr)= -0.98648024E-01 E(CORR)=     -25.143746197     Delta=-5.38D-04
 NORM(A)=   0.11657245D+01
 Iteration Nr.   7
 **********************
 DD1Dir will call FoFMem   1 times, MxPair=        10
 NAB=     4 NAA=     1 NBB=     1.
 A-vector RMS=  1.6041157D-04 Max=  8.4330074D-04 conv= 1.00D-05.
 RLE energy=       -0.0992169170
 DE(Corr)= -0.99206971E-01 E(CORR)=     -25.144305144     Delta=-5.59D-04
 NORM(A)=   0.11655026D+01
 Iteration Nr.   8
 **********************
 DD1Dir will call FoFMem   1 times, MxPair=        10
 NAB=     4 NAA=     1 NBB=     1.
 A-vector RMS=  6.4053891D-05 Max=  3.9970017D-04 conv= 1.00D-05.
 RLE energy=       -0.0992371874
 DE(Corr)= -0.99193726E-01 E(CORR)=     -25.144291898     Delta= 1.32D-05
 NORM(A)=   0.11659722D+01
 Iteration Nr.   9
 **********************
 DD1Dir will call FoFMem   1 times, MxPair=        10
 NAB=     4 NAA=     1 NBB=     1.
 A-vector RMS=  2.7620209D-05 Max=  1.5876224D-04 conv= 1.00D-05.
 RLE energy=       -0.0992228779
 DE(Corr)= -0.99228753E-01 E(CORR)=     -25.144326926     Delta=-3.50D-05
 NORM(A)=   0.11659219D+01
 Iteration Nr.  10
 **********************
 DD1Dir will call FoFMem   1 times, MxPair=        10
 NAB=     4 NAA=     1 NBB=     1.
 A-vector RMS=  1.0413875D-05 Max=  5.4823292D-05 conv= 1.00D-05.
 RLE energy=       -0.0992105884
 DE(Corr)= -0.99218943E-01 E(CORR)=     -25.144317116     Delta= 9.81D-06
 NORM(A)=   0.11658593D+01
 Iteration Nr.  11
 **********************
 DD1Dir will call FoFMem   1 times, MxPair=        10
 NAB=     4 NAA=     1 NBB=     1.
 A-vector RMS=  5.3180095D-06 Max=  2.8236007D-05 conv= 1.00D-05.
 RLE energy=       -0.0992068874
 DE(Corr)= -0.99211623E-01 E(CORR)=     -25.144309796     Delta= 7.32D-06
 NORM(A)=   0.11658000D+01
 Iteration Nr.  12
 **********************
 DD1Dir will call FoFMem   1 times, MxPair=        10
 NAB=     4 NAA=     1 NBB=     1.
 A-vector RMS=  1.3554552D-06 Max=  6.3920099D-06 conv= 1.00D-05.
 RLE energy=       -0.0992046765
 DE(Corr)= -0.99206540E-01 E(CORR)=     -25.144304712     Delta= 5.08D-06
 NORM(A)=   0.11657806D+01
 Iteration Nr.  13
 **********************
 DD1Dir will call FoFMem   1 times, MxPair=        10
 NAB=     4 NAA=     1 NBB=     1.
 A-vector RMS=  4.9413176D-07 Max=  1.9962472D-06 conv= 1.00D-05.
 RLE energy=       -0.0992047848
 DE(Corr)= -0.99204932E-01 E(CORR)=     -25.144303105     Delta= 1.61D-06
 NORM(A)=   0.11657774D+01
 Iteration Nr.  14
 **********************
 DD1Dir will call FoFMem   1 times, MxPair=        10
 NAB=     4 NAA=     1 NBB=     1.
 A-vector RMS=  2.4079732D-07 Max=  1.0950713D-06 conv= 1.00D-05.
 RLE energy=       -0.0992047305
 DE(Corr)= -0.99204780E-01 E(CORR)=     -25.144302952     Delta= 1.53D-07
 NORM(A)=   0.11657762D+01
 Iteration Nr.  15
 **********************
 DD1Dir will call FoFMem   1 times, MxPair=        10
 NAB=     4 NAA=     1 NBB=     1.
 A-vector RMS=  8.7397707D-08 Max=  4.0480660D-07 conv= 1.00D-05.
 RLE energy=       -0.0992047845
 DE(Corr)= -0.99204746E-01 E(CORR)=     -25.144302919     Delta= 3.35D-08
 NORM(A)=   0.11657764D+01
 CI/CC converged in   15 iterations to DelEn= 3.35D-08 Conv= 1.00D-07 ErrA1= 8.74D-08 Conv= 1.00D-05
 Wavefunction amplitudes converged. E(Corr)=     -25.144302919    
 Dominant configurations:
 ***********************
 Spin Case        I    J    A    B          Value
    AA            2        11           -0.106321D+00
    AA            3        11            0.196440D+00
    BB            3        11           -0.209309D+00
   ABAB           3    3   11   11      -0.176171D+00
 Largest amplitude= 2.09D-01
 Time for triples=        2.47 seconds.
 T4(CCSD)= -0.52918752D-02
 T5(CCSD)=  0.16322613D-03
 CCSD(T)= -0.25149431568D+02

 S**2, projected HF & approx projected MPn energies after annihilation of
 unwanted spin states (see manual for definitions):

 spins       (S**2,0) (S**2,1)    PUHF        PMP2        PMP3        PMP4
 annihilated
 s+1        -0.01507 -0.00096  -25.071464  -25.129152  -25.141823
 s+1,s+2     0.00000 -0.00000  -25.069424  -25.127230  -25.140037

 Discarding MO integrals.
 Leave Link  913 at Sun May 22 21:09:32 2022, MaxMem=   104857600 cpu:               7.1 elap:               7.2
 (Enter /apps/software/g16/l601.exe)
 Copying SCF densities to generalized density rwf, IOpCl= 1 IROHF=0.

 **********************************************************************

            Population analysis using the SCF density.

 **********************************************************************

 Orbital symmetries:
 Alpha Orbitals:
       Occupied  (SG) (SG) (SG)
       Virtual   (PI) (PI) (SG) (SG) (PI) (PI) (SG) (SG) (DLTA)
                 (DLTA) (PI) (PI) (SG) (SG) (PI) (PI) (PI) (PI)
                 (SG) (SG) (PHI) (PHI) (DLTA) (DLTA) (DLTA) (DLTA)
                 (PI) (PI) (SG) (PI) (PI) (SG) (SG) (DLTA) (DLTA)
                 (PI) (PI) (SG) (PI) (PI) (SG) (PI) (PI) (SG) (PHI)
                 (PHI) (?A) (?A) (DLTA) (DLTA) (PI) (PI) (DLTA)
                 (DLTA) (PHI) (PHI) (SG) (DLTA) (DLTA) (SG) (PI)
                 (PI) (SG) (PHI) (PHI) (SG) (PI) (PI) (DLTA) (DLTA)
                 (SG) (SG) (PI) (PI) (DLTA) (DLTA) (PI) (PI) (PI)
                 (PI) (SG) (SG) (PI) (PI) (?A) (?A) (PHI) (PHI)
                 (DLTA) (DLTA) (SG) (PI) (PI) (DLTA) (DLTA) (SG)
                 (PHI) (PHI) (DLTA) (DLTA) (PI) (PI) (PI) (PI)
                 (SG) (SG) (PHI) (PHI) (DLTA) (DLTA) (PI) (PI)
                 (SG) (SG) (PI) (PI) (DLTA) (DLTA) (SG) (PI) (PI)
                 (SG) (SG)
 Beta  Orbitals:
       Occupied  (SG) (SG) (SG)
       Virtual   (PI) (PI) (SG) (SG) (PI) (PI) (SG) (SG) (PI) (PI)
                 (DLTA) (DLTA) (SG) (SG) (PI) (PI) (PI) (PI) (SG)
                 (SG) (PHI) (PHI) (DLTA) (DLTA) (PI) (PI) (DLTA)
                 (DLTA) (SG) (PI) (PI) (SG) (SG) (DLTA) (DLTA)
                 (PI) (PI) (SG) (PI) (PI) (SG) (PI) (PI) (SG) (PHI)
                 (PHI) (?A) (?A) (PI) (PI) (DLTA) (DLTA) (DLTA)
                 (DLTA) (SG) (PHI) (PHI) (SG) (PI) (PI) (DLTA)
                 (DLTA) (SG) (PHI) (PHI) (PI) (PI) (SG) (SG) (DLTA)
                 (DLTA) (SG) (PI) (PI) (DLTA) (DLTA) (PI) (PI)
                 (PI) (PI) (SG) (SG) (PI) (PI) (?A) (?A) (PHI)
                 (PHI) (DLTA) (DLTA) (PI) (PI) (SG) (DLTA) (DLTA)
                 (SG) (PHI) (PHI) (DLTA) (DLTA) (PI) (PI) (PI)
                 (PI) (SG) (SG) (PHI) (PHI) (DLTA) (DLTA) (PI)
                 (PI) (SG) (SG) (PI) (PI) (DLTA) (DLTA) (SG) (PI)
                 (PI) (SG) (SG)
 The electronic state is 1-SG.
 Alpha  occ. eigenvalues --   -7.72363  -0.51487  -0.40328
 Alpha virt. eigenvalues --    0.02085   0.02085   0.03363   0.05474   0.07476
 Alpha virt. eigenvalues --    0.07476   0.09260   0.11520   0.14320   0.14320
 Alpha virt. eigenvalues --    0.14322   0.14322   0.19378   0.24598   0.26093
 Alpha virt. eigenvalues --    0.26093   0.31078   0.31078   0.34390   0.37201
 Alpha virt. eigenvalues --    0.45706   0.45706   0.46208   0.46208   0.49201
 Alpha virt. eigenvalues --    0.49201   0.49795   0.49795   0.50994   0.54272
 Alpha virt. eigenvalues --    0.54272   0.56009   0.64150   0.73834   0.73834
 Alpha virt. eigenvalues --    0.80879   0.80879   0.87460   0.93554   0.93554
 Alpha virt. eigenvalues --    0.97974   1.08868   1.08868   1.31833   1.34569
 Alpha virt. eigenvalues --    1.34569   1.36075   1.36075   1.39029   1.39029
 Alpha virt. eigenvalues --    1.39768   1.39768   1.40583   1.40583   1.42762
 Alpha virt. eigenvalues --    1.42762   1.43324   1.47681   1.47681   1.47925
 Alpha virt. eigenvalues --    1.48073   1.48073   1.60768   1.66307   1.66307
 Alpha virt. eigenvalues --    1.71794   1.73040   1.73040   1.96918   1.96918
 Alpha virt. eigenvalues --    1.97550   2.08379   2.13380   2.13380   2.53800
 Alpha virt. eigenvalues --    2.53800   2.69253   2.69253   2.89227   2.89227
 Alpha virt. eigenvalues --    2.94599   3.31227   3.75448   3.75448   3.90283
 Alpha virt. eigenvalues --    3.90283   3.93545   3.93545   3.93716   3.93716
 Alpha virt. eigenvalues --    3.98800   3.99097   3.99097   4.00815   4.00815
 Alpha virt. eigenvalues --    4.02914   4.06735   4.06735   4.11744   4.11744
 Alpha virt. eigenvalues --    4.12357   4.12357   4.31180   4.31180   4.47965
 Alpha virt. eigenvalues --    4.62565   6.60949   6.60949   6.69311   6.69311
 Alpha virt. eigenvalues --    6.77742   6.77742   6.81223   7.69474   8.15471
 Alpha virt. eigenvalues --    8.15471   8.46918   8.46918   8.50647   8.58372
 Alpha virt. eigenvalues --    8.58372   9.02560  13.46225
  Beta  occ. eigenvalues --   -7.73341  -0.55805  -0.33186
  Beta virt. eigenvalues --    0.01797   0.01797   0.03175   0.04820   0.07097
  Beta virt. eigenvalues --    0.07097   0.09098   0.11261   0.14271   0.14271
  Beta virt. eigenvalues --    0.14321   0.14321   0.19338   0.26500   0.27311
  Beta virt. eigenvalues --    0.27311   0.30651   0.30651   0.30903   0.36378
  Beta virt. eigenvalues --    0.45713   0.45713   0.46026   0.46026   0.47683
  Beta virt. eigenvalues --    0.47683   0.49145   0.49145   0.50864   0.54132
  Beta virt. eigenvalues --    0.54132   0.60246   0.64929   0.74741   0.74741
  Beta virt. eigenvalues --    0.84411   0.84411   0.86668   0.94491   0.94491
  Beta virt. eigenvalues --    0.96516   1.08907   1.08907   1.30847   1.34296
  Beta virt. eigenvalues --    1.34296   1.36110   1.36110   1.36262   1.36262
  Beta virt. eigenvalues --    1.38197   1.38197   1.40257   1.40257   1.40330
  Beta virt. eigenvalues --    1.42770   1.42770   1.45925   1.46172   1.46172
  Beta virt. eigenvalues --    1.46900   1.46900   1.61623   1.67069   1.67069
  Beta virt. eigenvalues --    1.72776   1.72776   1.76118   1.96328   1.97389
  Beta virt. eigenvalues --    1.97389   2.11512   2.14816   2.14816   2.56882
  Beta virt. eigenvalues --    2.56882   2.71904   2.71904   2.93397   2.93397
  Beta virt. eigenvalues --    2.96384   3.33877   3.75098   3.75098   3.90315
  Beta virt. eigenvalues --    3.90315   3.92718   3.92718   3.93348   3.93348
  Beta virt. eigenvalues --    3.96302   3.96302   3.96309   3.99423   3.99423
  Beta virt. eigenvalues --    4.00287   4.06654   4.06654   4.10121   4.10121
  Beta virt. eigenvalues --    4.10607   4.10607   4.28750   4.28750   4.45185
  Beta virt. eigenvalues --    4.60375   6.63266   6.63266   6.71512   6.71512
  Beta virt. eigenvalues --    6.79876   6.79876   6.83215   7.75653   8.19997
  Beta virt. eigenvalues --    8.19997   8.50332   8.50332   8.54667   8.61665
  Beta virt. eigenvalues --    8.61665   9.05762  13.45700
          Condensed to atoms (all electrons):
               1          2
     1  B    4.842713   0.062956
     2  H    0.062956   1.031376
          Atomic-Atomic Spin Densities.
               1          2
     1  B   -0.745768  -0.098468
     2  H   -0.098468   0.942705
 Mulliken charges and spin densities:
               1          2
     1  B    0.094332  -0.844236
     2  H   -0.094332   0.844236
 Sum of Mulliken charges =  -0.00000  -0.00000
 Mulliken charges and spin densities with hydrogens summed into heavy atoms:
               1          2
     1  B   -0.000000  -0.000000
 Electronic spatial extent (au):  <R**2>=             34.2638
 Charge=             -0.0000 electrons
 Dipole moment (field-independent basis, Debye):
    X=              0.0000    Y=              0.0000    Z=              0.7457  Tot=              0.7457
 Quadrupole moment (field-independent basis, Debye-Ang):
   XX=             -7.3059   YY=             -7.3059   ZZ=            -12.1012
   XY=              0.0000   XZ=              0.0000   YZ=              0.0000
 Traceless Quadrupole moment (field-independent basis, Debye-Ang):
   XX=              1.5984   YY=              1.5984   ZZ=             -3.1968
   XY=              0.0000   XZ=              0.0000   YZ=              0.0000
 Octapole moment (field-independent basis, Debye-Ang**2):
  XXX=              0.0000  YYY=              0.0000  ZZZ=              1.7072  XYY=              0.0000
  XXY=              0.0000  XXZ=              0.7368  XZZ=              0.0000  YZZ=              0.0000
  YYZ=              0.7368  XYZ=              0.0000
 Hexadecapole moment (field-independent basis, Debye-Ang**3):
 XXXX=            -10.5895 YYYY=            -10.5895 ZZZZ=            -64.8449 XXXY=              0.0000
 XXXZ=              0.0000 YYYX=              0.0000 YYYZ=              0.0000 ZZZX=              0.0000
 ZZZY=              0.0000 XXYY=             -3.5298 XXZZ=            -11.6040 YYZZ=            -11.6040
 XXYZ=              0.0000 YYXZ=              0.0000 ZZXY=              0.0000
 N-N= 1.202675479364D+00 E-N=-6.019486625662D+01  KE= 2.496442151298D+01
 Symmetry A1   KE= 2.496442151298D+01
 Symmetry A2   KE= 8.657036668200D-49
 Symmetry B1   KE= 0.000000000000D+00
 Symmetry B2   KE= 0.000000000000D+00
 Symmetry A1   SP= 5.818084458788D-15
 Symmetry A2   SP= 3.633538156643D-49
 Symmetry B1   SP= 0.000000000000D+00
 Symmetry B2   SP= 0.000000000000D+00
 Leave Link  601 at Sun May 22 21:09:32 2022, MaxMem=   104857600 cpu:               0.1 elap:               0.1
 (Enter /apps/software/g16/l9999.exe)
 1\1\GINC-CNODE01\SP\UCCSD(T)-FC\Aug-CC-pVQZ\B1H1\LCZ\22-May-2022\0\\#p
  UHF/aug-cc-pVQZ guess=read CCSD(T,FC)\\BH UCCSD at 2.2 Angstrom\\0,1\
 B,0,0.,0.,0.\H,0,2.2,0.,0.\\Version=ES64L-G16RevA.03\State=1-SG\HF=-25
 .0450982\MP2=-25.1039637\MP3=-25.1183496\MP4D=-25.1250701\MP4DQ=-25.12
 34938\PUHF=-25.0714638\PMP2-0=-25.1291515\PMP3-0=-25.1418228\MP4SDQ=-2
 5.1244847\CCSD=-25.1443029\CCSD(T)=-25.1494316\S2=0.658014\S2-1=0.5978
 76\S2A=0.029914\RMSD=1.342e-09\PG=C*V [C*(H1B1)]\\@


 THERE IS AN OLD, OLD RECIPE IN MAINE FOR STEWING COOT. PLACE THE
 BIRD IN A KETTLE OF WATER WITH A RED BUILDING BRICK FREE OF MORTAR AND
 BLEMISHES. PARBOIL THE COOT AND BRICK TOGETHER FOR THREE HOURS.
 POUR OFF THE WATER, REFILL THE KETTLE, AND AGAIN PARBOIL FOR THREE HOURS.
 ONCE AGAIN POUR OFF THE WATER, FOR THE LAST TIME ADD FRESH WATER,
 AND LET THE COOT AND BRICK SIMMER TOGETHER OVERNIGHT. IN THE MORNING,
 THROW AWAY THE COOT AND EAT THE BRICK.
 Job cpu time:       0 days  0 hours  0 minutes 21.8 seconds.
 Elapsed time:       0 days  0 hours  0 minutes 21.8 seconds.
 File lengths (MBytes):  RWF=    140 Int=      0 D2E=      0 Chk=     67 Scr=      1
 Normal termination of Gaussian 16 at Sun May 22 21:09:32 2022.

Sender: Unischeduler System <lcz@mgt01>
Subject: Job 134379: <#!/bin/bash
#BSUB -J intel
#BSUB -o BH-2.2-UCCSD_T-G.out
#BSUB -n 8
#BSUB -q cqueue
#BSUB -R span[hosts=1]
export g16root=/apps/software
source /apps/software/g16/bsd/g16.profile
export GAUSS_SCRDIR=/scratch
/apps/software/g16/g16 < BH-2.2-UCCSD_T-G.inp > BH-2.2-UCCSD_T-G.out> Done

Job <#!/bin/bash
#BSUB -J intel
#BSUB -o BH-2.2-UCCSD_T-G.out
#BSUB -n 8
#BSUB -q cqueue
#BSUB -R span[hosts=1]
export g16root=/apps/software
source /apps/software/g16/bsd/g16.profile
export GAUSS_SCRDIR=/scratch
/apps/software/g16/g16 < BH-2.2-UCCSD_T-G.inp > BH-2.2-UCCSD_T-G.out> was submitted from host <mgt01> by user <lcz>.
Job was executed on host(s) <8*cnode01>, in queue <cqueue>, as user <lcz>.
</apps/users/lcz> was used as the home directory.
</apps/users/lcz/exe13/UCCSD_T> was used as the working directory.
Started at 2022-05-22 21:09:10
Results reported at 2022-05-22 21:09:32

Your job looked like:

------------------------------------------------------------
# User input
#!/bin/bash
#BSUB -J intel
#BSUB -o BH-2.2-UCCSD_T-G.out
#BSUB -n 8
#BSUB -q cqueue
#BSUB -R span[hosts=1]
export g16root=/apps/software
source /apps/software/g16/bsd/g16.profile
export GAUSS_SCRDIR=/scratch
/apps/software/g16/g16 < BH-2.2-UCCSD_T-G.inp > BH-2.2-UCCSD_T-G.out
------------------------------------------------------------

Successfully completed.

Resource usage summary:

    CPU time   :           20.41 sec.
    Max Memory :               487 MB
    Max Processes  :               5


The output (if any) follows:

