 Entering Gaussian System, Link 0=/apps/software/g16/g16
 Initial command:
 /apps/software/g16/l1.exe "/scratch/Gau-383143.inp" -scrdir="/scratch/"
 Entering Link 1 = /apps/software/g16/l1.exe PID=    383144.
  
 Copyright (c) 1988,1990,1992,1993,1995,1998,2003,2009,2016,
            Gaussian, Inc.  All Rights Reserved.
  
 This is part of the Gaussian(R) 16 program.  It is based on
 the Gaussian(R) 09 system (copyright 2009, Gaussian, Inc.),
 the Gaussian(R) 03 system (copyright 2003, Gaussian, Inc.),
 the Gaussian(R) 98 system (copyright 1998, Gaussian, Inc.),
 the Gaussian(R) 94 system (copyright 1995, Gaussian, Inc.),
 the Gaussian 92(TM) system (copyright 1992, Gaussian, Inc.),
 the Gaussian 90(TM) system (copyright 1990, Gaussian, Inc.),
 the Gaussian 88(TM) system (copyright 1988, Gaussian, Inc.),
 the Gaussian 86(TM) system (copyright 1986, Carnegie Mellon
 University), and the Gaussian 82(TM) system (copyright 1983,
 Carnegie Mellon University). Gaussian is a federally registered
 trademark of Gaussian, Inc.
  
 This software contains proprietary and confidential information,
 including trade secrets, belonging to Gaussian, Inc.
  
 This software is provided under written license and may be
 used, copied, transmitted, or stored only in accord with that
 written license.
  
 The following legend is applicable only to US Government
 contracts under FAR:
  
                    RESTRICTED RIGHTS LEGEND
  
 Use, reproduction and disclosure by the US Government is
 subject to restrictions as set forth in subparagraphs (a)
 and (c) of the Commercial Computer Software - Restricted
 Rights clause in FAR 52.227-19.
  
 Gaussian, Inc.
 340 Quinnipiac St., Bldg. 40, Wallingford CT 06492
  
  
 ---------------------------------------------------------------
 Warning -- This program may not be used in any manner that
 competes with the business of Gaussian, Inc. or will provide
 assistance to any competitor of Gaussian, Inc.  The licensee
 of this program is prohibited from giving any competitor of
 Gaussian, Inc. access to this program.  By using this program,
 the user acknowledges that Gaussian, Inc. is engaged in the
 business of creating and licensing software in the field of
 computational chemistry and represents and warrants to the
 licensee that it is not a competitor of Gaussian, Inc. and that
 it will not use this program in any manner prohibited above.
 ---------------------------------------------------------------
  

 Cite this work as:
 Gaussian 16, Revision A.03,
 M. J. Frisch, G. W. Trucks, H. B. Schlegel, G. E. Scuseria, 
 M. A. Robb, J. R. Cheeseman, G. Scalmani, V. Barone, 
 G. A. Petersson, H. Nakatsuji, X. Li, M. Caricato, A. V. Marenich, 
 J. Bloino, B. G. Janesko, R. Gomperts, B. Mennucci, H. P. Hratchian, 
 J. V. Ortiz, A. F. Izmaylov, J. L. Sonnenberg, D. Williams-Young, 
 F. Ding, F. Lipparini, F. Egidi, J. Goings, B. Peng, A. Petrone, 
 T. Henderson, D. Ranasinghe, V. G. Zakrzewski, J. Gao, N. Rega, 
 G. Zheng, W. Liang, M. Hada, M. Ehara, K. Toyota, R. Fukuda, 
 J. Hasegawa, M. Ishida, T. Nakajima, Y. Honda, O. Kitao, H. Nakai, 
 T. Vreven, K. Throssell, J. A. Montgomery, Jr., J. E. Peralta, 
 F. Ogliaro, M. J. Bearpark, J. J. Heyd, E. N. Brothers, K. N. Kudin, 
 V. N. Staroverov, T. A. Keith, R. Kobayashi, J. Normand, 
 K. Raghavachari, A. P. Rendell, J. C. Burant, S. S. Iyengar, 
 J. Tomasi, M. Cossi, J. M. Millam, M. Klene, C. Adamo, R. Cammi, 
 J. W. Ochterski, R. L. Martin, K. Morokuma, O. Farkas, 
 J. B. Foresman, and D. J. Fox, Gaussian, Inc., Wallingford CT, 2016.
 
 ******************************************
 Gaussian 16:  ES64L-G16RevA.03 25-Dec-2016
                22-May-2022 
 ******************************************
 %oldchk=BH-2.4-UHF-G.chk
 %chk=BH-2.4-UCCSD_T-G.chk
 Copying data from "BH-2.4-UHF-G.chk" to current chk file "BH-2.4-UCCSD_T-G.chk"
 IOpt=  2 FromEx=T IUOpen= 4 IOptOp= 5 NList=   0 IFRang= 0 IUIn= 4 IUOut= 2.
 ----------------------------------------
 #p UHF/aug-cc-pVQZ guess=read CCSD(T,FC)
 ----------------------------------------
 1/38=1,172=1/1;
 2/12=2,17=6,18=5,40=1/2;
 3/5=16,6=2,7=10,11=2,25=1,30=1,116=2/1,2,3;
 4/5=1/1;
 5/5=2,38=6/2;
 8/6=4,9=120000,10=1/1,4;
 9/5=7,14=2/13;
 6/7=2,8=2,9=2,10=2/1;
 99/5=1,9=1/99;
 Leave Link    1 at Sun May 22 21:14:03 2022, MaxMem=   104857600 cpu:               0.0 elap:               0.0
 (Enter /apps/software/g16/l101.exe)
 ------------------------
 BH UCCSD at 2.4 Angstrom
 ------------------------
 Symbolic Z-matrix:
 Charge =  0 Multiplicity = 1
 B                     0.        0.        0. 
 H                     2.4       0.        0. 
 
 ITRead=  0  0
 MicOpt= -1 -1
 NAtoms=      2 NQM=        2 NQMF=       0 NMMI=      0 NMMIF=      0
                NMic=       0 NMicF=      0.
                    Isotopes and Nuclear Properties:
 (Nuclear quadrupole moments (NQMom) in fm**2, nuclear magnetic moments (NMagM)
  in nuclear magnetons)

  Atom         1           2
 IAtWgt=          11           1
 AtmWgt=  11.0093053   1.0078250
 NucSpn=           3           1
 AtZEff=  -0.0000000  -0.0000000
 NQMom=    4.0590000   0.0000000
 NMagM=    2.6886370   2.7928460
 AtZNuc=   5.0000000   1.0000000
 Leave Link  101 at Sun May 22 21:14:03 2022, MaxMem=   104857600 cpu:               0.1 elap:               0.1
 (Enter /apps/software/g16/l202.exe)
                          Input orientation:                          
 ---------------------------------------------------------------------
 Center     Atomic      Atomic             Coordinates (Angstroms)
 Number     Number       Type             X           Y           Z
 ---------------------------------------------------------------------
      1          5           0        0.000000    0.000000    0.000000
      2          1           0        2.400000    0.000000    0.000000
 ---------------------------------------------------------------------
 Stoichiometry    BH
 Framework group  C*V[C*(HB)]
 Deg. of freedom     1
 Full point group                 C*V     NOp   4
 Largest Abelian subgroup         C2V     NOp   4
 Largest concise Abelian subgroup C1      NOp   1
                         Standard orientation:                         
 ---------------------------------------------------------------------
 Center     Atomic      Atomic             Coordinates (Angstroms)
 Number     Number       Type             X           Y           Z
 ---------------------------------------------------------------------
      1          5           0        0.000000    0.000000    0.400000
      2          1           0        0.000000    0.000000   -2.000000
 ---------------------------------------------------------------------
 Rotational constants (GHZ):           0.0000000          95.0277462          95.0277462
 Leave Link  202 at Sun May 22 21:14:03 2022, MaxMem=   104857600 cpu:               0.0 elap:               0.0
 (Enter /apps/software/g16/l301.exe)
 Standard basis: Aug-CC-pVQZ (5D, 7F)
 Ernie: Thresh=  0.10000D-02 Tol=  0.10000D-05 Strict=F.
 Ernie:  4 primitive shells out of 54 were deleted.
 There are    68 symmetry adapted cartesian basis functions of A1  symmetry.
 There are    18 symmetry adapted cartesian basis functions of A2  symmetry.
 There are    37 symmetry adapted cartesian basis functions of B1  symmetry.
 There are    37 symmetry adapted cartesian basis functions of B2  symmetry.
 There are    50 symmetry adapted basis functions of A1  symmetry.
 There are    16 symmetry adapted basis functions of A2  symmetry.
 There are    30 symmetry adapted basis functions of B1  symmetry.
 There are    30 symmetry adapted basis functions of B2  symmetry.
   126 basis functions,   180 primitive gaussians,   160 cartesian basis functions
     3 alpha electrons        3 beta electrons
       nuclear repulsion energy         1.1024525228 Hartrees.
 IExCor=    0 DFT=F Ex=HF Corr=None ExCW=0 ScaHFX=  1.000000
 ScaDFX=  1.000000  1.000000  1.000000  1.000000 ScalE2=  1.000000  1.000000
 IRadAn=      5 IRanWt=     -1 IRanGd=            0 ICorTp=0 IEmpDi=  4
 NAtoms=    2 NActive=    2 NUniq=    2 SFac= 1.00D+00 NAtFMM=   60 NAOKFM=F Big=F
 Integral buffers will be    131072 words long.
 Raffenetti 2 integral format.
 Two-electron integral symmetry is turned on.
 Leave Link  301 at Sun May 22 21:14:03 2022, MaxMem=   104857600 cpu:               0.1 elap:               0.1
 (Enter /apps/software/g16/l302.exe)
 NPDir=0 NMtPBC=     1 NCelOv=     1 NCel=       1 NClECP=     1 NCelD=      1
         NCelK=      1 NCelE2=     1 NClLst=     1 CellRange=     0.0.
 One-electron integrals computed using PRISM.
 One-electron integral symmetry used in STVInt
 NBasis=   126 RedAO= T EigKep=  9.31D-04  NBF=    50    16    30    30
 NBsUse=   126 1.00D-06 EigRej= -1.00D+00 NBFU=    50    16    30    30
 Leave Link  302 at Sun May 22 21:14:03 2022, MaxMem=   104857600 cpu:               0.1 elap:               0.1
 (Enter /apps/software/g16/l303.exe)
 DipDrv:  MaxL=1.
 Leave Link  303 at Sun May 22 21:14:03 2022, MaxMem=   104857600 cpu:               0.0 elap:               0.0
 (Enter /apps/software/g16/l401.exe)
 Initial guess from the checkpoint file:  "BH-2.4-UCCSD_T-G.chk"
 B after Tr=     0.000000    0.000000    0.000000
         Rot=    1.000000    0.000000    0.000000    0.000000 Ang=   0.00 deg.
 Guess basis will be translated and rotated to current coordinates.
 JPrj=2 DoOrth=T DoCkMO=T.
 Initial guess orbital symmetries:
 Alpha Orbitals:
       Occupied  (SG) (SG) (SG)
       Virtual   (PI) (PI) (SG) (SG) (PI) (PI) (SG) (SG) (DLTA)
                 (DLTA) (PI) (PI) (SG) (PI) (PI) (SG) (SG) (PI)
                 (PI) (SG) (PHI) (PHI) (DLTA) (DLTA) (PI) (PI)
                 (DLTA) (DLTA) (SG) (PI) (PI) (SG) (SG) (DLTA)
                 (DLTA) (PI) (PI) (SG) (SG) (PI) (PI) (PI) (PI)
                 (SG) (PHI) (PHI) (?A) (?A) (DLTA) (DLTA) (PI)
                 (PI) (DLTA) (DLTA) (SG) (PHI) (PHI) (SG) (PI)
                 (PI) (DLTA) (DLTA) (SG) (PHI) (PHI) (PI) (PI)
                 (SG) (DLTA) (DLTA) (SG) (SG) (PI) (PI) (DLTA)
                 (DLTA) (PI) (PI) (PI) (PI) (SG) (SG) (PI) (PI)
                 (?A) (?A) (PHI) (PHI) (DLTA) (DLTA) (SG) (PI)
                 (PI) (DLTA) (DLTA) (SG) (PHI) (PHI) (PI) (PI)
                 (DLTA) (DLTA) (PI) (PI) (SG) (SG) (PHI) (PHI)
                 (DLTA) (DLTA) (PI) (PI) (SG) (SG) (PI) (PI) (DLTA)
                 (DLTA) (SG) (PI) (PI) (SG) (SG)
 Beta  Orbitals:
       Occupied  (SG) (SG) (SG)
       Virtual   (PI) (PI) (SG) (SG) (PI) (PI) (SG) (SG) (DLTA)
                 (DLTA) (PI) (PI) (SG) (SG) (PI) (PI) (PI) (PI)
                 (SG) (SG) (PHI) (PHI) (DLTA) (DLTA) (DLTA) (DLTA)
                 (PI) (PI) (SG) (PI) (PI) (SG) (SG) (DLTA) (DLTA)
                 (PI) (PI) (SG) (PI) (PI) (SG) (PI) (PI) (SG) (PHI)
                 (PHI) (?A) (?A) (DLTA) (DLTA) (DLTA) (DLTA) (PI)
                 (PI) (PHI) (PHI) (SG) (SG) (DLTA) (DLTA) (PI)
                 (PI) (SG) (PHI) (PHI) (SG) (PI) (PI) (DLTA) (DLTA)
                 (SG) (SG) (PI) (PI) (DLTA) (DLTA) (PI) (PI) (PI)
                 (PI) (SG) (SG) (PI) (PI) (?A) (?A) (PHI) (PHI)
                 (DLTA) (DLTA) (SG) (PI) (PI) (DLTA) (DLTA) (SG)
                 (PHI) (PHI) (PI) (PI) (DLTA) (DLTA) (PI) (PI)
                 (SG) (SG) (PHI) (PHI) (DLTA) (DLTA) (PI) (PI)
                 (SG) (SG) (PI) (PI) (DLTA) (DLTA) (SG) (PI) (PI)
                 (SG) (SG)
 The electronic state of the initial guess is 1-SG.
 Initial guess <Sx>= 0.0000 <Sy>= 0.0000 <Sz>= 0.0000 <S**2>= 0.7999 S= 0.5246
 Leave Link  401 at Sun May 22 21:14:03 2022, MaxMem=   104857600 cpu:               0.1 elap:               0.1
 (Enter /apps/software/g16/l502.exe)
 Keep R1 and R2 ints in memory in symmetry-blocked form, NReq=40143665.
 FoFCou: FMM=F IPFlag=           0 FMFlag=           0 FMFlg1=           0
         NFxFlg=           0 DoJE=F BraDBF=F KetDBF=F FulRan=T
         wScrn=  0.000000 ICntrl=       600 IOpCl=  0 I1Cent=           0 NGrid=           0
         NMat0=    1 NMatS0=   8001 NMatT0=    0 NMatD0=    1 NMtDS0=    0 NMtDT0=    0
 Petite list used in FoFCou.
 UHF open shell SCF:
 Using DIIS extrapolation, IDIIS=  1040.
 NGot=   104857600 LenX=    88563632 LenY=    88537591
 Requested convergence on RMS density matrix=1.00D-08 within 128 cycles.
 Requested convergence on MAX density matrix=1.00D-06.
 Requested convergence on             energy=1.00D-06.
 No special actions if energy rises.

 Cycle   1  Pass 1  IDiag  1:
 E= -25.0396362589331    
 DIIS: error= 2.17D-08 at cycle   1 NSaved=   1.
 NSaved= 1 IEnMin= 1 EnMin= -25.0396362589331     IErMin= 1 ErrMin= 2.17D-08
 ErrMax= 2.17D-08  0.00D+00 EMaxC= 1.00D-01 BMatC= 6.34D-14 BMatP= 6.34D-14
 IDIUse=1 WtCom= 1.00D+00 WtEn= 0.00D+00
 Coeff-Com:  0.100D+01
 Coeff:      0.100D+01
 Gap=     0.346 Goal=   None    Shift=    0.000
 Gap=     0.444 Goal=   None    Shift=    0.000
 RMSDP=7.05D-10 MaxDP=2.88D-08              OVMax= 2.94D-08

 SCF Done:  E(UHF) =  -25.0396362589     A.U. after    1 cycles
            NFock=  1  Conv=0.70D-09     -V/T= 2.0019
 <Sx>= 0.0000 <Sy>= 0.0000 <Sz>= 0.0000 <S**2>= 0.7999 S= 0.5246
 <L.S>=  0.00000000000    
 KE= 2.499148274479D+01 PE=-6.003538390364D+01 EE= 8.901812377170D+00
 Annihilation of the first spin contaminant:
 S**2 before annihilation     0.7999,   after     0.0481
 Leave Link  502 at Sun May 22 21:14:07 2022, MaxMem=   104857600 cpu:               3.6 elap:               3.6
 (Enter /apps/software/g16/l801.exe)
 Windowed orbitals will be sorted by symmetry type.
 ExpMin= 1.88D-02 ExpMax= 2.39D+04 ExpMxC= 2.30D+02 IAcc=3 IRadAn=         5 AccDes= 0.00D+00
 HarFok:  IExCor=  205 AccDes= 0.00D+00 IRadAn=         5 IDoV=-2 UseB2=F ITyADJ=14
 ICtDFT= 12500011 ScaDFX=  1.000000  1.000000  1.000000  1.000000
 DSYEVD-2 returned Info=        3401 IAlg= 4 N=    80 NDim=    80 NE2=     1309686 trying  DSYEV.
 Largest valence mixing into a core orbital is  3.19D-04
 Largest core mixing into a valence orbital is  1.11D-04
 Largest valence mixing into a core orbital is  4.11D-04
 Largest core mixing into a valence orbital is  8.42D-05
 Range of M.O.s used for correlation:     2   126
 NBasis=   126 NAE=     3 NBE=     3 NFC=     1 NFV=     0
 NROrb=    125 NOA=     2 NOB=     2 NVA=   123 NVB=   123
 Leave Link  801 at Sun May 22 21:14:07 2022, MaxMem=   104857600 cpu:               0.1 elap:               0.1
 (Enter /apps/software/g16/l804.exe)
 Open-shell transformation, MDV=   104857600 ITran=4 ISComp=2.
 Unit  1 TFree=        991730 TCopy=        422292.
 Semi-Direct transformation.
 ModeAB=           2 MOrb=             2 LenV=     104169381
 LASXX=       493564 LTotXX=      493564 LenRXX=      493564
 LTotAB=      510115 MaxLAS=     3220000 LenRXY=     3220000
 NonZer=     3361500 LenScr=     5758976 LnRSAI=           0
 LnScr1=           0 LExtra=           0 Total=      9472540
 MaxDsk=          -1 SrtSym=           F ITran=            4
 DoSDTr:  NPSUse=  1
 JobTyp=1 Pass  1:  I=   1 to   2.
 (rs|ai) integrals will be sorted in core.
 Complete sort for first half transformation.
 First half transformation complete.
 Complete sort for second half transformation.
 Second half transformation complete.
 ModeAB=           2 MOrb=             2 LenV=     104169381
 LASXX=       493564 LTotXX=      493564 LenRXX=     3220000
 LTotAB=      492482 MaxLAS=     3220000 LenRXY=      492482
 NonZer=     3361500 LenScr=     5758976 LnRSAI=           0
 LnScr1=           0 LExtra=           0 Total=      9471458
 MaxDsk=          -1 SrtSym=           F ITran=            4
 DoSDTr:  NPSUse=  1
 JobTyp=2 Pass  1:  I=   1 to   2.
 (rs|ai) integrals will be sorted in core.
 Complete sort for first half transformation.
 First half transformation complete.
 Complete sort for second half transformation.
 Second half transformation complete.
 Spin components of T(2) and E(2):
     alpha-alpha T2 =       0.1758170056D-02 E2=     -0.3442137325D-02
     alpha-beta  T2 =       0.2848526440D-01 E2=     -0.5021676881D-01
     beta-beta   T2 =       0.4027275242D-03 E2=     -0.6897475885D-03
 ANorm=    0.1015207448D+01
 E2 =    -0.5434865372D-01 EUMP2 =    -0.25093984912656D+02
 (S**2,0)=  0.79986D+00           (S**2,1)=  0.75153D+00
 E(PUHF)=      -0.25063616127D+02        E(PMP2)=      -0.25117261620D+02
 Leave Link  804 at Sun May 22 21:14:17 2022, MaxMem=   104857600 cpu:              10.4 elap:              10.4
 (Enter /apps/software/g16/l913.exe)
 CIDS:  MDV=   104857600.
 Frozen-core window:  NFC=   1 NFV=   0.
 IFCWin=0 IBDFC=1 NFBD=     0     0 NFCmp=     0     0 NFFFC=     0     0
 Using original routines for 1st iteration.
 Using DD4UQ or CC4UQ for 2nd and later iterations.
 Keep R2 and R3 ints in memory in symmetry-blocked form, NReq=40147367.
 FoFCou: FMM=F IPFlag=           0 FMFlag=           0 FMFlg1=           0
         NFxFlg=           0 DoJE=F BraDBF=F KetDBF=F FulRan=T
         wScrn=  0.000000 ICntrl=       600 IOpCl=  0 I1Cent=           0 NGrid=           0
         NMat0=    1 NMatS0=   8001 NMatT0=    0 NMatD0=    1 NMtDS0=    0 NMtDT0=    0
 Petite list used in FoFCou.
 CIDS: In Core Option IDoMem=           1.
 CCSD(T)
 =======
 Iterations=  50 Convergence= 0.100D-06
 Produce multiple copies of IABC intergrals
 Iteration Nr.   1
 **********************
 DD1Dir will call FoFMem   1 times, MxPair=        10
 NAB=     4 NAA=     1 NBB=     1.
 E(PMP3)=      -0.25129692967D+02
 MP4(R+Q)=  0.14533751D-02
 Maximum subspace dimension=  5
 A-vector RMS=  3.2607459D-03 Max=  1.6819569D-02 conv= 1.00D-05.
 RLE energy=       -0.0696684103
 E3=       -0.13388944D-01        EUMP3=      -0.25107373857D+02
 E4(DQ)=   -0.47112545D-02        UMP4(DQ)=   -0.25112085111D+02
 E4(SDQ)=  -0.53988600D-02        UMP4(SDQ)=  -0.25112772717D+02
 VARIATIONAL ENERGIES WITH THE FIRST-ORDER WAVEFUNCTION:
 DE(Corr)= -0.66299673E-01 E(Corr)=     -25.105935932    
 NORM(A)=   0.10304861D+01
 Iteration Nr.   2
 **********************
 DD1Dir will call FoFMem   1 times, MxPair=        10
 NAB=     4 NAA=     1 NBB=     1.
 A-vector RMS=  2.1361798D-03 Max=  1.3005512D-02 conv= 1.00D-05.
 RLE energy=       -0.0779647103
 DE(Corr)= -0.73378848E-01 E(CORR)=     -25.113015107     Delta=-7.08D-03
 NORM(A)=   0.10453336D+01
 Iteration Nr.   3
 **********************
 DD1Dir will call FoFMem   1 times, MxPair=        10
 NAB=     4 NAA=     1 NBB=     1.
 A-vector RMS=  1.8215578D-03 Max=  1.1806031D-02 conv= 1.00D-05.
 RLE energy=       -0.0809239108
 DE(Corr)= -0.78016818E-01 E(CORR)=     -25.117653076     Delta=-4.64D-03
 NORM(A)=   0.10614172D+01
 Iteration Nr.   4
 **********************
 DD1Dir will call FoFMem   1 times, MxPair=        10
 NAB=     4 NAA=     1 NBB=     1.
 A-vector RMS=  1.0909765D-03 Max=  7.2609044D-03 conv= 1.00D-05.
 RLE energy=       -0.0864393501
 DE(Corr)= -0.81137051E-01 E(CORR)=     -25.120773310     Delta=-3.12D-03
 NORM(A)=   0.11111754D+01
 Iteration Nr.   5
 **********************
 DD1Dir will call FoFMem   1 times, MxPair=        10
 NAB=     4 NAA=     1 NBB=     1.
 A-vector RMS=  8.6987608D-04 Max=  5.3299347D-03 conv= 1.00D-05.
 RLE energy=       -0.0884369614
 DE(Corr)= -0.86085374E-01 E(CORR)=     -25.125721633     Delta=-4.95D-03
 NORM(A)=   0.11515019D+01
 Iteration Nr.   6
 **********************
 DD1Dir will call FoFMem   1 times, MxPair=        10
 NAB=     4 NAA=     1 NBB=     1.
 A-vector RMS=  6.6473784D-04 Max=  3.7371096D-03 conv= 1.00D-05.
 RLE energy=       -0.0887627603
 DE(Corr)= -0.88369148E-01 E(CORR)=     -25.128005407     Delta=-2.28D-03
 NORM(A)=   0.11598780D+01
 Iteration Nr.   7
 **********************
 DD1Dir will call FoFMem   1 times, MxPair=        10
 NAB=     4 NAA=     1 NBB=     1.
 A-vector RMS=  3.1145031D-04 Max=  2.0265864D-03 conv= 1.00D-05.
 RLE energy=       -0.0891387227
 DE(Corr)= -0.88751886E-01 E(CORR)=     -25.128388145     Delta=-3.83D-04
 NORM(A)=   0.11647703D+01
 Iteration Nr.   8
 **********************
 DD1Dir will call FoFMem   1 times, MxPair=        10
 NAB=     4 NAA=     1 NBB=     1.
 A-vector RMS=  1.5524840D-04 Max=  1.0418731D-03 conv= 1.00D-05.
 RLE energy=       -0.0890271169
 DE(Corr)= -0.89070604E-01 E(CORR)=     -25.128706863     Delta=-3.19D-04
 NORM(A)=   0.11642849D+01
 Iteration Nr.   9
 **********************
 DD1Dir will call FoFMem   1 times, MxPair=        10
 NAB=     4 NAA=     1 NBB=     1.
 A-vector RMS=  6.1289068D-05 Max=  3.0313122D-04 conv= 1.00D-05.
 RLE energy=       -0.0890673296
 DE(Corr)= -0.89020520E-01 E(CORR)=     -25.128656779     Delta= 5.01D-05
 NORM(A)=   0.11651129D+01
 Iteration Nr.  10
 **********************
 DD1Dir will call FoFMem   1 times, MxPair=        10
 NAB=     4 NAA=     1 NBB=     1.
 A-vector RMS=  1.9254833D-05 Max=  9.6397702D-05 conv= 1.00D-05.
 RLE energy=       -0.0890309195
 DE(Corr)= -0.89057534E-01 E(CORR)=     -25.128693793     Delta=-3.70D-05
 NORM(A)=   0.11648335D+01
 Iteration Nr.  11
 **********************
 DD1Dir will call FoFMem   1 times, MxPair=        10
 NAB=     4 NAA=     1 NBB=     1.
 A-vector RMS=  1.0793555D-05 Max=  5.9716623D-05 conv= 1.00D-05.
 RLE energy=       -0.0890276807
 DE(Corr)= -0.89033413E-01 E(CORR)=     -25.128669672     Delta= 2.41D-05
 NORM(A)=   0.11647521D+01
 Iteration Nr.  12
 **********************
 DD1Dir will call FoFMem   1 times, MxPair=        10
 NAB=     4 NAA=     1 NBB=     1.
 A-vector RMS=  3.6719025D-06 Max=  1.6589738D-05 conv= 1.00D-05.
 RLE energy=       -0.0890196656
 DE(Corr)= -0.89027402E-01 E(CORR)=     -25.128663661     Delta= 6.01D-06
 NORM(A)=   0.11646415D+01
 Iteration Nr.  13
 **********************
 DD1Dir will call FoFMem   1 times, MxPair=        10
 NAB=     4 NAA=     1 NBB=     1.
 A-vector RMS=  1.4252642D-06 Max=  7.2380686D-06 conv= 1.00D-05.
 RLE energy=       -0.0890182046
 DE(Corr)= -0.89020253E-01 E(CORR)=     -25.128656511     Delta= 7.15D-06
 NORM(A)=   0.11646092D+01
 Iteration Nr.  14
 **********************
 DD1Dir will call FoFMem   1 times, MxPair=        10
 NAB=     4 NAA=     1 NBB=     1.
 A-vector RMS=  5.3309299D-07 Max=  2.1590563D-06 conv= 1.00D-05.
 RLE energy=       -0.0890180059
 DE(Corr)= -0.89018398E-01 E(CORR)=     -25.128654656     Delta= 1.86D-06
 NORM(A)=   0.11646003D+01
 Iteration Nr.  15
 **********************
 DD1Dir will call FoFMem   1 times, MxPair=        10
 NAB=     4 NAA=     1 NBB=     1.
 A-vector RMS=  3.1339561D-07 Max=  1.3463781D-06 conv= 1.00D-05.
 RLE energy=       -0.0890178503
 DE(Corr)= -0.89018033E-01 E(CORR)=     -25.128654292     Delta= 3.64D-07
 NORM(A)=   0.11645964D+01
 Iteration Nr.  16
 **********************
 DD1Dir will call FoFMem   1 times, MxPair=        10
 NAB=     4 NAA=     1 NBB=     1.
 A-vector RMS=  1.4201581D-07 Max=  6.3086069D-07 conv= 1.00D-05.
 RLE energy=       -0.0890180127
 DE(Corr)= -0.89017866E-01 E(CORR)=     -25.128654125     Delta= 1.67D-07
 NORM(A)=   0.11645977D+01
 Iteration Nr.  17
 **********************
 DD1Dir will call FoFMem   1 times, MxPair=        10
 NAB=     4 NAA=     1 NBB=     1.
 A-vector RMS=  8.4688464D-08 Max=  3.6293706D-07 conv= 1.00D-05.
 RLE energy=       -0.0890180244
 DE(Corr)= -0.89017982E-01 E(CORR)=     -25.128654241     Delta=-1.16D-07
 NORM(A)=   0.11645982D+01
 Iteration Nr.  18
 **********************
 DD1Dir will call FoFMem   1 times, MxPair=        10
 NAB=     4 NAA=     1 NBB=     1.
 A-vector RMS=  5.3538866D-08 Max=  2.6846749D-07 conv= 1.00D-05.
 RLE energy=       -0.0890180462
 DE(Corr)= -0.89018009E-01 E(CORR)=     -25.128654268     Delta=-2.71D-08
 NORM(A)=   0.11645988D+01
 CI/CC converged in   18 iterations to DelEn=-2.71D-08 Conv= 1.00D-07 ErrA1= 5.35D-08 Conv= 1.00D-05
 Wavefunction amplitudes converged. E(Corr)=     -25.128654268    
 Dominant configurations:
 ***********************
 Spin Case        I    J    A    B          Value
    AA            3         6           -0.117955D+00
    AA            3        11            0.195155D+00
    BB            2        11           -0.109879D+00
    BB            3        11            0.156429D+00
   ABAB           3    2   11   11      -0.125210D+00
   ABAB           3    3   11   11       0.185356D+00
 Largest amplitude= 1.95D-01
 Time for triples=        2.61 seconds.
 T4(CCSD)= -0.55416489D-02
 T5(CCSD)=  0.12796178D-03
 CCSD(T)= -0.25134067955D+02

 S**2, projected HF & approx projected MPn energies after annihilation of
 unwanted spin states (see manual for definitions):

 spins       (S**2,0) (S**2,1)    PUHF        PMP2        PMP3        PMP4
 annihilated
 s+1        -0.02434 -0.00261  -25.063616  -25.117262  -25.129693
 s+1,s+2     0.00000 -0.00000  -25.060524  -25.114293  -25.126862

 Discarding MO integrals.
 Leave Link  913 at Sun May 22 21:14:25 2022, MaxMem=   104857600 cpu:               7.8 elap:               7.9
 (Enter /apps/software/g16/l601.exe)
 Copying SCF densities to generalized density rwf, IOpCl= 1 IROHF=0.

 **********************************************************************

            Population analysis using the SCF density.

 **********************************************************************

 Orbital symmetries:
 Alpha Orbitals:
       Occupied  (SG) (SG) (SG)
       Virtual   (PI) (PI) (SG) (SG) (PI) (PI) (SG) (SG) (DLTA)
                 (DLTA) (PI) (PI) (SG) (PI) (PI) (SG) (SG) (PI)
                 (PI) (SG) (PHI) (PHI) (DLTA) (DLTA) (PI) (PI)
                 (DLTA) (DLTA) (SG) (PI) (PI) (SG) (SG) (DLTA)
                 (DLTA) (PI) (PI) (SG) (SG) (PI) (PI) (PI) (PI)
                 (SG) (PHI) (PHI) (?A) (?A) (DLTA) (DLTA) (PI)
                 (PI) (DLTA) (DLTA) (SG) (PHI) (PHI) (SG) (PI)
                 (PI) (DLTA) (DLTA) (SG) (PHI) (PHI) (PI) (PI)
                 (SG) (DLTA) (DLTA) (SG) (SG) (PI) (PI) (DLTA)
                 (DLTA) (PI) (PI) (PI) (PI) (SG) (SG) (PI) (PI)
                 (?A) (?A) (PHI) (PHI) (DLTA) (DLTA) (SG) (PI)
                 (PI) (DLTA) (DLTA) (SG) (PHI) (PHI) (PI) (PI)
                 (DLTA) (DLTA) (PI) (PI) (SG) (SG) (PHI) (PHI)
                 (DLTA) (DLTA) (PI) (PI) (SG) (SG) (PI) (PI) (DLTA)
                 (DLTA) (SG) (PI) (PI) (SG) (SG)
 Beta  Orbitals:
       Occupied  (SG) (SG) (SG)
       Virtual   (PI) (PI) (SG) (SG) (PI) (PI) (SG) (SG) (DLTA)
                 (DLTA) (PI) (PI) (SG) (SG) (PI) (PI) (PI) (PI)
                 (SG) (SG) (PHI) (PHI) (DLTA) (DLTA) (DLTA) (DLTA)
                 (PI) (PI) (SG) (PI) (PI) (SG) (SG) (DLTA) (DLTA)
                 (PI) (PI) (SG) (PI) (PI) (SG) (PI) (PI) (SG) (PHI)
                 (PHI) (?A) (?A) (DLTA) (DLTA) (DLTA) (DLTA) (PI)
                 (PI) (PHI) (PHI) (SG) (SG) (DLTA) (DLTA) (PI)
                 (PI) (SG) (PHI) (PHI) (SG) (PI) (PI) (DLTA) (DLTA)
                 (SG) (SG) (PI) (PI) (DLTA) (DLTA) (PI) (PI) (PI)
                 (PI) (SG) (SG) (PI) (PI) (?A) (?A) (PHI) (PHI)
                 (DLTA) (DLTA) (SG) (PI) (PI) (DLTA) (DLTA) (SG)
                 (PHI) (PHI) (PI) (PI) (DLTA) (DLTA) (PI) (PI)
                 (SG) (SG) (PHI) (PHI) (DLTA) (DLTA) (PI) (PI)
                 (SG) (SG) (PI) (PI) (DLTA) (DLTA) (SG) (PI) (PI)
                 (SG) (SG)
 The electronic state is 1-SG.
 Alpha  occ. eigenvalues --   -7.72325  -0.55426  -0.32682
 Alpha virt. eigenvalues --    0.01943   0.01943   0.03124   0.04729   0.07246
 Alpha virt. eigenvalues --    0.07246   0.08887   0.10940   0.14369   0.14369
 Alpha virt. eigenvalues --    0.14379   0.14379   0.19087   0.26834   0.26834
 Alpha virt. eigenvalues --    0.27524   0.30229   0.31000   0.31000   0.36232
 Alpha virt. eigenvalues --    0.45822   0.45822   0.45981   0.45981   0.47759
 Alpha virt. eigenvalues --    0.47759   0.49369   0.49369   0.50863   0.53644
 Alpha virt. eigenvalues --    0.53644   0.59419   0.63749   0.72664   0.72664
 Alpha virt. eigenvalues --    0.85635   0.85635   0.90346   0.90985   0.92237
 Alpha virt. eigenvalues --    0.92237   1.06133   1.06133   1.29691   1.35052
 Alpha virt. eigenvalues --    1.35052   1.36338   1.36338   1.36846   1.36846
 Alpha virt. eigenvalues --    1.37141   1.37141   1.40108   1.40108   1.40491
 Alpha virt. eigenvalues --    1.43073   1.43073   1.44007   1.44947   1.44947
 Alpha virt. eigenvalues --    1.45829   1.45829   1.58255   1.64011   1.64011
 Alpha virt. eigenvalues --    1.66932   1.66932   1.70904   1.89133   1.89133
 Alpha virt. eigenvalues --    1.93858   2.11645   2.14017   2.14017   2.55616
 Alpha virt. eigenvalues --    2.55616   2.67977   2.67977   2.83533   2.83533
 Alpha virt. eigenvalues --    2.88629   3.20944   3.74811   3.74811   3.90796
 Alpha virt. eigenvalues --    3.90796   3.92849   3.92849   3.93974   3.93974
 Alpha virt. eigenvalues --    3.95428   3.95872   3.95872   3.99425   3.99425
 Alpha virt. eigenvalues --    3.99934   4.07237   4.07237   4.08355   4.08355
 Alpha virt. eigenvalues --    4.09652   4.09652   4.24976   4.24976   4.34930
 Alpha virt. eigenvalues --    4.51027   6.61952   6.61952   6.68530   6.68530
 Alpha virt. eigenvalues --    6.79086   6.79086   6.80069   7.70748   8.13235
 Alpha virt. eigenvalues --    8.13235   8.48864   8.48864   8.51057   8.57317
 Alpha virt. eigenvalues --    8.57317   8.83495  13.33318
  Beta  occ. eigenvalues --   -7.71170  -0.50261  -0.42162
  Beta virt. eigenvalues --    0.02269   0.02269   0.03516   0.05509   0.07730
  Beta virt. eigenvalues --    0.07730   0.09050   0.11496   0.14370   0.14370
  Beta virt. eigenvalues --    0.14418   0.14418   0.19019   0.25324   0.25461
  Beta virt. eigenvalues --    0.25461   0.31516   0.31516   0.34680   0.37061
  Beta virt. eigenvalues --    0.45816   0.45816   0.46188   0.46188   0.49451
  Beta virt. eigenvalues --    0.49451   0.50199   0.50199   0.50452   0.53852
  Beta virt. eigenvalues --    0.53852   0.55021   0.63075   0.71662   0.71662
  Beta virt. eigenvalues --    0.80973   0.80973   0.89316   0.91292   0.91292
  Beta virt. eigenvalues --    0.94220   1.06552   1.06552   1.31185   1.35375
  Beta virt. eigenvalues --    1.35375   1.36307   1.36307   1.37546   1.37546
  Beta virt. eigenvalues --    1.40405   1.40405   1.40697   1.40697   1.43087
  Beta virt. eigenvalues --    1.43087   1.44070   1.46084   1.46999   1.46999
  Beta virt. eigenvalues --    1.47348   1.47348   1.58443   1.63115   1.63115
  Beta virt. eigenvalues --    1.65679   1.67483   1.67483   1.88588   1.88588
  Beta virt. eigenvalues --    1.93212   2.09185   2.12736   2.12736   2.52164
  Beta virt. eigenvalues --    2.52164   2.64835   2.64835   2.78334   2.78334
  Beta virt. eigenvalues --    2.86530   3.17804   3.75242   3.75242   3.90794
  Beta virt. eigenvalues --    3.90794   3.93774   3.93774   3.94450   3.94450
  Beta virt. eigenvalues --    3.98072   3.99073   3.99073   4.00926   4.00926
  Beta virt. eigenvalues --    4.03054   4.07375   4.07375   4.10287   4.10287
  Beta virt. eigenvalues --    4.11470   4.11470   4.27702   4.27702   4.37653
  Beta virt. eigenvalues --    4.53934   6.59371   6.59371   6.66035   6.66035
  Beta virt. eigenvalues --    6.76661   6.76661   6.77700   7.63786   8.08144
  Beta virt. eigenvalues --    8.08144   8.45076   8.45076   8.46539   8.53620
  Beta virt. eigenvalues --    8.53620   8.79810  13.34039
          Condensed to atoms (all electrons):
               1          2
     1  B    4.914793   0.025315
     2  H    0.025315   1.034578
          Atomic-Atomic Spin Densities.
               1          2
     1  B    0.854294   0.070152
     2  H    0.070152  -0.994598
 Mulliken charges and spin densities:
               1          2
     1  B    0.059893   0.924446
     2  H   -0.059893  -0.924446
 Sum of Mulliken charges =  -0.00000   0.00000
 Mulliken charges and spin densities with hydrogens summed into heavy atoms:
               1          2
     1  B   -0.000000   0.000000
 Electronic spatial extent (au):  <R**2>=             36.8212
 Charge=              0.0000 electrons
 Dipole moment (field-independent basis, Debye):
    X=              0.0000    Y=              0.0000    Z=              0.6079  Tot=              0.6079
 Quadrupole moment (field-independent basis, Debye-Ang):
   XX=             -7.3117   YY=             -7.3117   ZZ=            -11.8470
   XY=              0.0000   XZ=              0.0000   YZ=              0.0000
 Traceless Quadrupole moment (field-independent basis, Debye-Ang):
   XX=              1.5118   YY=              1.5118   ZZ=             -3.0235
   XY=              0.0000   XZ=              0.0000   YZ=              0.0000
 Octapole moment (field-independent basis, Debye-Ang**2):
  XXX=              0.0000  YYY=              0.0000  ZZZ=              0.9278  XYY=              0.0000
  XXY=              0.0000  XXZ=              0.6919  XZZ=              0.0000  YZZ=              0.0000
  YYZ=              0.6919  XYZ=              0.0000
 Hexadecapole moment (field-independent basis, Debye-Ang**3):
 XXXX=            -10.6451 YYYY=            -10.6451 ZZZZ=            -71.2367 XXXY=              0.0000
 XXXZ=              0.0000 YYYX=              0.0000 YYYZ=              0.0000 ZZZX=              0.0000
 ZZZY=              0.0000 XXYY=             -3.5484 XXZZ=            -12.4339 YYZZ=            -12.4339
 XXYZ=              0.0000 YYXZ=              0.0000 ZZXY=              0.0000
 N-N= 1.102452522750D+00 E-N=-6.003538396931D+01  KE= 2.499148274479D+01
 Symmetry A1   KE= 2.499148274479D+01
 Symmetry A2   KE= 1.608555578974D-49
 Symmetry B1   KE= 0.000000000000D+00
 Symmetry B2   KE= 0.000000000000D+00
 Symmetry A1   SP=-4.900075163188D-16
 Symmetry A2   SP= 1.142807593040D-49
 Symmetry B1   SP= 0.000000000000D+00
 Symmetry B2   SP= 0.000000000000D+00
 Leave Link  601 at Sun May 22 21:14:25 2022, MaxMem=   104857600 cpu:               0.0 elap:               0.1
 (Enter /apps/software/g16/l9999.exe)
 1\1\GINC-CNODE16\SP\UCCSD(T)-FC\Aug-CC-pVQZ\B1H1\LCZ\22-May-2022\0\\#p
  UHF/aug-cc-pVQZ guess=read CCSD(T,FC)\\BH UCCSD at 2.4 Angstrom\\0,1\
 B,0,0.,0.,0.\H,0,2.4,0.,0.\\Version=ES64L-G16RevA.03\State=1-SG\HF=-25
 .0396363\MP2=-25.0939849\MP3=-25.1073739\MP4D=-25.1135385\MP4DQ=-25.11
 20851\PUHF=-25.0636161\PMP2-0=-25.1172616\PMP3-0=-25.129693\MP4SDQ=-25
 .1127727\CCSD=-25.1286543\CCSD(T)=-25.134068\S2=0.799861\S2-1=0.751525
 \S2A=0.048097\RMSD=7.048e-10\PG=C*V [C*(H1B1)]\\@


 YOU CAN WIPE THE SLATE CLEAN, BUT YOU'LL STILL
 HAVE TO EAT A LITTLE CHALK DUST.
 Job cpu time:       0 days  0 hours  0 minutes 22.5 seconds.
 Elapsed time:       0 days  0 hours  0 minutes 22.6 seconds.
 File lengths (MBytes):  RWF=    140 Int=      0 D2E=      0 Chk=     67 Scr=      1
 Normal termination of Gaussian 16 at Sun May 22 21:14:25 2022.

Sender: Unischeduler System <lcz@mgt01>
Subject: Job 134380: <#!/bin/bash
#BSUB -J intel
#BSUB -o BH-2.4-UCCSD_T-G.out
#BSUB -n 8
#BSUB -q cqueue
#BSUB -R span[hosts=1]
export g16root=/apps/software
source /apps/software/g16/bsd/g16.profile
export GAUSS_SCRDIR=/scratch
/apps/software/g16/g16 < BH-2.4-UCCSD_T-G.inp > BH-2.4-UCCSD_T-G.out> Done

Job <#!/bin/bash
#BSUB -J intel
#BSUB -o BH-2.4-UCCSD_T-G.out
#BSUB -n 8
#BSUB -q cqueue
#BSUB -R span[hosts=1]
export g16root=/apps/software
source /apps/software/g16/bsd/g16.profile
export GAUSS_SCRDIR=/scratch
/apps/software/g16/g16 < BH-2.4-UCCSD_T-G.inp > BH-2.4-UCCSD_T-G.out> was submitted from host <mgt01> by user <lcz>.
Job was executed on host(s) <8*cnode16>, in queue <cqueue>, as user <lcz>.
</apps/users/lcz> was used as the home directory.
</apps/users/lcz/exe13/UCCSD_T> was used as the working directory.
Started at 2022-05-22 21:14:02
Results reported at 2022-05-22 21:14:25

Your job looked like:

------------------------------------------------------------
# User input
#!/bin/bash
#BSUB -J intel
#BSUB -o BH-2.4-UCCSD_T-G.out
#BSUB -n 8
#BSUB -q cqueue
#BSUB -R span[hosts=1]
export g16root=/apps/software
source /apps/software/g16/bsd/g16.profile
export GAUSS_SCRDIR=/scratch
/apps/software/g16/g16 < BH-2.4-UCCSD_T-G.inp > BH-2.4-UCCSD_T-G.out
------------------------------------------------------------

Successfully completed.

Resource usage summary:

    CPU time   :           22.17 sec.
    Max Memory :               489 MB
    Max Processes  :               5


The output (if any) follows:

