 Entering Gaussian System, Link 0=/apps/software/g16/g16
 Initial command:
 /apps/software/g16/l1.exe "/scratch/Gau-370475.inp" -scrdir="/scratch/"
 Entering Link 1 = /apps/software/g16/l1.exe PID=    370476.
  
 Copyright (c) 1988,1990,1992,1993,1995,1998,2003,2009,2016,
            Gaussian, Inc.  All Rights Reserved.
  
 This is part of the Gaussian(R) 16 program.  It is based on
 the Gaussian(R) 09 system (copyright 2009, Gaussian, Inc.),
 the Gaussian(R) 03 system (copyright 2003, Gaussian, Inc.),
 the Gaussian(R) 98 system (copyright 1998, Gaussian, Inc.),
 the Gaussian(R) 94 system (copyright 1995, Gaussian, Inc.),
 the Gaussian 92(TM) system (copyright 1992, Gaussian, Inc.),
 the Gaussian 90(TM) system (copyright 1990, Gaussian, Inc.),
 the Gaussian 88(TM) system (copyright 1988, Gaussian, Inc.),
 the Gaussian 86(TM) system (copyright 1986, Carnegie Mellon
 University), and the Gaussian 82(TM) system (copyright 1983,
 Carnegie Mellon University). Gaussian is a federally registered
 trademark of Gaussian, Inc.
  
 This software contains proprietary and confidential information,
 including trade secrets, belonging to Gaussian, Inc.
  
 This software is provided under written license and may be
 used, copied, transmitted, or stored only in accord with that
 written license.
  
 The following legend is applicable only to US Government
 contracts under FAR:
  
                    RESTRICTED RIGHTS LEGEND
  
 Use, reproduction and disclosure by the US Government is
 subject to restrictions as set forth in subparagraphs (a)
 and (c) of the Commercial Computer Software - Restricted
 Rights clause in FAR 52.227-19.
  
 Gaussian, Inc.
 340 Quinnipiac St., Bldg. 40, Wallingford CT 06492
  
  
 ---------------------------------------------------------------
 Warning -- This program may not be used in any manner that
 competes with the business of Gaussian, Inc. or will provide
 assistance to any competitor of Gaussian, Inc.  The licensee
 of this program is prohibited from giving any competitor of
 Gaussian, Inc. access to this program.  By using this program,
 the user acknowledges that Gaussian, Inc. is engaged in the
 business of creating and licensing software in the field of
 computational chemistry and represents and warrants to the
 licensee that it is not a competitor of Gaussian, Inc. and that
 it will not use this program in any manner prohibited above.
 ---------------------------------------------------------------
  

 Cite this work as:
 Gaussian 16, Revision A.03,
 M. J. Frisch, G. W. Trucks, H. B. Schlegel, G. E. Scuseria, 
 M. A. Robb, J. R. Cheeseman, G. Scalmani, V. Barone, 
 G. A. Petersson, H. Nakatsuji, X. Li, M. Caricato, A. V. Marenich, 
 J. Bloino, B. G. Janesko, R. Gomperts, B. Mennucci, H. P. Hratchian, 
 J. V. Ortiz, A. F. Izmaylov, J. L. Sonnenberg, D. Williams-Young, 
 F. Ding, F. Lipparini, F. Egidi, J. Goings, B. Peng, A. Petrone, 
 T. Henderson, D. Ranasinghe, V. G. Zakrzewski, J. Gao, N. Rega, 
 G. Zheng, W. Liang, M. Hada, M. Ehara, K. Toyota, R. Fukuda, 
 J. Hasegawa, M. Ishida, T. Nakajima, Y. Honda, O. Kitao, H. Nakai, 
 T. Vreven, K. Throssell, J. A. Montgomery, Jr., J. E. Peralta, 
 F. Ogliaro, M. J. Bearpark, J. J. Heyd, E. N. Brothers, K. N. Kudin, 
 V. N. Staroverov, T. A. Keith, R. Kobayashi, J. Normand, 
 K. Raghavachari, A. P. Rendell, J. C. Burant, S. S. Iyengar, 
 J. Tomasi, M. Cossi, J. M. Millam, M. Klene, C. Adamo, R. Cammi, 
 J. W. Ochterski, R. L. Martin, K. Morokuma, O. Farkas, 
 J. B. Foresman, and D. J. Fox, Gaussian, Inc., Wallingford CT, 2016.
 
 ******************************************
 Gaussian 16:  ES64L-G16RevA.03 25-Dec-2016
                22-May-2022 
 ******************************************
 %chk=BH-3.2-UHF-G.chk
 ---------------------------------------
 #p UHF/aug-cc-pVQZ guess=mix stable=opt
 ---------------------------------------
 1/38=1,172=1/1;
 2/12=2,17=6,18=5,40=1/2;
 3/5=16,6=2,7=10,11=2,25=1,30=1,116=2/1,2,3;
 4/13=-1/1;
 5/5=2,38=5/2;
 6/7=2,8=2,9=2,10=2,28=1/1;
 8/6=1,10=90,11=11/1;
 9/8=-3,42=1,46=1/14;
 5/5=2,8=3,17=40,38=5/8(-2);
 6/7=2,8=2,9=2,10=2,28=1/1;
 99/5=1,9=1/99;
 Leave Link    1 at Sun May 22 21:07:15 2022, MaxMem=           0 cpu:               0.0 elap:               0.0
 (Enter /apps/software/g16/l101.exe)
 ----------------------
 BH UHF at 3.2 Angstrom
 ----------------------
 Symbolic Z-matrix:
 Charge =  0 Multiplicity = 1
 B                     0.        0.        0. 
 H                     3.2       0.        0. 
 
 ITRead=  0  0
 MicOpt= -1 -1
 NAtoms=      2 NQM=        2 NQMF=       0 NMMI=      0 NMMIF=      0
                NMic=       0 NMicF=      0.
                    Isotopes and Nuclear Properties:
 (Nuclear quadrupole moments (NQMom) in fm**2, nuclear magnetic moments (NMagM)
  in nuclear magnetons)

  Atom         1           2
 IAtWgt=          11           1
 AtmWgt=  11.0093053   1.0078250
 NucSpn=           3           1
 AtZEff=  -0.0000000  -0.0000000
 NQMom=    4.0590000   0.0000000
 NMagM=    2.6886370   2.7928460
 AtZNuc=   5.0000000   1.0000000
 Leave Link  101 at Sun May 22 21:07:15 2022, MaxMem=   104857600 cpu:               0.1 elap:               0.1
 (Enter /apps/software/g16/l202.exe)
                          Input orientation:                          
 ---------------------------------------------------------------------
 Center     Atomic      Atomic             Coordinates (Angstroms)
 Number     Number       Type             X           Y           Z
 ---------------------------------------------------------------------
      1          5           0        0.000000    0.000000    0.000000
      2          1           0        3.200000    0.000000    0.000000
 ---------------------------------------------------------------------
 Stoichiometry    BH
 Framework group  C*V[C*(HB)]
 Deg. of freedom     1
 Full point group                 C*V     NOp   4
 Largest Abelian subgroup         C2V     NOp   4
 Largest concise Abelian subgroup C1      NOp   1
                         Standard orientation:                         
 ---------------------------------------------------------------------
 Center     Atomic      Atomic             Coordinates (Angstroms)
 Number     Number       Type             X           Y           Z
 ---------------------------------------------------------------------
      1          5           0        0.000000    0.000000    0.533333
      2          1           0        0.000000    0.000000   -2.666667
 ---------------------------------------------------------------------
 Rotational constants (GHZ):           0.0000000          53.4531073          53.4531073
 Leave Link  202 at Sun May 22 21:07:15 2022, MaxMem=   104857600 cpu:               0.0 elap:               0.0
 (Enter /apps/software/g16/l301.exe)
 Standard basis: Aug-CC-pVQZ (5D, 7F)
 Ernie: Thresh=  0.10000D-02 Tol=  0.10000D-05 Strict=F.
 Ernie:  4 primitive shells out of 54 were deleted.
 There are    68 symmetry adapted cartesian basis functions of A1  symmetry.
 There are    18 symmetry adapted cartesian basis functions of A2  symmetry.
 There are    37 symmetry adapted cartesian basis functions of B1  symmetry.
 There are    37 symmetry adapted cartesian basis functions of B2  symmetry.
 There are    50 symmetry adapted basis functions of A1  symmetry.
 There are    16 symmetry adapted basis functions of A2  symmetry.
 There are    30 symmetry adapted basis functions of B1  symmetry.
 There are    30 symmetry adapted basis functions of B2  symmetry.
   126 basis functions,   180 primitive gaussians,   160 cartesian basis functions
     3 alpha electrons        3 beta electrons
       nuclear repulsion energy         0.8268393921 Hartrees.
 IExCor=    0 DFT=F Ex=HF Corr=None ExCW=0 ScaHFX=  1.000000
 ScaDFX=  1.000000  1.000000  1.000000  1.000000 ScalE2=  1.000000  1.000000
 IRadAn=      5 IRanWt=     -1 IRanGd=            0 ICorTp=0 IEmpDi=  4
 NAtoms=    2 NActive=    2 NUniq=    2 SFac= 1.00D+00 NAtFMM=   60 NAOKFM=F Big=F
 Integral buffers will be    131072 words long.
 Raffenetti 2 integral format.
 Two-electron integral symmetry is turned on.
 Leave Link  301 at Sun May 22 21:07:15 2022, MaxMem=   104857600 cpu:               0.1 elap:               0.1
 (Enter /apps/software/g16/l302.exe)
 NPDir=0 NMtPBC=     1 NCelOv=     1 NCel=       1 NClECP=     1 NCelD=      1
         NCelK=      1 NCelE2=     1 NClLst=     1 CellRange=     0.0.
 One-electron integrals computed using PRISM.
 One-electron integral symmetry used in STVInt
 NBasis=   126 RedAO= T EigKep=  3.34D-03  NBF=    50    16    30    30
 NBsUse=   126 1.00D-06 EigRej= -1.00D+00 NBFU=    50    16    30    30
 Leave Link  302 at Sun May 22 21:07:16 2022, MaxMem=   104857600 cpu:               0.1 elap:               0.1
 (Enter /apps/software/g16/l303.exe)
 DipDrv:  MaxL=1.
 Leave Link  303 at Sun May 22 21:07:16 2022, MaxMem=   104857600 cpu:               0.0 elap:               0.0
 (Enter /apps/software/g16/l401.exe)
 ExpMin= 1.88D-02 ExpMax= 2.39D+04 ExpMxC= 2.30D+02 IAcc=3 IRadAn=         5 AccDes= 0.00D+00
 Harris functional with IExCor=  205 and IRadAn=       5 diagonalized for initial guess.
 HarFok:  IExCor=  205 AccDes= 0.00D+00 IRadAn=         5 IDoV= 1 UseB2=F ITyADJ=14
 ICtDFT=  3500011 ScaDFX=  1.000000  1.000000  1.000000  1.000000
 FoFCou: FMM=F IPFlag=           0 FMFlag=      100000 FMFlg1=           0
         NFxFlg=           0 DoJE=T BraDBF=F KetDBF=T FulRan=T
         wScrn=  0.000000 ICntrl=       500 IOpCl=  0 I1Cent=   200000004 NGrid=           0
         NMat0=    1 NMatS0=      1 NMatT0=    0 NMatD0=    1 NMtDS0=    0 NMtDT0=    0
 Petite list used in FoFCou.
 Harris En= -24.9952048440398    
 JPrj=0 DoOrth=F DoCkMO=T.
 Mixing orbitals, IMix= 1 IMixAn=  0 NRI=1 NE=    3 Coef=  7.07106781D-01  7.07106781D-01
 Mixing orbitals, IMix= 1 IMixAn=  0 NRI=1 NE=    3 Coef= -7.07106781D-01  7.07106781D-01
 Initial guess orbital symmetries:
 Alpha Orbitals:
       Occupied  (SG) (SG) (?A)
       Virtual   (?A) (?A) (SG) (SG) (PI) (PI) (SG) (SG) (PI) (PI)
                 (DLTA) (DLTA) (SG) (PI) (PI) (SG) (PI) (PI) (SG)
                 (SG) (SG) (PI) (PI) (DLTA) (DLTA) (DLTA) (DLTA)
                 (PHI) (PHI) (SG) (PI) (PI) (SG) (DLTA) (DLTA)
                 (PI) (PI) (PI) (PI) (SG) (SG) (PI) (PI) (SG) (SG)
                 (PI) (PI) (DLTA) (DLTA) (SG) (DLTA) (DLTA) (PI)
                 (PI) (PHI) (PHI) (?B) (?B) (PHI) (PHI) (DLTA)
                 (DLTA) (SG) (PI) (PI) (PHI) (PHI) (SG) (DLTA)
                 (DLTA) (SG) (PI) (PI) (SG) (DLTA) (DLTA) (PI)
                 (PI) (PI) (PI) (SG) (SG) (PI) (PI) (SG) (DLTA)
                 (DLTA) (PI) (PI) (SG) (?B) (?B) (PHI) (PHI) (DLTA)
                 (DLTA) (PI) (PI) (PHI) (PHI) (DLTA) (DLTA) (PI)
                 (PI) (SG) (SG) (PHI) (PHI) (DLTA) (DLTA) (PI)
                 (PI) (SG) (SG) (PI) (PI) (SG) (DLTA) (DLTA) (PI)
                 (PI) (SG) (SG)
 Beta  Orbitals:
       Occupied  (SG) (SG) (?A)
       Virtual   (?A) (?A) (SG) (SG) (PI) (PI) (SG) (SG) (PI) (PI)
                 (DLTA) (DLTA) (SG) (PI) (PI) (SG) (PI) (PI) (SG)
                 (SG) (SG) (PI) (PI) (DLTA) (DLTA) (DLTA) (DLTA)
                 (PHI) (PHI) (SG) (PI) (PI) (SG) (DLTA) (DLTA)
                 (PI) (PI) (PI) (PI) (SG) (SG) (PI) (PI) (SG) (SG)
                 (PI) (PI) (DLTA) (DLTA) (SG) (DLTA) (DLTA) (PI)
                 (PI) (PHI) (PHI) (?B) (?B) (PHI) (PHI) (DLTA)
                 (DLTA) (SG) (PI) (PI) (PHI) (PHI) (SG) (DLTA)
                 (DLTA) (SG) (PI) (PI) (SG) (DLTA) (DLTA) (PI)
                 (PI) (PI) (PI) (SG) (SG) (PI) (PI) (SG) (DLTA)
                 (DLTA) (PI) (PI) (SG) (?B) (?B) (PHI) (PHI) (DLTA)
                 (DLTA) (PI) (PI) (PHI) (PHI) (DLTA) (DLTA) (PI)
                 (PI) (SG) (SG) (PHI) (PHI) (DLTA) (DLTA) (PI)
                 (PI) (SG) (SG) (PI) (PI) (SG) (DLTA) (DLTA) (PI)
                 (PI) (SG) (SG)
 Initial guess <Sx>= 0.0000 <Sy>= 0.0000 <Sz>= 0.0000 <S**2>= 1.0000 S= 0.6180
 Leave Link  401 at Sun May 22 21:07:16 2022, MaxMem=   104857600 cpu:               0.2 elap:               0.2
 (Enter /apps/software/g16/l502.exe)
 Keep R1 and R2 ints in memory in symmetry-blocked form, NReq=40143665.
 FoFCou: FMM=F IPFlag=           0 FMFlag=           0 FMFlg1=           0
         NFxFlg=           0 DoJE=F BraDBF=F KetDBF=F FulRan=T
         wScrn=  0.000000 ICntrl=       600 IOpCl=  0 I1Cent=           0 NGrid=           0
         NMat0=    1 NMatS0=   8001 NMatT0=    0 NMatD0=    1 NMtDS0=    0 NMtDT0=    0
 Petite list used in FoFCou.
 UHF open shell SCF:
 Using DIIS extrapolation, IDIIS=  1040.
 NGot=   104857600 LenX=    88563632 LenY=    88537591
 Requested convergence on RMS density matrix=1.00D-08 within 128 cycles.
 Requested convergence on MAX density matrix=1.00D-06.
 Requested convergence on             energy=1.00D-06.
 No special actions if energy rises.
 An orbital has undefined symmetry, so N**3 symmetry is turned off.

 Cycle   1  Pass 1  IDiag  1:
 Density matrix breaks symmetry, PCut= 1.00D-07
 Density matrix has no symmetry -- integrals replicated.
 E= -24.8582814174243    
 DIIS: error= 3.15D-02 at cycle   1 NSaved=   1.
 NSaved= 1 IEnMin= 1 EnMin= -24.8582814174243     IErMin= 1 ErrMin= 3.15D-02
 ErrMax= 3.15D-02  0.00D+00 EMaxC= 1.00D-01 BMatC= 1.53D-01 BMatP= 1.53D-01
 IDIUse=3 WtCom= 6.85D-01 WtEn= 3.15D-01
 Coeff-Com:  0.100D+01
 Coeff-En:   0.100D+01
 Coeff:      0.100D+01
 Gap=     0.174 Goal=   None    Shift=    0.000
 Gap=     0.174 Goal=   None    Shift=    0.000
 GapD=    0.174 DampG=1.000 DampE=0.500 DampFc=0.5000 IDamp=-1.
 Damping current iteration by 5.00D-01
 RMSDP=1.53D-03 MaxDP=6.58D-02              OVMax= 3.22D-01

 Cycle   2  Pass 1  IDiag  1:
 Density matrix breaks symmetry, PCut= 1.00D-07
 Density matrix has no symmetry -- integrals replicated.
 E= -24.8820233499213     Delta-E=       -0.023741932497 Rises=F Damp=T
 DIIS: error= 1.94D-02 at cycle   2 NSaved=   2.
 NSaved= 2 IEnMin= 2 EnMin= -24.8820233499213     IErMin= 2 ErrMin= 1.94D-02
 ErrMax= 1.94D-02  0.00D+00 EMaxC= 1.00D-01 BMatC= 4.99D-02 BMatP= 1.53D-01
 IDIUse=3 WtCom= 8.06D-01 WtEn= 1.94D-01
 Coeff-Com: -0.787D+00 0.179D+01
 Coeff-En:   0.000D+00 0.100D+01
 Coeff:     -0.634D+00 0.163D+01
 Gap=     0.162 Goal=   None    Shift=    0.000
 Gap=     0.162 Goal=   None    Shift=    0.000
 RMSDP=1.21D-03 MaxDP=5.43D-02 DE=-2.37D-02 OVMax= 1.55D-01

 Cycle   3  Pass 1  IDiag  1:
 Density matrix breaks symmetry, PCut= 1.00D-07
 Density matrix has no symmetry -- integrals replicated.
 E= -24.9209349609570     Delta-E=       -0.038911611036 Rises=F Damp=F
 DIIS: error= 1.00D-02 at cycle   3 NSaved=   3.
 NSaved= 3 IEnMin= 3 EnMin= -24.9209349609570     IErMin= 3 ErrMin= 1.00D-02
 ErrMax= 1.00D-02  0.00D+00 EMaxC= 1.00D-01 BMatC= 4.04D-03 BMatP= 4.99D-02
 IDIUse=3 WtCom= 9.00D-01 WtEn= 1.00D-01
 Coeff-Com: -0.181D+00 0.286D+00 0.895D+00
 Coeff-En:   0.000D+00 0.000D+00 0.100D+01
 Coeff:     -0.163D+00 0.257D+00 0.906D+00
 Gap=     0.202 Goal=   None    Shift=    0.000
 Gap=     0.202 Goal=   None    Shift=    0.000
 RMSDP=4.64D-04 MaxDP=1.38D-02 DE=-3.89D-02 OVMax= 1.02D-01

 Cycle   4  Pass 1  IDiag  1:
 Density matrix breaks symmetry, PCut= 1.00D-07
 Density matrix has no symmetry -- integrals replicated.
 E= -24.9302821856994     Delta-E=       -0.009347224742 Rises=F Damp=F
 DIIS: error= 4.57D-03 at cycle   4 NSaved=   4.
 NSaved= 4 IEnMin= 4 EnMin= -24.9302821856994     IErMin= 4 ErrMin= 4.57D-03
 ErrMax= 4.57D-03  0.00D+00 EMaxC= 1.00D-01 BMatC= 1.98D-03 BMatP= 4.04D-03
 IDIUse=3 WtCom= 9.54D-01 WtEn= 4.57D-02
 Coeff-Com:  0.204D+00-0.384D+00-0.785D+00 0.197D+01
 Coeff-En:   0.000D+00 0.000D+00 0.000D+00 0.100D+01
 Coeff:      0.195D+00-0.366D+00-0.750D+00 0.192D+01
 Gap=     0.207 Goal=   None    Shift=    0.000
 Gap=     0.207 Goal=   None    Shift=    0.000
 RMSDP=6.80D-04 MaxDP=1.49D-02 DE=-9.35D-03 OVMax= 1.38D-01

 Cycle   5  Pass 1  IDiag  1:
 Density matrix breaks symmetry, PCut= 1.00D-07
 Density matrix has no symmetry -- integrals replicated.
 E= -24.9384820513763     Delta-E=       -0.008199865677 Rises=F Damp=F
 DIIS: error= 3.62D-03 at cycle   5 NSaved=   5.
 NSaved= 5 IEnMin= 5 EnMin= -24.9384820513763     IErMin= 5 ErrMin= 3.62D-03
 ErrMax= 3.62D-03  0.00D+00 EMaxC= 1.00D-01 BMatC= 8.50D-04 BMatP= 1.98D-03
 IDIUse=3 WtCom= 9.64D-01 WtEn= 3.62D-02
 Coeff-Com: -0.166D+00 0.319D+00-0.219D+00-0.181D+00 0.125D+01
 Coeff-En:   0.000D+00 0.000D+00 0.000D+00 0.000D+00 0.100D+01
 Coeff:     -0.160D+00 0.308D+00-0.211D+00-0.175D+00 0.124D+01
 Gap=     0.219 Goal=   None    Shift=    0.000
 Gap=     0.219 Goal=   None    Shift=    0.000
 RMSDP=2.89D-04 MaxDP=8.99D-03 DE=-8.20D-03 OVMax= 6.43D-02

 Cycle   6  Pass 1  IDiag  1:
 Density matrix breaks symmetry, PCut= 1.00D-07
 Density matrix has no symmetry -- integrals replicated.
 E= -24.9408278077198     Delta-E=       -0.002345756343 Rises=F Damp=F
 DIIS: error= 2.38D-03 at cycle   6 NSaved=   6.
 NSaved= 6 IEnMin= 6 EnMin= -24.9408278077198     IErMin= 6 ErrMin= 2.38D-03
 ErrMax= 2.38D-03  0.00D+00 EMaxC= 1.00D-01 BMatC= 2.26D-04 BMatP= 8.50D-04
 IDIUse=3 WtCom= 9.76D-01 WtEn= 2.38D-02
 Coeff-Com: -0.313D-01 0.508D-01 0.172D-01-0.131D+00-0.400D+00 0.149D+01
 Coeff-En:   0.000D+00 0.000D+00 0.000D+00 0.000D+00 0.000D+00 0.100D+01
 Coeff:     -0.306D-01 0.496D-01 0.167D-01-0.128D+00-0.391D+00 0.148D+01
 Gap=     0.224 Goal=   None    Shift=    0.000
 Gap=     0.224 Goal=   None    Shift=    0.000
 RMSDP=2.22D-04 MaxDP=7.08D-03 DE=-2.35D-03 OVMax= 5.21D-02

 Cycle   7  Pass 1  IDiag  1:
 Density matrix breaks symmetry, PCut= 1.00D-07
 Density matrix has no symmetry -- integrals replicated.
 E= -24.9418672010460     Delta-E=       -0.001039393326 Rises=F Damp=F
 DIIS: error= 1.58D-03 at cycle   7 NSaved=   7.
 NSaved= 7 IEnMin= 7 EnMin= -24.9418672010460     IErMin= 7 ErrMin= 1.58D-03
 ErrMax= 1.58D-03  0.00D+00 EMaxC= 1.00D-01 BMatC= 8.68D-05 BMatP= 2.26D-04
 IDIUse=3 WtCom= 9.84D-01 WtEn= 1.58D-02
 Coeff-Com:  0.724D-02-0.740D-02-0.179D+00 0.357D+00 0.104D+01-0.366D+01
 Coeff-Com:  0.344D+01
 Coeff-En:   0.000D+00 0.000D+00 0.000D+00 0.000D+00 0.000D+00 0.000D+00
 Coeff-En:   0.100D+01
 Coeff:      0.712D-02-0.728D-02-0.176D+00 0.351D+00 0.103D+01-0.360D+01
 Coeff:      0.340D+01
 Gap=     0.226 Goal=   None    Shift=    0.000
 Gap=     0.226 Goal=   None    Shift=    0.000
 RMSDP=2.19D-04 MaxDP=7.09D-03 DE=-1.04D-03 OVMax= 5.23D-02

 Cycle   8  Pass 1  IDiag  1:
 Density matrix breaks symmetry, PCut= 1.00D-07
 Density matrix has no symmetry -- integrals replicated.
 E= -24.9423830609530     Delta-E=       -0.000515859907 Rises=F Damp=F
 DIIS: error= 3.91D-04 at cycle   8 NSaved=   8.
 NSaved= 8 IEnMin= 8 EnMin= -24.9423830609530     IErMin= 8 ErrMin= 3.91D-04
 ErrMax= 3.91D-04  0.00D+00 EMaxC= 1.00D-01 BMatC= 1.25D-05 BMatP= 8.68D-05
 IDIUse=3 WtCom= 9.96D-01 WtEn= 3.91D-03
 Coeff-Com: -0.240D-01 0.439D-01 0.592D-01-0.231D+00 0.104D-01 0.560D+00
 Coeff-Com: -0.832D+00 0.141D+01
 Coeff-En:   0.000D+00 0.000D+00 0.000D+00 0.000D+00 0.000D+00 0.000D+00
 Coeff-En:   0.000D+00 0.100D+01
 Coeff:     -0.239D-01 0.437D-01 0.590D-01-0.230D+00 0.103D-01 0.558D+00
 Coeff:     -0.828D+00 0.141D+01
 Gap=     0.228 Goal=   None    Shift=    0.000
 Gap=     0.228 Goal=   None    Shift=    0.000
 RMSDP=8.55D-05 MaxDP=2.63D-03 DE=-5.16D-04 OVMax= 1.94D-02

 Cycle   9  Pass 1  IDiag  1:
 Density matrix breaks symmetry, PCut= 1.00D-07
 Density matrix has no symmetry -- integrals replicated.
 E= -24.9424343060197     Delta-E=       -0.000051245067 Rises=F Damp=F
 DIIS: error= 3.09D-04 at cycle   9 NSaved=   9.
 NSaved= 9 IEnMin= 9 EnMin= -24.9424343060197     IErMin= 9 ErrMin= 3.09D-04
 ErrMax= 3.09D-04  0.00D+00 EMaxC= 1.00D-01 BMatC= 1.05D-05 BMatP= 1.25D-05
 IDIUse=3 WtCom= 9.97D-01 WtEn= 3.09D-03
 Coeff-Com: -0.104D-02 0.139D-02-0.229D-02 0.488D-02-0.113D+00 0.356D+00
 Coeff-Com: -0.478D+00 0.418D+00 0.814D+00
 Coeff-En:   0.000D+00 0.000D+00 0.000D+00 0.000D+00 0.000D+00 0.000D+00
 Coeff-En:   0.000D+00 0.000D+00 0.100D+01
 Coeff:     -0.104D-02 0.139D-02-0.228D-02 0.486D-02-0.112D+00 0.355D+00
 Coeff:     -0.477D+00 0.416D+00 0.814D+00
 Gap=     0.228 Goal=   None    Shift=    0.000
 Gap=     0.228 Goal=   None    Shift=    0.000
 RMSDP=2.29D-05 MaxDP=6.53D-04 DE=-5.12D-05 OVMax= 5.09D-03

 Cycle  10  Pass 1  IDiag  1:
 Density matrix breaks symmetry, PCut= 1.00D-07
 Density matrix has no symmetry -- integrals replicated.
 E= -24.9424501005797     Delta-E=       -0.000015794560 Rises=F Damp=F
 DIIS: error= 1.39D-04 at cycle  10 NSaved=  10.
 NSaved=10 IEnMin=10 EnMin= -24.9424501005797     IErMin=10 ErrMin= 1.39D-04
 ErrMax= 1.39D-04  0.00D+00 EMaxC= 1.00D-01 BMatC= 9.80D-07 BMatP= 1.05D-05
 IDIUse=3 WtCom= 9.99D-01 WtEn= 1.39D-03
 Coeff-Com: -0.515D-02 0.947D-02 0.351D-02-0.318D-01 0.108D-01 0.820D-01
 Coeff-Com: -0.122D+00 0.113D+00-0.246D+00 0.119D+01
 Coeff-En:   0.000D+00 0.000D+00 0.000D+00 0.000D+00 0.000D+00 0.000D+00
 Coeff-En:   0.000D+00 0.000D+00 0.000D+00 0.100D+01
 Coeff:     -0.515D-02 0.945D-02 0.350D-02-0.318D-01 0.107D-01 0.819D-01
 Coeff:     -0.122D+00 0.113D+00-0.246D+00 0.119D+01
 Gap=     0.228 Goal=   None    Shift=    0.000
 Gap=     0.228 Goal=   None    Shift=    0.000
 RMSDP=1.00D-05 MaxDP=3.22D-04 DE=-1.58D-05 OVMax= 2.22D-03

 Cycle  11  Pass 1  IDiag  1:
 Density matrix breaks symmetry, PCut= 1.00D-07
 Density matrix has no symmetry -- integrals replicated.
 E= -24.9424527301722     Delta-E=       -0.000002629593 Rises=F Damp=F
 DIIS: error= 1.33D-04 at cycle  11 NSaved=  11.
 NSaved=11 IEnMin=11 EnMin= -24.9424527301722     IErMin=11 ErrMin= 1.33D-04
 ErrMax= 1.33D-04  0.00D+00 EMaxC= 1.00D-01 BMatC= 9.52D-07 BMatP= 9.80D-07
 IDIUse=3 WtCom= 9.99D-01 WtEn= 1.33D-03
 Coeff-Com: -0.399D-02 0.745D-02 0.806D-02-0.254D-01 0.260D-02 0.693D-01
 Coeff-Com: -0.204D+00 0.654D+00 0.392D+00-0.511D+01 0.521D+01
 Coeff-En:   0.000D+00 0.000D+00 0.000D+00 0.000D+00 0.000D+00 0.000D+00
 Coeff-En:   0.000D+00 0.000D+00 0.000D+00 0.000D+00 0.100D+01
 Coeff:     -0.398D-02 0.744D-02 0.805D-02-0.253D-01 0.260D-02 0.692D-01
 Coeff:     -0.204D+00 0.653D+00 0.392D+00-0.510D+01 0.520D+01
 Gap=     0.228 Goal=   None    Shift=    0.000
 Gap=     0.228 Goal=   None    Shift=    0.000
 RMSDP=2.01D-05 MaxDP=7.26D-04 DE=-2.63D-06 OVMax= 3.19D-03

 Cycle  12  Pass 1  IDiag  1:
 Density matrix breaks symmetry, PCut= 1.00D-07
 Density matrix has no symmetry -- integrals replicated.
 E= -24.9424578303608     Delta-E=       -0.000005100189 Rises=F Damp=F
 DIIS: error= 9.68D-05 at cycle  12 NSaved=  12.
 NSaved=12 IEnMin=12 EnMin= -24.9424578303608     IErMin=12 ErrMin= 9.68D-05
 ErrMax= 9.68D-05  0.00D+00 EMaxC= 1.00D-01 BMatC= 4.09D-07 BMatP= 9.52D-07
 IDIUse=1 WtCom= 1.00D+00 WtEn= 0.00D+00
 Coeff-Com:  0.162D-02-0.327D-02-0.537D-02 0.153D-01-0.327D-01 0.416D-01
 Coeff-Com:  0.644D-01-0.541D+00 0.187D+00 0.497D+01-0.896D+01 0.526D+01
 Coeff:      0.162D-02-0.327D-02-0.537D-02 0.153D-01-0.327D-01 0.416D-01
 Coeff:      0.644D-01-0.541D+00 0.187D+00 0.497D+01-0.896D+01 0.526D+01
 Gap=     0.228 Goal=   None    Shift=    0.000
 Gap=     0.228 Goal=   None    Shift=    0.000
 RMSDP=5.97D-05 MaxDP=2.36D-03 DE=-5.10D-06 OVMax= 8.46D-03

 Cycle  13  Pass 1  IDiag  1:
 Density matrix breaks symmetry, PCut= 1.00D-07
 Density matrix has no symmetry -- integrals replicated.
 E= -24.9424648395514     Delta-E=       -0.000007009191 Rises=F Damp=F
 DIIS: error= 1.50D-05 at cycle  13 NSaved=  13.
 NSaved=13 IEnMin=13 EnMin= -24.9424648395514     IErMin=13 ErrMin= 1.50D-05
 ErrMax= 1.50D-05  0.00D+00 EMaxC= 1.00D-01 BMatC= 2.81D-08 BMatP= 4.09D-07
 IDIUse=1 WtCom= 1.00D+00 WtEn= 0.00D+00
 Coeff-Com: -0.537D-04 0.208D-03-0.218D-03-0.400D-03 0.105D-01-0.207D-01
 Coeff-Com: -0.358D-02 0.108D+00-0.976D-01-0.885D+00 0.182D+01-0.135D+01
 Coeff-Com:  0.143D+01
 Coeff:     -0.537D-04 0.208D-03-0.218D-03-0.400D-03 0.105D-01-0.207D-01
 Coeff:     -0.358D-02 0.108D+00-0.976D-01-0.885D+00 0.182D+01-0.135D+01
 Coeff:      0.143D+01
 Gap=     0.228 Goal=   None    Shift=    0.000
 Gap=     0.228 Goal=   None    Shift=    0.000
 RMSDP=1.22D-05 MaxDP=4.80D-04 DE=-7.01D-06 OVMax= 1.72D-03

 Cycle  14  Pass 1  IDiag  1:
 Density matrix breaks symmetry, PCut= 1.00D-07
 Density matrix has no symmetry -- integrals replicated.
 E= -24.9424650394267     Delta-E=       -0.000000199875 Rises=F Damp=F
 DIIS: error= 3.11D-06 at cycle  14 NSaved=  14.
 NSaved=14 IEnMin=14 EnMin= -24.9424650394267     IErMin=14 ErrMin= 3.11D-06
 ErrMax= 3.11D-06  0.00D+00 EMaxC= 1.00D-01 BMatC= 1.43D-09 BMatP= 2.81D-08
 IDIUse=1 WtCom= 1.00D+00 WtEn= 0.00D+00
 Coeff-Com:  0.472D-04-0.103D-03 0.139D-03 0.379D-03-0.120D-02 0.438D-03
 Coeff-Com:  0.163D-02-0.424D-02 0.323D-01-0.733D-01 0.400D-01 0.682D-01
 Coeff-Com: -0.395D+00 0.133D+01
 Coeff:      0.472D-04-0.103D-03 0.139D-03 0.379D-03-0.120D-02 0.438D-03
 Coeff:      0.163D-02-0.424D-02 0.323D-01-0.733D-01 0.400D-01 0.682D-01
 Coeff:     -0.395D+00 0.133D+01
 Gap=     0.228 Goal=   None    Shift=    0.000
 Gap=     0.228 Goal=   None    Shift=    0.000
 RMSDP=3.67D-07 MaxDP=1.51D-05 DE=-2.00D-07 OVMax= 4.93D-05

 Cycle  15  Pass 1  IDiag  1:
 Density matrix breaks symmetry, PCut= 1.00D-07
 Density matrix has no symmetry -- integrals replicated.
 E= -24.9424650406432     Delta-E=       -0.000000001216 Rises=F Damp=F
 DIIS: error= 1.63D-06 at cycle  15 NSaved=  15.
 NSaved=15 IEnMin=15 EnMin= -24.9424650406432     IErMin=15 ErrMin= 1.63D-06
 ErrMax= 1.63D-06  0.00D+00 EMaxC= 1.00D-01 BMatC= 3.71D-10 BMatP= 1.43D-09
 IDIUse=1 WtCom= 1.00D+00 WtEn= 0.00D+00
 Coeff-Com:  0.126D-04-0.721D-05-0.134D-03 0.207D-03 0.141D-02-0.347D-02
 Coeff-Com:  0.173D-02 0.452D-02-0.123D-01-0.254D-01 0.796D-01-0.797D-01
 Coeff-Com:  0.211D+00-0.881D+00 0.170D+01
 Coeff:      0.126D-04-0.721D-05-0.134D-03 0.207D-03 0.141D-02-0.347D-02
 Coeff:      0.173D-02 0.452D-02-0.123D-01-0.254D-01 0.796D-01-0.797D-01
 Coeff:      0.211D+00-0.881D+00 0.170D+01
 Gap=     0.228 Goal=   None    Shift=    0.000
 Gap=     0.228 Goal=   None    Shift=    0.000
 RMSDP=6.67D-07 MaxDP=2.33D-05 DE=-1.22D-09 OVMax= 1.10D-04

 Cycle  16  Pass 1  IDiag  1:
 Density matrix breaks symmetry, PCut= 1.00D-07
 Density matrix has no symmetry -- integrals replicated.
 E= -24.9424650418618     Delta-E=       -0.000000001219 Rises=F Damp=F
 DIIS: error= 4.97D-07 at cycle  16 NSaved=  16.
 NSaved=16 IEnMin=16 EnMin= -24.9424650418618     IErMin=16 ErrMin= 4.97D-07
 ErrMax= 4.97D-07  0.00D+00 EMaxC= 1.00D-01 BMatC= 2.85D-11 BMatP= 3.71D-10
 IDIUse=1 WtCom= 1.00D+00 WtEn= 0.00D+00
 Coeff-Com:  0.816D-05-0.193D-04 0.362D-04 0.249D-04-0.506D-03 0.105D-02
 Coeff-Com: -0.785D-03 0.197D-03 0.520D-02-0.107D-01 0.318D-02 0.709D-02
 Coeff-Com: -0.440D-01 0.211D+00-0.615D+00 0.144D+01
 Coeff:      0.816D-05-0.193D-04 0.362D-04 0.249D-04-0.506D-03 0.105D-02
 Coeff:     -0.785D-03 0.197D-03 0.520D-02-0.107D-01 0.318D-02 0.709D-02
 Coeff:     -0.440D-01 0.211D+00-0.615D+00 0.144D+01
 Gap=     0.228 Goal=   None    Shift=    0.000
 Gap=     0.228 Goal=   None    Shift=    0.000
 RMSDP=1.21D-07 MaxDP=3.44D-06 DE=-1.22D-09 OVMax= 2.34D-05

 Cycle  17  Pass 1  IDiag  1:
 Density matrix breaks symmetry, PCut= 1.00D-07
 Density matrix has no symmetry -- integrals replicated.
 E= -24.9424650419238     Delta-E=       -0.000000000062 Rises=F Damp=F
 DIIS: error= 5.17D-08 at cycle  17 NSaved=  17.
 NSaved=17 IEnMin=17 EnMin= -24.9424650419238     IErMin=17 ErrMin= 5.17D-08
 ErrMax= 5.17D-08  0.00D+00 EMaxC= 1.00D-01 BMatC= 3.24D-13 BMatP= 2.85D-11
 IDIUse=1 WtCom= 1.00D+00 WtEn= 0.00D+00
 Coeff-Com: -0.117D-05 0.262D-05-0.363D-05-0.543D-05 0.685D-04-0.138D-03
 Coeff-Com:  0.764D-04 0.749D-04-0.613D-03-0.131D-03 0.202D-02-0.188D-02
 Coeff-Com:  0.444D-02-0.161D-01 0.610D-01-0.273D+00 0.122D+01
 Coeff:     -0.117D-05 0.262D-05-0.363D-05-0.543D-05 0.685D-04-0.138D-03
 Coeff:      0.764D-04 0.749D-04-0.613D-03-0.131D-03 0.202D-02-0.188D-02
 Coeff:      0.444D-02-0.161D-01 0.610D-01-0.273D+00 0.122D+01
 Gap=     0.228 Goal=   None    Shift=    0.000
 Gap=     0.228 Goal=   None    Shift=    0.000
 RMSDP=2.18D-08 MaxDP=8.84D-07 DE=-6.20D-11 OVMax= 2.91D-06

 Cycle  18  Pass 1  IDiag  1:
 Density matrix breaks symmetry, PCut= 1.00D-07
 Density matrix has no symmetry -- integrals replicated.
 E= -24.9424650419247     Delta-E=       -0.000000000001 Rises=F Damp=F
 DIIS: error= 9.46D-09 at cycle  18 NSaved=  18.
 NSaved=18 IEnMin=18 EnMin= -24.9424650419247     IErMin=18 ErrMin= 9.46D-09
 ErrMax= 9.46D-09  0.00D+00 EMaxC= 1.00D-01 BMatC= 9.32D-15 BMatP= 3.24D-13
 IDIUse=1 WtCom= 1.00D+00 WtEn= 0.00D+00
 Large coefficients: NSaved= 18 BigCof=    0.00 CofMax=   10.00 Det=-3.81D-15
 Inversion failed.  Reducing to 17 matrices.
 Large coefficients: NSaved= 17 BigCof=    0.00 CofMax=   10.00 Det=-4.45D-15
 Inversion failed.  Reducing to 16 matrices.
 Large coefficients: NSaved= 16 BigCof=    0.00 CofMax=   10.00 Det=-5.12D-15
 Inversion failed.  Reducing to 15 matrices.
 Coeff-Com: -0.155D-06-0.199D-05 0.546D-05-0.128D-05-0.144D-05-0.477D-04
 Coeff-Com:  0.259D-03-0.363D-03 0.949D-04 0.310D-03-0.199D-02 0.838D-03
 Coeff-Com:  0.283D-01-0.279D+00 0.125D+01
 Coeff:     -0.155D-06-0.199D-05 0.546D-05-0.128D-05-0.144D-05-0.477D-04
 Coeff:      0.259D-03-0.363D-03 0.949D-04 0.310D-03-0.199D-02 0.838D-03
 Coeff:      0.283D-01-0.279D+00 0.125D+01
 Gap=     0.228 Goal=   None    Shift=    0.000
 Gap=     0.228 Goal=   None    Shift=    0.000
 RMSDP=8.96D-10 MaxDP=2.75D-08 DE=-8.95D-13 OVMax= 1.37D-07

 Density matrix breaks symmetry, PCut= 1.00D-07
 Density matrix has no symmetry -- integrals replicated.
 SCF Done:  E(UHF) =  -24.9424650419     A.U. after   18 cycles
            NFock= 18  Conv=0.90D-09     -V/T= 2.0079
 <Sx>= 0.0000 <Sy>= 0.0000 <Sz>= 0.0000 <S**2>= 0.1384 S= 0.1233
 <L.S>=  0.00000000000    
 KE= 2.474637917846D+01 PE=-5.883375492907D+01 EE= 8.318071316629D+00
 Annihilation of the first spin contaminant:
 S**2 before annihilation     0.1384,   after     0.0017
 Leave Link  502 at Sun May 22 21:07:20 2022, MaxMem=   104857600 cpu:               4.0 elap:               4.0
 (Enter /apps/software/g16/l601.exe)
 Copying SCF densities to generalized density rwf, IOpCl= 1 IROHF=0.
 SCF density gives NOpUse=  1 NOpAll=  4.
 Marking SCF density as not fully symmetric.

 **********************************************************************

            Population analysis using the SCF density.

 **********************************************************************

 Orbital symmetries:
 Alpha Orbitals:
       Occupied  (SG) (?A) (?A)
       Virtual   (?A) (?A) (?A) (?A) (?A) (?A) (SG) (SG) (?B) (?B)
                 (?B) (?B) (SG) (?C) (?C) (?C) (?C) (?C) (?C) (SG)
                 (?D) (?D) (?D) (?D) (?D) (?D) (?D) (?D) (?D) (PI)
                 (PI) (SG) (SG) (DLTA) (DLTA) (PI) (PI) (PI) (PI)
                 (?E) (SG) (?E) (?E) (SG) (?F) (?F) (?F) (?F) (?F)
                 (?F) (?F) (?F) (?F) (?F) (?F) (?F) (?F) (?F) (?F)
                 (?F) (?F) (?F) (?G) (?G) (?G) (PHI) (PHI) (SG)
                 (DLTA) (DLTA) (SG) (PI) (PI) (SG) (DLTA) (DLTA)
                 (PI) (PI) (PI) (PI) (SG) (SG) (PI) (PI) (SG) (?H)
                 (?H) (?H) (?H) (?H) (?H) (?H) (?H) (?I) (?I) (?I)
                 (PI) (PI) (?J) (?J) (?J) (?J) (PI) (PI) (SG) (SG)
                 (PHI) (PHI) (DLTA) (DLTA) (PI) (PI) (SG) (SG)
                 (PI) (PI) (SG) (DLTA) (DLTA) (PI) (PI) (SG) (SG)
 Beta  Orbitals:
       Occupied  (SG) (?A) (?A)
       Virtual   (?A) (?A) (?A) (?A) (?A) (?A) (SG) (SG) (?B) (?B)
                 (?B) (?B) (SG) (?C) (?C) (?C) (?C) (?C) (?C) (SG)
                 (?D) (?D) (?D) (?D) (?D) (?D) (?D) (?D) (?D) (PI)
                 (PI) (SG) (SG) (DLTA) (DLTA) (PI) (PI) (PI) (PI)
                 (?E) (SG) (?E) (?E) (SG) (?F) (?F) (?F) (?F) (?F)
                 (?F) (?F) (?F) (?F) (?F) (?F) (?F) (?F) (?F) (?F)
                 (?F) (?F) (?F) (?G) (?G) (?G) (PHI) (PHI) (SG)
                 (DLTA) (DLTA) (SG) (PI) (PI) (SG) (DLTA) (DLTA)
                 (PI) (PI) (PI) (PI) (SG) (SG) (PI) (PI) (SG) (?H)
                 (?H) (?H) (?H) (?H) (?H) (?H) (?H) (?I) (?I) (?I)
                 (PI) (PI) (?J) (?J) (?J) (?J) (PI) (PI) (SG) (SG)
                 (PHI) (PHI) (DLTA) (DLTA) (PI) (PI) (SG) (SG)
                 (PI) (PI) (SG) (DLTA) (DLTA) (PI) (PI) (SG) (SG)
 Unable to determine electronic state:  an orbital has unidentified symmetry.
 Alpha  occ. eigenvalues --   -7.86035  -0.59797  -0.26730
 Alpha virt. eigenvalues --   -0.03946  -0.02470  -0.01669   0.03149   0.04996
 Alpha virt. eigenvalues --    0.05078   0.07002   0.08751   0.12964   0.12965
 Alpha virt. eigenvalues --    0.13510   0.13545   0.16618   0.24996   0.25069
 Alpha virt. eigenvalues --    0.27390   0.27656   0.28106   0.29886   0.33841
 Alpha virt. eigenvalues --    0.43208   0.43208   0.43843   0.43843   0.45283
 Alpha virt. eigenvalues --    0.45297   0.45801   0.45850   0.46582   0.49204
 Alpha virt. eigenvalues --    0.49271   0.51693   0.59869   0.70304   0.70304
 Alpha virt. eigenvalues --    0.81022   0.81053   0.88250   0.88258   0.90456
 Alpha virt. eigenvalues --    0.91675   0.96510   0.96603   1.08627   1.31586
 Alpha virt. eigenvalues --    1.31714   1.31714   1.32313   1.32317   1.32657
 Alpha virt. eigenvalues --    1.32657   1.32917   1.32919   1.33812   1.33924
 Alpha virt. eigenvalues --    1.34251   1.34552   1.34764   1.37229   1.37229
 Alpha virt. eigenvalues --    1.38961   1.38962   1.43393   1.45819   1.45979
 Alpha virt. eigenvalues --    1.63832   1.63832   1.66592   1.69375   1.69375
 Alpha virt. eigenvalues --    1.80271   1.87321   1.87365   1.94707   2.56117
 Alpha virt. eigenvalues --    2.56117   2.65707   2.65716   2.69054   2.69057
 Alpha virt. eigenvalues --    2.76316   2.87344   3.61021   3.61184   3.71033
 Alpha virt. eigenvalues --    3.82849   3.82849   3.83726   3.83727   3.83999
 Alpha virt. eigenvalues --    3.83999   3.85079   3.85272   3.85934   3.85942
 Alpha virt. eigenvalues --    3.87303   3.94822   3.95033   3.97988   3.97988
 Alpha virt. eigenvalues --    3.99643   3.99644   4.02473   4.02690   4.07502
 Alpha virt. eigenvalues --    4.15745   6.64699   6.64699   6.66011   6.66011
 Alpha virt. eigenvalues --    6.71294   6.71296   6.75660   7.58694   8.04971
 Alpha virt. eigenvalues --    8.04973   8.18969   8.49236   8.49236   8.55216
 Alpha virt. eigenvalues --    8.55218   8.65067  12.96084
  Beta  occ. eigenvalues --   -7.86035  -0.59797  -0.26730
  Beta virt. eigenvalues --   -0.03946  -0.02470  -0.01669   0.03149   0.04996
  Beta virt. eigenvalues --    0.05078   0.07002   0.08751   0.12964   0.12965
  Beta virt. eigenvalues --    0.13510   0.13545   0.16618   0.24996   0.25069
  Beta virt. eigenvalues --    0.27390   0.27656   0.28106   0.29886   0.33841
  Beta virt. eigenvalues --    0.43208   0.43208   0.43843   0.43843   0.45283
  Beta virt. eigenvalues --    0.45297   0.45801   0.45850   0.46582   0.49204
  Beta virt. eigenvalues --    0.49271   0.51693   0.59869   0.70304   0.70304
  Beta virt. eigenvalues --    0.81022   0.81053   0.88250   0.88258   0.90456
  Beta virt. eigenvalues --    0.91675   0.96510   0.96603   1.08627   1.31586
  Beta virt. eigenvalues --    1.31714   1.31714   1.32313   1.32317   1.32657
  Beta virt. eigenvalues --    1.32657   1.32917   1.32919   1.33812   1.33924
  Beta virt. eigenvalues --    1.34251   1.34552   1.34764   1.37229   1.37229
  Beta virt. eigenvalues --    1.38961   1.38962   1.43393   1.45819   1.45979
  Beta virt. eigenvalues --    1.63832   1.63832   1.66592   1.69375   1.69375
  Beta virt. eigenvalues --    1.80271   1.87321   1.87365   1.94707   2.56117
  Beta virt. eigenvalues --    2.56117   2.65707   2.65716   2.69054   2.69057
  Beta virt. eigenvalues --    2.76316   2.87344   3.61021   3.61184   3.71033
  Beta virt. eigenvalues --    3.82849   3.82849   3.83726   3.83727   3.83999
  Beta virt. eigenvalues --    3.83999   3.85079   3.85272   3.85934   3.85942
  Beta virt. eigenvalues --    3.87303   3.94822   3.95033   3.97988   3.97988
  Beta virt. eigenvalues --    3.99643   3.99644   4.02473   4.02690   4.07502
  Beta virt. eigenvalues --    4.15745   6.64699   6.64699   6.66011   6.66011
  Beta virt. eigenvalues --    6.71294   6.71296   6.75660   7.58694   8.04971
  Beta virt. eigenvalues --    8.04973   8.18969   8.49236   8.49236   8.55216
  Beta virt. eigenvalues --    8.55218   8.65067  12.96084
          Condensed to atoms (all electrons):
               1          2
     1  B    4.484512   0.194576
     2  H    0.194576   1.126335
          Atomic-Atomic Spin Densities.
               1          2
     1  B    0.000000   0.000000
     2  H    0.000000   0.000000
 Mulliken charges and spin densities:
               1          2
     1  B    0.320911   0.000000
     2  H   -0.320911   0.000000
 Sum of Mulliken charges =  -0.00000   0.00000
 Mulliken charges and spin densities with hydrogens summed into heavy atoms:
               1          2
     1  B   -0.000000   0.000000
 Electronic spatial extent (au):  <R**2>=             58.6678
 Charge=             -0.0000 electrons
 Dipole moment (field-independent basis, Debye):
    X=             -0.0000    Y=              0.0000    Z=              5.7345  Tot=              5.7345
 Quadrupole moment (field-independent basis, Debye-Ang):
   XX=             -8.6685   YY=             -8.9174   ZZ=            -20.3369
   XY=              0.0000   XZ=             -0.0000   YZ=              0.0000
 Traceless Quadrupole moment (field-independent basis, Debye-Ang):
   XX=              3.9724   YY=              3.7235   ZZ=             -7.6960
   XY=              0.0000   XZ=             -0.0000   YZ=              0.0000
 Octapole moment (field-independent basis, Debye-Ang**2):
  XXX=              0.0000  YYY=              0.0000  ZZZ=             37.0223  XYY=              0.0000
  XXY=              0.0000  XXZ=              6.3584  XZZ=              0.0000  YZZ=              0.0000
  YYZ=              6.1944  XYZ=              0.0000
 Hexadecapole moment (field-independent basis, Debye-Ang**3):
 XXXX=            -16.9015 YYYY=            -17.6697 ZZZZ=           -207.0546 XXXY=              0.0000
 XXXZ=             -0.0000 YYYX=              0.0000 YYYZ=              0.0000 ZZZX=             -0.0000
 ZZZY=              0.0000 XXYY=             -5.7620 XXZZ=            -29.7122 YYZZ=            -29.9515
 XXYZ=              0.0000 YYXZ=             -0.0000 ZZXY=              0.0000
 N-N= 8.268393920625D-01 E-N=-5.883375470821D+01  KE= 2.474637917846D+01
 Symmetry A1   KE= 2.468924700183D+01
 Symmetry A2   KE= 9.042842566973D-30
 Symmetry B1   KE= 1.566859582626D-29
 Symmetry B2   KE= 5.713217662736D-02
 Symmetry A1   SP= 0.000000000000D+00
 Symmetry A2   SP= 0.000000000000D+00
 Symmetry B1   SP= 0.000000000000D+00
 Symmetry B2   SP= 0.000000000000D+00
                          Isotropic Fermi Contact Couplings
        Atom                 a.u.       MegaHertz       Gauss      10(-4) cm-1
     1  B(11)              0.00000       0.00000       0.00000       0.00000
     2  H(1)               0.00000       0.00000       0.00000       0.00000
 --------------------------------------------------------
       Center         ----  Spin Dipole Couplings  ----
                      3XX-RR        3YY-RR        3ZZ-RR
 --------------------------------------------------------
     1   Atom        0.000000      0.000000      0.000000
     2   Atom        0.000000      0.000000      0.000000
 --------------------------------------------------------
                        XY            XZ            YZ
 --------------------------------------------------------
     1   Atom        0.000000      0.000000     -0.135128
     2   Atom        0.000000      0.000000      0.001192
 --------------------------------------------------------


 ---------------------------------------------------------------------------------
              Anisotropic Spin Dipole Couplings in Principal Axis System
 ---------------------------------------------------------------------------------

       Atom             a.u.   MegaHertz   Gauss  10(-4) cm-1        Axes

              Baa    -0.1351   -23.136    -8.255    -7.717 -0.0000  0.7071  0.7071
     1 B(11)  Bbb     0.0000     0.000     0.000     0.000  1.0000 -0.0000  0.0000
              Bcc     0.1351    23.136     8.255     7.717  0.0000  0.7071 -0.7071
 
              Baa    -0.0012    -0.636    -0.227    -0.212 -0.0000  0.7071 -0.7071
     2 H(1)   Bbb    -0.0000    -0.000    -0.000    -0.000  1.0000 -0.0000 -0.0000
              Bcc     0.0012     0.636     0.227     0.212  0.0000  0.7071  0.7071
 

 ---------------------------------------------------------------------------------

 No NMR shielding tensors so no spin-rotation constants.
 Leave Link  601 at Sun May 22 21:07:20 2022, MaxMem=   104857600 cpu:               0.3 elap:               0.2
 (Enter /apps/software/g16/l801.exe)
 Range of M.O.s used for correlation:     1   126
 NBasis=   126 NAE=     3 NBE=     3 NFC=     0 NFV=     0
 NROrb=    126 NOA=     3 NOB=     3 NVA=   123 NVB=   123
 Leave Link  801 at Sun May 22 21:07:20 2022, MaxMem=   104857600 cpu:               0.0 elap:               0.0
 (Enter /apps/software/g16/l914.exe)
 UHF ground state
 Doing stability rather than CIS.
 Keep R1 and R2 ints in memory in symmetry-blocked form, NReq=40144005.
 FoFCou: FMM=F IPFlag=           0 FMFlag=           0 FMFlg1=           0
         NFxFlg=           0 DoJE=F BraDBF=F KetDBF=F FulRan=T
         wScrn=  0.000000 ICntrl=       600 IOpCl=  0 I1Cent=           0 NGrid=           0
         NMat0=    1 NMatS0=   8001 NMatT0=    0 NMatD0=    1 NMtDS0=    0 NMtDT0=    0
 Petite list used in FoFCou.
 MDV=   104857600 DFT=F DoStab=T Mixed=F DoRPA=F DoScal=F NonHer=F
 Making orbital integer symmetry assigments:
 Orbital symmetries:
 Alpha Orbitals:
       Occupied  (SG) (?A) (?A)
       Virtual   (?A) (?A) (?A) (?A) (?A) (?A) (SG) (SG) (?B) (?B)
                 (?B) (?B) (SG) (?C) (?C) (?C) (?C) (?C) (?C) (SG)
                 (?D) (?D) (?D) (?D) (?D) (?D) (?D) (?D) (?D) (PI)
                 (PI) (SG) (SG) (DLTA) (DLTA) (PI) (PI) (PI) (PI)
                 (?E) (SG) (?E) (?E) (SG) (?F) (?F) (?F) (?F) (?F)
                 (?F) (?F) (?F) (?F) (?F) (?F) (?F) (?F) (?F) (?F)
                 (?F) (?F) (?F) (?G) (?G) (?G) (PHI) (PHI) (SG)
                 (DLTA) (DLTA) (SG) (PI) (PI) (SG) (DLTA) (DLTA)
                 (PI) (PI) (PI) (PI) (SG) (SG) (PI) (PI) (SG) (?H)
                 (?H) (?H) (?H) (?H) (?H) (?H) (?H) (?I) (?I) (?I)
                 (PI) (PI) (?J) (?J) (?J) (?J) (PI) (PI) (SG) (SG)
                 (PHI) (PHI) (DLTA) (DLTA) (PI) (PI) (SG) (SG)
                 (PI) (PI) (SG) (DLTA) (DLTA) (PI) (PI) (SG) (SG)
 Beta  Orbitals:
       Occupied  (SG) (?A) (?A)
       Virtual   (?A) (?A) (?A) (?A) (?A) (?A) (SG) (SG) (?B) (?B)
                 (?B) (?B) (SG) (?C) (?C) (?C) (?C) (?C) (?C) (SG)
                 (?D) (?D) (?D) (?D) (?D) (?D) (?D) (?D) (?D) (PI)
                 (PI) (SG) (SG) (DLTA) (DLTA) (PI) (PI) (PI) (PI)
                 (?E) (SG) (?E) (?E) (SG) (?F) (?F) (?F) (?F) (?F)
                 (?F) (?F) (?F) (?F) (?F) (?F) (?F) (?F) (?F) (?F)
                 (?F) (?F) (?F) (?G) (?G) (?G) (PHI) (PHI) (SG)
                 (DLTA) (DLTA) (SG) (PI) (PI) (SG) (DLTA) (DLTA)
                 (PI) (PI) (PI) (PI) (SG) (SG) (PI) (PI) (SG) (?H)
                 (?H) (?H) (?H) (?H) (?H) (?H) (?H) (?I) (?I) (?I)
                 (PI) (PI) (?J) (?J) (?J) (?J) (PI) (PI) (SG) (SG)
                 (PHI) (PHI) (DLTA) (DLTA) (PI) (PI) (SG) (SG)
                 (PI) (PI) (SG) (DLTA) (DLTA) (PI) (PI) (SG) (SG)
    12 initial guesses have been made.
 Convergence on wavefunction:    0.001000000000000
 Davidson Disk Diagonalization:  ConvIn= 1.00D-03 SkipCon=T Conv= 1.00D-03.
 Max sub-space:  1476 roots to seek:    12 dimension of matrix:          738
 Iteration     1 Dimension    12 NMult     0 NNew     12
 CISAX will form    12 AO SS matrices at one time.
 NMat=    12 NSing=    12 JSym2X= 2.
 New state      1 was old state      5
 Excitation Energies [eV] at current iteration:
 Root      1 :    -3.536826350093322
 Root      2 :     1.091542850038597
 Root      3 :     1.404127584704759
 Root      4 :     1.643438562795879
 Root      5 :     1.704844277334961
 Root      6 :     5.018965784993948
 Root      7 :     5.031732835457014
 Root      8 :     5.746740736175587
 Root      9 :     5.789085513559789
 Root     10 :     5.909109113044673
 Root     11 :     5.927607669378866
 Root     12 :     8.557247283160132
 Iteration     2 Dimension    24 NMult    12 NNew     12
 CISAX will form    12 AO SS matrices at one time.
 NMat=    12 NSing=    12 JSym2X= 2.
 Root      1 not converged, maximum delta is    0.097833707309124
 Excitation Energies [eV] at current iteration:
 Root      1 :    -5.241281137836628   Change is   -1.704454787743306
 Root      2 :     0.442142733737231   Change is   -0.649400116301366
 Root      3 :     0.787041968875196   Change is   -0.617085615829563
 Root      4 :     1.221557269834884   Change is   -0.483287007500077
 Root      5 :     1.241455604941373   Change is   -0.401982957854506
 Root      6 :     4.567891445316393   Change is   -0.451074339677555
 Root      7 :     4.633188574014977   Change is   -0.398544261442037
 Root      8 :     5.224896425361147   Change is   -0.521844310814440
 Root      9 :     5.292978746438837   Change is   -0.496106767120952
 Root     10 :     5.458887575888158   Change is   -0.450221537156515
 Root     11 :     5.471963982579045   Change is   -0.455643686799821
 Root     12 :     6.410083191700524   Change is   -2.147164091459608
 Iteration     3 Dimension    27 NMult    24 NNew      3
 CISAX will form     3 AO SS matrices at one time.
 NMat=     3 NSing=     3 JSym2X= 2.
 Root      1 not converged, maximum delta is    0.019532277751872
 Excitation Energies [eV] at current iteration:
 Root      1 :    -5.305184267040615   Change is   -0.063903129203987
 Root      2 :     0.312515872460235   Change is   -0.129626861276996
 Root      3 :     0.705993834190718   Change is   -0.081048134684478
 Iteration     4 Dimension    30 NMult    27 NNew      3
 CISAX will form     3 AO SS matrices at one time.
 NMat=     3 NSing=     3 JSym2X= 2.
 Root      1 not converged, maximum delta is    0.001466390543761
 Excitation Energies [eV] at current iteration:
 Root      1 :    -5.306043316034414   Change is   -0.000859048993798
 Root      2 :     0.030724395118058   Change is   -0.281791477342177
 Root      3 :     0.536346450308578   Change is   -0.169647383882140
 Iteration     5 Dimension    33 NMult    30 NNew      3
 CISAX will form     3 AO SS matrices at one time.
 NMat=     3 NSing=     3 JSym2X= 2.
 Root      1 has converged.
 Excitation Energies [eV] at current iteration:
 Root      1 :    -5.306058774290558   Change is   -0.000015458256145
 Root      2 :     0.002173232484800   Change is   -0.028551162633259
 Root      3 :     0.490393801096742   Change is   -0.045952649211836
 Convergence achieved on expansion vectors.
 ***********************************************************************
 Stability analysis using <AA,BB:AA,BB> singles matrix:
 ***********************************************************************
 1PDM for each excited state written to RWF  633
 Ground to excited state transition densities written to RWF  633

 Eigenvectors of the stability matrix:
 
 Excited state symmetry could not be determined.
 Eigenvector   1:  2.950-?Sym  Eigenvalue=-0.1949941  <S**2>=1.925
      3A ->  4A       -0.60506
      3A ->  6A       -0.24046
      3A ->  7A        0.16920
      3A -> 16A        0.11397
      3B ->  4B        0.60506
      3B ->  6B       -0.24046
      3B ->  7B       -0.16920
      3B -> 16B       -0.11397
 The wavefunction has an internal instability.
 Leave Link  914 at Sun May 22 21:07:24 2022, MaxMem=   104857600 cpu:               4.1 elap:               4.1
 (Enter /apps/software/g16/l508.exe)
 Keep R1 and R2 ints in memory in symmetry-blocked form, NReq=40144065.
 FoFCou: FMM=F IPFlag=           0 FMFlag=           0 FMFlg1=           0
         NFxFlg=           0 DoJE=F BraDBF=F KetDBF=F FulRan=T
         wScrn=  0.000000 ICntrl=       600 IOpCl=  0 I1Cent=           0 NGrid=           0
         NMat0=    1 NMatS0=   8001 NMatT0=    0 NMatD0=    1 NMtDS0=    0 NMtDT0=    0
 Petite list used in FoFCou.
 Tight linear equation convergence will be used.
 UHF wavefunction.
 Quadratic Convergence SCF Method.
 Line search only if initial step raises energy.
 Perform preliminary linear searches along instability eigenvector.
     ILin= 1 X=0.000D+00 Y=-2.494246504192D+01 DE= 0.00D+00
     ILin= 2 X=1.000D-01 Y=-2.494439680479D+01 DE=-1.93D-03
     ILin= 3 X=1.414D-01 Y=-2.494629244000D+01 DE=-3.83D-03
     ILin= 4 X=2.000D-01 Y=-2.494997655302D+01 DE=-7.51D-03
     ILin= 5 X=2.828D-01 Y=-2.495692462158D+01 DE=-1.45D-02
     ILin= 6 X=4.000D-01 Y=-2.496920646893D+01 DE=-2.67D-02
     ILin= 7 X=5.657D-01 Y=-2.498782103613D+01 DE=-4.54D-02
     ILin= 8 X=8.000D-01 Y=-2.500497403930D+01 DE=-6.25D-02
     ILin= 9 X=1.131D+00 Y=-2.498381808715D+01 DE=-4.14D-02
     An  expanding polynomial of degree  9 produced  0.8568
 Iteration F X= 8.568D-01 EE=-2.500580180564784D+01
     ILin= 1 X=0.000D+00 Y=-2.494246504192D+01 DE= 0.00D+00
     ILin= 2 X=1.000D-01 Y=-2.494439680305D+01 DE=-1.93D-03
     ILin= 3 X=1.414D-01 Y=-2.494629243510D+01 DE=-3.83D-03
 The two search directions are symmetric.
 Iteration B X= 8.568D-01 EE=-2.500580180564784D+01
 Take forward step, X= 8.568D-01 Step= 8.568D-01
 Iteration   1 EE= -25.0058010318879                                    Grad=9.297D-02 Max rot=    1.8474 deg.
 Gradient too large for Newton-Raphson -- use scaled steepest descent instead.
 Alpha Gap=     0.491 HL deriv= 5.33D-02
  Beta Gap=     0.320 HL deriv= 1.01D-01
     ILin= 1 X=0.000D+00 Y=-2.500580103189D+01 DE= 0.00D+00 F= -2.57D-02
     ILin= 2 X=3.000D-01 Y=-2.501292657574D+01 DE=-7.13D-03 F= -2.17D-02
     ILin= 3 X=5.000D-01 Y=-2.501698953103D+01 DE=-1.12D-02 F= -1.89D-02
     ILin= 4 X=7.000D-01 Y=-2.502047104601D+01 DE=-1.47D-02 F= -1.59D-02
     ILin= 5 X=1.200D+00 Y=-2.502647203028D+01 DE=-2.07D-02 F= -7.98D-03
     ILin= 6 X=1.900D+00 Y=-2.502790288208D+01 DE=-2.21D-02 F=  4.03D-03
     Accept linear search using points  5 and  6.
     An  expanding polynomial of degree  6 produced  1.6198
 Iteration   2 EE= -25.0283429494759     Delta-E=       -0.022541917588 Grad=4.194D-02 Max rot=    0.8559 deg.
 Gradient too large for Newton-Raphson -- use scaled steepest descent instead.
 Alpha Gap=     0.543 HL deriv= 2.20D-02
  Beta Gap=     0.360 HL deriv= 4.15D-02
     ILin= 1 X=0.000D+00 Y=-2.502834294948D+01 DE= 0.00D+00 F= -4.83D-03
     ILin= 2 X=7.000D-01 Y=-2.503099114802D+01 DE=-2.65D-03 F= -2.71D-03
     ILin= 3 X=1.300D+00 Y=-2.503205030479D+01 DE=-3.71D-03 F= -8.03D-04
     ILin= 4 X=2.300D+00 Y=-2.503119526134D+01 DE=-2.85D-03 F=  2.54D-03
     An  expanding polynomial of degree  4 produced  1.5459
 Iteration   3 EE= -25.0321488778510     Delta-E=       -0.003805928375 Grad=2.145D-02 Max rot=    0.3857 deg.
 Gradient too large for Newton-Raphson -- use scaled steepest descent instead.
 Alpha Gap=     0.561 HL deriv= 5.24D-03
  Beta Gap=     0.372 HL deriv= 1.20D-02
     ILin= 1 X=0.000D+00 Y=-2.503214887785D+01 DE= 0.00D+00 F= -1.00D-03
     ILin= 2 X=1.600D+00 Y=-2.503289082728D+01 DE=-7.42D-04 F=  7.72D-05
     Accept linear search using points  1 and  2.
     An  expanding polynomial of degree  2 produced  1.5624
     Minimum is close to point  2 DX= -3.76D-02 DF= -9.00D-07 DXR=  2.41D-02 DFR=  1.21D-03 which will be used.
 Iteration   4 EE= -25.0328908272750     Delta-E=       -0.000741949424 Grad=1.149D-02 Max rot=    0.2700 deg.
 Gradient too large for Newton-Raphson -- use scaled steepest descent instead.
 Alpha Gap=     0.566 HL deriv= 4.32D-03
  Beta Gap=     0.375 HL deriv= 5.92D-03
     ILin= 1 X=0.000D+00 Y=-2.503289082728D+01 DE= 0.00D+00 F= -2.83D-04
     ILin= 2 X=1.600D+00 Y=-2.503309487067D+01 DE=-2.04D-04 F=  2.83D-05
     Accept linear search using points  1 and  2.
     An  expanding polynomial of degree  2 produced  1.5494
     Minimum is close to point  2 DX= -5.06D-02 DF= -4.43D-07 DXR=  3.27D-02 DFR=  2.17D-03 which will be used.
 Iteration   5 EE= -25.0330948706652     Delta-E=       -0.000204043390 Grad=7.279D-03 Max rot=    0.1685 deg.
 QCNR:  CnvC1=2.72D-09 CnvC2=2.72D-08
 LinEq1:  Iter=  0 NonCon=     1 RMS=3.07D-04 Max=3.02D-03 NDo=     1
 AX will form     1 AO Fock derivatives at one time.
 LinEq1:  Iter=  1 NonCon=     1 RMS=1.08D-04 Max=1.21D-03 NDo=     1
 LinEq1:  Iter=  2 NonCon=     1 RMS=1.62D-05 Max=1.78D-04 NDo=     1
 LinEq1:  Iter=  3 NonCon=     1 RMS=2.97D-06 Max=3.38D-05 NDo=     1
 LinEq1:  Iter=  4 NonCon=     1 RMS=5.27D-07 Max=6.77D-06 NDo=     1
 LinEq1:  Iter=  5 NonCon=     1 RMS=1.82D-07 Max=1.74D-06 NDo=     1
 LinEq1:  Iter=  6 NonCon=     1 RMS=3.44D-08 Max=4.82D-07 NDo=     1
 LinEq1:  Iter=  7 NonCon=     1 RMS=7.95D-09 Max=7.09D-08 NDo=     1
 LinEq1:  Iter=  8 NonCon=     0 RMS=1.12D-09 Max=8.05D-09 NDo=     1
 Linear equations converged to 2.717D-09 2.717D-08 after     8 iterations.
 Angle between quadratic step and gradient=  73.98 degrees.
     ILin= 1 X=0.000D+00 Y=-2.503309487067D+01 DE= 0.00D+00 F= -9.19D-04
     ILin= 2 X=1.000D+00 Y=-2.503350402669D+01 DE=-4.09D-04 F=  2.18D-04
     Accept linear search using points  1 and  2.
     An  expanding polynomial of degree  2 produced  0.8494
 Iteration   6 EE= -25.0335189623138     Delta-E=       -0.000424091649 Grad=7.833D-03 Max rot=    0.2583 deg.
 QCNR:  CnvC1=2.72D-09 CnvC2=2.72D-08
 LinEq1:  Iter=  0 NonCon=     1 RMS=1.96D-04 Max=2.52D-03 NDo=     1
 LinEq1:  Iter=  1 NonCon=     1 RMS=4.51D-05 Max=3.42D-04 NDo=     1
 LinEq1:  Iter=  2 NonCon=     1 RMS=1.23D-05 Max=9.56D-05 NDo=     1
 LinEq1:  Iter=  3 NonCon=     1 RMS=3.50D-06 Max=3.62D-05 NDo=     1
 LinEq1:  Iter=  4 NonCon=     1 RMS=7.55D-07 Max=6.19D-06 NDo=     1
 LinEq1:  Iter=  5 NonCon=     1 RMS=1.21D-07 Max=9.82D-07 NDo=     1
 LinEq1:  Iter=  6 NonCon=     1 RMS=2.50D-08 Max=3.56D-07 NDo=     1
 LinEq1:  Iter=  7 NonCon=     1 RMS=7.98D-09 Max=9.02D-08 NDo=     1
 LinEq1:  Iter=  8 NonCon=     0 RMS=1.71D-09 Max=1.74D-08 NDo=     1
 Linear equations converged to 2.717D-09 2.717D-08 after     8 iterations.
 Angle between quadratic step and gradient=  73.73 degrees.
     ILin= 1 X=0.000D+00 Y=-2.503351896231D+01 DE= 0.00D+00 F= -1.48D-04
     ILin= 2 X=1.000D+00 Y=-2.503359379107D+01 DE=-7.48D-05 F= -3.24D-06
     Reject lnstep minimum 1.023D+00 FVal=-2.503359382845D+01 Lims=  0.00D+00  1.00D+00
     ILin= 3 X=2.000D+00 Y=-2.503352760718D+01 DE=-8.64D-06 F=  1.35D-04
     An  expanding polynomial of degree  3 produced  1.0307
     Minimum is close to point  2 DX=  3.07D-02 DF= -6.62D-08 DXR=  2.97D-02 DFR=  8.85D-04 which will be used.
 Iteration   7 EE= -25.0335937910682     Delta-E=       -0.000074828754 Grad=1.928D-03 Max rot=    0.0549 deg.
 QCNR:  CnvC1=2.72D-09 CnvC2=2.72D-08
 LinEq1:  Iter=  0 NonCon=     1 RMS=2.20D-05 Max=2.07D-04 NDo=     1
 LinEq1:  Iter=  1 NonCon=     1 RMS=7.48D-06 Max=9.11D-05 NDo=     1
 LinEq1:  Iter=  2 NonCon=     1 RMS=2.16D-06 Max=2.73D-05 NDo=     1
 LinEq1:  Iter=  3 NonCon=     1 RMS=4.44D-07 Max=3.56D-06 NDo=     1
 LinEq1:  Iter=  4 NonCon=     1 RMS=7.98D-08 Max=7.41D-07 NDo=     1
 LinEq1:  Iter=  5 NonCon=     1 RMS=1.59D-08 Max=2.09D-07 NDo=     1
 LinEq1:  Iter=  6 NonCon=     1 RMS=2.82D-09 Max=1.89D-08 NDo=     1
 LinEq1:  Iter=  7 NonCon=     0 RMS=6.22D-10 Max=7.73D-09 NDo=     1
 Linear equations converged to 2.717D-09 2.717D-08 after     7 iterations.
 Angle between quadratic step and gradient=  86.77 degrees.
     ILin= 1 X=0.000D+00 Y=-2.503359379107D+01 DE= 0.00D+00 F= -1.83D-05
     ILin= 2 X=1.000D+00 Y=-2.503360213892D+01 DE=-8.35D-06 F=  2.75D-06
     Accept linear search using points  1 and  2.
     An  expanding polynomial of degree  2 produced  0.8866
 Iteration   8 EE= -25.0336022888197     Delta-E=       -0.000008497751 Grad=6.071D-04 Max rot=    0.0109 deg.
 QCNR:  CnvC1=2.72D-09 CnvC2=2.72D-08
 LinEq1:  Iter=  0 NonCon=     1 RMS=1.59D-05 Max=1.81D-04 NDo=     1
 LinEq1:  Iter=  1 NonCon=     1 RMS=2.29D-06 Max=2.54D-05 NDo=     1
 LinEq1:  Iter=  2 NonCon=     1 RMS=7.08D-07 Max=5.58D-06 NDo=     1
 LinEq1:  Iter=  3 NonCon=     1 RMS=1.54D-07 Max=1.57D-06 NDo=     1
 LinEq1:  Iter=  4 NonCon=     1 RMS=4.30D-08 Max=3.93D-07 NDo=     1
 LinEq1:  Iter=  5 NonCon=     1 RMS=6.07D-09 Max=7.09D-08 NDo=     1
 LinEq1:  Iter=  6 NonCon=     0 RMS=2.18D-09 Max=2.26D-08 NDo=     1
 Linear equations converged to 2.717D-09 2.717D-08 after     6 iterations.
 Angle between quadratic step and gradient=  69.13 degrees.
     ILin= 1 X=0.000D+00 Y=-2.503360228882D+01 DE= 0.00D+00 F= -8.45D-07
     ILin= 2 X=1.000D+00 Y=-2.503360270621D+01 DE=-4.17D-07 F=  1.02D-08
     Accept linear search using points  1 and  2.
     An  expanding polynomial of degree  2 produced  0.9881
     Minimum is close to point  2 DX= -1.19D-02 DF= -6.10D-11 DXR=  1.21D-02 DFR=  1.46D-04 which will be used.
 Iteration   9 EE= -25.0336027062143     Delta-E=       -0.000000417395 Grad=9.561D-05 Max rot=    0.0020 deg.
 QCNR:  CnvC1=9.56D-10 CnvC2=9.56D-09
 LinEq1:  Iter=  0 NonCon=     1 RMS=1.34D-06 Max=1.40D-05 NDo=     1
 LinEq1:  Iter=  1 NonCon=     1 RMS=5.40D-07 Max=6.09D-06 NDo=     1
 LinEq1:  Iter=  2 NonCon=     1 RMS=9.79D-08 Max=7.69D-07 NDo=     1
 LinEq1:  Iter=  3 NonCon=     1 RMS=2.30D-08 Max=2.42D-07 NDo=     1
 LinEq1:  Iter=  4 NonCon=     1 RMS=5.48D-09 Max=3.89D-08 NDo=     1
 LinEq1:  Iter=  5 NonCon=     1 RMS=1.52D-09 Max=1.32D-08 NDo=     1
 LinEq1:  Iter=  6 NonCon=     0 RMS=3.39D-10 Max=3.32D-09 NDo=     1
 Linear equations converged to 9.561D-10 9.561D-09 after     6 iterations.
 Angle between quadratic step and gradient=  83.84 degrees.
     ILin= 1 X=0.000D+00 Y=-2.503360270621D+01 DE= 0.00D+00 F= -8.81D-08
     ILin= 2 X=1.000D+00 Y=-2.503360271195D+01 DE=-5.73D-09
 Iteration  10 EE= -25.0336027119479     Delta-E=       -0.000000005734 Grad=5.280D-04 Max rot=    0.0159 deg.
 QCNR:  CnvC1=2.72D-09 CnvC2=2.72D-08
 LinEq1:  Iter=  0 NonCon=     1 RMS=4.41D-06 Max=4.38D-05 NDo=     1
 LinEq1:  Iter=  1 NonCon=     1 RMS=1.16D-06 Max=1.06D-05 NDo=     1
 LinEq1:  Iter=  2 NonCon=     1 RMS=3.50D-07 Max=2.87D-06 NDo=     1
 LinEq1:  Iter=  3 NonCon=     1 RMS=7.81D-08 Max=8.52D-07 NDo=     1
 LinEq1:  Iter=  4 NonCon=     1 RMS=2.10D-08 Max=1.54D-07 NDo=     1
 LinEq1:  Iter=  5 NonCon=     1 RMS=3.19D-09 Max=3.01D-08 NDo=     1
 LinEq1:  Iter=  6 NonCon=     0 RMS=1.11D-09 Max=1.45D-08 NDo=     1
 Linear equations converged to 2.717D-09 2.717D-08 after     6 iterations.
 Angle between quadratic step and gradient=  82.36 degrees.
     ILin= 1 X=0.000D+00 Y=-2.503360271195D+01 DE= 0.00D+00 F= -1.05D-07
     ILin= 2 X=1.000D+00 Y=-2.503360276417D+01 DE=-5.22D-08 F=  7.07D-10
     Accept linear search using points  1 and  2.
     An  expanding polynomial of degree  2 produced  0.9933
     Minimum is close to point  2 DX= -6.68D-03 DF= -2.36D-12 DXR=  6.72D-03 DFR=  4.52D-05 which will be used.
 Iteration  11 EE= -25.0336027641720     Delta-E=       -0.000000052224 Grad=3.064D-05 Max rot=    0.0008 deg.
 QCNR:  CnvC1=3.06D-10 CnvC2=3.06D-09
 LinEq1:  Iter=  0 NonCon=     1 RMS=4.15D-07 Max=5.41D-06 NDo=     1
 LinEq1:  Iter=  1 NonCon=     1 RMS=1.55D-07 Max=1.49D-06 NDo=     1
 LinEq1:  Iter=  2 NonCon=     1 RMS=2.67D-08 Max=1.93D-07 NDo=     1
 LinEq1:  Iter=  3 NonCon=     1 RMS=6.48D-09 Max=6.88D-08 NDo=     1
 LinEq1:  Iter=  4 NonCon=     1 RMS=1.52D-09 Max=1.21D-08 NDo=     1
 LinEq1:  Iter=  5 NonCon=     1 RMS=4.58D-10 Max=4.35D-09 NDo=     1
 LinEq1:  Iter=  6 NonCon=     0 RMS=1.11D-10 Max=1.07D-09 NDo=     1
 Linear equations converged to 3.064D-10 3.064D-09 after     6 iterations.
 Angle between quadratic step and gradient=  83.25 degrees.
     ILin= 1 X=0.000D+00 Y=-2.503360276417D+01 DE= 0.00D+00 F= -1.26D-08
     ILin= 2 X=1.000D+00 Y=-2.503360276534D+01 DE=-1.17D-09
 Iteration  12 EE= -25.0336027653386     Delta-E=       -0.000000001167 Grad=2.066D-04 Max rot=    0.0061 deg.
 QCNR:  CnvC1=2.07D-09 CnvC2=2.07D-08
 LinEq1:  Iter=  0 NonCon=     1 RMS=1.58D-06 Max=1.53D-05 NDo=     1
 LinEq1:  Iter=  1 NonCon=     1 RMS=4.24D-07 Max=4.05D-06 NDo=     1
 LinEq1:  Iter=  2 NonCon=     1 RMS=1.25D-07 Max=1.05D-06 NDo=     1
 LinEq1:  Iter=  3 NonCon=     1 RMS=2.89D-08 Max=2.98D-07 NDo=     1
 LinEq1:  Iter=  4 NonCon=     1 RMS=7.45D-09 Max=5.91D-08 NDo=     1
 LinEq1:  Iter=  5 NonCon=     0 RMS=1.15D-09 Max=1.02D-08 NDo=     1
 Linear equations converged to 2.066D-09 2.066D-08 after     5 iterations.
 Angle between quadratic step and gradient=  81.93 degrees.
     ILin= 1 X=0.000D+00 Y=-2.503360276534D+01 DE= 0.00D+00 F= -1.45D-08
     ILin= 2 X=1.000D+00 Y=-2.503360277229D+01 DE=-6.95D-09 F=  5.44D-10
     Accept linear search using points  1 and  2.
     An  expanding polynomial of degree  2 produced  0.9637
     Minimum is close to point  2 DX= -3.63D-02 DF= -9.87D-12 DXR=  3.77D-02 DFR=  1.42D-03 which will be used.
 Iteration  13 EE= -25.0336027722918     Delta-E=       -0.000000006953 Grad=2.725D-05 Max rot=    0.0008 deg.
 QCNR:  CnvC1=2.73D-10 CnvC2=2.73D-09
 LinEq1:  Iter=  0 NonCon=     1 RMS=2.02D-07 Max=1.79D-06 NDo=     1
 LinEq1:  Iter=  1 NonCon=     1 RMS=7.67D-08 Max=1.11D-06 NDo=     1
 LinEq1:  Iter=  2 NonCon=     1 RMS=1.58D-08 Max=1.10D-07 NDo=     1
 LinEq1:  Iter=  3 NonCon=     1 RMS=2.27D-09 Max=1.66D-08 NDo=     1
 LinEq1:  Iter=  4 NonCon=     1 RMS=6.47D-10 Max=6.29D-09 NDo=     1
 LinEq1:  Iter=  5 NonCon=     0 RMS=2.06D-10 Max=1.62D-09 NDo=     1
 Linear equations converged to 2.725D-10 2.725D-09 after     5 iterations.
 Angle between quadratic step and gradient=  86.96 degrees.
     ILin= 1 X=0.000D+00 Y=-2.503360277229D+01 DE= 0.00D+00 F= -1.37D-09
     ILin= 2 X=1.000D+00 Y=-2.503360277260D+01 DE=-3.10D-10
 Iteration  14 EE= -25.0336027726016     Delta-E=       -0.000000000310 Grad=4.751D-05 Max rot=    0.0015 deg.
 QCNR:  CnvC1=4.75D-10 CnvC2=4.75D-09
 LinEq1:  Iter=  0 NonCon=     1 RMS=3.44D-07 Max=2.72D-06 NDo=     1
 LinEq1:  Iter=  1 NonCon=     1 RMS=1.22D-07 Max=1.22D-06 NDo=     1
 LinEq1:  Iter=  2 NonCon=     1 RMS=3.19D-08 Max=2.32D-07 NDo=     1
 LinEq1:  Iter=  3 NonCon=     1 RMS=5.58D-09 Max=4.31D-08 NDo=     1
 LinEq1:  Iter=  4 NonCon=     1 RMS=1.15D-09 Max=1.21D-08 NDo=     1
 LinEq1:  Iter=  5 NonCon=     0 RMS=3.80D-10 Max=4.34D-09 NDo=     1
 Linear equations converged to 4.751D-10 4.751D-09 after     5 iterations.
 Angle between quadratic step and gradient=  83.80 degrees.
     ILin= 1 X=0.000D+00 Y=-2.503360277260D+01 DE= 0.00D+00 F= -1.14D-09
     ILin= 2 X=1.000D+00 Y=-2.503360277315D+01 DE=-5.44D-10
 Iteration  15 EE= -25.0336027731455     Delta-E=       -0.000000000544 Grad=7.940D-06 Max rot=    0.0002 deg.
 QCNR:  CnvC1=7.94D-11 CnvC2=7.94D-10
 LinEq1:  Iter=  0 NonCon=     1 RMS=6.62D-08 Max=7.56D-07 NDo=     1
 LinEq1:  Iter=  1 NonCon=     1 RMS=2.75D-08 Max=3.39D-07 NDo=     1
 LinEq1:  Iter=  2 NonCon=     1 RMS=5.21D-09 Max=4.55D-08 NDo=     1
 LinEq1:  Iter=  3 NonCon=     1 RMS=9.79D-10 Max=7.59D-09 NDo=     1
 LinEq1:  Iter=  4 NonCon=     1 RMS=2.23D-10 Max=2.25D-09 NDo=     1
 LinEq1:  Iter=  5 NonCon=     1 RMS=8.02D-11 Max=6.15D-10 NDo=     1
 LinEq1:  Iter=  6 NonCon=     0 RMS=9.92D-12 Max=1.69D-10 NDo=     1
 Linear equations converged to 7.940D-11 7.940D-10 after     6 iterations.
 Angle between quadratic step and gradient=  86.39 degrees.
     ILin= 1 X=0.000D+00 Y=-2.503360277315D+01 DE= 0.00D+00 F= -3.27D-10
     ILin= 2 X=1.000D+00 Y=-2.503360277328D+01 DE=-1.37D-10
 Iteration  16 EE= -25.0336027732822     Delta-E=       -0.000000000137 Grad=7.695D-06 Max rot=    0.0002 deg.
 QCNR:  CnvC1=7.70D-11 CnvC2=7.70D-10
 LinEq1:  Iter=  0 NonCon=     1 RMS=1.58D-07 Max=2.70D-06 NDo=     1
 LinEq1:  Iter=  1 NonCon=     1 RMS=3.28D-08 Max=2.03D-07 NDo=     1
 LinEq1:  Iter=  2 NonCon=     1 RMS=8.62D-09 Max=8.18D-08 NDo=     1
 LinEq1:  Iter=  3 NonCon=     1 RMS=2.59D-09 Max=2.02D-08 NDo=     1
 LinEq1:  Iter=  4 NonCon=     1 RMS=4.74D-10 Max=3.60D-09 NDo=     1
 LinEq1:  Iter=  5 NonCon=     0 RMS=7.47D-11 Max=6.38D-10 NDo=     1
 Linear equations converged to 7.695D-11 7.695D-10 after     5 iterations.
 Angle between quadratic step and gradient=  74.42 degrees.
     ILin= 1 X=0.000D+00 Y=-2.503360277328D+01 DE= 0.00D+00 F= -9.94D-11
     ILin= 2 X=1.000D+00 Y=-2.503360277333D+01 DE=-4.86D-11
 Iteration  17 EE= -25.0336027733308     Delta-E=       -0.000000000049 Grad=2.224D-06 Max rot=    0.0001 deg.
 QCNR:  CnvC1=2.22D-11 CnvC2=2.22D-10
 LinEq1:  Iter=  0 NonCon=     1 RMS=1.33D-08 Max=1.13D-07 NDo=     1
 LinEq1:  Iter=  1 NonCon=     1 RMS=4.93D-09 Max=6.52D-08 NDo=     1
 LinEq1:  Iter=  2 NonCon=     1 RMS=1.34D-09 Max=1.23D-08 NDo=     1
 LinEq1:  Iter=  3 NonCon=     1 RMS=2.55D-10 Max=2.29D-09 NDo=     1
 LinEq1:  Iter=  4 NonCon=     1 RMS=3.81D-11 Max=2.32D-10 NDo=     1
 LinEq1:  Iter=  5 NonCon=     0 RMS=1.06D-11 Max=9.85D-11 NDo=     1
 Linear equations converged to 2.224D-11 2.224D-10 after     5 iterations.
 Angle between quadratic step and gradient=  87.89 degrees.
     ILin= 1 X=0.000D+00 Y=-2.503360277333D+01 DE= 0.00D+00 F= -7.10D-12
     ILin= 2 X=1.000D+00 Y=-2.503360277333D+01 DE=-2.90D-12
 Iteration  18 EE= -25.0336027733337     Delta-E=       -0.000000000003 Grad=1.156D-06 Max rot=    0.0000 deg.
 QCNR:  CnvC1=1.16D-11 CnvC2=1.16D-10
 LinEq1:  Iter=  0 NonCon=     1 RMS=1.44D-08 Max=1.34D-07 NDo=     1
 LinEq1:  Iter=  1 NonCon=     1 RMS=5.10D-09 Max=4.65D-08 NDo=     1
 LinEq1:  Iter=  2 NonCon=     1 RMS=1.04D-09 Max=1.07D-08 NDo=     1
 LinEq1:  Iter=  3 NonCon=     1 RMS=2.59D-10 Max=2.89D-09 NDo=     1
 LinEq1:  Iter=  4 NonCon=     1 RMS=3.95D-11 Max=3.15D-10 NDo=     1
 LinEq1:  Iter=  5 NonCon=     1 RMS=1.14D-11 Max=1.30D-10 NDo=     1
 LinEq1:  Iter=  6 NonCon=     0 RMS=3.44D-12 Max=4.38D-11 NDo=     1
 Linear equations converged to 1.156D-11 1.156D-10 after     6 iterations.
 Angle between quadratic step and gradient=  80.18 degrees.
     ILin= 1 X=0.000D+00 Y=-2.503360277333D+01 DE= 0.00D+00 F= -2.25D-12
     ILin= 2 X=1.000D+00 Y=-2.503360277333D+01 DE=-1.17D-12
 Iteration  19 EE= -25.0336027733349     Delta-E=       -0.000000000001 Grad=1.327D-07 Max rot=    0.0000 deg.
 Rotation gradient small -- convergence achieved.
 Orbital symmetries in SymMO:
    1=1    2=1    3=1    4=4    5=3    6=1    7=1    8=3    9=4   10=1
   11=1   12=4   13=3   14=1   15=2   16=1   17=3   18=4   19=1   20=3
   21=4   22=1   23=1   24=4   25=3   26=1   27=2   28=1   29=4   30=3
   31=1   32=2   33=1   34=4   35=3   36=1   37=2   38=1   39=4   40=3
   41=4   42=3   43=1   44=1   45=3   46=4   47=1   48=1   49=2   50=4
   51=3   52=2   53=1   54=1   55=4   56=3   57=2   58=1   59=1   60=4
   61=3   62=4   63=3   64=1   65=2   66=1   67=4   68=3   69=4   70=3
   71=1   72=2   73=1   74=1   75=4   76=3   77=1   78=1   79=2   80=4
   81=3   82=4   83=3   84=1   85=1   86=3   87=4   88=1   89=2   90=1
   91=4   92=3   93=1   94=2   95=1   96=2   97=3   98=4   99=1  100=3
  101=4  102=3  103=4  104=2  105=1  106=3  107=4  108=1  109=1  110=3
  111=4  112=2  113=1  114=4  115=3  116=1  117=1  118=4  119=3  120=1
  121=2  122=1  123=4  124=3  125=1  126=1
 Orbital symmetries in SymMO:
    1=1    2=1    3=1    4=4    5=3    6=1    7=1    8=4    9=3   10=1
   11=1   12=3   13=4   14=2   15=1   16=1   17=4   18=3   19=1   20=4
   21=3   22=1   23=1   24=2   25=1   26=4   27=3   28=3   29=4   30=1
   31=1   32=2   33=3   34=4   35=1   36=1   37=2   38=1   39=4   40=3
   41=4   42=3   43=1   44=1   45=4   46=3   47=1   48=4   49=3   50=1
   51=2   52=2   53=1   54=1   55=3   56=4   57=1   58=3   59=4   60=1
   61=2   62=3   63=4   64=1   65=2   66=1   67=3   68=4   69=3   70=4
   71=1   72=2   73=1   74=1   75=4   76=3   77=1   78=1   79=2   80=4
   81=3   82=4   83=3   84=1   85=1   86=3   87=4   88=1   89=2   90=1
   91=4   92=3   93=1   94=2   95=1   96=2   97=4   98=3   99=1  100=4
  101=3  102=4  103=3  104=1  105=2  106=3  107=4  108=1  109=1  110=3
  111=4  112=1  113=2  114=4  115=3  116=1  117=1  118=4  119=3  120=1
  121=2  122=1  123=4  124=3  125=1  126=1
 SCF Done:  E(UHF) =  -25.0336027733     a.u. after   19 cycles
            Convg  =    0.1327D-06                   124 Fock formations.
              S**2 =  0.9832                  -V/T =  2.0003
 <Sx>= 0.0000 <Sy>= 0.0000 <Sz>= 0.0000 <S**2>= 0.9832 S= 0.6105
 <L.S>=  0.00000000000    
 Annihilation of the first spin contaminant:
 S**2 before annihilation     0.9832,   after     0.0826
 Leave Link  508 at Sun May 22 21:07:30 2022, MaxMem=   104857600 cpu:               5.9 elap:               5.9
 (Enter /apps/software/g16/l801.exe)
 Range of M.O.s used for correlation:     1   126
 NBasis=   126 NAE=     3 NBE=     3 NFC=     0 NFV=     0
 NROrb=    126 NOA=     3 NOB=     3 NVA=   123 NVB=   123
 Leave Link  801 at Sun May 22 21:07:30 2022, MaxMem=   104857600 cpu:               0.0 elap:               0.0
 (Enter /apps/software/g16/l914.exe)
 UHF ground state
 Doing stability rather than CIS.
 Keep R1 and R2 ints in memory in symmetry-blocked form, NReq=40144005.
 FoFCou: FMM=F IPFlag=           0 FMFlag=           0 FMFlg1=           0
         NFxFlg=           0 DoJE=F BraDBF=F KetDBF=F FulRan=T
         wScrn=  0.000000 ICntrl=       600 IOpCl=  0 I1Cent=           0 NGrid=           0
         NMat0=    1 NMatS0=   8001 NMatT0=    0 NMatD0=    1 NMtDS0=    0 NMtDT0=    0
 Petite list used in FoFCou.
 MDV=   104857600 DFT=F DoStab=T Mixed=F DoRPA=F DoScal=F NonHer=F
 Making orbital integer symmetry assigments:
 Orbital symmetries:
 Alpha Orbitals:
       Occupied  (SG) (SG) (SG)
       Virtual   (PI) (PI) (SG) (SG) (PI) (PI) (SG) (SG) (PI) (PI)
                 (DLTA) (DLTA) (SG) (PI) (PI) (SG) (PI) (PI) (SG)
                 (SG) (PHI) (PHI) (DLTA) (DLTA) (SG) (PI) (PI)
                 (DLTA) (DLTA) (SG) (PI) (PI) (SG) (DLTA) (DLTA)
                 (PI) (PI) (PI) (PI) (SG) (SG) (PI) (PI) (SG) (DLTA)
                 (DLTA) (PI) (PI) (?A) (?A) (SG) (PHI) (PHI) (DLTA)
                 (DLTA) (SG) (PHI) (PHI) (PI) (PI) (DLTA) (DLTA)
                 (SG) (PI) (PI) (PHI) (PHI) (DLTA) (DLTA) (SG)
                 (SG) (PI) (PI) (SG) (DLTA) (DLTA) (PI) (PI) (PI)
                 (PI) (SG) (SG) (PI) (PI) (SG) (?A) (?A) (PHI)
                 (PHI) (DLTA) (DLTA) (DLTA) (DLTA) (PI) (PI) (SG)
                 (PI) (PI) (PHI) (PHI) (DLTA) (DLTA) (PI) (PI)
                 (SG) (SG) (PHI) (PHI) (DLTA) (DLTA) (PI) (PI)
                 (SG) (SG) (PI) (PI) (SG) (DLTA) (DLTA) (PI) (PI)
                 (SG) (SG)
 Beta  Orbitals:
       Occupied  (SG) (SG) (SG)
       Virtual   (PI) (PI) (SG) (SG) (PI) (PI) (SG) (SG) (PI) (PI)
                 (DLTA) (DLTA) (SG) (PI) (PI) (SG) (PI) (PI) (SG)
                 (SG) (DLTA) (DLTA) (PHI) (PHI) (PI) (PI) (SG)
                 (DLTA) (DLTA) (PI) (PI) (SG) (SG) (DLTA) (DLTA)
                 (PI) (PI) (PI) (PI) (SG) (SG) (PI) (PI) (SG) (PI)
                 (PI) (DLTA) (DLTA) (?A) (?A) (SG) (PHI) (PHI)
                 (SG) (PI) (PI) (DLTA) (DLTA) (PHI) (PHI) (DLTA)
                 (DLTA) (SG) (PI) (PI) (PHI) (PHI) (DLTA) (DLTA)
                 (SG) (SG) (PI) (PI) (SG) (DLTA) (DLTA) (PI) (PI)
                 (PI) (PI) (SG) (SG) (PI) (PI) (SG) (?A) (?A) (PHI)
                 (PHI) (DLTA) (DLTA) (DLTA) (DLTA) (PI) (PI) (SG)
                 (PI) (PI) (PHI) (PHI) (DLTA) (DLTA) (PI) (PI)
                 (SG) (SG) (PHI) (PHI) (DLTA) (DLTA) (PI) (PI)
                 (SG) (SG) (PI) (PI) (SG) (DLTA) (DLTA) (PI) (PI)
                 (SG) (SG)
    12 initial guesses have been made.
 Convergence on wavefunction:    0.001000000000000
 Davidson Disk Diagonalization:  ConvIn= 1.00D-03 SkipCon=T Conv= 1.00D-03.
 Max sub-space:  1476 roots to seek:    12 dimension of matrix:          738
 Iteration     1 Dimension    12 NMult     0 NNew     12
 CISAX will form    12 AO SS matrices at one time.
 NMat=    12 NSing=    12 JSym2X= 2.
 New state      1 was old state      2
 Excitation Energies [eV] at current iteration:
 Root      1 :     0.516282128813772
 Root      2 :     0.563622351281016
 Root      3 :     1.249914554111855
 Root      4 :     1.250017017609114
 Root      5 :     5.156168731600249
 Root      6 :     6.053894196625190
 Root      7 :     6.588462517891863
 Root      8 :     7.242819302193885
 Root      9 :    11.354694261427484
 Root     10 :    11.354695504574721
 Root     11 :    11.757147111558336
 Root     12 :    11.757157903380103
 Iteration     2 Dimension    24 NMult    12 NNew     12
 CISAX will form    12 AO SS matrices at one time.
 NMat=    12 NSing=    12 JSym2X= 2.
 Root      1 not converged, maximum delta is    0.062358569467387
 Excitation Energies [eV] at current iteration:
 Root      1 :     0.038837701335954   Change is   -0.477444427477818
 Root      2 :     0.041653477528232   Change is   -0.521968873752784
 Root      3 :     0.819503515417379   Change is   -0.430411038694475
 Root      4 :     0.819523065815452   Change is   -0.430493951793662
 Root      5 :     4.630800610800154   Change is   -0.525368120800095
 Root      6 :     5.216749177275310   Change is   -0.837145019349880
 Root      7 :     6.065309134560779   Change is   -1.177510167633106
 Root      8 :     6.510047047986809   Change is   -0.078415469905054
 Root      9 :     8.443451828419164   Change is   -3.313695283139171
 Root     10 :     8.443813859599267   Change is   -3.313344043780835
 Root     11 :    10.096388526269497   Change is   -1.258306978305225
 Root     12 :    10.102857517723999   Change is   -1.251836743703485
 Iteration     3 Dimension    27 NMult    24 NNew      3
 CISAX will form     3 AO SS matrices at one time.
 NMat=     3 NSing=     3 JSym2X= 2.
 Root      1 not converged, maximum delta is    0.005095156666205
 Excitation Energies [eV] at current iteration:
 Root      1 :     0.032912803912754   Change is   -0.005924897423200
 Root      2 :     0.032969129428176   Change is   -0.008684348100057
 Root      3 :     0.807231994865189   Change is   -0.012271520552191
 Iteration     4 Dimension    30 NMult    27 NNew      3
 CISAX will form     3 AO SS matrices at one time.
 NMat=     3 NSing=     3 JSym2X= 2.
 Root      1 has converged.
 Excitation Energies [eV] at current iteration:
 Root      1 :     0.032850149923720   Change is   -0.000062653989034
 Root      2 :     0.032851157978118   Change is   -0.000117971450058
 Root      3 :     0.807066862523083   Change is   -0.000165132342105
 Convergence achieved on expansion vectors.
 ***********************************************************************
 Stability analysis using <AA,BB:AA,BB> singles matrix:
 ***********************************************************************
 1PDM for each excited state written to RWF  633
 Ground to excited state transition densities written to RWF  633

 Eigenvectors of the stability matrix:
 
 Excited state symmetry could not be determined.
 Eigenvector   1:  2.277-?Sym  Eigenvalue= 0.0012072  <S**2>=1.046
      3B ->  5B       -0.69398
      3B ->  9B        0.64428
      3B -> 21B        0.27802
 The wavefunction is stable under the perturbations considered.
 Leave Link  914 at Sun May 22 21:07:34 2022, MaxMem=   104857600 cpu:               3.9 elap:               3.9
 (Enter /apps/software/g16/l508.exe)
 The wavefunction is already stable.
 Leave Link  508 at Sun May 22 21:07:34 2022, MaxMem=   104857600 cpu:               0.0 elap:               0.0
 (Enter /apps/software/g16/l601.exe)
 Copying SCF densities to generalized density rwf, IOpCl= 1 IROHF=0.

 **********************************************************************

            Population analysis using the SCF density.

 **********************************************************************

 Orbital symmetries:
 Alpha Orbitals:
       Occupied  (SG) (SG) (SG)
       Virtual   (PI) (PI) (SG) (SG) (PI) (PI) (SG) (SG) (PI) (PI)
                 (DLTA) (DLTA) (SG) (PI) (PI) (SG) (PI) (PI) (SG)
                 (SG) (PHI) (PHI) (DLTA) (DLTA) (SG) (PI) (PI)
                 (DLTA) (DLTA) (SG) (PI) (PI) (SG) (DLTA) (DLTA)
                 (PI) (PI) (PI) (PI) (SG) (SG) (PI) (PI) (SG) (DLTA)
                 (DLTA) (PI) (PI) (?A) (?A) (SG) (PHI) (PHI) (DLTA)
                 (DLTA) (SG) (PHI) (PHI) (PI) (PI) (DLTA) (DLTA)
                 (SG) (PI) (PI) (PHI) (PHI) (DLTA) (DLTA) (SG)
                 (SG) (PI) (PI) (SG) (DLTA) (DLTA) (PI) (PI) (PI)
                 (PI) (SG) (SG) (PI) (PI) (SG) (?A) (?A) (PHI)
                 (PHI) (DLTA) (DLTA) (DLTA) (DLTA) (PI) (PI) (SG)
                 (PI) (PI) (PHI) (PHI) (DLTA) (DLTA) (PI) (PI)
                 (SG) (SG) (PHI) (PHI) (DLTA) (DLTA) (PI) (PI)
                 (SG) (SG) (PI) (PI) (SG) (DLTA) (DLTA) (PI) (PI)
                 (SG) (SG)
 Beta  Orbitals:
       Occupied  (SG) (SG) (SG)
       Virtual   (PI) (PI) (SG) (SG) (PI) (PI) (SG) (SG) (PI) (PI)
                 (DLTA) (DLTA) (SG) (PI) (PI) (SG) (PI) (PI) (SG)
                 (SG) (DLTA) (DLTA) (PHI) (PHI) (PI) (PI) (SG)
                 (DLTA) (DLTA) (PI) (PI) (SG) (SG) (DLTA) (DLTA)
                 (PI) (PI) (PI) (PI) (SG) (SG) (PI) (PI) (SG) (PI)
                 (PI) (DLTA) (DLTA) (?A) (?A) (SG) (PHI) (PHI)
                 (SG) (PI) (PI) (DLTA) (DLTA) (PHI) (PHI) (DLTA)
                 (DLTA) (SG) (PI) (PI) (PHI) (PHI) (DLTA) (DLTA)
                 (SG) (SG) (PI) (PI) (SG) (DLTA) (DLTA) (PI) (PI)
                 (PI) (PI) (SG) (SG) (PI) (PI) (SG) (?A) (?A) (PHI)
                 (PHI) (DLTA) (DLTA) (DLTA) (DLTA) (PI) (PI) (SG)
                 (PI) (PI) (PHI) (PHI) (DLTA) (DLTA) (PI) (PI)
                 (SG) (SG) (PHI) (PHI) (DLTA) (DLTA) (PI) (PI)
                 (SG) (SG) (PI) (PI) (SG) (DLTA) (DLTA) (PI) (PI)
                 (SG) (SG)
 The electronic state is 1-SG.
 Alpha  occ. eigenvalues --   -7.69063  -0.49040  -0.44609
 Alpha virt. eigenvalues --    0.02620   0.02620   0.04025   0.05485   0.08284
 Alpha virt. eigenvalues --    0.08284   0.08330   0.11465   0.14402   0.14402
 Alpha virt. eigenvalues --    0.14515   0.14515   0.18700   0.23061   0.23061
 Alpha virt. eigenvalues --    0.26637   0.32036   0.32036   0.35539   0.36236
 Alpha virt. eigenvalues --    0.46090   0.46090   0.46203   0.46203   0.46288
 Alpha virt. eigenvalues --    0.49621   0.49621   0.50030   0.50030   0.52690
 Alpha virt. eigenvalues --    0.52788   0.52788   0.59771   0.65452   0.65452
 Alpha virt. eigenvalues --    0.76196   0.76196   0.81544   0.81544   0.85462
 Alpha virt. eigenvalues --    0.94699   1.05752   1.05752   1.15166   1.36673
 Alpha virt. eigenvalues --    1.36673   1.36693   1.36693   1.36832   1.36832
 Alpha virt. eigenvalues --    1.37991   1.38104   1.38104   1.41381   1.41381
 Alpha virt. eigenvalues --    1.43635   1.43734   1.43734   1.45247   1.45247
 Alpha virt. eigenvalues --    1.46467   1.46467   1.51363   1.53581   1.53581
 Alpha virt. eigenvalues --    1.57195   1.57195   1.64481   1.64481   1.67711
 Alpha virt. eigenvalues --    1.74945   1.84478   1.84478   1.92110   2.47492
 Alpha virt. eigenvalues --    2.47492   2.57169   2.57169   2.59488   2.59488
 Alpha virt. eigenvalues --    2.68423   2.80782   3.74284   3.74284   3.85863
 Alpha virt. eigenvalues --    3.91803   3.91803   3.94331   3.94331   3.95861
 Alpha virt. eigenvalues --    3.95861   3.97204   3.97204   3.99632   3.99632
 Alpha virt. eigenvalues --    4.01362   4.06893   4.06893   4.08609   4.08609
 Alpha virt. eigenvalues --    4.12205   4.12205   4.16322   4.16322   4.21626
 Alpha virt. eigenvalues --    4.28691   6.56364   6.56364   6.57705   6.57705
 Alpha virt. eigenvalues --    6.63057   6.63057   6.67462   7.49177   7.96133
 Alpha virt. eigenvalues --    7.96133   8.10442   8.40849   8.40849   8.46916
 Alpha virt. eigenvalues --    8.46916   8.56819  13.11659
  Beta  occ. eigenvalues --   -7.70520  -0.54702  -0.31979
  Beta virt. eigenvalues --    0.02269   0.02269   0.02551   0.04763   0.07611
  Beta virt. eigenvalues --    0.07611   0.08257   0.10653   0.14468   0.14468
  Beta virt. eigenvalues --    0.14513   0.14513   0.18800   0.24597   0.24597
  Beta virt. eigenvalues --    0.26846   0.31288   0.31288   0.31674   0.36202
  Beta virt. eigenvalues --    0.45938   0.45938   0.46097   0.46097   0.47781
  Beta virt. eigenvalues --    0.47781   0.49493   0.49921   0.49921   0.51393
  Beta virt. eigenvalues --    0.51393   0.53440   0.59557   0.66623   0.66623
  Beta virt. eigenvalues --    0.79123   0.79123   0.85831   0.85831   0.89851
  Beta virt. eigenvalues --    0.93258   1.04863   1.04863   1.10196   1.35976
  Beta virt. eigenvalues --    1.35976   1.36182   1.36182   1.36859   1.36859
  Beta virt. eigenvalues --    1.36971   1.37609   1.37609   1.39523   1.40489
  Beta virt. eigenvalues --    1.40489   1.40822   1.40822   1.43684   1.43684
  Beta virt. eigenvalues --    1.44909   1.44909   1.48558   1.51402   1.51402
  Beta virt. eigenvalues --    1.58406   1.58406   1.65354   1.65354   1.70688
  Beta virt. eigenvalues --    1.80145   1.85030   1.85030   1.92767   2.51370
  Beta virt. eigenvalues --    2.51370   2.61333   2.61333   2.66240   2.66240
  Beta virt. eigenvalues --    2.72738   2.85384   3.73610   3.73610   3.81705
  Beta virt. eigenvalues --    3.91745   3.91745   3.93265   3.93265   3.95134
  Beta virt. eigenvalues --    3.95134   3.95616   3.95616   3.96044   3.96044
  Beta virt. eigenvalues --    3.97566   4.04697   4.04697   4.08363   4.08363
  Beta virt. eigenvalues --    4.10110   4.10110   4.13094   4.13094   4.18120
  Beta virt. eigenvalues --    4.25443   6.59225   6.59225   6.60548   6.60548
  Beta virt. eigenvalues --    6.65856   6.65856   6.70246   7.57158   8.01862
  Beta virt. eigenvalues --    8.01862   8.15974   8.45033   8.45033   8.51053
  Beta virt. eigenvalues --    8.51053   8.60903  13.10572
          Condensed to atoms (all electrons):
               1          2
     1  B    4.992186  -0.000196
     2  H   -0.000196   1.008205
          Atomic-Atomic Spin Densities.
               1          2
     1  B   -0.987887  -0.009032
     2  H   -0.009032   1.005951
 Mulliken charges and spin densities:
               1          2
     1  B    0.008009  -0.996919
     2  H   -0.008009   0.996919
 Sum of Mulliken charges =  -0.00000  -0.00000
 Mulliken charges and spin densities with hydrogens summed into heavy atoms:
               1          2
     1  B   -0.000000  -0.000000
 Electronic spatial extent (au):  <R**2>=             49.5920
 Charge=             -0.0000 electrons
 Dipole moment (field-independent basis, Debye):
    X=              0.0000    Y=              0.0000    Z=              0.1620  Tot=              0.1620
 Quadrupole moment (field-independent basis, Debye-Ang):
   XX=             -7.3142   YY=             -7.3142   ZZ=            -11.0873
   XY=              0.0000   XZ=              0.0000   YZ=              0.0000
 Traceless Quadrupole moment (field-independent basis, Debye-Ang):
   XX=              1.2577   YY=              1.2577   ZZ=             -2.5154
   XY=              0.0000   XZ=              0.0000   YZ=              0.0000
 Octapole moment (field-independent basis, Debye-Ang**2):
  XXX=              0.0000  YYY=              0.0000  ZZZ=             -2.3332  XYY=              0.0000
  XXY=              0.0000  XXZ=              0.5300  XZZ=              0.0000  YZZ=              0.0000
  YYZ=              0.5300  XYZ=              0.0000
 Hexadecapole moment (field-independent basis, Debye-Ang**3):
 XXXX=            -10.7431 YYYY=            -10.7431 ZZZZ=           -100.3977 XXXY=              0.0000
 XXXZ=              0.0000 YYYX=              0.0000 YYYZ=              0.0000 ZZZX=              0.0000
 ZZZY=              0.0000 XXYY=             -3.5810 XXZZ=            -16.8875 YYZZ=            -16.8875
 XXYZ=              0.0000 YYXZ=              0.0000 ZZXY=              0.0000
 N-N= 8.268393920625D-01 E-N=-5.954885872046D+01  KE= 2.502709967519D+01
 Symmetry A1   KE= 2.502709967519D+01
 Symmetry A2   KE= 0.000000000000D+00
 Symmetry B1   KE= 0.000000000000D+00
 Symmetry B2   KE= 0.000000000000D+00
 Symmetry A1   SP= 4.063016121849D-15
 Symmetry A2   SP= 0.000000000000D+00
 Symmetry B1   SP= 0.000000000000D+00
 Symmetry B2   SP= 0.000000000000D+00
                          Isotropic Fermi Contact Couplings
        Atom                 a.u.       MegaHertz       Gauss      10(-4) cm-1
     1  B(11)              0.01021       7.32001       2.61196       2.44169
     2  H(1)               0.29609     661.75259     236.12978     220.73690
 --------------------------------------------------------
       Center         ----  Spin Dipole Couplings  ----
                      3XX-RR        3YY-RR        3ZZ-RR
 --------------------------------------------------------
     1   Atom        0.322325      0.322325     -0.644651
     2   Atom        0.007070      0.007070     -0.014139
 --------------------------------------------------------
                        XY            XZ            YZ
 --------------------------------------------------------
     1   Atom        0.000000      0.000000      0.000000
     2   Atom        0.000000      0.000000      0.000000
 --------------------------------------------------------


 ---------------------------------------------------------------------------------
              Anisotropic Spin Dipole Couplings in Principal Axis System
 ---------------------------------------------------------------------------------

       Atom             a.u.   MegaHertz   Gauss  10(-4) cm-1        Axes

              Baa    -0.6447  -110.374   -39.384   -36.817  0.0000  0.0000  1.0000
     1 B(11)  Bbb     0.3223    55.187    19.692    18.408  1.0000  0.0000  0.0000
              Bcc     0.3223    55.187    19.692    18.408 -0.0000  1.0000  0.0000
 
              Baa    -0.0141    -7.544    -2.692    -2.516  0.0000  0.0000  1.0000
     2 H(1)   Bbb     0.0071     3.772     1.346     1.258 -0.0000  1.0000  0.0000
              Bcc     0.0071     3.772     1.346     1.258  1.0000  0.0000  0.0000
 

 ---------------------------------------------------------------------------------

 No NMR shielding tensors so no spin-rotation constants.
 Leave Link  601 at Sun May 22 21:07:34 2022, MaxMem=   104857600 cpu:               0.2 elap:               0.2
 (Enter /apps/software/g16/l9999.exe)
 1\1\GINC-CNODE01\Stability\UHF\Aug-CC-pVQZ\B1H1\LCZ\22-May-2022\0\\#p 
 UHF/aug-cc-pVQZ guess=mix stable=opt\\BH UHF at 3.2 Angstrom\\0,1\B,0,
 0.,0.,0.\H,0,3.2,0.,0.\\Version=ES64L-G16RevA.03\State=1-SG\HF=-25.033
 6028\S2=0.983178\S2-1=0.\S2A=0.082599\RMSD=4.885e-09\Dipole=-0.0637256
 ,0.,0.\Quadrupole=-1.8701388,0.9350694,0.9350694,0.,0.,0.\PG=C*V [C*(H
 1B1)]\\@


 TRUST EVERYONE, BUT CUT THE CARDS.
 Job cpu time:       0 days  0 hours  0 minutes 19.2 seconds.
 Elapsed time:       0 days  0 hours  0 minutes 19.2 seconds.
 File lengths (MBytes):  RWF=     33 Int=      0 D2E=      0 Chk=      4 Scr=      1
 Normal termination of Gaussian 16 at Sun May 22 21:07:35 2022.

Sender: Unischeduler System <lcz@mgt01>
Subject: Job 134355: <#!/bin/bash
#BSUB -J intel
#BSUB -o BH-3.2-UHF-G.out
#BSUB -n 8
#BSUB -q cqueue
#BSUB -R span[hosts=1]
export g16root=/apps/software
source /apps/software/g16/bsd/g16.profile
export GAUSS_SCRDIR=/scratch
/apps/software/g16/g16 < BH-3.2-UHF-G.inp > BH-3.2-UHF-G.out> Done

Job <#!/bin/bash
#BSUB -J intel
#BSUB -o BH-3.2-UHF-G.out
#BSUB -n 8
#BSUB -q cqueue
#BSUB -R span[hosts=1]
export g16root=/apps/software
source /apps/software/g16/bsd/g16.profile
export GAUSS_SCRDIR=/scratch
/apps/software/g16/g16 < BH-3.2-UHF-G.inp > BH-3.2-UHF-G.out> was submitted from host <mgt01> by user <lcz>.
Job was executed on host(s) <8*cnode01>, in queue <cqueue>, as user <lcz>.
</apps/users/lcz> was used as the home directory.
</apps/users/lcz/exe13/UCCSD_T> was used as the working directory.
Started at 2022-05-22 21:07:15
Results reported at 2022-05-22 21:07:35

Your job looked like:

------------------------------------------------------------
# User input
#!/bin/bash
#BSUB -J intel
#BSUB -o BH-3.2-UHF-G.out
#BSUB -n 8
#BSUB -q cqueue
#BSUB -R span[hosts=1]
export g16root=/apps/software
source /apps/software/g16/bsd/g16.profile
export GAUSS_SCRDIR=/scratch
/apps/software/g16/g16 < BH-3.2-UHF-G.inp > BH-3.2-UHF-G.out
------------------------------------------------------------

Successfully completed.

Resource usage summary:

    CPU time   :           14.41 sec.
    Max Memory :               483 MB
    Max Processes  :               5


The output (if any) follows:

