 Entering Gaussian System, Link 0=/apps/software/g16/g16
 Initial command:
 /apps/software/g16/l1.exe "/scratch/Gau-332378.inp" -scrdir="/scratch/"
 Entering Link 1 = /apps/software/g16/l1.exe PID=    332380.
  
 Copyright (c) 1988,1990,1992,1993,1995,1998,2003,2009,2016,
            Gaussian, Inc.  All Rights Reserved.
  
 This is part of the Gaussian(R) 16 program.  It is based on
 the Gaussian(R) 09 system (copyright 2009, Gaussian, Inc.),
 the Gaussian(R) 03 system (copyright 2003, Gaussian, Inc.),
 the Gaussian(R) 98 system (copyright 1998, Gaussian, Inc.),
 the Gaussian(R) 94 system (copyright 1995, Gaussian, Inc.),
 the Gaussian 92(TM) system (copyright 1992, Gaussian, Inc.),
 the Gaussian 90(TM) system (copyright 1990, Gaussian, Inc.),
 the Gaussian 88(TM) system (copyright 1988, Gaussian, Inc.),
 the Gaussian 86(TM) system (copyright 1986, Carnegie Mellon
 University), and the Gaussian 82(TM) system (copyright 1983,
 Carnegie Mellon University). Gaussian is a federally registered
 trademark of Gaussian, Inc.
  
 This software contains proprietary and confidential information,
 including trade secrets, belonging to Gaussian, Inc.
  
 This software is provided under written license and may be
 used, copied, transmitted, or stored only in accord with that
 written license.
  
 The following legend is applicable only to US Government
 contracts under FAR:
  
                    RESTRICTED RIGHTS LEGEND
  
 Use, reproduction and disclosure by the US Government is
 subject to restrictions as set forth in subparagraphs (a)
 and (c) of the Commercial Computer Software - Restricted
 Rights clause in FAR 52.227-19.
  
 Gaussian, Inc.
 340 Quinnipiac St., Bldg. 40, Wallingford CT 06492
  
  
 ---------------------------------------------------------------
 Warning -- This program may not be used in any manner that
 competes with the business of Gaussian, Inc. or will provide
 assistance to any competitor of Gaussian, Inc.  The licensee
 of this program is prohibited from giving any competitor of
 Gaussian, Inc. access to this program.  By using this program,
 the user acknowledges that Gaussian, Inc. is engaged in the
 business of creating and licensing software in the field of
 computational chemistry and represents and warrants to the
 licensee that it is not a competitor of Gaussian, Inc. and that
 it will not use this program in any manner prohibited above.
 ---------------------------------------------------------------
  

 Cite this work as:
 Gaussian 16, Revision A.03,
 M. J. Frisch, G. W. Trucks, H. B. Schlegel, G. E. Scuseria, 
 M. A. Robb, J. R. Cheeseman, G. Scalmani, V. Barone, 
 G. A. Petersson, H. Nakatsuji, X. Li, M. Caricato, A. V. Marenich, 
 J. Bloino, B. G. Janesko, R. Gomperts, B. Mennucci, H. P. Hratchian, 
 J. V. Ortiz, A. F. Izmaylov, J. L. Sonnenberg, D. Williams-Young, 
 F. Ding, F. Lipparini, F. Egidi, J. Goings, B. Peng, A. Petrone, 
 T. Henderson, D. Ranasinghe, V. G. Zakrzewski, J. Gao, N. Rega, 
 G. Zheng, W. Liang, M. Hada, M. Ehara, K. Toyota, R. Fukuda, 
 J. Hasegawa, M. Ishida, T. Nakajima, Y. Honda, O. Kitao, H. Nakai, 
 T. Vreven, K. Throssell, J. A. Montgomery, Jr., J. E. Peralta, 
 F. Ogliaro, M. J. Bearpark, J. J. Heyd, E. N. Brothers, K. N. Kudin, 
 V. N. Staroverov, T. A. Keith, R. Kobayashi, J. Normand, 
 K. Raghavachari, A. P. Rendell, J. C. Burant, S. S. Iyengar, 
 J. Tomasi, M. Cossi, J. M. Millam, M. Klene, C. Adamo, R. Cammi, 
 J. W. Ochterski, R. L. Martin, K. Morokuma, O. Farkas, 
 J. B. Foresman, and D. J. Fox, Gaussian, Inc., Wallingford CT, 2016.
 
 ******************************************
 Gaussian 16:  ES64L-G16RevA.03 25-Dec-2016
                22-May-2022 
 ******************************************
 %oldchk=BH-3.4-UHF-G.chk
 %chk=BH-3.4-UCCSD_T-G.chk
 Copying data from "BH-3.4-UHF-G.chk" to current chk file "BH-3.4-UCCSD_T-G.chk"
 IOpt=  2 FromEx=T IUOpen= 4 IOptOp= 5 NList=   0 IFRang= 0 IUIn= 4 IUOut= 2.
 ----------------------------------------
 #p UHF/aug-cc-pVQZ guess=read CCSD(T,FC)
 ----------------------------------------
 1/38=1,172=1/1;
 2/12=2,17=6,18=5,40=1/2;
 3/5=16,6=2,7=10,11=2,25=1,30=1,116=2/1,2,3;
 4/5=1/1;
 5/5=2,38=6/2;
 8/6=4,9=120000,10=1/1,4;
 9/5=7,14=2/13;
 6/7=2,8=2,9=2,10=2/1;
 99/5=1,9=1/99;
 Leave Link    1 at Sun May 22 21:09:55 2022, MaxMem=   104857600 cpu:               0.0 elap:               0.0
 (Enter /apps/software/g16/l101.exe)
 ------------------------
 BH UCCSD at 3.4 Angstrom
 ------------------------
 Symbolic Z-matrix:
 Charge =  0 Multiplicity = 1
 B                     0.        0.        0. 
 H                     3.4       0.        0. 
 
 ITRead=  0  0
 MicOpt= -1 -1
 NAtoms=      2 NQM=        2 NQMF=       0 NMMI=      0 NMMIF=      0
                NMic=       0 NMicF=      0.
                    Isotopes and Nuclear Properties:
 (Nuclear quadrupole moments (NQMom) in fm**2, nuclear magnetic moments (NMagM)
  in nuclear magnetons)

  Atom         1           2
 IAtWgt=          11           1
 AtmWgt=  11.0093053   1.0078250
 NucSpn=           3           1
 AtZEff=  -0.0000000  -0.0000000
 NQMom=    4.0590000   0.0000000
 NMagM=    2.6886370   2.7928460
 AtZNuc=   5.0000000   1.0000000
 Leave Link  101 at Sun May 22 21:09:55 2022, MaxMem=   104857600 cpu:               0.1 elap:               0.1
 (Enter /apps/software/g16/l202.exe)
                          Input orientation:                          
 ---------------------------------------------------------------------
 Center     Atomic      Atomic             Coordinates (Angstroms)
 Number     Number       Type             X           Y           Z
 ---------------------------------------------------------------------
      1          5           0        0.000000    0.000000    0.000000
      2          1           0        3.400000    0.000000    0.000000
 ---------------------------------------------------------------------
 Stoichiometry    BH
 Framework group  C*V[C*(HB)]
 Deg. of freedom     1
 Full point group                 C*V     NOp   4
 Largest Abelian subgroup         C2V     NOp   4
 Largest concise Abelian subgroup C1      NOp   1
                         Standard orientation:                         
 ---------------------------------------------------------------------
 Center     Atomic      Atomic             Coordinates (Angstroms)
 Number     Number       Type             X           Y           Z
 ---------------------------------------------------------------------
      1          5           0        0.000000    0.000000    0.566667
      2          1           0        0.000000    0.000000   -2.833333
 ---------------------------------------------------------------------
 Rotational constants (GHZ):           0.0000000          47.3494653          47.3494653
 Leave Link  202 at Sun May 22 21:09:55 2022, MaxMem=   104857600 cpu:               0.0 elap:               0.0
 (Enter /apps/software/g16/l301.exe)
 Standard basis: Aug-CC-pVQZ (5D, 7F)
 Ernie: Thresh=  0.10000D-02 Tol=  0.10000D-05 Strict=F.
 Ernie:  4 primitive shells out of 54 were deleted.
 There are    68 symmetry adapted cartesian basis functions of A1  symmetry.
 There are    18 symmetry adapted cartesian basis functions of A2  symmetry.
 There are    37 symmetry adapted cartesian basis functions of B1  symmetry.
 There are    37 symmetry adapted cartesian basis functions of B2  symmetry.
 There are    50 symmetry adapted basis functions of A1  symmetry.
 There are    16 symmetry adapted basis functions of A2  symmetry.
 There are    30 symmetry adapted basis functions of B1  symmetry.
 There are    30 symmetry adapted basis functions of B2  symmetry.
   126 basis functions,   180 primitive gaussians,   160 cartesian basis functions
     3 alpha electrons        3 beta electrons
       nuclear repulsion energy         0.7782017808 Hartrees.
 IExCor=    0 DFT=F Ex=HF Corr=None ExCW=0 ScaHFX=  1.000000
 ScaDFX=  1.000000  1.000000  1.000000  1.000000 ScalE2=  1.000000  1.000000
 IRadAn=      5 IRanWt=     -1 IRanGd=            0 ICorTp=0 IEmpDi=  4
 NAtoms=    2 NActive=    2 NUniq=    2 SFac= 1.00D+00 NAtFMM=   60 NAOKFM=F Big=F
 Integral buffers will be    131072 words long.
 Raffenetti 2 integral format.
 Two-electron integral symmetry is turned on.
 Leave Link  301 at Sun May 22 21:09:55 2022, MaxMem=   104857600 cpu:               0.0 elap:               0.0
 (Enter /apps/software/g16/l302.exe)
 NPDir=0 NMtPBC=     1 NCelOv=     1 NCel=       1 NClECP=     1 NCelD=      1
         NCelK=      1 NCelE2=     1 NClLst=     1 CellRange=     0.0.
 One-electron integrals computed using PRISM.
 One-electron integral symmetry used in STVInt
 NBasis=   126 RedAO= T EigKep=  4.97D-03  NBF=    50    16    30    30
 NBsUse=   126 1.00D-06 EigRej= -1.00D+00 NBFU=    50    16    30    30
 Leave Link  302 at Sun May 22 21:09:56 2022, MaxMem=   104857600 cpu:               0.1 elap:               0.1
 (Enter /apps/software/g16/l303.exe)
 DipDrv:  MaxL=1.
 Leave Link  303 at Sun May 22 21:09:56 2022, MaxMem=   104857600 cpu:               0.0 elap:               0.0
 (Enter /apps/software/g16/l401.exe)
 Initial guess from the checkpoint file:  "BH-3.4-UCCSD_T-G.chk"
 B after Tr=     0.000000    0.000000    0.000000
         Rot=    1.000000    0.000000    0.000000    0.000000 Ang=   0.00 deg.
 Guess basis will be translated and rotated to current coordinates.
 JPrj=2 DoOrth=T DoCkMO=T.
 Initial guess orbital symmetries:
 Alpha Orbitals:
       Occupied  (SG) (SG) (SG)
       Virtual   (PI) (PI) (SG) (SG) (SG) (PI) (PI) (SG) (PI) (PI)
                 (DLTA) (DLTA) (SG) (PI) (PI) (SG) (PI) (PI) (SG)
                 (SG) (SG) (PHI) (PHI) (DLTA) (DLTA) (PI) (PI)
                 (DLTA) (DLTA) (SG) (PI) (PI) (SG) (DLTA) (DLTA)
                 (PI) (PI) (PI) (PI) (SG) (SG) (PI) (PI) (SG) (PI)
                 (PI) (?A) (?A) (DLTA) (DLTA) (SG) (PHI) (PHI)
                 (DLTA) (DLTA) (SG) (PHI) (PHI) (PI) (PI) (DLTA)
                 (DLTA) (SG) (PI) (PI) (PHI) (PHI) (DLTA) (DLTA)
                 (SG) (SG) (PI) (PI) (SG) (DLTA) (DLTA) (PI) (PI)
                 (PI) (PI) (SG) (SG) (PI) (PI) (SG) (?A) (?A) (PHI)
                 (PHI) (DLTA) (DLTA) (DLTA) (DLTA) (PI) (PI) (SG)
                 (PI) (PI) (PHI) (PHI) (DLTA) (DLTA) (PI) (PI)
                 (SG) (SG) (PHI) (PHI) (DLTA) (DLTA) (PI) (PI)
                 (SG) (SG) (PI) (PI) (SG) (DLTA) (DLTA) (PI) (PI)
                 (SG) (SG)
 Beta  Orbitals:
       Occupied  (SG) (SG) (SG)
       Virtual   (PI) (PI) (SG) (SG) (PI) (PI) (SG) (SG) (PI) (PI)
                 (DLTA) (DLTA) (SG) (PI) (PI) (SG) (PI) (PI) (SG)
                 (SG) (DLTA) (DLTA) (PHI) (PHI) (PI) (PI) (SG)
                 (DLTA) (DLTA) (PI) (PI) (SG) (SG) (DLTA) (DLTA)
                 (PI) (PI) (PI) (PI) (SG) (SG) (PI) (PI) (SG) (PI)
                 (PI) (SG) (?A) (?A) (DLTA) (DLTA) (PHI) (PHI)
                 (SG) (PI) (PI) (DLTA) (DLTA) (PHI) (PHI) (DLTA)
                 (DLTA) (SG) (PI) (PI) (PHI) (PHI) (DLTA) (DLTA)
                 (SG) (SG) (PI) (PI) (SG) (DLTA) (DLTA) (PI) (PI)
                 (PI) (PI) (SG) (SG) (PI) (PI) (SG) (?A) (?A) (PHI)
                 (PHI) (DLTA) (DLTA) (DLTA) (DLTA) (PI) (PI) (SG)
                 (PI) (PI) (PHI) (PHI) (DLTA) (DLTA) (PI) (PI)
                 (SG) (SG) (PHI) (PHI) (DLTA) (DLTA) (PI) (PI)
                 (SG) (SG) (PI) (PI) (SG) (DLTA) (DLTA) (PI) (PI)
                 (SG) (SG)
 The electronic state of the initial guess is 1-SG.
 Initial guess <Sx>= 0.0000 <Sy>= 0.0000 <Sz>= 0.0000 <S**2>= 0.9943 S= 0.6155
 Leave Link  401 at Sun May 22 21:09:56 2022, MaxMem=   104857600 cpu:               0.1 elap:               0.1
 (Enter /apps/software/g16/l502.exe)
 Keep R1 and R2 ints in memory in symmetry-blocked form, NReq=40143665.
 FoFCou: FMM=F IPFlag=           0 FMFlag=           0 FMFlg1=           0
         NFxFlg=           0 DoJE=F BraDBF=F KetDBF=F FulRan=T
         wScrn=  0.000000 ICntrl=       600 IOpCl=  0 I1Cent=           0 NGrid=           0
         NMat0=    1 NMatS0=   8001 NMatT0=    0 NMatD0=    1 NMtDS0=    0 NMtDT0=    0
 Petite list used in FoFCou.
 UHF open shell SCF:
 Using DIIS extrapolation, IDIIS=  1040.
 NGot=   104857600 LenX=    88563632 LenY=    88537591
 Requested convergence on RMS density matrix=1.00D-08 within 128 cycles.
 Requested convergence on MAX density matrix=1.00D-06.
 Requested convergence on             energy=1.00D-06.
 No special actions if energy rises.

 Cycle   1  Pass 1  IDiag  1:
 E= -25.0333195152131    
 DIIS: error= 2.59D-08 at cycle   1 NSaved=   1.
 NSaved= 1 IEnMin= 1 EnMin= -25.0333195152131     IErMin= 1 ErrMin= 2.59D-08
 ErrMax= 2.59D-08  0.00D+00 EMaxC= 1.00D-01 BMatC= 1.15D-13 BMatP= 1.15D-13
 IDIUse=1 WtCom= 1.00D+00 WtEn= 0.00D+00
 Coeff-Com:  0.100D+01
 Coeff:      0.100D+01
 Gap=     0.473 Goal=   None    Shift=    0.000
 Gap=     0.342 Goal=   None    Shift=    0.000
 RMSDP=7.75D-10 MaxDP=2.70D-08              OVMax= 2.15D-08

 SCF Done:  E(UHF) =  -25.0333195152     A.U. after    1 cycles
            NFock=  1  Conv=0.77D-09     -V/T= 2.0002
 <Sx>= 0.0000 <Sy>= 0.0000 <Sz>= 0.0000 <S**2>= 0.9943 S= 0.6155
 <L.S>=  0.00000000000    
 KE= 2.502918819235D+01 PE=-5.945562609031D+01 EE= 8.614916601974D+00
 Annihilation of the first spin contaminant:
 S**2 before annihilation     0.9943,   after     0.0853
 Leave Link  502 at Sun May 22 21:10:00 2022, MaxMem=   104857600 cpu:               3.9 elap:               3.9
 (Enter /apps/software/g16/l801.exe)
 Windowed orbitals will be sorted by symmetry type.
 ExpMin= 1.88D-02 ExpMax= 2.39D+04 ExpMxC= 2.30D+02 IAcc=3 IRadAn=         5 AccDes= 0.00D+00
 HarFok:  IExCor=  205 AccDes= 0.00D+00 IRadAn=         5 IDoV=-2 UseB2=F ITyADJ=14
 ICtDFT= 12500011 ScaDFX=  1.000000  1.000000  1.000000  1.000000
 DSYEVD-2 returned Info=        3401 IAlg= 4 N=    80 NDim=    80 NE2=     1309686 trying  DSYEV.
 Largest valence mixing into a core orbital is  4.07D-04
 Largest core mixing into a valence orbital is  1.52D-04
 Largest valence mixing into a core orbital is  3.10D-04
 Largest core mixing into a valence orbital is  1.07D-04
 Range of M.O.s used for correlation:     2   126
 NBasis=   126 NAE=     3 NBE=     3 NFC=     1 NFV=     0
 NROrb=    125 NOA=     2 NOB=     2 NVA=   123 NVB=   123
 Leave Link  801 at Sun May 22 21:10:00 2022, MaxMem=   104857600 cpu:               0.1 elap:               0.1
 (Enter /apps/software/g16/l804.exe)
 Open-shell transformation, MDV=   104857600 ITran=4 ISComp=2.
 Unit  1 TFree=        991730 TCopy=        422292.
 Semi-Direct transformation.
 ModeAB=           2 MOrb=             2 LenV=     104170339
 LASXX=       493564 LTotXX=      493564 LenRXX=      493564
 LTotAB=      510115 MaxLAS=     3220000 LenRXY=     3220000
 NonZer=     3351250 LenScr=     5742592 LnRSAI=           0
 LnScr1=           0 LExtra=           0 Total=      9456156
 MaxDsk=          -1 SrtSym=           F ITran=            4
 DoSDTr:  NPSUse=  1
 JobTyp=1 Pass  1:  I=   1 to   2.
 (rs|ai) integrals will be sorted in core.
 Complete sort for first half transformation.
 First half transformation complete.
 Complete sort for second half transformation.
 Second half transformation complete.
 ModeAB=           2 MOrb=             2 LenV=     104170339
 LASXX=       493564 LTotXX=      493564 LenRXX=     3220000
 LTotAB=      492482 MaxLAS=     3220000 LenRXY=      492482
 NonZer=     3351250 LenScr=     5742592 LnRSAI=           0
 LnScr1=           0 LExtra=           0 Total=      9455074
 MaxDsk=          -1 SrtSym=           F ITran=            4
 DoSDTr:  NPSUse=  1
 JobTyp=2 Pass  1:  I=   1 to   2.
 (rs|ai) integrals will be sorted in core.
 Complete sort for first half transformation.
 First half transformation complete.
 Complete sort for second half transformation.
 Second half transformation complete.
 Spin components of T(2) and E(2):
     alpha-alpha T2 =       0.8163085848D-04 E2=     -0.1263816991D-03
     alpha-beta  T2 =       0.2541229023D-01 E2=     -0.4447178244D-01
     beta-beta   T2 =       0.1689631432D-02 E2=     -0.3439075661D-02
 ANorm=    0.1013500643D+01
 E2 =    -0.4803723980D-01 EUMP2 =    -0.25081356755009D+02
 (S**2,0)=  0.99428D+00           (S**2,1)=  0.98098D+00
 E(PUHF)=      -0.25042914933D+02        E(PMP2)=      -0.25090890702D+02
 Leave Link  804 at Sun May 22 21:10:11 2022, MaxMem=   104857600 cpu:              11.5 elap:              11.5
 (Enter /apps/software/g16/l913.exe)
 CIDS:  MDV=   104857600.
 Frozen-core window:  NFC=   1 NFV=   0.
 IFCWin=0 IBDFC=1 NFBD=     0     0 NFCmp=     0     0 NFFFC=     0     0
 Using original routines for 1st iteration.
 Using DD4UQ or CC4UQ for 2nd and later iterations.
 Keep R2 and R3 ints in memory in symmetry-blocked form, NReq=40147367.
 FoFCou: FMM=F IPFlag=           0 FMFlag=           0 FMFlg1=           0
         NFxFlg=           0 DoJE=F BraDBF=F KetDBF=F FulRan=T
         wScrn=  0.000000 ICntrl=       600 IOpCl=  0 I1Cent=           0 NGrid=           0
         NMat0=    1 NMatS0=   8001 NMatT0=    0 NMatD0=    1 NMtDS0=    0 NMtDT0=    0
 Petite list used in FoFCou.
 CIDS: In Core Option IDoMem=           1.
 CCSD(T)
 =======
 Iterations=  50 Convergence= 0.100D-06
 Produce multiple copies of IABC intergrals
 Iteration Nr.   1
 **********************
 DD1Dir will call FoFMem   1 times, MxPair=        10
 NAB=     4 NAA=     1 NBB=     1.
 E(PMP3)=      -0.25102750921D+02
 MP4(R+Q)=  0.12865072D-02
 Maximum subspace dimension=  5
 A-vector RMS=  2.0162346D-03 Max=  1.4855253D-02 conv= 1.00D-05.
 RLE energy=       -0.0616865090
 E3=       -0.11918722D-01        EUMP3=      -0.25093275477D+02
 E4(DQ)=   -0.41014510D-02        UMP4(DQ)=   -0.25097376928D+02
 E4(SDQ)=  -0.44203462D-02        UMP4(SDQ)=  -0.25097695823D+02
 VARIATIONAL ENERGIES WITH THE FIRST-ORDER WAVEFUNCTION:
 DE(Corr)= -0.58666359E-01 E(Corr)=     -25.091985874    
 NORM(A)=   0.10265512D+01
 Iteration Nr.   2
 **********************
 DD1Dir will call FoFMem   1 times, MxPair=        10
 NAB=     4 NAA=     1 NBB=     1.
 A-vector RMS=  8.1501701D-04 Max=  6.0065932D-03 conv= 1.00D-05.
 RLE energy=       -0.0672007895
 DE(Corr)= -0.64439155E-01 E(CORR)=     -25.097758670     Delta=-5.77D-03
 NORM(A)=   0.10349205D+01
 Iteration Nr.   3
 **********************
 DD1Dir will call FoFMem   1 times, MxPair=        10
 NAB=     4 NAA=     1 NBB=     1.
 A-vector RMS=  3.8162772D-04 Max=  2.4939822D-03 conv= 1.00D-05.
 RLE energy=       -0.0676021892
 DE(Corr)= -0.67190503E-01 E(CORR)=     -25.100510018     Delta=-2.75D-03
 NORM(A)=   0.10365274D+01
 Iteration Nr.   4
 **********************
 DD1Dir will call FoFMem   1 times, MxPair=        10
 NAB=     4 NAA=     1 NBB=     1.
 A-vector RMS=  1.4472467D-04 Max=  1.1684816D-03 conv= 1.00D-05.
 RLE energy=       -0.0677606149
 DE(Corr)= -0.67642641E-01 E(CORR)=     -25.100962157     Delta=-4.52D-04
 NORM(A)=   0.10370191D+01
 Iteration Nr.   5
 **********************
 DD1Dir will call FoFMem   1 times, MxPair=        10
 NAB=     4 NAA=     1 NBB=     1.
 A-vector RMS=  1.1616405D-04 Max=  9.7680058D-04 conv= 1.00D-05.
 RLE energy=       -0.0677520350
 DE(Corr)= -0.67737648E-01 E(CORR)=     -25.101057164     Delta=-9.50D-05
 NORM(A)=   0.10373413D+01
 Iteration Nr.   6
 **********************
 DD1Dir will call FoFMem   1 times, MxPair=        10
 NAB=     4 NAA=     1 NBB=     1.
 A-vector RMS=  5.8571303D-05 Max=  9.0737529D-04 conv= 1.00D-05.
 RLE energy=       -0.0678115963
 DE(Corr)= -0.67759196E-01 E(CORR)=     -25.101078711     Delta=-2.15D-05
 NORM(A)=   0.10380140D+01
 Iteration Nr.   7
 **********************
 DD1Dir will call FoFMem   1 times, MxPair=        10
 NAB=     4 NAA=     1 NBB=     1.
 A-vector RMS=  8.3845595D-05 Max=  7.3472549D-04 conv= 1.00D-05.
 RLE energy=       -0.0678950331
 DE(Corr)= -0.67802934E-01 E(CORR)=     -25.101122450     Delta=-4.37D-05
 NORM(A)=   0.10389220D+01
 Iteration Nr.   8
 **********************
 DD1Dir will call FoFMem   1 times, MxPair=        10
 NAB=     4 NAA=     1 NBB=     1.
 A-vector RMS=  1.0983302D-04 Max=  9.1643015D-04 conv= 1.00D-05.
 RLE energy=       -0.0679249178
 DE(Corr)= -0.67867048E-01 E(CORR)=     -25.101186563     Delta=-6.41D-05
 NORM(A)=   0.10398876D+01
 Iteration Nr.   9
 **********************
 DD1Dir will call FoFMem   1 times, MxPair=        10
 NAB=     4 NAA=     1 NBB=     1.
 A-vector RMS=  6.2275221D-05 Max=  4.4087627D-04 conv= 1.00D-05.
 RLE energy=       -0.0679233811
 DE(Corr)= -0.67911859E-01 E(CORR)=     -25.101231374     Delta=-4.48D-05
 NORM(A)=   0.10404026D+01
 Iteration Nr.  10
 **********************
 DD1Dir will call FoFMem   1 times, MxPair=        10
 NAB=     4 NAA=     1 NBB=     1.
 A-vector RMS=  2.5071732D-05 Max=  1.2586911D-04 conv= 1.00D-05.
 RLE energy=       -0.0679011017
 DE(Corr)= -0.67913766E-01 E(CORR)=     -25.101233281     Delta=-1.91D-06
 NORM(A)=   0.10404620D+01
 Iteration Nr.  11
 **********************
 DD1Dir will call FoFMem   1 times, MxPair=        10
 NAB=     4 NAA=     1 NBB=     1.
 A-vector RMS=  1.3108343D-05 Max=  8.9739367D-05 conv= 1.00D-05.
 RLE energy=       -0.0678929306
 DE(Corr)= -0.67900341E-01 E(CORR)=     -25.101219856     Delta= 1.34D-05
 NORM(A)=   0.10404663D+01
 Iteration Nr.  12
 **********************
 DD1Dir will call FoFMem   1 times, MxPair=        10
 NAB=     4 NAA=     1 NBB=     1.
 A-vector RMS=  5.7195642D-06 Max=  5.4783848D-05 conv= 1.00D-05.
 RLE energy=       -0.0678907819
 DE(Corr)= -0.67893129E-01 E(CORR)=     -25.101212644     Delta= 7.21D-06
 NORM(A)=   0.10404637D+01
 Iteration Nr.  13
 **********************
 DD1Dir will call FoFMem   1 times, MxPair=        10
 NAB=     4 NAA=     1 NBB=     1.
 A-vector RMS=  2.8917568D-06 Max=  3.1516887D-05 conv= 1.00D-05.
 RLE energy=       -0.0678911450
 DE(Corr)= -0.67891397E-01 E(CORR)=     -25.101210913     Delta= 1.73D-06
 NORM(A)=   0.10404636D+01
 Iteration Nr.  14
 **********************
 DD1Dir will call FoFMem   1 times, MxPair=        10
 NAB=     4 NAA=     1 NBB=     1.
 A-vector RMS=  1.4448218D-06 Max=  1.5885277D-05 conv= 1.00D-05.
 RLE energy=       -0.0678914686
 DE(Corr)= -0.67891343E-01 E(CORR)=     -25.101210859     Delta= 5.41D-08
 NORM(A)=   0.10404617D+01
 Iteration Nr.  15
 **********************
 DD1Dir will call FoFMem   1 times, MxPair=        10
 NAB=     4 NAA=     1 NBB=     1.
 A-vector RMS=  1.3118433D-06 Max=  8.5253644D-06 conv= 1.00D-05.
 RLE energy=       -0.0678916586
 DE(Corr)= -0.67891582E-01 E(CORR)=     -25.101211097     Delta=-2.39D-07
 NORM(A)=   0.10404596D+01
 Iteration Nr.  16
 **********************
 DD1Dir will call FoFMem   1 times, MxPair=        10
 NAB=     4 NAA=     1 NBB=     1.
 A-vector RMS=  8.2904777D-07 Max=  6.6091048D-06 conv= 1.00D-05.
 RLE energy=       -0.0678916016
 DE(Corr)= -0.67891700E-01 E(CORR)=     -25.101211215     Delta=-1.18D-07
 NORM(A)=   0.10404570D+01
 Iteration Nr.  17
 **********************
 DD1Dir will call FoFMem   1 times, MxPair=        10
 NAB=     4 NAA=     1 NBB=     1.
 A-vector RMS=  4.9605491D-07 Max=  3.6031902D-06 conv= 1.00D-05.
 RLE energy=       -0.0678914359
 DE(Corr)= -0.67891625E-01 E(CORR)=     -25.101211140     Delta= 7.56D-08
 NORM(A)=   0.10404543D+01
 CI/CC converged in   17 iterations to DelEn= 7.56D-08 Conv= 1.00D-07 ErrA1= 4.96D-07 Conv= 1.00D-05
 Wavefunction amplitudes converged. E(Corr)=     -25.101211140    
 Largest amplitude= 6.87D-02
 Time for triples=        2.75 seconds.
 T4(CCSD)= -0.17009995D-02
 T5(CCSD)=  0.28690999D-04
 CCSD(T)= -0.25102883448D+02

 S**2, projected HF & approx projected MPn energies after annihilation of
 unwanted spin states (see manual for definitions):

 spins       (S**2,0) (S**2,1)    PUHF        PMP2        PMP3        PMP4
 annihilated
 s+1        -0.04357 -0.00819  -25.042915  -25.090891  -25.102751
 s+1,s+2     0.00000 -0.00000  -25.038028  -25.086047  -25.097946

 Discarding MO integrals.
 Leave Link  913 at Sun May 22 21:10:19 2022, MaxMem=   104857600 cpu:               8.1 elap:               8.1
 (Enter /apps/software/g16/l601.exe)
 Copying SCF densities to generalized density rwf, IOpCl= 1 IROHF=0.

 **********************************************************************

            Population analysis using the SCF density.

 **********************************************************************

 Orbital symmetries:
 Alpha Orbitals:
       Occupied  (SG) (SG) (SG)
       Virtual   (PI) (PI) (SG) (SG) (SG) (PI) (PI) (SG) (PI) (PI)
                 (DLTA) (DLTA) (SG) (PI) (PI) (SG) (PI) (PI) (SG)
                 (SG) (SG) (PHI) (PHI) (DLTA) (DLTA) (PI) (PI)
                 (DLTA) (DLTA) (SG) (PI) (PI) (SG) (DLTA) (DLTA)
                 (PI) (PI) (PI) (PI) (SG) (SG) (PI) (PI) (SG) (PI)
                 (PI) (?A) (?A) (DLTA) (DLTA) (SG) (PHI) (PHI)
                 (DLTA) (DLTA) (SG) (PHI) (PHI) (PI) (PI) (DLTA)
                 (DLTA) (SG) (PI) (PI) (PHI) (PHI) (DLTA) (DLTA)
                 (SG) (SG) (PI) (PI) (SG) (DLTA) (DLTA) (PI) (PI)
                 (PI) (PI) (SG) (SG) (PI) (PI) (SG) (?A) (?A) (PHI)
                 (PHI) (DLTA) (DLTA) (DLTA) (DLTA) (PI) (PI) (SG)
                 (PI) (PI) (PHI) (PHI) (DLTA) (DLTA) (PI) (PI)
                 (SG) (SG) (PHI) (PHI) (DLTA) (DLTA) (PI) (PI)
                 (SG) (SG) (PI) (PI) (SG) (DLTA) (DLTA) (PI) (PI)
                 (SG) (SG)
 Beta  Orbitals:
       Occupied  (SG) (SG) (SG)
       Virtual   (PI) (PI) (SG) (SG) (PI) (PI) (SG) (SG) (PI) (PI)
                 (DLTA) (DLTA) (SG) (PI) (PI) (SG) (PI) (PI) (SG)
                 (SG) (DLTA) (DLTA) (PHI) (PHI) (PI) (PI) (SG)
                 (DLTA) (DLTA) (PI) (PI) (SG) (SG) (DLTA) (DLTA)
                 (PI) (PI) (PI) (PI) (SG) (SG) (PI) (PI) (SG) (PI)
                 (PI) (SG) (?A) (?A) (DLTA) (DLTA) (PHI) (PHI)
                 (SG) (PI) (PI) (DLTA) (DLTA) (PHI) (PHI) (DLTA)
                 (DLTA) (SG) (PI) (PI) (PHI) (PHI) (DLTA) (DLTA)
                 (SG) (SG) (PI) (PI) (SG) (DLTA) (DLTA) (PI) (PI)
                 (PI) (PI) (SG) (SG) (PI) (PI) (SG) (?A) (?A) (PHI)
                 (PHI) (DLTA) (DLTA) (DLTA) (DLTA) (PI) (PI) (SG)
                 (PI) (PI) (PHI) (PHI) (DLTA) (DLTA) (PI) (PI)
                 (SG) (SG) (PHI) (PHI) (DLTA) (DLTA) (PI) (PI)
                 (SG) (SG) (PI) (PI) (SG) (DLTA) (DLTA) (PI) (PI)
                 (SG) (SG)
 The electronic state is 1-SG.
 Alpha  occ. eigenvalues --   -7.68903  -0.49130  -0.44662
 Alpha virt. eigenvalues --    0.02654   0.02654   0.04109   0.05451   0.08179
 Alpha virt. eigenvalues --    0.08335   0.08335   0.11472   0.14358   0.14358
 Alpha virt. eigenvalues --    0.14532   0.14532   0.18616   0.22551   0.22551
 Alpha virt. eigenvalues --    0.26591   0.32024   0.32024   0.35650   0.36022
 Alpha virt. eigenvalues --    0.45123   0.46119   0.46119   0.46298   0.46298
 Alpha virt. eigenvalues --    0.48944   0.48944   0.50077   0.50077   0.52482
 Alpha virt. eigenvalues --    0.52868   0.52868   0.58942   0.64484   0.64484
 Alpha virt. eigenvalues --    0.74219   0.74219   0.80260   0.80260   0.84514
 Alpha virt. eigenvalues --    0.94148   1.05954   1.05954   1.12855   1.36553
 Alpha virt. eigenvalues --    1.36553   1.36880   1.36880   1.37793   1.37793
 Alpha virt. eigenvalues --    1.37901   1.38276   1.38276   1.41465   1.41465
 Alpha virt. eigenvalues --    1.43700   1.43815   1.43815   1.45144   1.45144
 Alpha virt. eigenvalues --    1.46198   1.46198   1.50543   1.52194   1.52194
 Alpha virt. eigenvalues --    1.56822   1.56822   1.61446   1.61446   1.65841
 Alpha virt. eigenvalues --    1.68660   1.77049   1.77049   1.89909   2.46796
 Alpha virt. eigenvalues --    2.46796   2.54363   2.54363   2.58876   2.58876
 Alpha virt. eigenvalues --    2.67245   2.74000   3.74341   3.74341   3.83243
 Alpha virt. eigenvalues --    3.91886   3.91886   3.94409   3.94409   3.95933
 Alpha virt. eigenvalues --    3.95933   3.96769   3.96769   3.99728   3.99728
 Alpha virt. eigenvalues --    4.00749   4.03590   4.03590   4.08706   4.08706
 Alpha virt. eigenvalues --    4.12263   4.12263   4.16431   4.16431   4.21003
 Alpha virt. eigenvalues --    4.22840   6.56101   6.56101   6.56884   6.56884
 Alpha virt. eigenvalues --    6.60478   6.60478   6.64767   7.47834   7.95433
 Alpha virt. eigenvalues --    7.95433   8.04334   8.40308   8.40308   8.45365
 Alpha virt. eigenvalues --    8.45365   8.55575  13.11373
  Beta  occ. eigenvalues --   -7.70382  -0.54643  -0.31941
  Beta virt. eigenvalues --    0.02300   0.02300   0.02414   0.04810   0.07649
  Beta virt. eigenvalues --    0.07649   0.08132   0.10669   0.14437   0.14437
  Beta virt. eigenvalues --    0.14529   0.14529   0.18800   0.24079   0.24079
  Beta virt. eigenvalues --    0.26103   0.31253   0.31253   0.32321   0.36075
  Beta virt. eigenvalues --    0.46012   0.46012   0.46126   0.46126   0.47557
  Beta virt. eigenvalues --    0.47557   0.48883   0.49968   0.49968   0.50954
  Beta virt. eigenvalues --    0.50954   0.52175   0.58674   0.65687   0.65687
  Beta virt. eigenvalues --    0.76490   0.76490   0.85345   0.85345   0.89616
  Beta virt. eigenvalues --    0.93968   1.05059   1.05059   1.06483   1.35924
  Beta virt. eigenvalues --    1.35924   1.36803   1.36908   1.36908   1.37181
  Beta virt. eigenvalues --    1.37181   1.37769   1.37769   1.39418   1.40368
  Beta virt. eigenvalues --    1.40368   1.40915   1.40915   1.43760   1.43760
  Beta virt. eigenvalues --    1.44670   1.44670   1.47470   1.49827   1.49827
  Beta virt. eigenvalues --    1.58057   1.58057   1.62396   1.62396   1.65680
  Beta virt. eigenvalues --    1.76866   1.77611   1.77611   1.90696   2.50701
  Beta virt. eigenvalues --    2.50701   2.58561   2.58561   2.65744   2.65744
  Beta virt. eigenvalues --    2.72604   2.78295   3.73654   3.73654   3.78717
  Beta virt. eigenvalues --    3.91823   3.91823   3.93334   3.93334   3.94899
  Beta virt. eigenvalues --    3.94899   3.95459   3.95459   3.96162   3.96162
  Beta virt. eigenvalues --    3.96974   4.01302   4.01302   4.08450   4.08450
  Beta virt. eigenvalues --    4.10149   4.10149   4.13180   4.13180   4.17165
  Beta virt. eigenvalues --    4.19793   6.58973   6.58973   6.59745   6.59745
  Beta virt. eigenvalues --    6.63308   6.63308   6.67581   7.55859   8.01188
  Beta virt. eigenvalues --    8.01188   8.09972   8.44510   8.44510   8.49529
  Beta virt. eigenvalues --    8.49529   8.59680  13.10266
          Condensed to atoms (all electrons):
               1          2
     1  B    4.995071  -0.000195
     2  H   -0.000195   1.005319
          Atomic-Atomic Spin Densities.
               1          2
     1  B   -0.993234  -0.005460
     2  H   -0.005460   1.004153
 Mulliken charges and spin densities:
               1          2
     1  B    0.005124  -0.998693
     2  H   -0.005124   0.998693
 Sum of Mulliken charges =  -0.00000  -0.00000
 Mulliken charges and spin densities with hydrogens summed into heavy atoms:
               1          2
     1  B   -0.000000  -0.000000
 Electronic spatial extent (au):  <R**2>=             53.4493
 Charge=             -0.0000 electrons
 Dipole moment (field-independent basis, Debye):
    X=              0.0000    Y=              0.0000    Z=              0.1144  Tot=              0.1144
 Quadrupole moment (field-independent basis, Debye-Ang):
   XX=             -7.3127   YY=             -7.3127   ZZ=            -10.9948
   XY=              0.0000   XZ=              0.0000   YZ=              0.0000
 Traceless Quadrupole moment (field-independent basis, Debye-Ang):
   XX=              1.2274   YY=              1.2274   ZZ=             -2.4547
   XY=              0.0000   XZ=              0.0000   YZ=              0.0000
 Octapole moment (field-independent basis, Debye-Ang**2):
  XXX=              0.0000  YYY=              0.0000  ZZZ=             -2.8996  XYY=              0.0000
  XXY=              0.0000  XXZ=              0.5247  XZZ=              0.0000  YZZ=              0.0000
  YYZ=              0.5247  XYZ=              0.0000
 Hexadecapole moment (field-independent basis, Debye-Ang**3):
 XXXX=            -10.7457 YYYY=            -10.7457 ZZZZ=           -109.3023 XXXY=              0.0000
 XXXZ=              0.0000 YYYX=              0.0000 YYYZ=              0.0000 ZZZX=              0.0000
 ZZZY=              0.0000 XXYY=             -3.5819 XXZZ=            -18.2827 YYZZ=            -18.2827
 XXYZ=              0.0000 YYXZ=              0.0000 ZZXY=              0.0000
 N-N= 7.782017807647D-01 E-N=-5.945562609516D+01  KE= 2.502918819235D+01
 Symmetry A1   KE= 2.502918819235D+01
 Symmetry A2   KE= 3.493021256903D-49
 Symmetry B1   KE= 0.000000000000D+00
 Symmetry B2   KE= 0.000000000000D+00
 Symmetry A1   SP=-2.118858727246D-15
 Symmetry A2   SP=-2.104140879847D-49
 Symmetry B1   SP= 0.000000000000D+00
 Symmetry B2   SP= 0.000000000000D+00
 Leave Link  601 at Sun May 22 21:10:19 2022, MaxMem=   104857600 cpu:               0.1 elap:               0.1
 (Enter /apps/software/g16/l9999.exe)
 1\1\GINC-CNODE10\SP\UCCSD(T)-FC\Aug-CC-pVQZ\B1H1\LCZ\22-May-2022\0\\#p
  UHF/aug-cc-pVQZ guess=read CCSD(T,FC)\\BH UCCSD at 3.4 Angstrom\\0,1\
 B,0,0.,0.,0.\H,0,3.4,0.,0.\\Version=ES64L-G16RevA.03\State=1-SG\HF=-25
 .0333195\MP2=-25.0813568\MP3=-25.0932755\MP4D=-25.0986634\MP4DQ=-25.09
 73769\PUHF=-25.0429149\PMP2-0=-25.0908907\PMP3-0=-25.1027509\MP4SDQ=-2
 5.0976958\CCSD=-25.1012111\CCSD(T)=-25.1028834\S2=0.994281\S2-1=0.9809
 84\S2A=0.08528\RMSD=7.746e-10\PG=C*V [C*(H1B1)]\\@


  ON THE CHOICE OF THE CORRECT LANGUAGE -
 I SPEAK SPANISH TO GOD, ITALIAN TO WOMEN,
 FRENCH TO MEN, AND GERMAN TO MY HORSE.
          -- CHARLES V
 Job cpu time:       0 days  0 hours  0 minutes 24.2 seconds.
 Elapsed time:       0 days  0 hours  0 minutes 24.2 seconds.
 File lengths (MBytes):  RWF=    140 Int=      0 D2E=      0 Chk=     67 Scr=      1
 Normal termination of Gaussian 16 at Sun May 22 21:10:19 2022.

Sender: Unischeduler System <lcz@mgt01>
Subject: Job 134386: <#!/bin/bash
#BSUB -J intel
#BSUB -o BH-3.4-UCCSD_T-G.out
#BSUB -n 8
#BSUB -q cqueue
#BSUB -R span[hosts=1]
export g16root=/apps/software
source /apps/software/g16/bsd/g16.profile
export GAUSS_SCRDIR=/scratch
/apps/software/g16/g16 < BH-3.4-UCCSD_T-G.inp > BH-3.4-UCCSD_T-G.out> Done

Job <#!/bin/bash
#BSUB -J intel
#BSUB -o BH-3.4-UCCSD_T-G.out
#BSUB -n 8
#BSUB -q cqueue
#BSUB -R span[hosts=1]
export g16root=/apps/software
source /apps/software/g16/bsd/g16.profile
export GAUSS_SCRDIR=/scratch
/apps/software/g16/g16 < BH-3.4-UCCSD_T-G.inp > BH-3.4-UCCSD_T-G.out> was submitted from host <mgt01> by user <lcz>.
Job was executed on host(s) <8*cnode10>, in queue <cqueue>, as user <lcz>.
</apps/users/lcz> was used as the home directory.
</apps/users/lcz/exe13/UCCSD_T> was used as the working directory.
Started at 2022-05-22 21:09:55
Results reported at 2022-05-22 21:10:20

Your job looked like:

------------------------------------------------------------
# User input
#!/bin/bash
#BSUB -J intel
#BSUB -o BH-3.4-UCCSD_T-G.out
#BSUB -n 8
#BSUB -q cqueue
#BSUB -R span[hosts=1]
export g16root=/apps/software
source /apps/software/g16/bsd/g16.profile
export GAUSS_SCRDIR=/scratch
/apps/software/g16/g16 < BH-3.4-UCCSD_T-G.inp > BH-3.4-UCCSD_T-G.out
------------------------------------------------------------

Successfully completed.

Resource usage summary:

    CPU time   :           23.75 sec.
    Max Memory :               482 MB
    Max Processes  :               5


The output (if any) follows:

