 Entering Gaussian System, Link 0=/apps/software/g16/g16
 Initial command:
 /apps/software/g16/l1.exe "/scratch/Gau-402461.inp" -scrdir="/scratch/"
 Entering Link 1 = /apps/software/g16/l1.exe PID=    402462.
  
 Copyright (c) 1988,1990,1992,1993,1995,1998,2003,2009,2016,
            Gaussian, Inc.  All Rights Reserved.
  
 This is part of the Gaussian(R) 16 program.  It is based on
 the Gaussian(R) 09 system (copyright 2009, Gaussian, Inc.),
 the Gaussian(R) 03 system (copyright 2003, Gaussian, Inc.),
 the Gaussian(R) 98 system (copyright 1998, Gaussian, Inc.),
 the Gaussian(R) 94 system (copyright 1995, Gaussian, Inc.),
 the Gaussian 92(TM) system (copyright 1992, Gaussian, Inc.),
 the Gaussian 90(TM) system (copyright 1990, Gaussian, Inc.),
 the Gaussian 88(TM) system (copyright 1988, Gaussian, Inc.),
 the Gaussian 86(TM) system (copyright 1986, Carnegie Mellon
 University), and the Gaussian 82(TM) system (copyright 1983,
 Carnegie Mellon University). Gaussian is a federally registered
 trademark of Gaussian, Inc.
  
 This software contains proprietary and confidential information,
 including trade secrets, belonging to Gaussian, Inc.
  
 This software is provided under written license and may be
 used, copied, transmitted, or stored only in accord with that
 written license.
  
 The following legend is applicable only to US Government
 contracts under FAR:
  
                    RESTRICTED RIGHTS LEGEND
  
 Use, reproduction and disclosure by the US Government is
 subject to restrictions as set forth in subparagraphs (a)
 and (c) of the Commercial Computer Software - Restricted
 Rights clause in FAR 52.227-19.
  
 Gaussian, Inc.
 340 Quinnipiac St., Bldg. 40, Wallingford CT 06492
  
  
 ---------------------------------------------------------------
 Warning -- This program may not be used in any manner that
 competes with the business of Gaussian, Inc. or will provide
 assistance to any competitor of Gaussian, Inc.  The licensee
 of this program is prohibited from giving any competitor of
 Gaussian, Inc. access to this program.  By using this program,
 the user acknowledges that Gaussian, Inc. is engaged in the
 business of creating and licensing software in the field of
 computational chemistry and represents and warrants to the
 licensee that it is not a competitor of Gaussian, Inc. and that
 it will not use this program in any manner prohibited above.
 ---------------------------------------------------------------
  

 Cite this work as:
 Gaussian 16, Revision A.03,
 M. J. Frisch, G. W. Trucks, H. B. Schlegel, G. E. Scuseria, 
 M. A. Robb, J. R. Cheeseman, G. Scalmani, V. Barone, 
 G. A. Petersson, H. Nakatsuji, X. Li, M. Caricato, A. V. Marenich, 
 J. Bloino, B. G. Janesko, R. Gomperts, B. Mennucci, H. P. Hratchian, 
 J. V. Ortiz, A. F. Izmaylov, J. L. Sonnenberg, D. Williams-Young, 
 F. Ding, F. Lipparini, F. Egidi, J. Goings, B. Peng, A. Petrone, 
 T. Henderson, D. Ranasinghe, V. G. Zakrzewski, J. Gao, N. Rega, 
 G. Zheng, W. Liang, M. Hada, M. Ehara, K. Toyota, R. Fukuda, 
 J. Hasegawa, M. Ishida, T. Nakajima, Y. Honda, O. Kitao, H. Nakai, 
 T. Vreven, K. Throssell, J. A. Montgomery, Jr., J. E. Peralta, 
 F. Ogliaro, M. J. Bearpark, J. J. Heyd, E. N. Brothers, K. N. Kudin, 
 V. N. Staroverov, T. A. Keith, R. Kobayashi, J. Normand, 
 K. Raghavachari, A. P. Rendell, J. C. Burant, S. S. Iyengar, 
 J. Tomasi, M. Cossi, J. M. Millam, M. Klene, C. Adamo, R. Cammi, 
 J. W. Ochterski, R. L. Martin, K. Morokuma, O. Farkas, 
 J. B. Foresman, and D. J. Fox, Gaussian, Inc., Wallingford CT, 2016.
 
 ******************************************
 Gaussian 16:  ES64L-G16RevA.03 25-Dec-2016
                22-May-2022 
 ******************************************
 %chk=BH-3.6-UHF-G.chk
 ---------------------------------------
 #p UHF/aug-cc-pVQZ guess=mix stable=opt
 ---------------------------------------
 1/38=1,172=1/1;
 2/12=2,17=6,18=5,40=1/2;
 3/5=16,6=2,7=10,11=2,25=1,30=1,116=2/1,2,3;
 4/13=-1/1;
 5/5=2,38=5/2;
 6/7=2,8=2,9=2,10=2,28=1/1;
 8/6=1,10=90,11=11/1;
 9/8=-3,42=1,46=1/14;
 5/5=2,8=3,17=40,38=5/8(-2);
 6/7=2,8=2,9=2,10=2,28=1/1;
 99/5=1,9=1/99;
 Leave Link    1 at Sun May 22 21:10:17 2022, MaxMem=           0 cpu:               0.0 elap:               0.0
 (Enter /apps/software/g16/l101.exe)
 ----------------------
 BH UHF at 3.6 Angstrom
 ----------------------
 Symbolic Z-matrix:
 Charge =  0 Multiplicity = 1
 B                     0.        0.        0. 
 H                     3.6       0.        0. 
 
 ITRead=  0  0
 MicOpt= -1 -1
 NAtoms=      2 NQM=        2 NQMF=       0 NMMI=      0 NMMIF=      0
                NMic=       0 NMicF=      0.
                    Isotopes and Nuclear Properties:
 (Nuclear quadrupole moments (NQMom) in fm**2, nuclear magnetic moments (NMagM)
  in nuclear magnetons)

  Atom         1           2
 IAtWgt=          11           1
 AtmWgt=  11.0093053   1.0078250
 NucSpn=           3           1
 AtZEff=  -0.0000000  -0.0000000
 NQMom=    4.0590000   0.0000000
 NMagM=    2.6886370   2.7928460
 AtZNuc=   5.0000000   1.0000000
 Leave Link  101 at Sun May 22 21:10:17 2022, MaxMem=   104857600 cpu:               0.1 elap:               0.1
 (Enter /apps/software/g16/l202.exe)
                          Input orientation:                          
 ---------------------------------------------------------------------
 Center     Atomic      Atomic             Coordinates (Angstroms)
 Number     Number       Type             X           Y           Z
 ---------------------------------------------------------------------
      1          5           0        0.000000    0.000000    0.000000
      2          1           0        3.600000    0.000000    0.000000
 ---------------------------------------------------------------------
 Stoichiometry    BH
 Framework group  C*V[C*(HB)]
 Deg. of freedom     1
 Full point group                 C*V     NOp   4
 Largest Abelian subgroup         C2V     NOp   4
 Largest concise Abelian subgroup C1      NOp   1
                         Standard orientation:                         
 ---------------------------------------------------------------------
 Center     Atomic      Atomic             Coordinates (Angstroms)
 Number     Number       Type             X           Y           Z
 ---------------------------------------------------------------------
      1          5           0        0.000000    0.000000    0.600000
      2          1           0        0.000000    0.000000   -3.000000
 ---------------------------------------------------------------------
 Rotational constants (GHZ):           0.0000000          42.2345539          42.2345539
 Leave Link  202 at Sun May 22 21:10:17 2022, MaxMem=   104857600 cpu:               0.0 elap:               0.0
 (Enter /apps/software/g16/l301.exe)
 Standard basis: Aug-CC-pVQZ (5D, 7F)
 Ernie: Thresh=  0.10000D-02 Tol=  0.10000D-05 Strict=F.
 Ernie:  4 primitive shells out of 54 were deleted.
 There are    68 symmetry adapted cartesian basis functions of A1  symmetry.
 There are    18 symmetry adapted cartesian basis functions of A2  symmetry.
 There are    37 symmetry adapted cartesian basis functions of B1  symmetry.
 There are    37 symmetry adapted cartesian basis functions of B2  symmetry.
 There are    50 symmetry adapted basis functions of A1  symmetry.
 There are    16 symmetry adapted basis functions of A2  symmetry.
 There are    30 symmetry adapted basis functions of B1  symmetry.
 There are    30 symmetry adapted basis functions of B2  symmetry.
   126 basis functions,   180 primitive gaussians,   160 cartesian basis functions
     3 alpha electrons        3 beta electrons
       nuclear repulsion energy         0.7349683485 Hartrees.
 IExCor=    0 DFT=F Ex=HF Corr=None ExCW=0 ScaHFX=  1.000000
 ScaDFX=  1.000000  1.000000  1.000000  1.000000 ScalE2=  1.000000  1.000000
 IRadAn=      5 IRanWt=     -1 IRanGd=            0 ICorTp=0 IEmpDi=  4
 NAtoms=    2 NActive=    2 NUniq=    2 SFac= 1.00D+00 NAtFMM=   60 NAOKFM=F Big=F
 Integral buffers will be    131072 words long.
 Raffenetti 2 integral format.
 Two-electron integral symmetry is turned on.
 Leave Link  301 at Sun May 22 21:10:17 2022, MaxMem=   104857600 cpu:               0.1 elap:               0.1
 (Enter /apps/software/g16/l302.exe)
 NPDir=0 NMtPBC=     1 NCelOv=     1 NCel=       1 NClECP=     1 NCelD=      1
         NCelK=      1 NCelE2=     1 NClLst=     1 CellRange=     0.0.
 One-electron integrals computed using PRISM.
 One-electron integral symmetry used in STVInt
 NBasis=   126 RedAO= T EigKep=  7.37D-03  NBF=    50    16    30    30
 NBsUse=   126 1.00D-06 EigRej= -1.00D+00 NBFU=    50    16    30    30
 Leave Link  302 at Sun May 22 21:10:17 2022, MaxMem=   104857600 cpu:               0.1 elap:               0.1
 (Enter /apps/software/g16/l303.exe)
 DipDrv:  MaxL=1.
 Leave Link  303 at Sun May 22 21:10:17 2022, MaxMem=   104857600 cpu:               0.0 elap:               0.0
 (Enter /apps/software/g16/l401.exe)
 ExpMin= 1.88D-02 ExpMax= 2.39D+04 ExpMxC= 2.30D+02 IAcc=3 IRadAn=         5 AccDes= 0.00D+00
 Harris functional with IExCor=  205 and IRadAn=       5 diagonalized for initial guess.
 HarFok:  IExCor=  205 AccDes= 0.00D+00 IRadAn=         5 IDoV= 1 UseB2=F ITyADJ=14
 ICtDFT=  3500011 ScaDFX=  1.000000  1.000000  1.000000  1.000000
 FoFCou: FMM=F IPFlag=           0 FMFlag=      100000 FMFlg1=           0
         NFxFlg=           0 DoJE=T BraDBF=F KetDBF=T FulRan=T
         wScrn=  0.000000 ICntrl=       500 IOpCl=  0 I1Cent=   200000004 NGrid=           0
         NMat0=    1 NMatS0=      1 NMatT0=    0 NMatD0=    1 NMtDS0=    0 NMtDT0=    0
 Petite list used in FoFCou.
 Harris En= -24.9915650181756    
 JPrj=0 DoOrth=F DoCkMO=T.
 Mixing orbitals, IMix= 1 IMixAn=  0 NRI=1 NE=    3 Coef=  7.07106781D-01  7.07106781D-01
 Mixing orbitals, IMix= 1 IMixAn=  0 NRI=1 NE=    3 Coef= -7.07106781D-01  7.07106781D-01
 Initial guess orbital symmetries:
 Alpha Orbitals:
       Occupied  (SG) (SG) (?A)
       Virtual   (?A) (?A) (SG) (SG) (PI) (PI) (SG) (SG) (PI) (PI)
                 (DLTA) (DLTA) (SG) (PI) (PI) (SG) (PI) (PI) (SG)
                 (SG) (SG) (PI) (PI) (DLTA) (DLTA) (DLTA) (DLTA)
                 (SG) (PHI) (PHI) (PI) (PI) (SG) (DLTA) (DLTA)
                 (PI) (PI) (PI) (PI) (SG) (SG) (PI) (PI) (SG) (SG)
                 (PI) (PI) (DLTA) (DLTA) (SG) (PI) (PI) (DLTA)
                 (DLTA) (PHI) (PHI) (?B) (?B) (DLTA) (DLTA) (PHI)
                 (PHI) (SG) (PI) (PI) (SG) (PHI) (PHI) (DLTA) (DLTA)
                 (SG) (PI) (PI) (SG) (DLTA) (DLTA) (PI) (PI) (PI)
                 (PI) (SG) (SG) (PI) (PI) (SG) (DLTA) (DLTA) (PI)
                 (PI) (SG) (?B) (PHI) (PHI) (?B) (DLTA) (DLTA)
                 (PI) (PI) (PHI) (PHI) (DLTA) (DLTA) (SG) (PI)
                 (PI) (SG) (PHI) (PHI) (DLTA) (DLTA) (PI) (PI)
                 (SG) (SG) (PI) (PI) (SG) (DLTA) (DLTA) (PI) (PI)
                 (SG) (SG)
 Beta  Orbitals:
       Occupied  (SG) (SG) (?A)
       Virtual   (?A) (?A) (SG) (SG) (PI) (PI) (SG) (SG) (PI) (PI)
                 (DLTA) (DLTA) (SG) (PI) (PI) (SG) (PI) (PI) (SG)
                 (SG) (SG) (PI) (PI) (DLTA) (DLTA) (DLTA) (DLTA)
                 (SG) (PHI) (PHI) (PI) (PI) (SG) (DLTA) (DLTA)
                 (PI) (PI) (PI) (PI) (SG) (SG) (PI) (PI) (SG) (SG)
                 (PI) (PI) (DLTA) (DLTA) (SG) (PI) (PI) (DLTA)
                 (DLTA) (PHI) (PHI) (?B) (?B) (DLTA) (DLTA) (PHI)
                 (PHI) (SG) (PI) (PI) (SG) (PHI) (PHI) (DLTA) (DLTA)
                 (SG) (PI) (PI) (SG) (DLTA) (DLTA) (PI) (PI) (PI)
                 (PI) (SG) (SG) (PI) (PI) (SG) (DLTA) (DLTA) (PI)
                 (PI) (SG) (?B) (PHI) (PHI) (?B) (DLTA) (DLTA)
                 (PI) (PI) (PHI) (PHI) (DLTA) (DLTA) (SG) (PI)
                 (PI) (SG) (PHI) (PHI) (DLTA) (DLTA) (PI) (PI)
                 (SG) (SG) (PI) (PI) (SG) (DLTA) (DLTA) (PI) (PI)
                 (SG) (SG)
 Initial guess <Sx>= 0.0000 <Sy>= 0.0000 <Sz>= 0.0000 <S**2>= 1.0000 S= 0.6180
 Leave Link  401 at Sun May 22 21:10:17 2022, MaxMem=   104857600 cpu:               0.2 elap:               0.2
 (Enter /apps/software/g16/l502.exe)
 Keep R1 and R2 ints in memory in symmetry-blocked form, NReq=40143665.
 FoFCou: FMM=F IPFlag=           0 FMFlag=           0 FMFlg1=           0
         NFxFlg=           0 DoJE=F BraDBF=F KetDBF=F FulRan=T
         wScrn=  0.000000 ICntrl=       600 IOpCl=  0 I1Cent=           0 NGrid=           0
         NMat0=    1 NMatS0=   8001 NMatT0=    0 NMatD0=    1 NMtDS0=    0 NMtDT0=    0
 Petite list used in FoFCou.
 UHF open shell SCF:
 Using DIIS extrapolation, IDIIS=  1040.
 NGot=   104857600 LenX=    88563632 LenY=    88537591
 Requested convergence on RMS density matrix=1.00D-08 within 128 cycles.
 Requested convergence on MAX density matrix=1.00D-06.
 Requested convergence on             energy=1.00D-06.
 No special actions if energy rises.
 An orbital has undefined symmetry, so N**3 symmetry is turned off.

 Cycle   1  Pass 1  IDiag  1:
 Density matrix breaks symmetry, PCut= 1.00D-07
 Density matrix has no symmetry -- integrals replicated.
 E= -24.8458178892462    
 DIIS: error= 2.89D-02 at cycle   1 NSaved=   1.
 NSaved= 1 IEnMin= 1 EnMin= -24.8458178892462     IErMin= 1 ErrMin= 2.89D-02
 ErrMax= 2.89D-02  0.00D+00 EMaxC= 1.00D-01 BMatC= 1.50D-01 BMatP= 1.50D-01
 IDIUse=3 WtCom= 7.11D-01 WtEn= 2.89D-01
 Coeff-Com:  0.100D+01
 Coeff-En:   0.100D+01
 Coeff:      0.100D+01
 Gap=     0.149 Goal=   None    Shift=    0.000
 Gap=     0.149 Goal=   None    Shift=    0.000
 GapD=    0.149 DampG=1.000 DampE=0.500 DampFc=0.5000 IDamp=-1.
 Damping current iteration by 5.00D-01
 RMSDP=1.64D-03 MaxDP=7.62D-02              OVMax= 3.43D-01

 Cycle   2  Pass 1  IDiag  1:
 Density matrix breaks symmetry, PCut= 1.00D-07
 Density matrix has no symmetry -- integrals replicated.
 E= -24.8672988004669     Delta-E=       -0.021480911221 Rises=F Damp=T
 DIIS: error= 1.82D-02 at cycle   2 NSaved=   2.
 NSaved= 2 IEnMin= 2 EnMin= -24.8672988004669     IErMin= 2 ErrMin= 1.82D-02
 ErrMax= 1.82D-02  0.00D+00 EMaxC= 1.00D-01 BMatC= 4.93D-02 BMatP= 1.50D-01
 IDIUse=3 WtCom= 8.18D-01 WtEn= 1.82D-01
 Coeff-Com: -0.700D+00 0.170D+01
 Coeff-En:   0.000D+00 0.100D+01
 Coeff:     -0.572D+00 0.157D+01
 Gap=     0.124 Goal=   None    Shift=    0.000
 Gap=     0.124 Goal=   None    Shift=    0.000
 RMSDP=1.19D-03 MaxDP=5.69D-02 DE=-2.15D-02 OVMax= 2.01D-01

 Cycle   3  Pass 1  IDiag  1:
 Density matrix breaks symmetry, PCut= 1.00D-07
 Density matrix has no symmetry -- integrals replicated.
 E= -24.8970453360125     Delta-E=       -0.029746535546 Rises=F Damp=F
 DIIS: error= 1.05D-02 at cycle   3 NSaved=   3.
 NSaved= 3 IEnMin= 3 EnMin= -24.8970453360125     IErMin= 3 ErrMin= 1.05D-02
 ErrMax= 1.05D-02  0.00D+00 EMaxC= 1.00D-01 BMatC= 5.15D-03 BMatP= 4.93D-02
 IDIUse=3 WtCom= 8.95D-01 WtEn= 1.05D-01
 Coeff-Com: -0.271D+00 0.459D+00 0.812D+00
 Coeff-En:   0.000D+00 0.000D+00 0.100D+01
 Coeff:     -0.242D+00 0.411D+00 0.832D+00
 Gap=     0.169 Goal=   None    Shift=    0.000
 Gap=     0.169 Goal=   None    Shift=    0.000
 RMSDP=5.48D-04 MaxDP=2.01D-02 DE=-2.97D-02 OVMax= 1.25D-01

 Cycle   4  Pass 1  IDiag  1:
 Density matrix breaks symmetry, PCut= 1.00D-07
 Density matrix has no symmetry -- integrals replicated.
 E= -24.9068668944263     Delta-E=       -0.009821558414 Rises=F Damp=F
 DIIS: error= 4.36D-03 at cycle   4 NSaved=   4.
 NSaved= 4 IEnMin= 4 EnMin= -24.9068668944263     IErMin= 4 ErrMin= 4.36D-03
 ErrMax= 4.36D-03  0.00D+00 EMaxC= 1.00D-01 BMatC= 2.08D-03 BMatP= 5.15D-03
 IDIUse=3 WtCom= 9.56D-01 WtEn= 4.36D-02
 Coeff-Com:  0.136D+00-0.275D+00-0.529D-01 0.119D+01
 Coeff-En:   0.000D+00 0.000D+00 0.000D+00 0.100D+01
 Coeff:      0.130D+00-0.263D+00-0.506D-01 0.118D+01
 Gap=     0.168 Goal=   None    Shift=    0.000
 Gap=     0.168 Goal=   None    Shift=    0.000
 RMSDP=4.70D-04 MaxDP=1.21D-02 DE=-9.82D-03 OVMax= 9.10D-02

 Cycle   5  Pass 1  IDiag  1:
 Density matrix breaks symmetry, PCut= 1.00D-07
 Density matrix has no symmetry -- integrals replicated.
 E= -24.9130284405355     Delta-E=       -0.006161546109 Rises=F Damp=F
 DIIS: error= 3.47D-03 at cycle   5 NSaved=   5.
 NSaved= 5 IEnMin= 5 EnMin= -24.9130284405355     IErMin= 5 ErrMin= 3.47D-03
 ErrMax= 3.47D-03  0.00D+00 EMaxC= 1.00D-01 BMatC= 9.27D-04 BMatP= 2.08D-03
 IDIUse=3 WtCom= 9.65D-01 WtEn= 3.47D-02
 Coeff-Com: -0.268D+00 0.519D+00-0.158D+00-0.142D+01 0.233D+01
 Coeff-En:   0.000D+00 0.000D+00 0.000D+00 0.000D+00 0.100D+01
 Coeff:     -0.258D+00 0.501D+00-0.153D+00-0.137D+01 0.228D+01
 Gap=     0.180 Goal=   None    Shift=    0.000
 Gap=     0.180 Goal=   None    Shift=    0.000
 RMSDP=6.10D-04 MaxDP=1.51D-02 DE=-6.16D-03 OVMax= 1.33D-01

 Cycle   6  Pass 1  IDiag  1:
 Density matrix breaks symmetry, PCut= 1.00D-07
 Density matrix has no symmetry -- integrals replicated.
 E= -24.9182501207763     Delta-E=       -0.005221680241 Rises=F Damp=F
 DIIS: error= 2.99D-03 at cycle   6 NSaved=   6.
 NSaved= 6 IEnMin= 6 EnMin= -24.9182501207763     IErMin= 6 ErrMin= 2.99D-03
 ErrMax= 2.99D-03  0.00D+00 EMaxC= 1.00D-01 BMatC= 5.41D-04 BMatP= 9.27D-04
 IDIUse=3 WtCom= 9.70D-01 WtEn= 2.99D-02
 Coeff-Com: -0.153D-01 0.285D-01-0.212D+00 0.361D+00-0.326D+00 0.116D+01
 Coeff-En:   0.000D+00 0.000D+00 0.000D+00 0.000D+00 0.000D+00 0.100D+01
 Coeff:     -0.148D-01 0.277D-01-0.205D+00 0.350D+00-0.317D+00 0.116D+01
 Gap=     0.186 Goal=   None    Shift=    0.000
 Gap=     0.186 Goal=   None    Shift=    0.000
 RMSDP=2.19D-04 MaxDP=6.85D-03 DE=-5.22D-03 OVMax= 4.98D-02

 Cycle   7  Pass 1  IDiag  1:
 Density matrix breaks symmetry, PCut= 1.00D-07
 Density matrix has no symmetry -- integrals replicated.
 E= -24.9195856559413     Delta-E=       -0.001335535165 Rises=F Damp=F
 DIIS: error= 2.08D-03 at cycle   7 NSaved=   7.
 NSaved= 7 IEnMin= 7 EnMin= -24.9195856559413     IErMin= 7 ErrMin= 2.08D-03
 ErrMax= 2.08D-03  0.00D+00 EMaxC= 1.00D-01 BMatC= 1.67D-04 BMatP= 5.41D-04
 IDIUse=3 WtCom= 9.79D-01 WtEn= 2.08D-02
 Coeff-Com: -0.156D+00 0.298D+00 0.134D+00-0.138D+01 0.187D+01-0.263D+01
 Coeff-Com:  0.287D+01
 Coeff-En:   0.000D+00 0.000D+00 0.000D+00 0.000D+00 0.000D+00 0.000D+00
 Coeff-En:   0.100D+01
 Coeff:     -0.153D+00 0.292D+00 0.132D+00-0.136D+01 0.183D+01-0.258D+01
 Coeff:      0.283D+01
 Gap=     0.189 Goal=   None    Shift=    0.000
 Gap=     0.189 Goal=   None    Shift=    0.000
 RMSDP=2.53D-04 MaxDP=8.24D-03 DE=-1.34D-03 OVMax= 5.90D-02

 Cycle   8  Pass 1  IDiag  1:
 Density matrix breaks symmetry, PCut= 1.00D-07
 Density matrix has no symmetry -- integrals replicated.
 E= -24.9204132179576     Delta-E=       -0.000827562016 Rises=F Damp=F
 DIIS: error= 1.13D-03 at cycle   8 NSaved=   8.
 NSaved= 8 IEnMin= 8 EnMin= -24.9204132179576     IErMin= 8 ErrMin= 1.13D-03
 ErrMax= 1.13D-03  0.00D+00 EMaxC= 1.00D-01 BMatC= 5.99D-05 BMatP= 1.67D-04
 IDIUse=3 WtCom= 9.89D-01 WtEn= 1.13D-02
 Coeff-Com:  0.352D-01-0.663D-01-0.784D-01 0.315D+00-0.128D+00 0.531D+00
 Coeff-Com: -0.188D+01 0.227D+01
 Coeff-En:   0.000D+00 0.000D+00 0.000D+00 0.000D+00 0.000D+00 0.000D+00
 Coeff-En:   0.000D+00 0.100D+01
 Coeff:      0.348D-01-0.656D-01-0.775D-01 0.312D+00-0.127D+00 0.525D+00
 Coeff:     -0.186D+01 0.226D+01
 Gap=     0.191 Goal=   None    Shift=    0.000
 Gap=     0.191 Goal=   None    Shift=    0.000
 RMSDP=1.81D-04 MaxDP=6.00D-03 DE=-8.28D-04 OVMax= 4.19D-02

 Cycle   9  Pass 1  IDiag  1:
 Density matrix breaks symmetry, PCut= 1.00D-07
 Density matrix has no symmetry -- integrals replicated.
 E= -24.9206898827980     Delta-E=       -0.000276664840 Rises=F Damp=F
 DIIS: error= 3.09D-04 at cycle   9 NSaved=   9.
 NSaved= 9 IEnMin= 9 EnMin= -24.9206898827980     IErMin= 9 ErrMin= 3.09D-04
 ErrMax= 3.09D-04  0.00D+00 EMaxC= 1.00D-01 BMatC= 8.38D-06 BMatP= 5.99D-05
 IDIUse=3 WtCom= 9.97D-01 WtEn= 3.09D-03
 Coeff-Com:  0.612D-02-0.130D-01-0.957D-02 0.105D+00-0.292D+00 0.461D+00
 Coeff-Com: -0.332D+00-0.154D+00 0.123D+01
 Coeff-En:   0.000D+00 0.000D+00 0.000D+00 0.000D+00 0.000D+00 0.000D+00
 Coeff-En:   0.000D+00 0.000D+00 0.100D+01
 Coeff:      0.610D-02-0.129D-01-0.954D-02 0.104D+00-0.291D+00 0.459D+00
 Coeff:     -0.331D+00-0.154D+00 0.123D+01
 Gap=     0.192 Goal=   None    Shift=    0.000
 Gap=     0.192 Goal=   None    Shift=    0.000
 RMSDP=8.64D-05 MaxDP=2.41D-03 DE=-2.77D-04 OVMax= 1.94D-02

 Cycle  10  Pass 1  IDiag  1:
 Density matrix breaks symmetry, PCut= 1.00D-07
 Density matrix has no symmetry -- integrals replicated.
 E= -24.9207078075560     Delta-E=       -0.000017924758 Rises=F Damp=F
 DIIS: error= 4.44D-04 at cycle  10 NSaved=  10.
 NSaved=10 IEnMin=10 EnMin= -24.9207078075560     IErMin= 9 ErrMin= 3.09D-04
 ErrMax= 4.44D-04  0.00D+00 EMaxC= 1.00D-01 BMatC= 1.78D-05 BMatP= 8.38D-06
 IDIUse=3 WtCom= 9.97D-01 WtEn= 3.09D-03
 Coeff-Com: -0.499D-04 0.447D-03 0.510D-02-0.191D-01 0.253D-01-0.176D+00
 Coeff-Com:  0.381D+00-0.542D+00 0.492D+00 0.832D+00
 Coeff-En:   0.000D+00 0.000D+00 0.000D+00 0.000D+00 0.000D+00 0.000D+00
 Coeff-En:   0.000D+00 0.000D+00 0.000D+00 0.100D+01
 Coeff:     -0.498D-04 0.445D-03 0.509D-02-0.191D-01 0.252D-01-0.175D+00
 Coeff:      0.380D+00-0.540D+00 0.491D+00 0.832D+00
 Gap=     0.192 Goal=   None    Shift=    0.000
 Gap=     0.192 Goal=   None    Shift=    0.000
 RMSDP=3.35D-05 MaxDP=1.21D-03 DE=-1.79D-05 OVMax= 7.45D-03

 Cycle  11  Pass 1  IDiag  1:
 Density matrix breaks symmetry, PCut= 1.00D-07
 Density matrix has no symmetry -- integrals replicated.
 E= -24.9207318315987     Delta-E=       -0.000024024043 Rises=F Damp=F
 DIIS: error= 3.40D-05 at cycle  11 NSaved=  11.
 NSaved=11 IEnMin=11 EnMin= -24.9207318315987     IErMin=11 ErrMin= 3.40D-05
 ErrMax= 3.40D-05  0.00D+00 EMaxC= 1.00D-01 BMatC= 9.74D-08 BMatP= 8.38D-06
 IDIUse=1 WtCom= 1.00D+00 WtEn= 0.00D+00
 Coeff-Com: -0.958D-03 0.178D-02-0.578D-03-0.101D-01 0.158D-01 0.528D-02
 Coeff-Com: -0.278D-01 0.653D-01-0.186D+00-0.268D+00 0.140D+01
 Coeff:     -0.958D-03 0.178D-02-0.578D-03-0.101D-01 0.158D-01 0.528D-02
 Coeff:     -0.278D-01 0.653D-01-0.186D+00-0.268D+00 0.140D+01
 Gap=     0.192 Goal=   None    Shift=    0.000
 Gap=     0.192 Goal=   None    Shift=    0.000
 RMSDP=1.10D-05 MaxDP=3.87D-04 DE=-2.40D-05 OVMax= 2.51D-03

 Cycle  12  Pass 1  IDiag  1:
 Density matrix breaks symmetry, PCut= 1.00D-07
 Density matrix has no symmetry -- integrals replicated.
 E= -24.9207322208483     Delta-E=       -0.000000389250 Rises=F Damp=F
 DIIS: error= 4.18D-06 at cycle  12 NSaved=  12.
 NSaved=12 IEnMin=12 EnMin= -24.9207322208483     IErMin=12 ErrMin= 4.18D-06
 ErrMax= 4.18D-06  0.00D+00 EMaxC= 1.00D-01 BMatC= 1.70D-09 BMatP= 9.74D-08
 IDIUse=1 WtCom= 1.00D+00 WtEn= 0.00D+00
 Coeff-Com: -0.135D-03 0.261D-03 0.319D-03-0.106D-02 0.982D-03 0.199D-04
 Coeff-Com: -0.621D-03 0.204D-02 0.127D-01 0.141D-02-0.133D+00 0.112D+01
 Coeff:     -0.135D-03 0.261D-03 0.319D-03-0.106D-02 0.982D-03 0.199D-04
 Coeff:     -0.621D-03 0.204D-02 0.127D-01 0.141D-02-0.133D+00 0.112D+01
 Gap=     0.192 Goal=   None    Shift=    0.000
 Gap=     0.192 Goal=   None    Shift=    0.000
 RMSDP=8.61D-07 MaxDP=2.60D-05 DE=-3.89D-07 OVMax= 1.94D-04

 Cycle  13  Pass 1  IDiag  1:
 Density matrix breaks symmetry, PCut= 1.00D-07
 Density matrix has no symmetry -- integrals replicated.
 E= -24.9207322268969     Delta-E=       -0.000000006049 Rises=F Damp=F
 DIIS: error= 3.13D-06 at cycle  13 NSaved=  13.
 NSaved=13 IEnMin=13 EnMin= -24.9207322268969     IErMin=13 ErrMin= 3.13D-06
 ErrMax= 3.13D-06  0.00D+00 EMaxC= 1.00D-01 BMatC= 1.29D-09 BMatP= 1.70D-09
 IDIUse=1 WtCom= 1.00D+00 WtEn= 0.00D+00
 Coeff-Com: -0.794D-04 0.154D-03 0.200D-03-0.109D-02 0.193D-02-0.261D-02
 Coeff-Com:  0.210D-02 0.257D-02-0.161D-01-0.259D-02 0.549D-01-0.253D+00
 Coeff-Com:  0.121D+01
 Coeff:     -0.794D-04 0.154D-03 0.200D-03-0.109D-02 0.193D-02-0.261D-02
 Coeff:      0.210D-02 0.257D-02-0.161D-01-0.259D-02 0.549D-01-0.253D+00
 Coeff:      0.121D+01
 Gap=     0.192 Goal=   None    Shift=    0.000
 Gap=     0.192 Goal=   None    Shift=    0.000
 RMSDP=2.00D-07 MaxDP=6.75D-06 DE=-6.05D-09 OVMax= 4.20D-05

 Cycle  14  Pass 1  IDiag  1:
 Density matrix breaks symmetry, PCut= 1.00D-07
 Density matrix has no symmetry -- integrals replicated.
 E= -24.9207322284155     Delta-E=       -0.000000001519 Rises=F Damp=F
 DIIS: error= 2.47D-06 at cycle  14 NSaved=  14.
 NSaved=14 IEnMin=14 EnMin= -24.9207322284155     IErMin=14 ErrMin= 2.47D-06
 ErrMax= 2.47D-06  0.00D+00 EMaxC= 1.00D-01 BMatC= 8.65D-10 BMatP= 1.29D-09
 IDIUse=1 WtCom= 1.00D+00 WtEn= 0.00D+00
 Coeff-Com: -0.338D-04 0.723D-04 0.125D-03-0.630D-03 0.112D-02-0.630D-03
 Coeff-Com: -0.128D-02 0.317D-02 0.902D-02-0.408D-02-0.905D-01 0.964D+00
 Coeff-Com: -0.398D+01 0.410D+01
 Coeff:     -0.338D-04 0.723D-04 0.125D-03-0.630D-03 0.112D-02-0.630D-03
 Coeff:     -0.128D-02 0.317D-02 0.902D-02-0.408D-02-0.905D-01 0.964D+00
 Coeff:     -0.398D+01 0.410D+01
 Gap=     0.192 Goal=   None    Shift=    0.000
 Gap=     0.192 Goal=   None    Shift=    0.000
 RMSDP=3.52D-07 MaxDP=1.10D-05 DE=-1.52D-09 OVMax= 6.41D-05

 Cycle  15  Pass 1  IDiag  1:
 Density matrix breaks symmetry, PCut= 1.00D-07
 Density matrix has no symmetry -- integrals replicated.
 E= -24.9207322303460     Delta-E=       -0.000000001931 Rises=F Damp=F
 DIIS: error= 2.08D-06 at cycle  15 NSaved=  15.
 NSaved=15 IEnMin=15 EnMin= -24.9207322303460     IErMin=15 ErrMin= 2.08D-06
 ErrMax= 2.08D-06  0.00D+00 EMaxC= 1.00D-01 BMatC= 6.02D-10 BMatP= 8.65D-10
 IDIUse=1 WtCom= 1.00D+00 WtEn= 0.00D+00
 Large coefficients: NSaved= 15 BigCof=   10.02 CofMax=   10.00 Det=-3.29D-13
 Inversion failed.  Reducing to 14 matrices.
 Coeff-Com: -0.449D-05 0.739D-04-0.263D-04 0.442D-03-0.209D-02 0.371D-02
 Coeff-Com: -0.184D-02-0.228D-01 0.960D-02 0.113D+00-0.117D+01 0.628D+01
 Coeff-Com: -0.999D+01 0.578D+01
 Coeff:     -0.449D-05 0.739D-04-0.263D-04 0.442D-03-0.209D-02 0.371D-02
 Coeff:     -0.184D-02-0.228D-01 0.960D-02 0.113D+00-0.117D+01 0.628D+01
 Coeff:     -0.999D+01 0.578D+01
 Gap=     0.192 Goal=   None    Shift=    0.000
 Gap=     0.192 Goal=   None    Shift=    0.000
 RMSDP=1.10D-06 MaxDP=3.80D-05 DE=-1.93D-09 OVMax= 1.83D-04

 Cycle  16  Pass 1  IDiag  1:
 Density matrix breaks symmetry, PCut= 1.00D-07
 Density matrix has no symmetry -- integrals replicated.
 E= -24.9207322335110     Delta-E=       -0.000000003165 Rises=F Damp=F
 DIIS: error= 1.64D-06 at cycle  16 NSaved=  15.
 NSaved=15 IEnMin=15 EnMin= -24.9207322335110     IErMin=15 ErrMin= 1.64D-06
 ErrMax= 1.64D-06  0.00D+00 EMaxC= 1.00D-01 BMatC= 2.46D-10 BMatP= 6.02D-10
 IDIUse=1 WtCom= 1.00D+00 WtEn= 0.00D+00
 Coeff-Com:  0.235D-05-0.964D-07-0.259D-04 0.935D-04 0.737D-04-0.552D-03
 Coeff-Com:  0.816D-03 0.310D-02 0.183D-02-0.277D-01 0.258D+00-0.124D+01
 Coeff-Com:  0.217D+01-0.164D+01 0.149D+01
 Coeff:      0.235D-05-0.964D-07-0.259D-04 0.935D-04 0.737D-04-0.552D-03
 Coeff:      0.816D-03 0.310D-02 0.183D-02-0.277D-01 0.258D+00-0.124D+01
 Coeff:      0.217D+01-0.164D+01 0.149D+01
 Gap=     0.192 Goal=   None    Shift=    0.000
 Gap=     0.192 Goal=   None    Shift=    0.000
 RMSDP=2.93D-07 MaxDP=8.25D-06 DE=-3.17D-09 OVMax= 5.54D-05

 Cycle  17  Pass 1  IDiag  1:
 Density matrix breaks symmetry, PCut= 1.00D-07
 Density matrix has no symmetry -- integrals replicated.
 E= -24.9207322339843     Delta-E=       -0.000000000473 Rises=F Damp=F
 DIIS: error= 3.17D-07 at cycle  17 NSaved=  16.
 NSaved=16 IEnMin=16 EnMin= -24.9207322339843     IErMin=16 ErrMin= 3.17D-07
 ErrMax= 3.17D-07  0.00D+00 EMaxC= 1.00D-01 BMatC= 9.46D-12 BMatP= 2.46D-10
 IDIUse=1 WtCom= 1.00D+00 WtEn= 0.00D+00
 Coeff-Com: -0.734D-06 0.947D-05 0.184D-05-0.875D-05-0.112D-03 0.317D-03
 Coeff-Com: -0.390D-03-0.101D-02-0.122D-03 0.724D-02-0.798D-01 0.419D+00
 Coeff-Com: -0.768D+00 0.604D+00-0.760D+00 0.158D+01
 Coeff:     -0.734D-06 0.947D-05 0.184D-05-0.875D-05-0.112D-03 0.317D-03
 Coeff:     -0.390D-03-0.101D-02-0.122D-03 0.724D-02-0.798D-01 0.419D+00
 Coeff:     -0.768D+00 0.604D+00-0.760D+00 0.158D+01
 Gap=     0.192 Goal=   None    Shift=    0.000
 Gap=     0.192 Goal=   None    Shift=    0.000
 RMSDP=6.22D-08 MaxDP=1.75D-06 DE=-4.73D-10 OVMax= 1.18D-05

 Cycle  18  Pass 1  IDiag  1:
 Density matrix breaks symmetry, PCut= 1.00D-07
 Density matrix has no symmetry -- integrals replicated.
 E= -24.9207322340039     Delta-E=       -0.000000000020 Rises=F Damp=F
 DIIS: error= 4.73D-08 at cycle  18 NSaved=  17.
 NSaved=17 IEnMin=17 EnMin= -24.9207322340039     IErMin=17 ErrMin= 4.73D-08
 ErrMax= 4.73D-08  0.00D+00 EMaxC= 1.00D-01 BMatC= 2.68D-13 BMatP= 9.46D-12
 IDIUse=1 WtCom= 1.00D+00 WtEn= 0.00D+00
 Large coefficients: NSaved= 17 BigCof=    0.00 CofMax=   10.00 Det=-8.95D-15
 Inversion failed.  Reducing to 16 matrices.
 Coeff-Com: -0.208D-05-0.319D-05 0.142D-04 0.406D-05-0.523D-04 0.145D-03
 Coeff-Com: -0.355D-03 0.164D-04 0.140D-02-0.739D-02 0.310D-01-0.596D-02
 Coeff-Com: -0.483D-01 0.188D+00-0.645D+00 0.149D+01
 Coeff:     -0.208D-05-0.319D-05 0.142D-04 0.406D-05-0.523D-04 0.145D-03
 Coeff:     -0.355D-03 0.164D-04 0.140D-02-0.739D-02 0.310D-01-0.596D-02
 Coeff:     -0.483D-01 0.188D+00-0.645D+00 0.149D+01
 Gap=     0.192 Goal=   None    Shift=    0.000
 Gap=     0.192 Goal=   None    Shift=    0.000
 RMSDP=1.21D-08 MaxDP=3.46D-07 DE=-1.97D-11 OVMax= 2.31D-06

 Cycle  19  Pass 1  IDiag  1:
 Density matrix breaks symmetry, PCut= 1.00D-07
 Density matrix has no symmetry -- integrals replicated.
 E= -24.9207322340046     Delta-E=       -0.000000000001 Rises=F Damp=F
 DIIS: error= 9.03D-09 at cycle  19 NSaved=  17.
 NSaved=17 IEnMin=17 EnMin= -24.9207322340046     IErMin=17 ErrMin= 9.03D-09
 ErrMax= 9.03D-09  0.00D+00 EMaxC= 1.00D-01 BMatC= 5.77D-15 BMatP= 2.68D-13
 IDIUse=1 WtCom= 1.00D+00 WtEn= 0.00D+00
 Large coefficients: NSaved= 17 BigCof=    0.00 CofMax=   10.00 Det=-1.56D-15
 Inversion failed.  Reducing to 16 matrices.
 Large coefficients: NSaved= 16 BigCof=    0.00 CofMax=   10.00 Det=-1.98D-15
 Inversion failed.  Reducing to 15 matrices.
 Coeff-Com: -0.216D-06 0.458D-05-0.692D-05 0.124D-05 0.246D-04-0.905D-04
 Coeff-Com:  0.729D-04 0.183D-02-0.149D-01 0.196D-01-0.372D-02-0.295D-01
 Coeff-Com:  0.130D+00-0.621D+00 0.152D+01
 Coeff:     -0.216D-06 0.458D-05-0.692D-05 0.124D-05 0.246D-04-0.905D-04
 Coeff:      0.729D-04 0.183D-02-0.149D-01 0.196D-01-0.372D-02-0.295D-01
 Coeff:      0.130D+00-0.621D+00 0.152D+01
 Gap=     0.192 Goal=   None    Shift=    0.000
 Gap=     0.192 Goal=   None    Shift=    0.000
 RMSDP=3.52D-09 MaxDP=1.16D-07 DE=-7.11D-13 OVMax= 7.42D-07

 Density matrix breaks symmetry, PCut= 1.00D-07
 Density matrix has no symmetry -- integrals replicated.
 SCF Done:  E(UHF) =  -24.9207322340     A.U. after   19 cycles
            NFock= 19  Conv=0.35D-08     -V/T= 2.0069
 <Sx>= 0.0000 <Sy>= 0.0000 <Sz>= 0.0000 <S**2>= 0.1581 S= 0.1388
 <L.S>=  0.00000000000    
 KE= 2.474991210959D+01 PE=-5.859413842173D+01 EE= 8.188525729634D+00
 Annihilation of the first spin contaminant:
 S**2 before annihilation     0.1581,   after     0.0022
 Leave Link  502 at Sun May 22 21:10:21 2022, MaxMem=   104857600 cpu:               3.8 elap:               3.8
 (Enter /apps/software/g16/l601.exe)
 Copying SCF densities to generalized density rwf, IOpCl= 1 IROHF=0.
 SCF density gives NOpUse=  1 NOpAll=  4.
 Marking SCF density as not fully symmetric.

 **********************************************************************

            Population analysis using the SCF density.

 **********************************************************************

 Orbital symmetries:
 Alpha Orbitals:
       Occupied  (SG) (?A) (?A)
       Virtual   (?A) (?A) (?A) (?A) (?A) (?A) (SG) (SG) (?B) (?B)
                 (?B) (?B) (SG) (?C) (?C) (?C) (?C) (?C) (?C) (SG)
                 (?D) (?D) (?D) (?D) (?D) (?D) (?D) (?D) (?D) (PI)
                 (PI) (SG) (SG) (DLTA) (DLTA) (PI) (PI) (?E) (?E)
                 (?E) (?F) (?F) (?F) (?F) (?G) (?G) (?G) (?G) (?G)
                 (?G) (?G) (?G) (?G) (?G) (?G) (?G) (?G) (?G) (?G)
                 (?G) (?G) (?G) (?G) (?G) (?G) (SG) (PHI) (PHI)
                 (DLTA) (DLTA) (SG) (PI) (PI) (SG) (DLTA) (DLTA)
                 (PI) (PI) (PI) (PI) (SG) (SG) (?H) (?H) (?H) (?I)
                 (?I) (?I) (?I) (?I) (?I) (?I) (?I) (?I) (?I) (?I)
                 (PI) (PI) (?J) (?J) (?J) (?J) (?J) (?J) (?J) (SG)
                 (PHI) (PHI) (DLTA) (DLTA) (PI) (PI) (SG) (SG)
                 (PI) (PI) (SG) (DLTA) (DLTA) (PI) (PI) (SG) (SG)
 Beta  Orbitals:
       Occupied  (SG) (?A) (?A)
       Virtual   (?A) (?A) (?A) (?A) (?A) (?A) (SG) (SG) (?B) (?B)
                 (?B) (?B) (SG) (?C) (?C) (?C) (?C) (?C) (?C) (SG)
                 (?D) (?D) (?D) (?D) (?D) (?D) (?D) (?D) (?D) (PI)
                 (PI) (SG) (SG) (DLTA) (DLTA) (PI) (PI) (?E) (?E)
                 (?E) (?F) (?F) (?F) (?F) (?G) (?G) (?G) (?G) (?G)
                 (?G) (?G) (?G) (?G) (?G) (?G) (?G) (?G) (?G) (?G)
                 (?G) (?G) (?G) (?G) (?G) (?G) (SG) (PHI) (PHI)
                 (DLTA) (DLTA) (SG) (PI) (PI) (SG) (DLTA) (DLTA)
                 (PI) (PI) (PI) (PI) (SG) (SG) (?H) (?H) (?H) (?I)
                 (?I) (?I) (?I) (?I) (?I) (?I) (?I) (?I) (?I) (?I)
                 (PI) (PI) (?J) (?J) (?J) (?J) (?J) (?J) (?J) (SG)
                 (PHI) (PHI) (DLTA) (DLTA) (PI) (PI) (SG) (SG)
                 (PI) (PI) (SG) (DLTA) (DLTA) (PI) (PI) (SG) (SG)
 Unable to determine electronic state:  an orbital has unidentified symmetry.
 Alpha  occ. eigenvalues --   -7.87280  -0.60839  -0.25240
 Alpha virt. eigenvalues --   -0.06012  -0.03375  -0.02566   0.02801   0.04696
 Alpha virt. eigenvalues --    0.04765   0.06757   0.09112   0.12569   0.12569
 Alpha virt. eigenvalues --    0.13217   0.13254   0.16241   0.24540   0.24633
 Alpha virt. eigenvalues --    0.26121   0.26661   0.26796   0.29781   0.34211
 Alpha virt. eigenvalues --    0.42601   0.42601   0.43220   0.43220   0.44542
 Alpha virt. eigenvalues --    0.44546   0.45205   0.45213   0.45479   0.47253
 Alpha virt. eigenvalues --    0.47331   0.48999   0.58059   0.69461   0.69461
 Alpha virt. eigenvalues --    0.76995   0.77021   0.87677   0.87689   0.87707
 Alpha virt. eigenvalues --    0.95427   0.95723   0.96129   1.00698   1.30343
 Alpha virt. eigenvalues --    1.30889   1.30889   1.31558   1.31571   1.31843
 Alpha virt. eigenvalues --    1.31845   1.32363   1.32366   1.32574   1.32681
 Alpha virt. eigenvalues --    1.33415   1.33471   1.33636   1.36306   1.36306
 Alpha virt. eigenvalues --    1.37583   1.37585   1.40222   1.41823   1.42016
 Alpha virt. eigenvalues --    1.55966   1.64059   1.64059   1.65893   1.65893
 Alpha virt. eigenvalues --    1.74645   1.75100   1.75131   1.90070   2.55607
 Alpha virt. eigenvalues --    2.55607   2.61399   2.61406   2.68753   2.68756
 Alpha virt. eigenvalues --    2.74786   2.77315   3.59770   3.59934   3.64592
 Alpha virt. eigenvalues --    3.81823   3.81823   3.82596   3.82596   3.82827
 Alpha virt. eigenvalues --    3.82827   3.83795   3.83807   3.83900   3.84101
 Alpha virt. eigenvalues --    3.84910   3.87362   3.87600   3.96880   3.96880
 Alpha virt. eigenvalues --    3.98245   3.98251   4.00758   4.00973   4.01466
 Alpha virt. eigenvalues --    4.06444   6.64854   6.64854   6.65306   6.65306
 Alpha virt. eigenvalues --    6.67580   6.67582   6.71024   7.56848   8.04396
 Alpha virt. eigenvalues --    8.04397   8.10214   8.48854   8.48854   8.52814
 Alpha virt. eigenvalues --    8.52815   8.62415  12.93743
  Beta  occ. eigenvalues --   -7.87280  -0.60839  -0.25240
  Beta virt. eigenvalues --   -0.06012  -0.03375  -0.02566   0.02801   0.04696
  Beta virt. eigenvalues --    0.04765   0.06757   0.09112   0.12569   0.12569
  Beta virt. eigenvalues --    0.13217   0.13254   0.16241   0.24540   0.24633
  Beta virt. eigenvalues --    0.26121   0.26661   0.26796   0.29781   0.34211
  Beta virt. eigenvalues --    0.42601   0.42601   0.43220   0.43220   0.44542
  Beta virt. eigenvalues --    0.44546   0.45205   0.45213   0.45479   0.47253
  Beta virt. eigenvalues --    0.47331   0.48999   0.58059   0.69461   0.69461
  Beta virt. eigenvalues --    0.76995   0.77021   0.87677   0.87689   0.87707
  Beta virt. eigenvalues --    0.95427   0.95723   0.96129   1.00698   1.30343
  Beta virt. eigenvalues --    1.30889   1.30889   1.31558   1.31571   1.31843
  Beta virt. eigenvalues --    1.31845   1.32363   1.32366   1.32574   1.32681
  Beta virt. eigenvalues --    1.33415   1.33471   1.33636   1.36306   1.36306
  Beta virt. eigenvalues --    1.37583   1.37585   1.40222   1.41823   1.42016
  Beta virt. eigenvalues --    1.55966   1.64059   1.64059   1.65893   1.65893
  Beta virt. eigenvalues --    1.74645   1.75100   1.75131   1.90070   2.55607
  Beta virt. eigenvalues --    2.55607   2.61399   2.61406   2.68753   2.68756
  Beta virt. eigenvalues --    2.74786   2.77315   3.59770   3.59934   3.64592
  Beta virt. eigenvalues --    3.81823   3.81823   3.82596   3.82596   3.82827
  Beta virt. eigenvalues --    3.82827   3.83795   3.83807   3.83900   3.84101
  Beta virt. eigenvalues --    3.84910   3.87362   3.87600   3.96880   3.96880
  Beta virt. eigenvalues --    3.98245   3.98251   4.00758   4.00973   4.01466
  Beta virt. eigenvalues --    4.06444   6.64854   6.64854   6.65306   6.65306
  Beta virt. eigenvalues --    6.67580   6.67582   6.71024   7.56848   8.04396
  Beta virt. eigenvalues --    8.04397   8.10214   8.48854   8.48854   8.52814
  Beta virt. eigenvalues --    8.52815   8.62415  12.93743
          Condensed to atoms (all electrons):
               1          2
     1  B    4.491690   0.156629
     2  H    0.156629   1.195053
          Atomic-Atomic Spin Densities.
               1          2
     1  B    0.000000   0.000000
     2  H    0.000000   0.000000
 Mulliken charges and spin densities:
               1          2
     1  B    0.351681   0.000000
     2  H   -0.351681   0.000000
 Sum of Mulliken charges =  -0.00000   0.00000
 Mulliken charges and spin densities with hydrogens summed into heavy atoms:
               1          2
     1  B   -0.000000   0.000000
 Electronic spatial extent (au):  <R**2>=             69.8029
 Charge=             -0.0000 electrons
 Dipole moment (field-independent basis, Debye):
    X=              0.0000    Y=              0.0000    Z=              6.8313  Tot=              6.8313
 Quadrupole moment (field-independent basis, Debye-Ang):
   XX=             -8.9016   YY=             -9.2051   ZZ=            -23.9061
   XY=              0.0000   XZ=             -0.0000   YZ=              0.0000
 Traceless Quadrupole moment (field-independent basis, Debye-Ang):
   XX=              5.1027   YY=              4.7992   ZZ=             -9.9018
   XY=              0.0000   XZ=             -0.0000   YZ=              0.0000
 Octapole moment (field-independent basis, Debye-Ang**2):
  XXX=             -0.0000  YYY=              0.0000  ZZZ=             54.3976  XYY=              0.0000
  XXY=              0.0000  XXZ=              7.7769  XZZ=             -0.0000  YZZ=              0.0000
  YYZ=              7.5700  XYZ=              0.0000
 Hexadecapole moment (field-independent basis, Debye-Ang**3):
 XXXX=            -18.5429 YYYY=            -19.5966 ZZZZ=           -298.7110 XXXY=              0.0000
 XXXZ=              0.0000 YYYX=              0.0000 YYYZ=              0.0000 ZZZX=              0.0000
 ZZZY=              0.0000 XXYY=             -6.3568 XXZZ=            -37.9513 YYZZ=            -38.2802
 XXYZ=              0.0000 YYXZ=             -0.0000 ZZXY=              0.0000
 N-N= 7.349683485000D-01 E-N=-5.859413860876D+01  KE= 2.474991210959D+01
 Symmetry A1   KE= 2.468822535678D+01
 Symmetry A2   KE= 1.340622256409D-29
 Symmetry B1   KE= 9.028877134558D-30
 Symmetry B2   KE= 6.168675281399D-02
 Symmetry A1   SP= 0.000000000000D+00
 Symmetry A2   SP= 0.000000000000D+00
 Symmetry B1   SP= 0.000000000000D+00
 Symmetry B2   SP= 0.000000000000D+00
                          Isotropic Fermi Contact Couplings
        Atom                 a.u.       MegaHertz       Gauss      10(-4) cm-1
     1  B(11)              0.00000       0.00000       0.00000       0.00000
     2  H(1)               0.00000       0.00000       0.00000       0.00000
 --------------------------------------------------------
       Center         ----  Spin Dipole Couplings  ----
                      3XX-RR        3YY-RR        3ZZ-RR
 --------------------------------------------------------
     1   Atom        0.000000      0.000000      0.000000
     2   Atom        0.000000      0.000000      0.000000
 --------------------------------------------------------
                        XY            XZ            YZ
 --------------------------------------------------------
     1   Atom        0.000000      0.000000     -0.144871
     2   Atom        0.000000      0.000000      0.001109
 --------------------------------------------------------


 ---------------------------------------------------------------------------------
              Anisotropic Spin Dipole Couplings in Principal Axis System
 ---------------------------------------------------------------------------------

       Atom             a.u.   MegaHertz   Gauss  10(-4) cm-1        Axes

              Baa    -0.1449   -24.804    -8.851    -8.274 -0.0000  0.7071  0.7071
     1 B(11)  Bbb     0.0000     0.000     0.000     0.000  1.0000  0.0000  0.0000
              Bcc     0.1449    24.804     8.851     8.274  0.0000  0.7071 -0.7071
 
              Baa    -0.0011    -0.592    -0.211    -0.197 -0.0000  0.7071 -0.7071
     2 H(1)   Bbb     0.0000     0.000     0.000     0.000  1.0000  0.0000 -0.0000
              Bcc     0.0011     0.592     0.211     0.197  0.0000  0.7071  0.7071
 

 ---------------------------------------------------------------------------------

 No NMR shielding tensors so no spin-rotation constants.
 Leave Link  601 at Sun May 22 21:10:21 2022, MaxMem=   104857600 cpu:               0.2 elap:               0.2
 (Enter /apps/software/g16/l801.exe)
 Range of M.O.s used for correlation:     1   126
 NBasis=   126 NAE=     3 NBE=     3 NFC=     0 NFV=     0
 NROrb=    126 NOA=     3 NOB=     3 NVA=   123 NVB=   123
 Leave Link  801 at Sun May 22 21:10:21 2022, MaxMem=   104857600 cpu:               0.0 elap:               0.0
 (Enter /apps/software/g16/l914.exe)
 UHF ground state
 Doing stability rather than CIS.
 Keep R1 and R2 ints in memory in symmetry-blocked form, NReq=40144005.
 FoFCou: FMM=F IPFlag=           0 FMFlag=           0 FMFlg1=           0
         NFxFlg=           0 DoJE=F BraDBF=F KetDBF=F FulRan=T
         wScrn=  0.000000 ICntrl=       600 IOpCl=  0 I1Cent=           0 NGrid=           0
         NMat0=    1 NMatS0=   8001 NMatT0=    0 NMatD0=    1 NMtDS0=    0 NMtDT0=    0
 Petite list used in FoFCou.
 MDV=   104857600 DFT=F DoStab=T Mixed=F DoRPA=F DoScal=F NonHer=F
 Making orbital integer symmetry assigments:
 Orbital symmetries:
 Alpha Orbitals:
       Occupied  (SG) (?A) (?A)
       Virtual   (?A) (?A) (?A) (?A) (?A) (?A) (SG) (SG) (?B) (?B)
                 (?B) (?B) (SG) (?C) (?C) (?C) (?C) (?C) (?C) (SG)
                 (?D) (?D) (?D) (?D) (?D) (?D) (?D) (?D) (?D) (PI)
                 (PI) (SG) (SG) (DLTA) (DLTA) (PI) (PI) (?E) (?E)
                 (?E) (?F) (?F) (?F) (?F) (?G) (?G) (?G) (?G) (?G)
                 (?G) (?G) (?G) (?G) (?G) (?G) (?G) (?G) (?G) (?G)
                 (?G) (?G) (?G) (?G) (?G) (?G) (SG) (PHI) (PHI)
                 (DLTA) (DLTA) (SG) (PI) (PI) (SG) (DLTA) (DLTA)
                 (PI) (PI) (PI) (PI) (SG) (SG) (?H) (?H) (?H) (?I)
                 (?I) (?I) (?I) (?I) (?I) (?I) (?I) (?I) (?I) (?I)
                 (PI) (PI) (?J) (?J) (?J) (?J) (?J) (?J) (?J) (SG)
                 (PHI) (PHI) (DLTA) (DLTA) (PI) (PI) (SG) (SG)
                 (PI) (PI) (SG) (DLTA) (DLTA) (PI) (PI) (SG) (SG)
 Beta  Orbitals:
       Occupied  (SG) (?A) (?A)
       Virtual   (?A) (?A) (?A) (?A) (?A) (?A) (SG) (SG) (?B) (?B)
                 (?B) (?B) (SG) (?C) (?C) (?C) (?C) (?C) (?C) (SG)
                 (?D) (?D) (?D) (?D) (?D) (?D) (?D) (?D) (?D) (PI)
                 (PI) (SG) (SG) (DLTA) (DLTA) (PI) (PI) (?E) (?E)
                 (?E) (?F) (?F) (?F) (?F) (?G) (?G) (?G) (?G) (?G)
                 (?G) (?G) (?G) (?G) (?G) (?G) (?G) (?G) (?G) (?G)
                 (?G) (?G) (?G) (?G) (?G) (?G) (SG) (PHI) (PHI)
                 (DLTA) (DLTA) (SG) (PI) (PI) (SG) (DLTA) (DLTA)
                 (PI) (PI) (PI) (PI) (SG) (SG) (?H) (?H) (?H) (?I)
                 (?I) (?I) (?I) (?I) (?I) (?I) (?I) (?I) (?I) (?I)
                 (PI) (PI) (?J) (?J) (?J) (?J) (?J) (?J) (?J) (SG)
                 (PHI) (PHI) (DLTA) (DLTA) (PI) (PI) (SG) (SG)
                 (PI) (PI) (SG) (DLTA) (DLTA) (PI) (PI) (SG) (SG)
    12 initial guesses have been made.
 Convergence on wavefunction:    0.001000000000000
 Davidson Disk Diagonalization:  ConvIn= 1.00D-03 SkipCon=T Conv= 1.00D-03.
 Max sub-space:  1476 roots to seek:    12 dimension of matrix:          738
 Iteration     1 Dimension    12 NMult     0 NNew     12
 CISAX will form    12 AO SS matrices at one time.
 NMat=    12 NSing=    12 JSym2X= 2.
 New state      1 was old state      5
 Excitation Energies [eV] at current iteration:
 Root      1 :    -4.160698679552455
 Root      2 :     0.828121328603781
 Root      3 :     1.198208278594575
 Root      4 :     1.294594791824395
 Root      5 :     1.356210898943296
 Root      6 :     4.643752709620089
 Root      7 :     4.695993520780360
 Root      8 :     5.446165857355779
 Root      9 :     5.491684825325903
 Root     10 :     5.568111127741948
 Root     11 :     5.602688665440978
 Root     12 :     8.120715149818226
 Iteration     2 Dimension    24 NMult    12 NNew     12
 CISAX will form    12 AO SS matrices at one time.
 NMat=    12 NSing=    12 JSym2X= 2.
 Root      1 not converged, maximum delta is    0.114075811256549
 Excitation Energies [eV] at current iteration:
 Root      1 :    -5.885130086281568   Change is   -1.724431406729113
 Root      2 :     0.252955021811094   Change is   -0.575166306792687
 Root      3 :     0.641453734511326   Change is   -0.556754544083249
 Root      4 :     0.861087947483149   Change is   -0.495122951460147
 Root      5 :     0.893723573145350   Change is   -0.400871218679045
 Root      6 :     4.182653391669998   Change is   -0.461099317950091
 Root      7 :     4.299093095233516   Change is   -0.396900425546844
 Root      8 :     4.920355351709068   Change is   -0.525810505646711
 Root      9 :     5.114027855333820   Change is   -0.377656969992082
 Root     10 :     5.114865179603656   Change is   -0.487823485837321
 Root     11 :     5.140054561892126   Change is   -0.428056565849822
 Root     12 :     5.789991366074043   Change is   -2.330723783744183
 Iteration     3 Dimension    27 NMult    24 NNew      3
 CISAX will form     3 AO SS matrices at one time.
 NMat=     3 NSing=     3 JSym2X= 2.
 Root      1 not converged, maximum delta is    0.022386152731358
 Excitation Energies [eV] at current iteration:
 Root      1 :    -5.969622117581203   Change is   -0.084492031299634
 Root      2 :     0.195355003865601   Change is   -0.057600017945492
 Root      3 :     0.604741805640877   Change is   -0.036711928870449
 Iteration     4 Dimension    30 NMult    27 NNew      3
 CISAX will form     3 AO SS matrices at one time.
 NMat=     3 NSing=     3 JSym2X= 2.
 Root      1 not converged, maximum delta is    0.001694976624627
 Excitation Energies [eV] at current iteration:
 Root      1 :    -5.970806878429092   Change is   -0.001184760847889
 Root      2 :     0.026272972877914   Change is   -0.169082030987688
 Root      3 :     0.531197756190207   Change is   -0.073544049450670
 Iteration     5 Dimension    33 NMult    30 NNew      3
 CISAX will form     3 AO SS matrices at one time.
 NMat=     3 NSing=     3 JSym2X= 2.
 Root      1 has converged.
 Excitation Energies [eV] at current iteration:
 Root      1 :    -5.970817722477394   Change is   -0.000010844048302
 Root      2 :     0.002125875230455   Change is   -0.024147097647459
 Root      3 :     0.495585925848594   Change is   -0.035611830341613
 Convergence achieved on expansion vectors.
 ***********************************************************************
 Stability analysis using <AA,BB:AA,BB> singles matrix:
 ***********************************************************************
 1PDM for each excited state written to RWF  633
 Ground to excited state transition densities written to RWF  633

 Eigenvectors of the stability matrix:
 
 Excited state symmetry could not be determined.
 Eigenvector   1:  2.905-?Sym  Eigenvalue=-0.2194235  <S**2>=1.860
      3A ->  4A       -0.64255
      3A ->  6A       -0.17159
      3A ->  7A        0.12841
      3A -> 16A        0.10223
      3B ->  4B        0.64255
      3B ->  6B       -0.17159
      3B ->  7B       -0.12841
      3B -> 16B       -0.10223
 The wavefunction has an internal instability.
 Leave Link  914 at Sun May 22 21:10:25 2022, MaxMem=   104857600 cpu:               4.0 elap:               4.0
 (Enter /apps/software/g16/l508.exe)
 Keep R1 and R2 ints in memory in symmetry-blocked form, NReq=40144065.
 FoFCou: FMM=F IPFlag=           0 FMFlag=           0 FMFlg1=           0
         NFxFlg=           0 DoJE=F BraDBF=F KetDBF=F FulRan=T
         wScrn=  0.000000 ICntrl=       600 IOpCl=  0 I1Cent=           0 NGrid=           0
         NMat0=    1 NMatS0=   8001 NMatT0=    0 NMatD0=    1 NMtDS0=    0 NMtDT0=    0
 Petite list used in FoFCou.
 Tight linear equation convergence will be used.
 UHF wavefunction.
 Quadratic Convergence SCF Method.
 Line search only if initial step raises energy.
 Perform preliminary linear searches along instability eigenvector.
     ILin= 1 X=0.000D+00 Y=-2.492073223400D+01 DE= 0.00D+00
     ILin= 2 X=1.000D-01 Y=-2.492290749140D+01 DE=-2.18D-03
     ILin= 3 X=1.414D-01 Y=-2.492504502764D+01 DE=-4.31D-03
     ILin= 4 X=2.000D-01 Y=-2.492920820239D+01 DE=-8.48D-03
     ILin= 5 X=2.828D-01 Y=-2.493709571111D+01 DE=-1.64D-02
     ILin= 6 X=4.000D-01 Y=-2.495118388255D+01 DE=-3.05D-02
     ILin= 7 X=5.657D-01 Y=-2.497313758298D+01 DE=-5.24D-02
     ILin= 8 X=8.000D-01 Y=-2.499599783047D+01 DE=-7.53D-02
     ILin= 9 X=1.131D+00 Y=-2.498320442350D+01 DE=-6.25D-02
     An  expanding polynomial of degree  9 produced  0.9038
 Iteration F X= 9.038D-01 EE=-2.499890034580222D+01
     ILin= 1 X=0.000D+00 Y=-2.492073223400D+01 DE= 0.00D+00
     ILin= 2 X=1.000D-01 Y=-2.492290748997D+01 DE=-2.18D-03
     ILin= 3 X=1.414D-01 Y=-2.492504502362D+01 DE=-4.31D-03
 The two search directions are symmetric.
 Iteration B X= 9.038D-01 EE=-2.499890034580222D+01
 Take forward step, X= 9.038D-01 Step= 9.038D-01
 Iteration   1 EE= -24.9988981926176                                    Grad=1.019D-01 Max rot=    2.2490 deg.
 Gradient too large for Newton-Raphson -- use scaled steepest descent instead.
 Alpha Gap=     0.495 HL deriv= 6.80D-02
  Beta Gap=     0.306 HL deriv= 1.28D-01
     ILin= 1 X=0.000D+00 Y=-2.499889819262D+01 DE= 0.00D+00 F= -3.30D-02
     ILin= 2 X=3.000D-01 Y=-2.500805719509D+01 DE=-9.16D-03 F= -2.80D-02
     ILin= 3 X=5.000D-01 Y=-2.501329049993D+01 DE=-1.44D-02 F= -2.43D-02
     ILin= 4 X=7.000D-01 Y=-2.501777096652D+01 DE=-1.89D-02 F= -2.04D-02
     ILin= 5 X=1.000D+00 Y=-2.502298738561D+01 DE=-2.41D-02 F= -1.43D-02
     ILin= 6 X=1.600D+00 Y=-2.502756763041D+01 DE=-2.87D-02 F= -8.09D-04
     Reject lnstep minimum 1.938D+00 FVal=-2.502792687962D+01 Lims=  1.00D+00  1.60D+00
     ILin= 7 X=2.400D+00 Y=-2.502061946750D+01 DE=-2.17D-02 F=  1.83D-02
     An  expanding polynomial of degree  7 produced  1.6346
     Minimum is close to point  6 DX=  3.46D-02 DF= -1.40D-05 DXR=  2.12D-02 DFR=  4.89D-04 which will be used.
 Iteration   2 EE= -25.0275676304057     Delta-E=       -0.028669437788 Grad=4.618D-02 Max rot=    0.8973 deg.
 Gradient too large for Newton-Raphson -- use scaled steepest descent instead.
 Alpha Gap=     0.557 HL deriv= 2.64D-02
  Beta Gap=     0.358 HL deriv= 4.37D-02
     ILin= 1 X=0.000D+00 Y=-2.502756763041D+01 DE= 0.00D+00 F= -5.79D-03
     ILin= 2 X=7.000D-01 Y=-2.503066555655D+01 DE=-3.10D-03 F= -3.04D-03
     ILin= 3 X=1.300D+00 Y=-2.503175261893D+01 DE=-4.18D-03 F= -5.70D-04
     ILin= 4 X=2.300D+00 Y=-2.503019504332D+01 DE=-2.63D-03 F=  3.71D-03
     An  expanding polynomial of degree  4 produced  1.4366
     Minimum is close to point  3 DX=  1.37D-01 DF= -3.92D-05 DXR=  9.51D-02 DFR=  9.37D-03 which will be used.
 Iteration   3 EE= -25.0317526189320     Delta-E=       -0.004184988526 Grad=1.856D-02 Max rot=    0.3329 deg.
 Gradient too large for Newton-Raphson -- use scaled steepest descent instead.
 Alpha Gap=     0.572 HL deriv= 3.20D-03
  Beta Gap=     0.369 HL deriv= 1.57D-02
     ILin= 1 X=0.000D+00 Y=-2.503175261893D+01 DE= 0.00D+00 F= -9.05D-04
     ILin= 2 X=1.500D+00 Y=-2.503256097767D+01 DE=-8.08D-04 F= -1.70D-04
     ILin= 3 X=3.100D+00 Y=-2.503219136803D+01 DE=-4.39D-04 F=  6.35D-04
     An  expanding polynomial of degree  3 produced  1.8349
 Iteration   4 EE= -25.0325898760913     Delta-E=       -0.000837257159 Grad=1.082D-02 Max rot=    0.2814 deg.
 Gradient too large for Newton-Raphson -- use scaled steepest descent instead.
 Alpha Gap=     0.577 HL deriv= 4.12D-03
  Beta Gap=     0.374 HL deriv= 4.37D-03
     ILin= 1 X=0.000D+00 Y=-2.503258987609D+01 DE= 0.00D+00 F= -2.50D-04
     ILin= 2 X=1.600D+00 Y=-2.503274994664D+01 DE=-1.60D-04 F=  5.03D-05
     Accept linear search using points  1 and  2.
     An  expanding polynomial of degree  2 produced  1.4856
     Minimum is close to point  2 DX= -1.14D-01 DF= -1.76D-06 DXR=  7.70D-02 DFR=  1.10D-02 which will be used.
 Iteration   5 EE= -25.0327499466424     Delta-E=       -0.000160070551 Grad=7.101D-03 Max rot=    0.1804 deg.
 QCNR:  CnvC1=2.72D-09 CnvC2=2.72D-08
 LinEq1:  Iter=  0 NonCon=     1 RMS=2.92D-04 Max=3.27D-03 NDo=     1
 AX will form     1 AO Fock derivatives at one time.
 LinEq1:  Iter=  1 NonCon=     1 RMS=1.10D-04 Max=1.33D-03 NDo=     1
 LinEq1:  Iter=  2 NonCon=     1 RMS=1.36D-05 Max=1.42D-04 NDo=     1
 LinEq1:  Iter=  3 NonCon=     1 RMS=2.69D-06 Max=2.98D-05 NDo=     1
 LinEq1:  Iter=  4 NonCon=     1 RMS=3.71D-07 Max=4.24D-06 NDo=     1
 LinEq1:  Iter=  5 NonCon=     1 RMS=1.18D-07 Max=1.24D-06 NDo=     1
 LinEq1:  Iter=  6 NonCon=     1 RMS=3.15D-08 Max=3.40D-07 NDo=     1
 LinEq1:  Iter=  7 NonCon=     1 RMS=7.23D-09 Max=5.80D-08 NDo=     1
 LinEq1:  Iter=  8 NonCon=     0 RMS=1.09D-09 Max=8.51D-09 NDo=     1
 Linear equations converged to 2.717D-09 2.717D-08 after     8 iterations.
 Angle between quadratic step and gradient=  67.47 degrees.
     ILin= 1 X=0.000D+00 Y=-2.503274994664D+01 DE= 0.00D+00 F= -7.33D-04
     ILin= 2 X=1.000D+00 Y=-2.503310605011D+01 DE=-3.56D-04 F=  2.55D-05
     Accept linear search using points  1 and  2.
     An  expanding polynomial of degree  2 produced  0.9670
     Minimum is close to point  2 DX= -3.30D-02 DF= -4.20D-07 DXR=  3.41D-02 DFR=  1.18D-03 which will be used.
 Iteration   6 EE= -25.0331060501087     Delta-E=       -0.000356103466 Grad=8.503D-03 Max rot=    0.2903 deg.
 QCNR:  CnvC1=2.72D-09 CnvC2=2.72D-08
 LinEq1:  Iter=  0 NonCon=     1 RMS=1.43D-04 Max=1.65D-03 NDo=     1
 LinEq1:  Iter=  1 NonCon=     1 RMS=3.34D-05 Max=3.65D-04 NDo=     1
 LinEq1:  Iter=  2 NonCon=     1 RMS=7.70D-06 Max=7.76D-05 NDo=     1
 LinEq1:  Iter=  3 NonCon=     1 RMS=2.18D-06 Max=1.86D-05 NDo=     1
 LinEq1:  Iter=  4 NonCon=     1 RMS=5.88D-07 Max=4.46D-06 NDo=     1
 LinEq1:  Iter=  5 NonCon=     1 RMS=1.11D-07 Max=1.15D-06 NDo=     1
 LinEq1:  Iter=  6 NonCon=     1 RMS=2.65D-08 Max=2.87D-07 NDo=     1
 LinEq1:  Iter=  7 NonCon=     1 RMS=8.10D-09 Max=8.81D-08 NDo=     1
 LinEq1:  Iter=  8 NonCon=     0 RMS=1.45D-09 Max=1.32D-08 NDo=     1
 Linear equations converged to 2.717D-09 2.717D-08 after     8 iterations.
 Angle between quadratic step and gradient=  82.37 degrees.
     ILin= 1 X=0.000D+00 Y=-2.503310605011D+01 DE= 0.00D+00 F= -6.68D-05
     ILin= 2 X=1.000D+00 Y=-2.503313872073D+01 DE=-3.27D-05 F=  8.08D-07
     Accept linear search using points  1 and  2.
     An  expanding polynomial of degree  2 produced  0.9877
     Minimum is close to point  2 DX= -1.23D-02 DF= -4.98D-09 DXR=  1.25D-02 DFR=  1.52D-04 which will be used.
 Iteration   7 EE= -25.0331387207259     Delta-E=       -0.000032670617 Grad=3.976D-03 Max rot=    0.1207 deg.
 QCNR:  CnvC1=2.72D-09 CnvC2=2.72D-08
 LinEq1:  Iter=  0 NonCon=     1 RMS=4.64D-05 Max=4.24D-04 NDo=     1
 LinEq1:  Iter=  1 NonCon=     1 RMS=1.10D-05 Max=1.26D-04 NDo=     1
 LinEq1:  Iter=  2 NonCon=     1 RMS=3.30D-06 Max=4.29D-05 NDo=     1
 LinEq1:  Iter=  3 NonCon=     1 RMS=8.82D-07 Max=8.77D-06 NDo=     1
 LinEq1:  Iter=  4 NonCon=     1 RMS=1.67D-07 Max=1.44D-06 NDo=     1
 LinEq1:  Iter=  5 NonCon=     1 RMS=3.74D-08 Max=3.78D-07 NDo=     1
 LinEq1:  Iter=  6 NonCon=     1 RMS=8.76D-09 Max=8.16D-08 NDo=     1
 LinEq1:  Iter=  7 NonCon=     0 RMS=2.45D-09 Max=2.01D-08 NDo=     1
 Linear equations converged to 2.717D-09 2.717D-08 after     7 iterations.
 Angle between quadratic step and gradient=  87.93 degrees.
     ILin= 1 X=0.000D+00 Y=-2.503313872073D+01 DE= 0.00D+00 F= -2.01D-05
     ILin= 2 X=1.000D+00 Y=-2.503314445223D+01 DE=-5.73D-06 F=  9.12D-06
     Accept linear search using points  1 and  2.
     An  expanding polynomial of degree  2 produced  0.6981
 Iteration   8 EE= -25.0331458074146     Delta-E=       -0.000007086689 Grad=2.136D-03 Max rot=    0.0390 deg.
 QCNR:  CnvC1=2.72D-09 CnvC2=2.72D-08
 LinEq1:  Iter=  0 NonCon=     1 RMS=3.30D-05 Max=2.61D-04 NDo=     1
 LinEq1:  Iter=  1 NonCon=     1 RMS=1.21D-05 Max=1.22D-04 NDo=     1
 LinEq1:  Iter=  2 NonCon=     1 RMS=2.94D-06 Max=2.76D-05 NDo=     1
 LinEq1:  Iter=  3 NonCon=     1 RMS=6.06D-07 Max=6.86D-06 NDo=     1
 LinEq1:  Iter=  4 NonCon=     1 RMS=1.02D-07 Max=8.03D-07 NDo=     1
 LinEq1:  Iter=  5 NonCon=     1 RMS=3.26D-08 Max=3.88D-07 NDo=     1
 LinEq1:  Iter=  6 NonCon=     1 RMS=8.21D-09 Max=6.46D-08 NDo=     1
 LinEq1:  Iter=  7 NonCon=     0 RMS=1.06D-09 Max=7.44D-09 NDo=     1
 Linear equations converged to 2.717D-09 2.717D-08 after     7 iterations.
 Angle between quadratic step and gradient=  87.14 degrees.
     ILin= 1 X=0.000D+00 Y=-2.503314580741D+01 DE= 0.00D+00 F= -1.69D-05
     ILin= 2 X=1.000D+00 Y=-2.503313763813D+01 DE= 8.17D-06 F=  3.38D-05
     Reject lnstep minimum 3.406D-01 FVal=-2.503314869102D+01 Lims=  0.00D+00  1.00D+00
     ILin= 3 X=3.000D-01 Y=-2.503314862969D+01 DE=-2.82D-06 F= -1.96D-06
     A contracting polynomial of degree  3 produced  0.3373
 Iteration   9 EE= -25.0331486680390     Delta-E=       -0.000002860624 Grad=3.198D-03 Max rot=    0.0770 deg.
 QCNR:  CnvC1=2.72D-09 CnvC2=2.72D-08
 LinEq1:  Iter=  0 NonCon=     1 RMS=4.04D-05 Max=3.33D-04 NDo=     1
 LinEq1:  Iter=  1 NonCon=     1 RMS=1.12D-05 Max=1.11D-04 NDo=     1
 LinEq1:  Iter=  2 NonCon=     1 RMS=3.34D-06 Max=4.33D-05 NDo=     1
 LinEq1:  Iter=  3 NonCon=     1 RMS=7.07D-07 Max=6.96D-06 NDo=     1
 LinEq1:  Iter=  4 NonCon=     1 RMS=1.67D-07 Max=1.40D-06 NDo=     1
 LinEq1:  Iter=  5 NonCon=     1 RMS=3.86D-08 Max=3.46D-07 NDo=     1
 LinEq1:  Iter=  6 NonCon=     1 RMS=1.17D-08 Max=1.13D-07 NDo=     1
 LinEq1:  Iter=  7 NonCon=     1 RMS=3.11D-09 Max=2.15D-08 NDo=     1
 LinEq1:  Iter=  8 NonCon=     0 RMS=4.51D-10 Max=4.91D-09 NDo=     1
 Linear equations converged to 2.717D-09 2.717D-08 after     8 iterations.
 Angle between quadratic step and gradient=  88.42 degrees.
     ILin= 1 X=0.000D+00 Y=-2.503314866804D+01 DE= 0.00D+00 F= -1.39D-05
     ILin= 2 X=1.000D+00 Y=-2.503314750329D+01 DE= 1.16D-06 F=  1.76D-05
     Reject lnstep minimum 4.741D-01 FVal=-2.503315203973D+01 Lims=  0.00D+00  1.00D+00
     ILin= 3 X=5.000D-01 Y=-2.503315200393D+01 DE=-3.34D-06 F=  8.15D-07
     A contracting polynomial of degree  3 produced  0.4628
     Minimum is close to point  3 DX= -3.72D-02 DF= -2.16D-08 DXR=  8.03D-02 DFR=  6.49D-03 which will be used.
 Iteration  10 EE= -25.0331520039317     Delta-E=       -0.000003335893 Grad=4.131D-03 Max rot=    0.1425 deg.
 QCNR:  CnvC1=2.72D-09 CnvC2=2.72D-08
 LinEq1:  Iter=  0 NonCon=     1 RMS=4.79D-05 Max=3.98D-04 NDo=     1
 LinEq1:  Iter=  1 NonCon=     1 RMS=9.38D-06 Max=6.84D-05 NDo=     1
 LinEq1:  Iter=  2 NonCon=     1 RMS=2.65D-06 Max=2.44D-05 NDo=     1
 LinEq1:  Iter=  3 NonCon=     1 RMS=7.04D-07 Max=5.26D-06 NDo=     1
 LinEq1:  Iter=  4 NonCon=     1 RMS=1.96D-07 Max=1.95D-06 NDo=     1
 LinEq1:  Iter=  5 NonCon=     1 RMS=3.58D-08 Max=3.05D-07 NDo=     1
 LinEq1:  Iter=  6 NonCon=     1 RMS=7.89D-09 Max=7.46D-08 NDo=     1
 LinEq1:  Iter=  7 NonCon=     0 RMS=2.40D-09 Max=1.87D-08 NDo=     1
 Linear equations converged to 2.717D-09 2.717D-08 after     7 iterations.
 Angle between quadratic step and gradient=  82.83 degrees.
     ILin= 1 X=0.000D+00 Y=-2.503315200393D+01 DE= 0.00D+00 F= -8.18D-06
     ILin= 2 X=1.000D+00 Y=-2.503315576730D+01 DE=-3.76D-06 F=  6.41D-07
     Accept linear search using points  1 and  2.
     An  expanding polynomial of degree  2 produced  0.9271
     Minimum is close to point  2 DX= -7.29D-02 DF= -2.34D-08 DXR=  7.86D-02 DFR=  6.21D-03 which will be used.
 Iteration  11 EE= -25.0331557672971     Delta-E=       -0.000003763365 Grad=9.317D-04 Max rot=    0.0261 deg.
 QCNR:  CnvC1=2.72D-09 CnvC2=2.72D-08
 LinEq1:  Iter=  0 NonCon=     1 RMS=1.05D-05 Max=8.64D-05 NDo=     1
 LinEq1:  Iter=  1 NonCon=     1 RMS=3.59D-06 Max=2.97D-05 NDo=     1
 LinEq1:  Iter=  2 NonCon=     1 RMS=8.68D-07 Max=7.24D-06 NDo=     1
 LinEq1:  Iter=  3 NonCon=     1 RMS=2.05D-07 Max=1.82D-06 NDo=     1
 LinEq1:  Iter=  4 NonCon=     1 RMS=4.51D-08 Max=3.11D-07 NDo=     1
 LinEq1:  Iter=  5 NonCon=     1 RMS=1.26D-08 Max=9.57D-08 NDo=     1
 LinEq1:  Iter=  6 NonCon=     1 RMS=3.53D-09 Max=3.02D-08 NDo=     1
 LinEq1:  Iter=  7 NonCon=     0 RMS=7.87D-10 Max=6.35D-09 NDo=     1
 Linear equations converged to 2.717D-09 2.717D-08 after     7 iterations.
 Angle between quadratic step and gradient=  86.44 degrees.
     ILin= 1 X=0.000D+00 Y=-2.503315576730D+01 DE= 0.00D+00 F= -2.46D-06
     ILin= 2 X=1.000D+00 Y=-2.503315505227D+01 DE= 7.15D-07 F=  3.92D-06
     Reject lnstep minimum 3.888D-01 FVal=-2.503315624668D+01 Lims=  0.00D+00  1.00D+00
     ILin= 3 X=4.000D-01 Y=-2.503315624610D+01 DE=-4.79D-07 F=  7.18D-08
     A contracting polynomial of degree  3 produced  0.3878
     Minimum is close to point  3 DX= -1.22D-02 DF= -4.73D-10 DXR=  3.14D-02 DFR=  9.89D-04 which will be used.
 Iteration  12 EE= -25.0331562460998     Delta-E=       -0.000000478803 Grad=1.328D-03 Max rot=    0.0396 deg.
 QCNR:  CnvC1=2.72D-09 CnvC2=2.72D-08
 LinEq1:  Iter=  0 NonCon=     1 RMS=1.32D-05 Max=8.58D-05 NDo=     1
 LinEq1:  Iter=  1 NonCon=     1 RMS=3.47D-06 Max=2.82D-05 NDo=     1
 LinEq1:  Iter=  2 NonCon=     1 RMS=1.03D-06 Max=1.21D-05 NDo=     1
 LinEq1:  Iter=  3 NonCon=     1 RMS=2.54D-07 Max=3.08D-06 NDo=     1
 LinEq1:  Iter=  4 NonCon=     1 RMS=5.01D-08 Max=4.73D-07 NDo=     1
 LinEq1:  Iter=  5 NonCon=     1 RMS=8.86D-09 Max=6.62D-08 NDo=     1
 LinEq1:  Iter=  6 NonCon=     0 RMS=1.41D-09 Max=1.19D-08 NDo=     1
 Linear equations converged to 2.717D-09 2.717D-08 after     6 iterations.
 Angle between quadratic step and gradient=  88.54 degrees.
     ILin= 1 X=0.000D+00 Y=-2.503315624610D+01 DE= 0.00D+00 F= -4.15D-06
     ILin= 2 X=1.000D+00 Y=-2.503315822384D+01 DE=-1.98D-06 F=  3.06D-07
     Accept linear search using points  1 and  2.
     An  expanding polynomial of degree  2 produced  0.9358
     Minimum is close to point  2 DX= -6.42D-02 DF= -9.79D-09 DXR=  6.86D-02 DFR=  4.95D-03 which will be used.
 Iteration  13 EE= -25.0331582238449     Delta-E=       -0.000001977745 Grad=1.592D-03 Max rot=    0.0549 deg.
 QCNR:  CnvC1=2.72D-09 CnvC2=2.72D-08
 LinEq1:  Iter=  0 NonCon=     1 RMS=1.43D-05 Max=1.13D-04 NDo=     1
 LinEq1:  Iter=  1 NonCon=     1 RMS=3.03D-06 Max=3.00D-05 NDo=     1
 LinEq1:  Iter=  2 NonCon=     1 RMS=6.41D-07 Max=5.95D-06 NDo=     1
 LinEq1:  Iter=  3 NonCon=     1 RMS=2.17D-07 Max=2.07D-06 NDo=     1
 LinEq1:  Iter=  4 NonCon=     1 RMS=4.28D-08 Max=2.68D-07 NDo=     1
 LinEq1:  Iter=  5 NonCon=     1 RMS=5.80D-09 Max=6.17D-08 NDo=     1
 LinEq1:  Iter=  6 NonCon=     1 RMS=2.18D-09 Max=2.78D-08 NDo=     1
 LinEq1:  Iter=  7 NonCon=     0 RMS=4.62D-10 Max=2.97D-09 NDo=     1
 Linear equations converged to 2.717D-09 2.717D-08 after     7 iterations.
 Angle between quadratic step and gradient=  76.83 degrees.
     ILin= 1 X=0.000D+00 Y=-2.503315822384D+01 DE= 0.00D+00 F= -8.69D-07
     ILin= 2 X=1.000D+00 Y=-2.503315864648D+01 DE=-4.23D-07 F=  2.40D-08
     Accept linear search using points  1 and  2.
     An  expanding polynomial of degree  2 produced  0.9731
     Minimum is close to point  2 DX= -2.69D-02 DF= -3.22D-10 DXR=  2.76D-02 DFR=  7.63D-04 which will be used.
 Iteration  14 EE= -25.0331586464754     Delta-E=       -0.000000422630 Grad=1.683D-04 Max rot=    0.0052 deg.
 QCNR:  CnvC1=1.68D-09 CnvC2=1.68D-08
 LinEq1:  Iter=  0 NonCon=     1 RMS=1.71D-06 Max=1.10D-05 NDo=     1
 LinEq1:  Iter=  1 NonCon=     1 RMS=4.28D-07 Max=4.21D-06 NDo=     1
 LinEq1:  Iter=  2 NonCon=     1 RMS=1.28D-07 Max=1.41D-06 NDo=     1
 LinEq1:  Iter=  3 NonCon=     1 RMS=3.13D-08 Max=2.93D-07 NDo=     1
 LinEq1:  Iter=  4 NonCon=     1 RMS=6.44D-09 Max=5.04D-08 NDo=     1
 LinEq1:  Iter=  5 NonCon=     0 RMS=1.51D-09 Max=1.24D-08 NDo=     1
 Linear equations converged to 1.683D-09 1.683D-08 after     5 iterations.
 Angle between quadratic step and gradient=  86.86 degrees.
     ILin= 1 X=0.000D+00 Y=-2.503315864648D+01 DE= 0.00D+00 F= -2.59D-08
     ILin= 2 X=1.000D+00 Y=-2.503315865054D+01 DE=-4.06D-09 F=  1.78D-08
     Accept linear search using points  1 and  2.
     An  expanding polynomial of degree  2 produced  0.5931
 Iteration  15 EE= -25.0331586541565     Delta-E=       -0.000000007681 Grad=1.222D-04 Max rot=    0.0041 deg.
 QCNR:  CnvC1=1.22D-09 CnvC2=1.22D-08
 LinEq1:  Iter=  0 NonCon=     1 RMS=1.11D-06 Max=9.24D-06 NDo=     1
 LinEq1:  Iter=  1 NonCon=     1 RMS=3.85D-07 Max=3.55D-06 NDo=     1
 LinEq1:  Iter=  2 NonCon=     1 RMS=9.93D-08 Max=8.43D-07 NDo=     1
 LinEq1:  Iter=  3 NonCon=     1 RMS=1.66D-08 Max=1.49D-07 NDo=     1
 LinEq1:  Iter=  4 NonCon=     1 RMS=4.10D-09 Max=4.63D-08 NDo=     1
 LinEq1:  Iter=  5 NonCon=     0 RMS=1.20D-09 Max=9.55D-09 NDo=     1
 Linear equations converged to 1.222D-09 1.222D-08 after     5 iterations.
 Angle between quadratic step and gradient=  85.18 degrees.
     ILin= 1 X=0.000D+00 Y=-2.503315865416D+01 DE= 0.00D+00 F= -1.37D-08
     ILin= 2 X=1.000D+00 Y=-2.503315865819D+01 DE=-4.04D-09 F=  5.65D-09
     Accept linear search using points  1 and  2.
     An  expanding polynomial of degree  2 produced  0.7083
 Iteration  16 EE= -25.0331586590167     Delta-E=       -0.000000004860 Grad=8.071D-05 Max rot=    0.0029 deg.
 QCNR:  CnvC1=8.07D-10 CnvC2=8.07D-09
 LinEq1:  Iter=  0 NonCon=     1 RMS=6.72D-07 Max=6.05D-06 NDo=     1
 LinEq1:  Iter=  1 NonCon=     1 RMS=2.56D-07 Max=2.95D-06 NDo=     1
 LinEq1:  Iter=  2 NonCon=     1 RMS=7.24D-08 Max=9.91D-07 NDo=     1
 LinEq1:  Iter=  3 NonCon=     1 RMS=7.90D-09 Max=8.25D-08 NDo=     1
 LinEq1:  Iter=  4 NonCon=     1 RMS=2.25D-09 Max=2.20D-08 NDo=     1
 LinEq1:  Iter=  5 NonCon=     0 RMS=7.27D-10 Max=7.15D-09 NDo=     1
 Linear equations converged to 8.071D-10 8.071D-09 after     5 iterations.
 Angle between quadratic step and gradient=  86.63 degrees.
     ILin= 1 X=0.000D+00 Y=-2.503315865902D+01 DE= 0.00D+00 F= -1.76D-08
     ILin= 2 X=1.000D+00 Y=-2.503315866104D+01 DE=-2.02D-09
 Iteration  17 EE= -25.0331586610372     Delta-E=       -0.000000002020 Grad=1.763D-04 Max rot=    0.0070 deg.
 QCNR:  CnvC1=1.76D-09 CnvC2=1.76D-08
 LinEq1:  Iter=  0 NonCon=     1 RMS=1.38D-06 Max=1.36D-05 NDo=     1
 LinEq1:  Iter=  1 NonCon=     1 RMS=4.64D-07 Max=4.88D-06 NDo=     1
 LinEq1:  Iter=  2 NonCon=     1 RMS=1.32D-07 Max=1.33D-06 NDo=     1
 LinEq1:  Iter=  3 NonCon=     1 RMS=1.57D-08 Max=1.72D-07 NDo=     1
 LinEq1:  Iter=  4 NonCon=     1 RMS=4.16D-09 Max=5.41D-08 NDo=     1
 LinEq1:  Iter=  5 NonCon=     0 RMS=1.45D-09 Max=1.59D-08 NDo=     1
 Linear equations converged to 1.763D-09 1.763D-08 after     5 iterations.
 Angle between quadratic step and gradient=  83.49 degrees.
     ILin= 1 X=0.000D+00 Y=-2.503315866104D+01 DE= 0.00D+00 F= -2.28D-08
     ILin= 2 X=1.000D+00 Y=-2.503315867168D+01 DE=-1.06D-08 F=  1.48D-09
     Accept linear search using points  1 and  2.
     An  expanding polynomial of degree  2 produced  0.9389
     Minimum is close to point  2 DX= -6.11D-02 DF= -4.52D-11 DXR=  6.51D-02 DFR=  4.25D-03 which will be used.
 Iteration  18 EE= -25.0331586716772     Delta-E=       -0.000000010640 Grad=3.926D-05 Max rot=    0.0015 deg.
 QCNR:  CnvC1=3.93D-10 CnvC2=3.93D-09
 LinEq1:  Iter=  0 NonCon=     1 RMS=3.95D-07 Max=4.31D-06 NDo=     1
 LinEq1:  Iter=  1 NonCon=     1 RMS=1.52D-07 Max=1.91D-06 NDo=     1
 LinEq1:  Iter=  2 NonCon=     1 RMS=4.19D-08 Max=4.85D-07 NDo=     1
 LinEq1:  Iter=  3 NonCon=     1 RMS=4.88D-09 Max=4.39D-08 NDo=     1
 LinEq1:  Iter=  4 NonCon=     1 RMS=1.29D-09 Max=1.32D-08 NDo=     1
 LinEq1:  Iter=  5 NonCon=     1 RMS=4.45D-10 Max=4.33D-09 NDo=     1
 LinEq1:  Iter=  6 NonCon=     0 RMS=5.54D-11 Max=4.32D-10 NDo=     1
 Linear equations converged to 3.926D-10 3.926D-09 after     6 iterations.
 Angle between quadratic step and gradient=  86.28 degrees.
     ILin= 1 X=0.000D+00 Y=-2.503315867168D+01 DE= 0.00D+00 F= -3.15D-08
     ILin= 2 X=1.000D+00 Y=-2.503315866063D+01 DE= 1.10D-08 F=  5.36D-08
     Reject lnstep minimum 3.701D-01 FVal=-2.503315867751D+01 Lims=  0.00D+00  1.00D+00
     ILin= 3 X=4.000D-01 Y=-2.503315867747D+01 DE=-5.79D-09 F=  2.54D-09
     A contracting polynomial of degree  3 produced  0.3702
 Iteration  19 EE= -25.0331586775075     Delta-E=       -0.000000005830 Grad=1.710D-04 Max rot=    0.0066 deg.
 QCNR:  CnvC1=1.71D-09 CnvC2=1.71D-08
 LinEq1:  Iter=  0 NonCon=     1 RMS=1.53D-06 Max=1.22D-05 NDo=     1
 LinEq1:  Iter=  1 NonCon=     1 RMS=2.67D-07 Max=2.36D-06 NDo=     1
 LinEq1:  Iter=  2 NonCon=     1 RMS=7.79D-08 Max=8.58D-07 NDo=     1
 LinEq1:  Iter=  3 NonCon=     1 RMS=2.49D-08 Max=2.38D-07 NDo=     1
 LinEq1:  Iter=  4 NonCon=     1 RMS=5.05D-09 Max=4.43D-08 NDo=     1
 LinEq1:  Iter=  5 NonCon=     0 RMS=9.80D-10 Max=8.75D-09 NDo=     1
 Linear equations converged to 1.710D-09 1.710D-08 after     5 iterations.
 Angle between quadratic step and gradient=  86.16 degrees.
     ILin= 1 X=0.000D+00 Y=-2.503315867751D+01 DE= 0.00D+00 F= -1.03D-08
     ILin= 2 X=1.000D+00 Y=-2.503315868194D+01 DE=-4.43D-09 F=  1.46D-09
     Accept linear search using points  1 and  2.
     An  expanding polynomial of degree  2 produced  0.8759
 Iteration  20 EE= -25.0331586820326     Delta-E=       -0.000000004525 Grad=1.958D-05 Max rot=    0.0004 deg.
 QCNR:  CnvC1=1.96D-10 CnvC2=1.96D-09
 LinEq1:  Iter=  0 NonCon=     1 RMS=4.50D-07 Max=3.61D-06 NDo=     1
 LinEq1:  Iter=  1 NonCon=     1 RMS=1.52D-07 Max=1.28D-06 NDo=     1
 LinEq1:  Iter=  2 NonCon=     1 RMS=3.62D-08 Max=3.48D-07 NDo=     1
 LinEq1:  Iter=  3 NonCon=     1 RMS=7.59D-09 Max=6.98D-08 NDo=     1
 LinEq1:  Iter=  4 NonCon=     1 RMS=1.89D-09 Max=1.85D-08 NDo=     1
 LinEq1:  Iter=  5 NonCon=     1 RMS=5.09D-10 Max=5.60D-09 NDo=     1
 LinEq1:  Iter=  6 NonCon=     0 RMS=9.59D-11 Max=1.02D-09 NDo=     1
 Linear equations converged to 1.958D-10 1.958D-09 after     6 iterations.
 Angle between quadratic step and gradient=  80.72 degrees.
     ILin= 1 X=0.000D+00 Y=-2.503315868203D+01 DE= 0.00D+00 F= -2.25D-09
     ILin= 2 X=1.000D+00 Y=-2.503315868173D+01 DE= 3.03D-10 F=  2.86D-09
     Reject lnstep minimum 4.406D-01 FVal=-2.503315868253D+01 Lims=  0.00D+00  1.00D+00
     ILin= 3 X=4.000D-01 Y=-2.503315868252D+01 DE=-4.92D-10 F= -2.07D-10
     A contracting polynomial of degree  3 produced  0.4406
 Iteration  21 EE= -25.0331586825287     Delta-E=       -0.000000000496 Grad=6.973D-05 Max rot=    0.0028 deg.
 QCNR:  CnvC1=6.97D-10 CnvC2=6.97D-09
 LinEq1:  Iter=  0 NonCon=     1 RMS=3.70D-07 Max=3.39D-06 NDo=     1
 LinEq1:  Iter=  1 NonCon=     1 RMS=1.30D-07 Max=1.42D-06 NDo=     1
 LinEq1:  Iter=  2 NonCon=     1 RMS=3.53D-08 Max=3.73D-07 NDo=     1
 LinEq1:  Iter=  3 NonCon=     1 RMS=1.02D-08 Max=1.08D-07 NDo=     1
 LinEq1:  Iter=  4 NonCon=     1 RMS=1.70D-09 Max=1.28D-08 NDo=     1
 LinEq1:  Iter=  5 NonCon=     0 RMS=3.52D-10 Max=3.57D-09 NDo=     1
 Linear equations converged to 6.973D-10 6.973D-09 after     5 iterations.
 Angle between quadratic step and gradient=  87.86 degrees.
     ILin= 1 X=0.000D+00 Y=-2.503315868253D+01 DE= 0.00D+00 F= -2.85D-09
     ILin= 2 X=1.000D+00 Y=-2.503315868351D+01 DE=-9.79D-10
 Iteration  22 EE= -25.0331586835077     Delta-E=       -0.000000000979 Grad=2.455D-05 Max rot=    0.0007 deg.
 QCNR:  CnvC1=2.45D-10 CnvC2=2.45D-09
 LinEq1:  Iter=  0 NonCon=     1 RMS=4.16D-07 Max=4.22D-06 NDo=     1
 LinEq1:  Iter=  1 NonCon=     1 RMS=1.49D-07 Max=1.33D-06 NDo=     1
 LinEq1:  Iter=  2 NonCon=     1 RMS=2.77D-08 Max=2.35D-07 NDo=     1
 LinEq1:  Iter=  3 NonCon=     1 RMS=5.66D-09 Max=4.40D-08 NDo=     1
 LinEq1:  Iter=  4 NonCon=     1 RMS=1.48D-09 Max=1.92D-08 NDo=     1
 LinEq1:  Iter=  5 NonCon=     1 RMS=4.61D-10 Max=3.76D-09 NDo=     1
 LinEq1:  Iter=  6 NonCon=     0 RMS=5.39D-11 Max=6.38D-10 NDo=     1
 Linear equations converged to 2.455D-10 2.455D-09 after     6 iterations.
 Angle between quadratic step and gradient=  84.48 degrees.
     ILin= 1 X=0.000D+00 Y=-2.503315868351D+01 DE= 0.00D+00 F= -3.62D-09
     ILin= 2 X=1.000D+00 Y=-2.503315868172D+01 DE= 1.79D-09 F=  7.19D-09
     Reject lnstep minimum 3.349D-01 FVal=-2.503315868411D+01 Lims=  0.00D+00  1.00D+00
     ILin= 3 X=3.000D-01 Y=-2.503315868411D+01 DE=-6.00D-10 F= -3.77D-10
     A contracting polynomial of degree  3 produced  0.3348
 Iteration  23 EE= -25.0331586841140     Delta-E=       -0.000000000606 Grad=8.087D-05 Max rot=    0.0031 deg.
 QCNR:  CnvC1=8.09D-10 CnvC2=8.09D-09
 LinEq1:  Iter=  0 NonCon=     1 RMS=4.37D-07 Max=4.15D-06 NDo=     1
 LinEq1:  Iter=  1 NonCon=     1 RMS=1.49D-07 Max=1.56D-06 NDo=     1
 LinEq1:  Iter=  2 NonCon=     1 RMS=3.64D-08 Max=3.30D-07 NDo=     1
 LinEq1:  Iter=  3 NonCon=     1 RMS=1.08D-08 Max=1.23D-07 NDo=     1
 LinEq1:  Iter=  4 NonCon=     1 RMS=1.79D-09 Max=1.68D-08 NDo=     1
 LinEq1:  Iter=  5 NonCon=     0 RMS=4.87D-10 Max=5.33D-09 NDo=     1
 Linear equations converged to 8.087D-10 8.087D-09 after     5 iterations.
 Angle between quadratic step and gradient=  85.80 degrees.
     ILin= 1 X=0.000D+00 Y=-2.503315868411D+01 DE= 0.00D+00 F= -2.08D-09
     ILin= 2 X=1.000D+00 Y=-2.503315868507D+01 DE=-9.52D-10
 Iteration  24 EE= -25.0331586850662     Delta-E=       -0.000000000952 Grad=9.432D-06 Max rot=    0.0003 deg.
 QCNR:  CnvC1=9.43D-11 CnvC2=9.43D-10
 LinEq1:  Iter=  0 NonCon=     1 RMS=1.53D-07 Max=1.68D-06 NDo=     1
 LinEq1:  Iter=  1 NonCon=     1 RMS=5.22D-08 Max=4.45D-07 NDo=     1
 LinEq1:  Iter=  2 NonCon=     1 RMS=8.55D-09 Max=6.21D-08 NDo=     1
 LinEq1:  Iter=  3 NonCon=     1 RMS=2.43D-09 Max=2.42D-08 NDo=     1
 LinEq1:  Iter=  4 NonCon=     1 RMS=5.90D-10 Max=5.14D-09 NDo=     1
 LinEq1:  Iter=  5 NonCon=     1 RMS=1.80D-10 Max=1.48D-09 NDo=     1
 LinEq1:  Iter=  6 NonCon=     0 RMS=3.12D-11 Max=2.40D-10 NDo=     1
 Linear equations converged to 9.432D-11 9.432D-10 after     6 iterations.
 Angle between quadratic step and gradient=  83.18 degrees.
     ILin= 1 X=0.000D+00 Y=-2.503315868507D+01 DE= 0.00D+00 F= -1.86D-09
     ILin= 2 X=1.000D+00 Y=-2.503315868409D+01 DE= 9.79D-10 F=  3.82D-09
     Reject lnstep minimum 3.278D-01 FVal=-2.503315868537D+01 Lims=  0.00D+00  1.00D+00
     ILin= 3 X=3.000D-01 Y=-2.503315868537D+01 DE=-3.03D-10 F= -1.58D-10
     A contracting polynomial of degree  3 produced  0.3279
 Iteration  25 EE= -25.0331586853717     Delta-E=       -0.000000000306 Grad=5.278D-05 Max rot=    0.0019 deg.
 QCNR:  CnvC1=5.28D-10 CnvC2=5.28D-09
 LinEq1:  Iter=  0 NonCon=     1 RMS=3.12D-07 Max=2.45D-06 NDo=     1
 LinEq1:  Iter=  1 NonCon=     1 RMS=1.01D-07 Max=9.81D-07 NDo=     1
 LinEq1:  Iter=  2 NonCon=     1 RMS=2.71D-08 Max=3.13D-07 NDo=     1
 LinEq1:  Iter=  3 NonCon=     1 RMS=8.03D-09 Max=7.78D-08 NDo=     1
 LinEq1:  Iter=  4 NonCon=     1 RMS=1.32D-09 Max=8.77D-09 NDo=     1
 LinEq1:  Iter=  5 NonCon=     0 RMS=3.05D-10 Max=2.88D-09 NDo=     1
 Linear equations converged to 5.278D-10 5.278D-09 after     5 iterations.
 Angle between quadratic step and gradient=  87.95 degrees.
     ILin= 1 X=0.000D+00 Y=-2.503315868537D+01 DE= 0.00D+00 F= -1.85D-09
     ILin= 2 X=1.000D+00 Y=-2.503315868564D+01 DE=-2.67D-10
 Iteration  26 EE= -25.0331586856383     Delta-E=       -0.000000000267 Grad=6.002D-05 Max rot=    0.0020 deg.
 QCNR:  CnvC1=6.00D-10 CnvC2=6.00D-09
 LinEq1:  Iter=  0 NonCon=     1 RMS=4.87D-07 Max=4.59D-06 NDo=     1
 LinEq1:  Iter=  1 NonCon=     1 RMS=1.59D-07 Max=1.54D-06 NDo=     1
 LinEq1:  Iter=  2 NonCon=     1 RMS=4.48D-08 Max=4.10D-07 NDo=     1
 LinEq1:  Iter=  3 NonCon=     1 RMS=8.91D-09 Max=6.75D-08 NDo=     1
 LinEq1:  Iter=  4 NonCon=     1 RMS=1.67D-09 Max=1.44D-08 NDo=     1
 LinEq1:  Iter=  5 NonCon=     1 RMS=5.58D-10 Max=6.27D-09 NDo=     1
 LinEq1:  Iter=  6 NonCon=     0 RMS=1.30D-10 Max=1.30D-09 NDo=     1
 Linear equations converged to 6.002D-10 6.002D-09 after     6 iterations.
 Angle between quadratic step and gradient=  84.35 degrees.
     ILin= 1 X=0.000D+00 Y=-2.503315868564D+01 DE= 0.00D+00 F= -1.79D-09
     ILin= 2 X=1.000D+00 Y=-2.503315868651D+01 DE=-8.71D-10
 Iteration  27 EE= -25.0331586865095     Delta-E=       -0.000000000871 Grad=1.385D-05 Max rot=    0.0005 deg.
 DSYEVD-2 returned Info=         247 IAlg= 4 N=   123 NDim=   123 NE2=      718571 trying  DSYEV.
 QCNR:  CnvC1=1.38D-10 CnvC2=1.38D-09
 LinEq1:  Iter=  0 NonCon=     1 RMS=1.40D-07 Max=1.39D-06 NDo=     1
 LinEq1:  Iter=  1 NonCon=     1 RMS=4.69D-08 Max=4.47D-07 NDo=     1
 LinEq1:  Iter=  2 NonCon=     1 RMS=1.29D-08 Max=1.37D-07 NDo=     1
 LinEq1:  Iter=  3 NonCon=     1 RMS=3.32D-09 Max=2.66D-08 NDo=     1
 LinEq1:  Iter=  4 NonCon=     1 RMS=4.82D-10 Max=4.22D-09 NDo=     1
 LinEq1:  Iter=  5 NonCon=     1 RMS=1.53D-10 Max=1.60D-09 NDo=     1
 LinEq1:  Iter=  6 NonCon=     0 RMS=3.75D-11 Max=3.86D-10 NDo=     1
 Linear equations converged to 1.385D-10 1.385D-09 after     6 iterations.
 Angle between quadratic step and gradient=  86.69 degrees.
     ILin= 1 X=0.000D+00 Y=-2.503315868651D+01 DE= 0.00D+00 F= -6.32D-10
     ILin= 2 X=1.000D+00 Y=-2.503315868648D+01 DE= 3.03D-11 F=  6.93D-10
     Reject lnstep minimum 4.771D-01 FVal=-2.503315868666D+01 Lims=  0.00D+00  1.00D+00
     ILin= 3 X=5.000D-01 Y=-2.503315868666D+01 DE=-1.51D-10 F=  3.04D-11
     A contracting polynomial of degree  3 produced  0.4771
 Iteration  28 EE= -25.0331586866604     Delta-E=       -0.000000000151 Grad=3.379D-05 Max rot=    0.0012 deg.
 QCNR:  CnvC1=3.38D-10 CnvC2=3.38D-09
 LinEq1:  Iter=  0 NonCon=     1 RMS=2.07D-07 Max=1.66D-06 NDo=     1
 LinEq1:  Iter=  1 NonCon=     1 RMS=6.45D-08 Max=6.29D-07 NDo=     1
 LinEq1:  Iter=  2 NonCon=     1 RMS=1.92D-08 Max=1.81D-07 NDo=     1
 LinEq1:  Iter=  3 NonCon=     1 RMS=5.14D-09 Max=5.42D-08 NDo=     1
 LinEq1:  Iter=  4 NonCon=     1 RMS=9.04D-10 Max=8.05D-09 NDo=     1
 LinEq1:  Iter=  5 NonCon=     0 RMS=2.34D-10 Max=2.01D-09 NDo=     1
 Linear equations converged to 3.379D-10 3.379D-09 after     5 iterations.
 Angle between quadratic step and gradient=  86.74 degrees.
     ILin= 1 X=0.000D+00 Y=-2.503315868666D+01 DE= 0.00D+00 F= -5.20D-10
     ILin= 2 X=1.000D+00 Y=-2.503315868684D+01 DE=-1.75D-10
 Iteration  29 EE= -25.0331586868358     Delta-E=       -0.000000000175 Grad=1.683D-05 Max rot=    0.0005 deg.
 QCNR:  CnvC1=1.68D-10 CnvC2=1.68D-09
 LinEq1:  Iter=  0 NonCon=     1 RMS=1.40D-07 Max=1.21D-06 NDo=     1
 LinEq1:  Iter=  1 NonCon=     1 RMS=5.82D-08 Max=5.15D-07 NDo=     1
 LinEq1:  Iter=  2 NonCon=     1 RMS=1.08D-08 Max=1.14D-07 NDo=     1
[...]
 Leave Link  801 at Sun May 22 21:10:40 2022, MaxMem=   104857600 cpu:               0.0 elap:               0.0
 (Enter /apps/software/g16/l914.exe)
 UHF ground state
 Doing stability rather than CIS.
 Keep R1 and R2 ints in memory in symmetry-blocked form, NReq=40144005.
 FoFCou: FMM=F IPFlag=           0 FMFlag=           0 FMFlg1=           0
         NFxFlg=           0 DoJE=F BraDBF=F KetDBF=F FulRan=T
         wScrn=  0.000000 ICntrl=       600 IOpCl=  0 I1Cent=           0 NGrid=           0
         NMat0=    1 NMatS0=   8001 NMatT0=    0 NMatD0=    1 NMtDS0=    0 NMtDT0=    0
 Petite list used in FoFCou.
 MDV=   104857600 DFT=F DoStab=T Mixed=F DoRPA=F DoScal=F NonHer=F
 Making orbital integer symmetry assigments:
 Orbital symmetries:
 Alpha Orbitals:
       Occupied  (SG) (SG) (SG)
       Virtual   (PI) (PI) (SG) (SG) (SG) (PI) (PI) (SG) (PI) (PI)
                 (DLTA) (DLTA) (SG) (PI) (PI) (SG) (PI) (PI) (SG)
                 (SG) (SG) (PHI) (PHI) (DLTA) (DLTA) (PI) (PI)
                 (DLTA) (DLTA) (SG) (PI) (PI) (SG) (DLTA) (DLTA)
                 (PI) (PI) (PI) (PI) (SG) (SG) (PI) (PI) (SG) (?A)
                 (?A) (PI) (PI) (PHI) (PHI) (SG) (DLTA) (DLTA)
                 (DLTA) (DLTA) (SG) (PHI) (PHI) (PI) (PI) (DLTA)
                 (DLTA) (SG) (PI) (PI) (PHI) (PHI) (DLTA) (DLTA)
                 (SG) (SG) (PI) (PI) (SG) (DLTA) (DLTA) (PI) (PI)
                 (PI) (PI) (SG) (SG) (PI) (PI) (SG) (?A) (?A) (PHI)
                 (PHI) (DLTA) (DLTA) (DLTA) (DLTA) (PI) (PI) (SG)
                 (PI) (PI) (PHI) (PHI) (DLTA) (DLTA) (SG) (PI)
                 (PI) (SG) (PHI) (PHI) (DLTA) (DLTA) (PI) (PI)
                 (SG) (SG) (PI) (PI) (SG) (DLTA) (DLTA) (PI) (PI)
                 (SG) (SG)
 Beta  Orbitals:
       Occupied  (SG) (SG) (SG)
       Virtual   (SG) (PI) (PI) (SG) (PI) (PI) (SG) (SG) (PI) (PI)
                 (DLTA) (DLTA) (SG) (PI) (PI) (SG) (PI) (PI) (SG)
                 (SG) (DLTA) (DLTA) (PHI) (PHI) (PI) (PI) (SG)
                 (DLTA) (DLTA) (PI) (PI) (SG) (SG) (DLTA) (DLTA)
                 (PI) (PI) (PI) (PI) (SG) (SG) (SG) (PI) (PI) (PI)
                 (PI) (?A) (?A) (SG) (PHI) (PHI) (DLTA) (DLTA)
                 (SG) (PI) (PI) (DLTA) (DLTA) (PHI) (PHI) (DLTA)
                 (DLTA) (SG) (PI) (PI) (PHI) (PHI) (SG) (DLTA)
                 (DLTA) (PI) (PI) (SG) (SG) (DLTA) (DLTA) (PI)
                 (PI) (PI) (PI) (SG) (SG) (PI) (PI) (SG) (?A) (?A)
                 (PHI) (PHI) (DLTA) (DLTA) (DLTA) (DLTA) (PI) (PI)
                 (SG) (PI) (PI) (PHI) (PHI) (DLTA) (DLTA) (SG)
                 (PI) (PI) (SG) (PHI) (PHI) (DLTA) (DLTA) (PI)
                 (PI) (SG) (SG) (PI) (PI) (SG) (DLTA) (DLTA) (PI)
                 (PI) (SG) (SG)
    12 initial guesses have been made.
 Convergence on wavefunction:    0.001000000000000
 Davidson Disk Diagonalization:  ConvIn= 1.00D-03 SkipCon=T Conv= 1.00D-03.
 Max sub-space:  1476 roots to seek:    12 dimension of matrix:          738
 Iteration     1 Dimension    12 NMult     0 NNew     12
 CISAX will form    12 AO SS matrices at one time.
 NMat=    12 NSing=    12 JSym2X= 2.
 Excitation Energies [eV] at current iteration:
 Root      1 :     0.492299719758872
 Root      2 :     0.538542477804033
 Root      3 :     1.260705194862950
 Root      4 :     1.260706900477006
 Root      5 :     5.225049325676669
 Root      6 :     6.078827743897115
 Root      7 :     6.571586750855356
 Root      8 :     6.993000094368148
 Root      9 :    11.599632418034121
 Root     10 :    11.599634477228090
 Root     11 :    12.100276433319369
 Root     12 :    12.100277589781697
 Iteration     2 Dimension    24 NMult    12 NNew     12
 CISAX will form    12 AO SS matrices at one time.
 NMat=    12 NSing=    12 JSym2X= 2.
 Root      1 not converged, maximum delta is    0.060481402144954
 Excitation Energies [eV] at current iteration:
 Root      1 :     0.017396321341526   Change is   -0.474903398417346
 Root      2 :     0.020116572933414   Change is   -0.518425904870619
 Root      3 :     0.827403129937019   Change is   -0.433302064925930
 Root      4 :     0.827407064277994   Change is   -0.433299836199013
 Root      5 :     4.687941219700481   Change is   -0.537108105976187
 Root      6 :     5.368521681673310   Change is   -0.710306062223805
 Root      7 :     6.032460500161092   Change is   -0.960539594207055
 Root      8 :     6.495221546176309   Change is   -0.076365204679047
 Root      9 :     8.449194446631580   Change is   -3.150437971402541
 Root     10 :     8.449374425090392   Change is   -3.150260052137698
 Root     11 :    10.622099355947734   Change is   -1.478178233833964
 Root     12 :    10.625755109685912   Change is   -1.474521323633458
 Iteration     3 Dimension    27 NMult    24 NNew      3
 CISAX will form     3 AO SS matrices at one time.
 NMat=     3 NSing=     3 JSym2X= 2.
 Root      1 not converged, maximum delta is    0.005715986661637
 Excitation Energies [eV] at current iteration:
 Root      1 :     0.011547171638380   Change is   -0.005849149703146
 Root      2 :     0.011598084553452   Change is   -0.008518488379962
 Root      3 :     0.814968396760115   Change is   -0.012434733176904
 Iteration     4 Dimension    30 NMult    27 NNew      3
 CISAX will form     3 AO SS matrices at one time.
 NMat=     3 NSing=     3 JSym2X= 2.
 Root      1 has converged.
 Excitation Energies [eV] at current iteration:
 Root      1 :     0.011485410566253   Change is   -0.000061761072127
 Root      2 :     0.011486134904411   Change is   -0.000111949649041
 Root      3 :     0.814812251714611   Change is   -0.000156145045504
 Convergence achieved on expansion vectors.
 ***********************************************************************
 Stability analysis using <AA,BB:AA,BB> singles matrix:
 ***********************************************************************
 1PDM for each excited state written to RWF  633
 Ground to excited state transition densities written to RWF  633

 Eigenvectors of the stability matrix:
 
 Excited state symmetry could not be determined.
 Eigenvector   1:  2.273-?Sym  Eigenvalue= 0.0004221  <S**2>=1.041
      3B ->  5B       -0.68885
      3B ->  9B        0.65026
      3B -> 21B        0.28485
 The wavefunction is stable under the perturbations considered.
 Leave Link  914 at Sun May 22 21:10:44 2022, MaxMem=   104857600 cpu:               4.0 elap:               4.0
 (Enter /apps/software/g16/l508.exe)
 The wavefunction is already stable.
 Leave Link  508 at Sun May 22 21:10:44 2022, MaxMem=   104857600 cpu:               0.0 elap:               0.0
 (Enter /apps/software/g16/l601.exe)
 Copying SCF densities to generalized density rwf, IOpCl= 1 IROHF=0.

 **********************************************************************

            Population analysis using the SCF density.

 **********************************************************************

 Orbital symmetries:
 Alpha Orbitals:
       Occupied  (SG) (SG) (SG)
       Virtual   (PI) (PI) (SG) (SG) (SG) (PI) (PI) (SG) (PI) (PI)
                 (DLTA) (DLTA) (SG) (PI) (PI) (SG) (PI) (PI) (SG)
                 (SG) (SG) (PHI) (PHI) (DLTA) (DLTA) (PI) (PI)
                 (DLTA) (DLTA) (SG) (PI) (PI) (SG) (DLTA) (DLTA)
                 (PI) (PI) (PI) (PI) (SG) (SG) (PI) (PI) (SG) (?A)
                 (?A) (PI) (PI) (PHI) (PHI) (SG) (DLTA) (DLTA)
                 (DLTA) (DLTA) (SG) (PHI) (PHI) (PI) (PI) (DLTA)
                 (DLTA) (SG) (PI) (PI) (PHI) (PHI) (DLTA) (DLTA)
                 (SG) (SG) (PI) (PI) (SG) (DLTA) (DLTA) (PI) (PI)
                 (PI) (PI) (SG) (SG) (PI) (PI) (SG) (?A) (?A) (PHI)
                 (PHI) (DLTA) (DLTA) (DLTA) (DLTA) (PI) (PI) (SG)
                 (PI) (PI) (PHI) (PHI) (DLTA) (DLTA) (SG) (PI)
                 (PI) (SG) (PHI) (PHI) (DLTA) (DLTA) (PI) (PI)
                 (SG) (SG) (PI) (PI) (SG) (DLTA) (DLTA) (PI) (PI)
                 (SG) (SG)
 Beta  Orbitals:
       Occupied  (SG) (SG) (SG)
       Virtual   (SG) (PI) (PI) (SG) (PI) (PI) (SG) (SG) (PI) (PI)
                 (DLTA) (DLTA) (SG) (PI) (PI) (SG) (PI) (PI) (SG)
                 (SG) (DLTA) (DLTA) (PHI) (PHI) (PI) (PI) (SG)
                 (DLTA) (DLTA) (PI) (PI) (SG) (SG) (DLTA) (DLTA)
                 (PI) (PI) (PI) (PI) (SG) (SG) (SG) (PI) (PI) (PI)
                 (PI) (?A) (?A) (SG) (PHI) (PHI) (DLTA) (DLTA)
                 (SG) (PI) (PI) (DLTA) (DLTA) (PHI) (PHI) (DLTA)
                 (DLTA) (SG) (PI) (PI) (PHI) (PHI) (SG) (DLTA)
                 (DLTA) (PI) (PI) (SG) (SG) (DLTA) (DLTA) (PI)
                 (PI) (PI) (PI) (SG) (SG) (PI) (PI) (SG) (?A) (?A)
                 (PHI) (PHI) (DLTA) (DLTA) (DLTA) (DLTA) (PI) (PI)
                 (SG) (PI) (PI) (PHI) (PHI) (DLTA) (DLTA) (SG)
                 (PI) (PI) (SG) (PHI) (PHI) (DLTA) (DLTA) (PI)
                 (PI) (SG) (SG) (PI) (PI) (SG) (DLTA) (DLTA) (PI)
                 (PI) (SG) (SG)
 The electronic state is 1-SG.
 Alpha  occ. eigenvalues --   -7.68802  -0.49234  -0.44672
 Alpha virt. eigenvalues --    0.02678   0.02678   0.04179   0.05409   0.08041
 Alpha virt. eigenvalues --    0.08368   0.08368   0.11491   0.14316   0.14316
 Alpha virt. eigenvalues --    0.14544   0.14544   0.18461   0.22068   0.22068
 Alpha virt. eigenvalues --    0.26458   0.32001   0.32001   0.35514   0.35974
 Alpha virt. eigenvalues --    0.43993   0.46138   0.46138   0.46435   0.46435
 Alpha virt. eigenvalues --    0.48279   0.48279   0.50102   0.50102   0.52169
 Alpha virt. eigenvalues --    0.52940   0.52940   0.58348   0.63703   0.63703
 Alpha virt. eigenvalues --    0.72283   0.72283   0.79279   0.79279   0.82660
 Alpha virt. eigenvalues --    0.92926   1.06083   1.06083   1.12300   1.36912
 Alpha virt. eigenvalues --    1.36912   1.37299   1.37299   1.38357   1.38357
 Alpha virt. eigenvalues --    1.38406   1.38656   1.38656   1.41521   1.41521
 Alpha virt. eigenvalues --    1.43699   1.43874   1.43874   1.45071   1.45071
 Alpha virt. eigenvalues --    1.46006   1.46006   1.49668   1.50994   1.50994
 Alpha virt. eigenvalues --    1.56603   1.56603   1.59435   1.59435   1.62391
 Alpha virt. eigenvalues --    1.64267   1.70981   1.70981   1.87019   2.46274
 Alpha virt. eigenvalues --    2.46274   2.52113   2.52113   2.58286   2.58286
 Alpha virt. eigenvalues --    2.65019   2.69385   3.74412   3.74412   3.81835
 Alpha virt. eigenvalues --    3.91939   3.91939   3.94464   3.94464   3.95961
 Alpha virt. eigenvalues --    3.95961   3.96578   3.96578   3.99644   3.99644
 Alpha virt. eigenvalues --    4.00410   4.01282   4.01282   4.08767   4.08767
 Alpha virt. eigenvalues --    4.12256   4.12256   4.15901   4.16384   4.16384
 Alpha virt. eigenvalues --    4.22020   6.55915   6.55915   6.56365   6.56365
 Alpha virt. eigenvalues --    6.58667   6.58667   6.62149   7.46779   7.95002
 Alpha virt. eigenvalues --    7.95002   8.00888   8.39909   8.39909   8.43921
 Alpha virt. eigenvalues --    8.43921   8.53633  13.10788
  Beta  occ. eigenvalues --   -7.70296  -0.54605  -0.31918
  Beta virt. eigenvalues --    0.02293   0.02320   0.02320   0.04858   0.07674
  Beta virt. eigenvalues --    0.07674   0.08011   0.10692   0.14401   0.14401
  Beta virt. eigenvalues --    0.14540   0.14540   0.18747   0.23583   0.23583
  Beta virt. eigenvalues --    0.25467   0.31214   0.31214   0.32749   0.35775
  Beta virt. eigenvalues --    0.46125   0.46125   0.46145   0.46145   0.47265
  Beta virt. eigenvalues --    0.47265   0.48179   0.49994   0.49994   0.50599
  Beta virt. eigenvalues --    0.50599   0.51216   0.57991   0.64937   0.64937
  Beta virt. eigenvalues --    0.74182   0.74182   0.84845   0.84845   0.87132
  Beta virt. eigenvalues --    0.94583   1.05136   1.05185   1.05185   1.36603
  Beta virt. eigenvalues --    1.36603   1.36939   1.36939   1.37196   1.37844
  Beta virt. eigenvalues --    1.37844   1.37919   1.37919   1.39400   1.40359
  Beta virt. eigenvalues --    1.40359   1.40994   1.40994   1.43815   1.43815
  Beta virt. eigenvalues --    1.44503   1.44503   1.46366   1.48543   1.48543
  Beta virt. eigenvalues --    1.57850   1.57850   1.60420   1.60456   1.60456
  Beta virt. eigenvalues --    1.71562   1.71562   1.73770   1.88253   2.50196
  Beta virt. eigenvalues --    2.50196   2.56247   2.56247   2.65318   2.65318
  Beta virt. eigenvalues --    2.71616   2.72984   3.73719   3.73719   3.77122
  Beta virt. eigenvalues --    3.91874   3.91874   3.93383   3.93383   3.94684
  Beta virt. eigenvalues --    3.94684   3.95495   3.95495   3.96236   3.96236
  Beta virt. eigenvalues --    3.96677   3.98800   3.98800   4.08506   4.08506
  Beta virt. eigenvalues --    4.10131   4.10131   4.12406   4.13104   4.13104
  Beta virt. eigenvalues --    4.18482   6.58793   6.58793   6.59236   6.59236
  Beta virt. eigenvalues --    6.61518   6.61518   6.64987   7.54832   8.00771
  Beta virt. eigenvalues --    8.00771   8.06586   8.44120   8.44120   8.48102
  Beta virt. eigenvalues --    8.48102   8.57759  13.09663
          Condensed to atoms (all electrons):
               1          2
     1  B    4.997128  -0.000383
     2  H   -0.000383   1.003637
          Atomic-Atomic Spin Densities.
               1          2
     1  B   -0.996314  -0.003363
     2  H   -0.003363   1.003040
 Mulliken charges and spin densities:
               1          2
     1  B    0.003255  -0.999677
     2  H   -0.003255   0.999677
 Sum of Mulliken charges =   0.00000   0.00000
 Mulliken charges and spin densities with hydrogens summed into heavy atoms:
               1          2
     1  B    0.000000   0.000000
 Electronic spatial extent (au):  <R**2>=             57.5628
 Charge=             -0.0000 electrons
 Dipole moment (field-independent basis, Debye):
    X=              0.0000    Y=              0.0000    Z=              0.0816  Tot=              0.0816
 Quadrupole moment (field-independent basis, Debye-Ang):
   XX=             -7.3113   YY=             -7.3113   ZZ=            -10.9267
   XY=              0.0000   XZ=              0.0000   YZ=              0.0000
 Traceless Quadrupole moment (field-independent basis, Debye-Ang):
   XX=              1.2051   YY=              1.2051   ZZ=             -2.4103
   XY=              0.0000   XZ=              0.0000   YZ=              0.0000
 Octapole moment (field-independent basis, Debye-Ang**2):
  XXX=              0.0000  YYY=              0.0000  ZZZ=             -3.3924  XYY=              0.0000
  XXY=              0.0000  XXZ=              0.5285  XZZ=              0.0000  YZZ=              0.0000
  YYZ=              0.5285  XYZ=              0.0000
 Hexadecapole moment (field-independent basis, Debye-Ang**3):
 XXXX=            -10.7454 YYYY=            -10.7454 ZZZZ=           -118.8808 XXXY=              0.0000
 XXXZ=              0.0000 YYYX=              0.0000 YYYZ=              0.0000 ZZZX=              0.0000
 ZZZY=              0.0000 XXYY=             -3.5818 XXZZ=            -19.7804 YYZZ=            -19.7804
 XXYZ=              0.0000 YYXZ=              0.0000 ZZXY=              0.0000
 N-N= 7.349683485000D-01 E-N=-5.937142507511D+01  KE= 2.503043834412D+01
 Symmetry A1   KE= 2.503043834412D+01
 Symmetry A2   KE= 0.000000000000D+00
 Symmetry B1   KE= 0.000000000000D+00
 Symmetry B2   KE= 0.000000000000D+00
 Symmetry A1   SP= 5.408218715594D-15
 Symmetry A2   SP= 0.000000000000D+00
 Symmetry B1   SP= 0.000000000000D+00
 Symmetry B2   SP= 0.000000000000D+00
                          Isotropic Fermi Contact Couplings
        Atom                 a.u.       MegaHertz       Gauss      10(-4) cm-1
     1  B(11)              0.00215       1.53851       0.54898       0.51319
     2  H(1)               0.29778     665.50979     237.47044     221.99017
 --------------------------------------------------------
       Center         ----  Spin Dipole Couplings  ----
                      3XX-RR        3YY-RR        3ZZ-RR
 --------------------------------------------------------
     1   Atom        0.326725      0.326725     -0.653450
     2   Atom        0.004659      0.004659     -0.009317
 --------------------------------------------------------
                        XY            XZ            YZ
 --------------------------------------------------------
     1   Atom        0.000000      0.000000      0.000000
     2   Atom        0.000000      0.000000      0.000000
 --------------------------------------------------------


 ---------------------------------------------------------------------------------
              Anisotropic Spin Dipole Couplings in Principal Axis System
 ---------------------------------------------------------------------------------

       Atom             a.u.   MegaHertz   Gauss  10(-4) cm-1        Axes

              Baa    -0.6534  -111.880   -39.922   -37.319  0.0000  0.0000  1.0000
     1 B(11)  Bbb     0.3267    55.940    19.961    18.660  1.0000  0.0000  0.0000
              Bcc     0.3267    55.940    19.961    18.660 -0.0000  1.0000  0.0000
 
              Baa    -0.0093    -4.971    -1.774    -1.658  0.0000  0.0000  1.0000
     2 H(1)   Bbb     0.0047     2.486     0.887     0.829 -0.0000  1.0000  0.0000
              Bcc     0.0047     2.486     0.887     0.829  1.0000  0.0000  0.0000
 

 ---------------------------------------------------------------------------------

 No NMR shielding tensors so no spin-rotation constants.
 Leave Link  601 at Sun May 22 21:10:44 2022, MaxMem=   104857600 cpu:               0.2 elap:               0.2
 (Enter /apps/software/g16/l9999.exe)
 1\1\GINC-CNODE04\Stability\UHF\Aug-CC-pVQZ\B1H1\LCZ\22-May-2022\0\\#p 
 UHF/aug-cc-pVQZ guess=mix stable=opt\\BH UHF at 3.6 Angstrom\\0,1\B,0,
 0.,0.,0.\H,0,3.6,0.,0.\\Version=ES64L-G16RevA.03\State=1-SG\HF=-25.033
 1587\S2=1.001013\S2-1=0.\S2A=0.086956\RMSD=9.977e-09\Dipole=-0.0321124
 ,0.,0.\Quadrupole=-1.7919801,0.89599,0.89599,0.,0.,0.\PG=C*V [C*(H1B1)
 ]\\@


 IT IS A PROFOUNDLY ERRONEOUS TRUISM ... THAT WE SHOULD CULTIVATE
 THE HABIT OF THINKING OF WHAT WE ARE DOING.
 THE PRECISE OPPOSITE IS THE CASE.
 CIVILIZATION ADVANCES BY EXTENDING THE NUMBER OF IMPORTANT OPERATIONS
 WHICH WE CAN PERFORM WITHOUT THINKING ABOUT THEM.

                                    -- ALFRED NORTH WHITEHEAD
 Job cpu time:       0 days  0 hours  0 minutes 27.3 seconds.
 Elapsed time:       0 days  0 hours  0 minutes 27.3 seconds.
 File lengths (MBytes):  RWF=     33 Int=      0 D2E=      0 Chk=      4 Scr=      1
 Normal termination of Gaussian 16 at Sun May 22 21:10:44 2022.

Sender: Unischeduler System <lcz@mgt01>
Subject: Job 134357: <#!/bin/bash
#BSUB -J intel
#BSUB -o BH-3.6-UHF-G.out
#BSUB -n 8
#BSUB -q cqueue
#BSUB -R span[hosts=1]
export g16root=/apps/software
source /apps/software/g16/bsd/g16.profile
export GAUSS_SCRDIR=/scratch
/apps/software/g16/g16 < BH-3.6-UHF-G.inp > BH-3.6-UHF-G.out> Done

Job <#!/bin/bash
#BSUB -J intel
#BSUB -o BH-3.6-UHF-G.out
#BSUB -n 8
#BSUB -q cqueue
#BSUB -R span[hosts=1]
export g16root=/apps/software
source /apps/software/g16/bsd/g16.profile
export GAUSS_SCRDIR=/scratch
/apps/software/g16/g16 < BH-3.6-UHF-G.inp > BH-3.6-UHF-G.out> was submitted from host <mgt01> by user <lcz>.
Job was executed on host(s) <8*cnode04>, in queue <cqueue>, as user <lcz>.
</apps/users/lcz> was used as the home directory.
</apps/users/lcz/exe13/UCCSD_T> was used as the working directory.
Started at 2022-05-22 21:10:17
Results reported at 2022-05-22 21:10:44

Your job looked like:

------------------------------------------------------------
# User input
#!/bin/bash
#BSUB -J intel
#BSUB -o BH-3.6-UHF-G.out
#BSUB -n 8
#BSUB -q cqueue
#BSUB -R span[hosts=1]
export g16root=/apps/software
source /apps/software/g16/bsd/g16.profile
export GAUSS_SCRDIR=/scratch
/apps/software/g16/g16 < BH-3.6-UHF-G.inp > BH-3.6-UHF-G.out
------------------------------------------------------------

Successfully completed.

Resource usage summary:

    CPU time   :           21.74 sec.
    Max Memory :               481 MB
    Max Processes  :               5


The output (if any) follows:

