 Entering Gaussian System, Link 0=/apps/software/g16/g16
 Initial command:
 /apps/software/g16/l1.exe "/scratch/Gau-370494.inp" -scrdir="/scratch/"
 Entering Link 1 = /apps/software/g16/l1.exe PID=    370495.
  
 Copyright (c) 1988,1990,1992,1993,1995,1998,2003,2009,2016,
            Gaussian, Inc.  All Rights Reserved.
  
 This is part of the Gaussian(R) 16 program.  It is based on
 the Gaussian(R) 09 system (copyright 2009, Gaussian, Inc.),
 the Gaussian(R) 03 system (copyright 2003, Gaussian, Inc.),
 the Gaussian(R) 98 system (copyright 1998, Gaussian, Inc.),
 the Gaussian(R) 94 system (copyright 1995, Gaussian, Inc.),
 the Gaussian 92(TM) system (copyright 1992, Gaussian, Inc.),
 the Gaussian 90(TM) system (copyright 1990, Gaussian, Inc.),
 the Gaussian 88(TM) system (copyright 1988, Gaussian, Inc.),
 the Gaussian 86(TM) system (copyright 1986, Carnegie Mellon
 University), and the Gaussian 82(TM) system (copyright 1983,
 Carnegie Mellon University). Gaussian is a federally registered
 trademark of Gaussian, Inc.
  
 This software contains proprietary and confidential information,
 including trade secrets, belonging to Gaussian, Inc.
  
 This software is provided under written license and may be
 used, copied, transmitted, or stored only in accord with that
 written license.
  
 The following legend is applicable only to US Government
 contracts under FAR:
  
                    RESTRICTED RIGHTS LEGEND
  
 Use, reproduction and disclosure by the US Government is
 subject to restrictions as set forth in subparagraphs (a)
 and (c) of the Commercial Computer Software - Restricted
 Rights clause in FAR 52.227-19.
  
 Gaussian, Inc.
 340 Quinnipiac St., Bldg. 40, Wallingford CT 06492
  
  
 ---------------------------------------------------------------
 Warning -- This program may not be used in any manner that
 competes with the business of Gaussian, Inc. or will provide
 assistance to any competitor of Gaussian, Inc.  The licensee
 of this program is prohibited from giving any competitor of
 Gaussian, Inc. access to this program.  By using this program,
 the user acknowledges that Gaussian, Inc. is engaged in the
 business of creating and licensing software in the field of
 computational chemistry and represents and warrants to the
 licensee that it is not a competitor of Gaussian, Inc. and that
 it will not use this program in any manner prohibited above.
 ---------------------------------------------------------------
  

 Cite this work as:
 Gaussian 16, Revision A.03,
 M. J. Frisch, G. W. Trucks, H. B. Schlegel, G. E. Scuseria, 
 M. A. Robb, J. R. Cheeseman, G. Scalmani, V. Barone, 
 G. A. Petersson, H. Nakatsuji, X. Li, M. Caricato, A. V. Marenich, 
 J. Bloino, B. G. Janesko, R. Gomperts, B. Mennucci, H. P. Hratchian, 
 J. V. Ortiz, A. F. Izmaylov, J. L. Sonnenberg, D. Williams-Young, 
 F. Ding, F. Lipparini, F. Egidi, J. Goings, B. Peng, A. Petrone, 
 T. Henderson, D. Ranasinghe, V. G. Zakrzewski, J. Gao, N. Rega, 
 G. Zheng, W. Liang, M. Hada, M. Ehara, K. Toyota, R. Fukuda, 
 J. Hasegawa, M. Ishida, T. Nakajima, Y. Honda, O. Kitao, H. Nakai, 
 T. Vreven, K. Throssell, J. A. Montgomery, Jr., J. E. Peralta, 
 F. Ogliaro, M. J. Bearpark, J. J. Heyd, E. N. Brothers, K. N. Kudin, 
 V. N. Staroverov, T. A. Keith, R. Kobayashi, J. Normand, 
 K. Raghavachari, A. P. Rendell, J. C. Burant, S. S. Iyengar, 
 J. Tomasi, M. Cossi, J. M. Millam, M. Klene, C. Adamo, R. Cammi, 
 J. W. Ochterski, R. L. Martin, K. Morokuma, O. Farkas, 
 J. B. Foresman, and D. J. Fox, Gaussian, Inc., Wallingford CT, 2016.
 
 ******************************************
 Gaussian 16:  ES64L-G16RevA.03 25-Dec-2016
                22-May-2022 
 ******************************************
 %chk=BH-3.4-UHF-G.chk
 ---------------------------------------
 #p UHF/aug-cc-pVQZ guess=mix stable=opt
 ---------------------------------------
 1/38=1,172=1/1;
 2/12=2,17=6,18=5,40=1/2;
 3/5=16,6=2,7=10,11=2,25=1,30=1,116=2/1,2,3;
 4/13=-1/1;
 5/5=2,38=5/2;
 6/7=2,8=2,9=2,10=2,28=1/1;
 8/6=1,10=90,11=11/1;
 9/8=-3,42=1,46=1/14;
 5/5=2,8=3,17=40,38=5/8(-2);
 6/7=2,8=2,9=2,10=2,28=1/1;
 99/5=1,9=1/99;
 Leave Link    1 at Sun May 22 21:07:17 2022, MaxMem=           0 cpu:               0.0 elap:               0.2
 (Enter /apps/software/g16/l101.exe)
 ----------------------
 BH UHF at 3.4 Angstrom
 ----------------------
 Symbolic Z-matrix:
 Charge =  0 Multiplicity = 1
 B                     0.        0.        0. 
 H                     3.4       0.        0. 
 
 ITRead=  0  0
 MicOpt= -1 -1
 NAtoms=      2 NQM=        2 NQMF=       0 NMMI=      0 NMMIF=      0
                NMic=       0 NMicF=      0.
                    Isotopes and Nuclear Properties:
 (Nuclear quadrupole moments (NQMom) in fm**2, nuclear magnetic moments (NMagM)
  in nuclear magnetons)

  Atom         1           2
 IAtWgt=          11           1
 AtmWgt=  11.0093053   1.0078250
 NucSpn=           3           1
 AtZEff=  -0.0000000  -0.0000000
 NQMom=    4.0590000   0.0000000
 NMagM=    2.6886370   2.7928460
 AtZNuc=   5.0000000   1.0000000
 Leave Link  101 at Sun May 22 21:07:17 2022, MaxMem=   104857600 cpu:               0.1 elap:               0.1
 (Enter /apps/software/g16/l202.exe)
                          Input orientation:                          
 ---------------------------------------------------------------------
 Center     Atomic      Atomic             Coordinates (Angstroms)
 Number     Number       Type             X           Y           Z
 ---------------------------------------------------------------------
      1          5           0        0.000000    0.000000    0.000000
      2          1           0        3.400000    0.000000    0.000000
 ---------------------------------------------------------------------
 Stoichiometry    BH
 Framework group  C*V[C*(HB)]
 Deg. of freedom     1
 Full point group                 C*V     NOp   4
 Largest Abelian subgroup         C2V     NOp   4
 Largest concise Abelian subgroup C1      NOp   1
                         Standard orientation:                         
 ---------------------------------------------------------------------
 Center     Atomic      Atomic             Coordinates (Angstroms)
 Number     Number       Type             X           Y           Z
 ---------------------------------------------------------------------
      1          5           0        0.000000    0.000000    0.566667
      2          1           0        0.000000    0.000000   -2.833333
 ---------------------------------------------------------------------
 Rotational constants (GHZ):           0.0000000          47.3494653          47.3494653
 Leave Link  202 at Sun May 22 21:07:18 2022, MaxMem=   104857600 cpu:               0.0 elap:               0.0
 (Enter /apps/software/g16/l301.exe)
 Standard basis: Aug-CC-pVQZ (5D, 7F)
 Ernie: Thresh=  0.10000D-02 Tol=  0.10000D-05 Strict=F.
 Ernie:  4 primitive shells out of 54 were deleted.
 There are    68 symmetry adapted cartesian basis functions of A1  symmetry.
 There are    18 symmetry adapted cartesian basis functions of A2  symmetry.
 There are    37 symmetry adapted cartesian basis functions of B1  symmetry.
 There are    37 symmetry adapted cartesian basis functions of B2  symmetry.
 There are    50 symmetry adapted basis functions of A1  symmetry.
 There are    16 symmetry adapted basis functions of A2  symmetry.
 There are    30 symmetry adapted basis functions of B1  symmetry.
 There are    30 symmetry adapted basis functions of B2  symmetry.
   126 basis functions,   180 primitive gaussians,   160 cartesian basis functions
     3 alpha electrons        3 beta electrons
       nuclear repulsion energy         0.7782017808 Hartrees.
 IExCor=    0 DFT=F Ex=HF Corr=None ExCW=0 ScaHFX=  1.000000
 ScaDFX=  1.000000  1.000000  1.000000  1.000000 ScalE2=  1.000000  1.000000
 IRadAn=      5 IRanWt=     -1 IRanGd=            0 ICorTp=0 IEmpDi=  4
 NAtoms=    2 NActive=    2 NUniq=    2 SFac= 1.00D+00 NAtFMM=   60 NAOKFM=F Big=F
 Integral buffers will be    131072 words long.
 Raffenetti 2 integral format.
 Two-electron integral symmetry is turned on.
 Leave Link  301 at Sun May 22 21:07:18 2022, MaxMem=   104857600 cpu:               0.1 elap:               0.1
 (Enter /apps/software/g16/l302.exe)
 NPDir=0 NMtPBC=     1 NCelOv=     1 NCel=       1 NClECP=     1 NCelD=      1
         NCelK=      1 NCelE2=     1 NClLst=     1 CellRange=     0.0.
 One-electron integrals computed using PRISM.
 One-electron integral symmetry used in STVInt
 NBasis=   126 RedAO= T EigKep=  4.97D-03  NBF=    50    16    30    30
 NBsUse=   126 1.00D-06 EigRej= -1.00D+00 NBFU=    50    16    30    30
 Leave Link  302 at Sun May 22 21:07:18 2022, MaxMem=   104857600 cpu:               0.1 elap:               0.1
 (Enter /apps/software/g16/l303.exe)
 DipDrv:  MaxL=1.
 Leave Link  303 at Sun May 22 21:07:18 2022, MaxMem=   104857600 cpu:               0.0 elap:               0.0
 (Enter /apps/software/g16/l401.exe)
 ExpMin= 1.88D-02 ExpMax= 2.39D+04 ExpMxC= 2.30D+02 IAcc=3 IRadAn=         5 AccDes= 0.00D+00
 Harris functional with IExCor=  205 and IRadAn=       5 diagonalized for initial guess.
 HarFok:  IExCor=  205 AccDes= 0.00D+00 IRadAn=         5 IDoV= 1 UseB2=F ITyADJ=14
 ICtDFT=  3500011 ScaDFX=  1.000000  1.000000  1.000000  1.000000
 FoFCou: FMM=F IPFlag=           0 FMFlag=      100000 FMFlg1=           0
         NFxFlg=           0 DoJE=T BraDBF=F KetDBF=T FulRan=T
         wScrn=  0.000000 ICntrl=       500 IOpCl=  0 I1Cent=   200000004 NGrid=           0
         NMat0=    1 NMatS0=      1 NMatT0=    0 NMatD0=    1 NMtDS0=    0 NMtDT0=    0
 Petite list used in FoFCou.
 Harris En= -24.9930785135347    
 JPrj=0 DoOrth=F DoCkMO=T.
 Mixing orbitals, IMix= 1 IMixAn=  0 NRI=1 NE=    3 Coef=  7.07106781D-01  7.07106781D-01
 Mixing orbitals, IMix= 1 IMixAn=  0 NRI=1 NE=    3 Coef= -7.07106781D-01  7.07106781D-01
 Initial guess orbital symmetries:
 Alpha Orbitals:
       Occupied  (SG) (SG) (?A)
       Virtual   (?A) (?A) (SG) (SG) (PI) (PI) (SG) (SG) (PI) (PI)
                 (DLTA) (DLTA) (SG) (PI) (PI) (SG) (PI) (PI) (SG)
                 (SG) (SG) (PI) (PI) (DLTA) (DLTA) (DLTA) (DLTA)
                 (PHI) (PHI) (SG) (PI) (PI) (SG) (DLTA) (DLTA)
                 (PI) (PI) (PI) (PI) (SG) (SG) (PI) (PI) (SG) (SG)
                 (PI) (PI) (DLTA) (DLTA) (SG) (PI) (PI) (DLTA)
                 (DLTA) (PHI) (PHI) (?B) (?B) (PHI) (PHI) (DLTA)
                 (DLTA) (SG) (PI) (PI) (PHI) (PHI) (SG) (DLTA)
                 (DLTA) (SG) (PI) (PI) (SG) (DLTA) (DLTA) (PI)
                 (PI) (PI) (PI) (SG) (SG) (PI) (PI) (SG) (DLTA)
                 (DLTA) (PI) (PI) (SG) (?B) (PHI) (PHI) (?B) (DLTA)
                 (DLTA) (PI) (PI) (PHI) (PHI) (DLTA) (DLTA) (PI)
                 (PI) (SG) (SG) (PHI) (PHI) (DLTA) (DLTA) (PI)
                 (PI) (SG) (SG) (PI) (PI) (SG) (DLTA) (DLTA) (PI)
                 (PI) (SG) (SG)
 Beta  Orbitals:
       Occupied  (SG) (SG) (?A)
       Virtual   (?A) (?A) (SG) (SG) (PI) (PI) (SG) (SG) (PI) (PI)
                 (DLTA) (DLTA) (SG) (PI) (PI) (SG) (PI) (PI) (SG)
                 (SG) (SG) (PI) (PI) (DLTA) (DLTA) (DLTA) (DLTA)
                 (PHI) (PHI) (SG) (PI) (PI) (SG) (DLTA) (DLTA)
                 (PI) (PI) (PI) (PI) (SG) (SG) (PI) (PI) (SG) (SG)
                 (PI) (PI) (DLTA) (DLTA) (SG) (PI) (PI) (DLTA)
                 (DLTA) (PHI) (PHI) (?B) (?B) (PHI) (PHI) (DLTA)
                 (DLTA) (SG) (PI) (PI) (PHI) (PHI) (SG) (DLTA)
                 (DLTA) (SG) (PI) (PI) (SG) (DLTA) (DLTA) (PI)
                 (PI) (PI) (PI) (SG) (SG) (PI) (PI) (SG) (DLTA)
                 (DLTA) (PI) (PI) (SG) (?B) (PHI) (PHI) (?B) (DLTA)
                 (DLTA) (PI) (PI) (PHI) (PHI) (DLTA) (DLTA) (PI)
                 (PI) (SG) (SG) (PHI) (PHI) (DLTA) (DLTA) (PI)
                 (PI) (SG) (SG) (PI) (PI) (SG) (DLTA) (DLTA) (PI)
                 (PI) (SG) (SG)
 Initial guess <Sx>= 0.0000 <Sy>= 0.0000 <Sz>= 0.0000 <S**2>= 1.0000 S= 0.6180
 Leave Link  401 at Sun May 22 21:07:18 2022, MaxMem=   104857600 cpu:               0.2 elap:               0.2
 (Enter /apps/software/g16/l502.exe)
 Keep R1 and R2 ints in memory in symmetry-blocked form, NReq=40143665.
 FoFCou: FMM=F IPFlag=           0 FMFlag=           0 FMFlg1=           0
         NFxFlg=           0 DoJE=F BraDBF=F KetDBF=F FulRan=T
         wScrn=  0.000000 ICntrl=       600 IOpCl=  0 I1Cent=           0 NGrid=           0
         NMat0=    1 NMatS0=   8001 NMatT0=    0 NMatD0=    1 NMtDS0=    0 NMtDT0=    0
 Petite list used in FoFCou.
 UHF open shell SCF:
 Using DIIS extrapolation, IDIIS=  1040.
 NGot=   104857600 LenX=    88563632 LenY=    88537591
 Requested convergence on RMS density matrix=1.00D-08 within 128 cycles.
 Requested convergence on MAX density matrix=1.00D-06.
 Requested convergence on             energy=1.00D-06.
 No special actions if energy rises.
 An orbital has undefined symmetry, so N**3 symmetry is turned off.

 Cycle   1  Pass 1  IDiag  1:
 Density matrix breaks symmetry, PCut= 1.00D-07
 Density matrix has no symmetry -- integrals replicated.
 E= -24.8514201000032    
 DIIS: error= 3.08D-02 at cycle   1 NSaved=   1.
 NSaved= 1 IEnMin= 1 EnMin= -24.8514201000032     IErMin= 1 ErrMin= 3.08D-02
 ErrMax= 3.08D-02  0.00D+00 EMaxC= 1.00D-01 BMatC= 1.51D-01 BMatP= 1.51D-01
 IDIUse=3 WtCom= 6.92D-01 WtEn= 3.08D-01
 Coeff-Com:  0.100D+01
 Coeff-En:   0.100D+01
 Coeff:      0.100D+01
 Gap=     0.160 Goal=   None    Shift=    0.000
 Gap=     0.160 Goal=   None    Shift=    0.000
 GapD=    0.160 DampG=1.000 DampE=0.500 DampFc=0.5000 IDamp=-1.
 Damping current iteration by 5.00D-01
 RMSDP=1.59D-03 MaxDP=7.16D-02              OVMax= 3.33D-01

 Cycle   2  Pass 1  IDiag  1:
 Density matrix breaks symmetry, PCut= 1.00D-07
 Density matrix has no symmetry -- integrals replicated.
 E= -24.8739632204841     Delta-E=       -0.022543120481 Rises=F Damp=T
 DIIS: error= 1.91D-02 at cycle   2 NSaved=   2.
 NSaved= 2 IEnMin= 2 EnMin= -24.8739632204841     IErMin= 2 ErrMin= 1.91D-02
 ErrMax= 1.91D-02  0.00D+00 EMaxC= 1.00D-01 BMatC= 4.95D-02 BMatP= 1.51D-01
 IDIUse=3 WtCom= 8.09D-01 WtEn= 1.91D-01
 Coeff-Com: -0.741D+00 0.174D+01
 Coeff-En:   0.000D+00 0.100D+01
 Coeff:     -0.600D+00 0.160D+01
 Gap=     0.142 Goal=   None    Shift=    0.000
 Gap=     0.142 Goal=   None    Shift=    0.000
 RMSDP=1.20D-03 MaxDP=5.58D-02 DE=-2.25D-02 OVMax= 1.76D-01

 Cycle   3  Pass 1  IDiag  1:
 Density matrix breaks symmetry, PCut= 1.00D-07
 Density matrix has no symmetry -- integrals replicated.
 E= -24.9083673552372     Delta-E=       -0.034404134753 Rises=F Damp=F
 DIIS: error= 1.03D-02 at cycle   3 NSaved=   3.
 NSaved= 3 IEnMin= 3 EnMin= -24.9083673552372     IErMin= 3 ErrMin= 1.03D-02
 ErrMax= 1.03D-02  0.00D+00 EMaxC= 1.00D-01 BMatC= 4.31D-03 BMatP= 4.95D-02
 IDIUse=3 WtCom= 8.97D-01 WtEn= 1.03D-01
 Coeff-Com: -0.224D+00 0.369D+00 0.855D+00
 Coeff-En:   0.000D+00 0.000D+00 0.100D+01
 Coeff:     -0.201D+00 0.331D+00 0.870D+00
 Gap=     0.184 Goal=   None    Shift=    0.000
 Gap=     0.184 Goal=   None    Shift=    0.000
 RMSDP=4.91D-04 MaxDP=1.65D-02 DE=-3.44D-02 OVMax= 1.11D-01

 Cycle   4  Pass 1  IDiag  1:
 Density matrix breaks symmetry, PCut= 1.00D-07
 Density matrix has no symmetry -- integrals replicated.
 E= -24.9177579335073     Delta-E=       -0.009390578270 Rises=F Damp=F
 DIIS: error= 4.14D-03 at cycle   4 NSaved=   4.
 NSaved= 4 IEnMin= 4 EnMin= -24.9177579335073     IErMin= 4 ErrMin= 4.14D-03
 ErrMax= 4.14D-03  0.00D+00 EMaxC= 1.00D-01 BMatC= 2.00D-03 BMatP= 4.31D-03
 IDIUse=3 WtCom= 9.59D-01 WtEn= 4.14D-02
 Coeff-Com:  0.185D+00-0.359D+00-0.368D+00 0.154D+01
 Coeff-En:   0.000D+00 0.000D+00 0.000D+00 0.100D+01
 Coeff:      0.177D+00-0.344D+00-0.353D+00 0.152D+01
 Gap=     0.186 Goal=   None    Shift=    0.000
 Gap=     0.186 Goal=   None    Shift=    0.000
 RMSDP=5.77D-04 MaxDP=1.38D-02 DE=-9.39D-03 OVMax= 1.15D-01

 Cycle   5  Pass 1  IDiag  1:
 Density matrix breaks symmetry, PCut= 1.00D-07
 Density matrix has no symmetry -- integrals replicated.
 E= -24.9251578177176     Delta-E=       -0.007399884210 Rises=F Damp=F
 DIIS: error= 3.86D-03 at cycle   5 NSaved=   5.
 NSaved= 5 IEnMin= 5 EnMin= -24.9251578177176     IErMin= 5 ErrMin= 3.86D-03
 ErrMax= 3.86D-03  0.00D+00 EMaxC= 1.00D-01 BMatC= 8.76D-04 BMatP= 2.00D-03
 IDIUse=3 WtCom= 9.61D-01 WtEn= 3.86D-02
 Coeff-Com: -0.205D+00 0.399D+00-0.199D+00-0.717D+00 0.172D+01
 Coeff-En:   0.000D+00 0.000D+00 0.000D+00 0.000D+00 0.100D+01
 Coeff:     -0.197D+00 0.383D+00-0.192D+00-0.690D+00 0.170D+01
 Gap=     0.199 Goal=   None    Shift=    0.000
 Gap=     0.199 Goal=   None    Shift=    0.000
 RMSDP=4.63D-04 MaxDP=1.32D-02 DE=-7.40D-03 OVMax= 1.03D-01

 Cycle   6  Pass 1  IDiag  1:
 Density matrix breaks symmetry, PCut= 1.00D-07
 Density matrix has no symmetry -- integrals replicated.
 E= -24.9289679175691     Delta-E=       -0.003810099852 Rises=F Damp=F
 DIIS: error= 2.60D-03 at cycle   6 NSaved=   6.
 NSaved= 6 IEnMin= 6 EnMin= -24.9289679175691     IErMin= 6 ErrMin= 2.60D-03
 ErrMax= 2.60D-03  0.00D+00 EMaxC= 1.00D-01 BMatC= 3.51D-04 BMatP= 8.76D-04
 IDIUse=3 WtCom= 9.74D-01 WtEn= 2.60D-02
 Coeff-Com: -0.412D-01 0.753D-01-0.147D+00 0.154D+00-0.196D+00 0.116D+01
 Coeff-En:   0.000D+00 0.000D+00 0.000D+00 0.000D+00 0.000D+00 0.100D+01
 Coeff:     -0.402D-01 0.733D-01-0.144D+00 0.150D+00-0.191D+00 0.115D+01
 Gap=     0.203 Goal=   None    Shift=    0.000
 Gap=     0.203 Goal=   None    Shift=    0.000
 RMSDP=1.82D-04 MaxDP=5.80D-03 DE=-3.81D-03 OVMax= 4.19D-02

 Cycle   7  Pass 1  IDiag  1:
 Density matrix breaks symmetry, PCut= 1.00D-07
 Density matrix has no symmetry -- integrals replicated.
 E= -24.9299706342983     Delta-E=       -0.001002716729 Rises=F Damp=F
 DIIS: error= 1.87D-03 at cycle   7 NSaved=   7.
 NSaved= 7 IEnMin= 7 EnMin= -24.9299706342983     IErMin= 7 ErrMin= 1.87D-03
 ErrMax= 1.87D-03  0.00D+00 EMaxC= 1.00D-01 BMatC= 1.25D-04 BMatP= 3.51D-04
 IDIUse=3 WtCom= 9.81D-01 WtEn= 1.87D-02
 Coeff-Com: -0.104D+00 0.200D+00 0.126D+00-0.999D+00 0.181D+01-0.371D+01
 Coeff-Com:  0.367D+01
 Coeff-En:   0.000D+00 0.000D+00 0.000D+00 0.000D+00 0.000D+00 0.000D+00
 Coeff-En:   0.100D+01
 Coeff:     -0.102D+00 0.197D+00 0.123D+00-0.980D+00 0.178D+01-0.364D+01
 Coeff:      0.362D+01
 Gap=     0.206 Goal=   None    Shift=    0.000
 Gap=     0.206 Goal=   None    Shift=    0.000
 RMSDP=2.72D-04 MaxDP=8.92D-03 DE=-1.00D-03 OVMax= 6.41D-02

 Cycle   8  Pass 1  IDiag  1:
 Density matrix breaks symmetry, PCut= 1.00D-07
 Density matrix has no symmetry -- integrals replicated.
 E= -24.9307346307685     Delta-E=       -0.000763996470 Rises=F Damp=F
 DIIS: error= 8.04D-04 at cycle   8 NSaved=   8.
 NSaved= 8 IEnMin= 8 EnMin= -24.9307346307685     IErMin= 8 ErrMin= 8.04D-04
 ErrMax= 8.04D-04  0.00D+00 EMaxC= 1.00D-01 BMatC= 4.17D-05 BMatP= 1.25D-04
 IDIUse=3 WtCom= 9.92D-01 WtEn= 8.04D-03
 Coeff-Com:  0.323D-01-0.604D-01-0.899D-01 0.355D+00-0.224D+00 0.379D+00
 Coeff-Com: -0.117D+01 0.178D+01
 Coeff-En:   0.000D+00 0.000D+00 0.000D+00 0.000D+00 0.000D+00 0.000D+00
 Coeff-En:   0.000D+00 0.100D+01
 Coeff:      0.320D-01-0.599D-01-0.892D-01 0.352D+00-0.222D+00 0.376D+00
 Coeff:     -0.116D+01 0.177D+01
 Gap=     0.208 Goal=   None    Shift=    0.000
 Gap=     0.208 Goal=   None    Shift=    0.000
 RMSDP=1.30D-04 MaxDP=4.18D-03 DE=-7.64D-04 OVMax= 3.02D-02

 Cycle   9  Pass 1  IDiag  1:
 Density matrix breaks symmetry, PCut= 1.00D-07
 Density matrix has no symmetry -- integrals replicated.
 E= -24.9308847770652     Delta-E=       -0.000150146297 Rises=F Damp=F
 DIIS: error= 2.81D-04 at cycle   9 NSaved=   9.
 NSaved= 9 IEnMin= 9 EnMin= -24.9308847770652     IErMin= 9 ErrMin= 2.81D-04
 ErrMax= 2.81D-04  0.00D+00 EMaxC= 1.00D-01 BMatC= 6.68D-06 BMatP= 4.17D-05
 IDIUse=3 WtCom= 9.97D-01 WtEn= 2.81D-03
 Coeff-Com:  0.143D-02-0.378D-02-0.934D-02 0.478D-01-0.205D+00 0.570D+00
 Coeff-Com: -0.576D+00 0.116D+00 0.106D+01
 Coeff-En:   0.000D+00 0.000D+00 0.000D+00 0.000D+00 0.000D+00 0.000D+00
 Coeff-En:   0.000D+00 0.000D+00 0.100D+01
 Coeff:      0.142D-02-0.377D-02-0.932D-02 0.476D-01-0.205D+00 0.569D+00
 Coeff:     -0.575D+00 0.116D+00 0.106D+01
 Gap=     0.209 Goal=   None    Shift=    0.000
 Gap=     0.209 Goal=   None    Shift=    0.000
 RMSDP=4.99D-05 MaxDP=1.48D-03 DE=-1.50D-04 OVMax= 1.11D-02

 Cycle  10  Pass 1  IDiag  1:
 Density matrix breaks symmetry, PCut= 1.00D-07
 Density matrix has no symmetry -- integrals replicated.
 E= -24.9308999344274     Delta-E=       -0.000015157362 Rises=F Damp=F
 DIIS: error= 1.96D-04 at cycle  10 NSaved=  10.
 NSaved=10 IEnMin=10 EnMin= -24.9308999344274     IErMin=10 ErrMin= 1.96D-04
 ErrMax= 1.96D-04  0.00D+00 EMaxC= 1.00D-01 BMatC= 4.20D-06 BMatP= 6.68D-06
 IDIUse=3 WtCom= 9.98D-01 WtEn= 1.96D-03
 Coeff-Com: -0.208D-02 0.398D-02-0.516D-03-0.158D-01 0.166D-01-0.412D-01
 Coeff-Com:  0.101D+00-0.244D+00 0.323D+00 0.860D+00
 Coeff-En:   0.000D+00 0.000D+00 0.000D+00 0.000D+00 0.000D+00 0.000D+00
 Coeff-En:   0.000D+00 0.000D+00 0.000D+00 0.100D+01
 Coeff:     -0.208D-02 0.397D-02-0.515D-03-0.158D-01 0.165D-01-0.412D-01
 Coeff:      0.100D+00-0.244D+00 0.323D+00 0.860D+00
 Gap=     0.209 Goal=   None    Shift=    0.000
 Gap=     0.209 Goal=   None    Shift=    0.000
 RMSDP=1.51D-05 MaxDP=4.27D-04 DE=-1.52D-05 OVMax= 3.43D-03

 Cycle  11  Pass 1  IDiag  1:
 Density matrix breaks symmetry, PCut= 1.00D-07
 Density matrix has no symmetry -- integrals replicated.
 E= -24.9309061196337     Delta-E=       -0.000006185206 Rises=F Damp=F
 DIIS: error= 6.29D-05 at cycle  11 NSaved=  11.
 NSaved=11 IEnMin=11 EnMin= -24.9309061196337     IErMin=11 ErrMin= 6.29D-05
 ErrMax= 6.29D-05  0.00D+00 EMaxC= 1.00D-01 BMatC= 3.88D-07 BMatP= 4.20D-06
 IDIUse=1 WtCom= 1.00D+00 WtEn= 0.00D+00
 Coeff-Com:  0.131D-03-0.610D-03-0.586D-02 0.201D-01-0.586D-01 0.198D+00
 Coeff-Com: -0.254D+00 0.195D+00 0.143D+00-0.894D+00 0.166D+01
 Coeff:      0.131D-03-0.610D-03-0.586D-02 0.201D-01-0.586D-01 0.198D+00
 Coeff:     -0.254D+00 0.195D+00 0.143D+00-0.894D+00 0.166D+01
 Gap=     0.209 Goal=   None    Shift=    0.000
 Gap=     0.209 Goal=   None    Shift=    0.000
 RMSDP=4.04D-06 MaxDP=1.21D-04 DE=-6.19D-06 OVMax= 8.33D-04

 Cycle  12  Pass 1  IDiag  1:
 Density matrix breaks symmetry, PCut= 1.00D-07
 Density matrix has no symmetry -- integrals replicated.
 E= -24.9309066578973     Delta-E=       -0.000000538264 Rises=F Damp=F
 DIIS: error= 5.95D-05 at cycle  12 NSaved=  12.
 NSaved=12 IEnMin=12 EnMin= -24.9309066578973     IErMin=12 ErrMin= 5.95D-05
 ErrMax= 5.95D-05  0.00D+00 EMaxC= 1.00D-01 BMatC= 3.67D-07 BMatP= 3.88D-07
 IDIUse=1 WtCom= 1.00D+00 WtEn= 0.00D+00
 Coeff-Com: -0.157D-03 0.283D-03-0.902D-03 0.623D-02-0.252D-01 0.358D-01
 Coeff-Com: -0.178D-01-0.581D-01 0.343D+00 0.466D+00-0.478D+01 0.503D+01
 Coeff:     -0.157D-03 0.283D-03-0.902D-03 0.623D-02-0.252D-01 0.358D-01
 Coeff:     -0.178D-01-0.581D-01 0.343D+00 0.466D+00-0.478D+01 0.503D+01
 Gap=     0.209 Goal=   None    Shift=    0.000
 Gap=     0.209 Goal=   None    Shift=    0.000
 RMSDP=1.04D-05 MaxDP=3.97D-04 DE=-5.38D-07 OVMax= 1.51D-03

 Cycle  13  Pass 1  IDiag  1:
 Density matrix breaks symmetry, PCut= 1.00D-07
 Density matrix has no symmetry -- integrals replicated.
 E= -24.9309079175307     Delta-E=       -0.000001259633 Rises=F Damp=F
 DIIS: error= 4.25D-05 at cycle  13 NSaved=  13.
 NSaved=13 IEnMin=13 EnMin= -24.9309079175307     IErMin=13 ErrMin= 4.25D-05
 ErrMax= 4.25D-05  0.00D+00 EMaxC= 1.00D-01 BMatC= 1.70D-07 BMatP= 3.67D-07
 IDIUse=1 WtCom= 1.00D+00 WtEn= 0.00D+00
 Coeff-Com:  0.581D-03-0.116D-02-0.170D-02 0.488D-02-0.524D-02 0.104D-01
 Coeff-Com: -0.389D-02-0.285D-01-0.683D-01 0.863D-01 0.125D+01-0.412D+01
 Coeff-Com:  0.387D+01
 Coeff:      0.581D-03-0.116D-02-0.170D-02 0.488D-02-0.524D-02 0.104D-01
 Coeff:     -0.389D-02-0.285D-01-0.683D-01 0.863D-01 0.125D+01-0.412D+01
 Coeff:      0.387D+01
 Gap=     0.209 Goal=   None    Shift=    0.000
 Gap=     0.209 Goal=   None    Shift=    0.000
 RMSDP=2.80D-05 MaxDP=1.01D-03 DE=-1.26D-06 OVMax= 4.52D-03

 Cycle  14  Pass 1  IDiag  1:
 Density matrix breaks symmetry, PCut= 1.00D-07
 Density matrix has no symmetry -- integrals replicated.
 E= -24.9309095026321     Delta-E=       -0.000001585101 Rises=F Damp=F
 DIIS: error= 5.45D-06 at cycle  14 NSaved=  14.
 NSaved=14 IEnMin=14 EnMin= -24.9309095026321     IErMin=14 ErrMin= 5.45D-06
 ErrMax= 5.45D-06  0.00D+00 EMaxC= 1.00D-01 BMatC= 4.41D-09 BMatP= 1.70D-07
 IDIUse=1 WtCom= 1.00D+00 WtEn= 0.00D+00
 Coeff-Com:  0.746D-05 0.105D-04-0.183D-04 0.327D-04 0.112D-02-0.174D-02
 Coeff-Com: -0.424D-02 0.171D-01 0.185D-01-0.469D-01-0.255D+00 0.118D+01
 Coeff-Com: -0.142D+01 0.151D+01
 Coeff:      0.746D-05 0.105D-04-0.183D-04 0.327D-04 0.112D-02-0.174D-02
 Coeff:     -0.424D-02 0.171D-01 0.185D-01-0.469D-01-0.255D+00 0.118D+01
 Coeff:     -0.142D+01 0.151D+01
 Gap=     0.209 Goal=   None    Shift=    0.000
 Gap=     0.209 Goal=   None    Shift=    0.000
 RMSDP=5.08D-06 MaxDP=1.84D-04 DE=-1.59D-06 OVMax= 8.06D-04

 Cycle  15  Pass 1  IDiag  1:
 Density matrix breaks symmetry, PCut= 1.00D-07
 Density matrix has no symmetry -- integrals replicated.
 E= -24.9309095364754     Delta-E=       -0.000000033843 Rises=F Damp=F
 DIIS: error= 1.62D-06 at cycle  15 NSaved=  15.
 NSaved=15 IEnMin=15 EnMin= -24.9309095364754     IErMin=15 ErrMin= 1.62D-06
 ErrMax= 1.62D-06  0.00D+00 EMaxC= 1.00D-01 BMatC= 2.97D-10 BMatP= 4.41D-09
 IDIUse=1 WtCom= 1.00D+00 WtEn= 0.00D+00
 Coeff-Com:  0.118D-04-0.265D-04 0.404D-04 0.636D-04 0.458D-04-0.104D-02
 Coeff-Com:  0.241D-02-0.382D-02-0.949D-02 0.199D-01 0.432D-01-0.242D+00
 Coeff-Com:  0.326D+00-0.484D+00 0.135D+01
 Coeff:      0.118D-04-0.265D-04 0.404D-04 0.636D-04 0.458D-04-0.104D-02
 Coeff:      0.241D-02-0.382D-02-0.949D-02 0.199D-01 0.432D-01-0.242D+00
 Coeff:      0.326D+00-0.484D+00 0.135D+01
 Gap=     0.209 Goal=   None    Shift=    0.000
 Gap=     0.209 Goal=   None    Shift=    0.000
 RMSDP=1.55D-07 MaxDP=4.06D-06 DE=-3.38D-08 OVMax= 2.33D-05

 Cycle  16  Pass 1  IDiag  1:
 Density matrix breaks symmetry, PCut= 1.00D-07
 Density matrix has no symmetry -- integrals replicated.
 E= -24.9309095368429     Delta-E=       -0.000000000367 Rises=F Damp=F
 DIIS: error= 7.60D-07 at cycle  16 NSaved=  16.
 NSaved=16 IEnMin=16 EnMin= -24.9309095368429     IErMin=16 ErrMin= 7.60D-07
 ErrMax= 7.60D-07  0.00D+00 EMaxC= 1.00D-01 BMatC= 6.33D-11 BMatP= 2.97D-10
 IDIUse=1 WtCom= 1.00D+00 WtEn= 0.00D+00
 Coeff-Com:  0.898D-05-0.142D-04-0.149D-04 0.599D-04 0.202D-04 0.528D-04
 Coeff-Com: -0.536D-03 0.142D-02 0.156D-02-0.271D-02-0.200D-01 0.823D-01
 Coeff-Com: -0.103D+00 0.151D+00-0.632D+00 0.152D+01
 Coeff:      0.898D-05-0.142D-04-0.149D-04 0.599D-04 0.202D-04 0.528D-04
 Coeff:     -0.536D-03 0.142D-02 0.156D-02-0.271D-02-0.200D-01 0.823D-01
 Coeff:     -0.103D+00 0.151D+00-0.632D+00 0.152D+01
 Gap=     0.209 Goal=   None    Shift=    0.000
 Gap=     0.209 Goal=   None    Shift=    0.000
 RMSDP=1.43D-07 MaxDP=4.16D-06 DE=-3.67D-10 OVMax= 2.80D-05

 Cycle  17  Pass 1  IDiag  1:
 Density matrix breaks symmetry, PCut= 1.00D-07
 Density matrix has no symmetry -- integrals replicated.
 E= -24.9309095369686     Delta-E=       -0.000000000126 Rises=F Damp=F
 DIIS: error= 1.95D-07 at cycle  17 NSaved=  17.
 NSaved=17 IEnMin=17 EnMin= -24.9309095369686     IErMin=17 ErrMin= 1.95D-07
 ErrMax= 1.95D-07  0.00D+00 EMaxC= 1.00D-01 BMatC= 4.21D-12 BMatP= 6.33D-11
 IDIUse=1 WtCom= 1.00D+00 WtEn= 0.00D+00
 Coeff-Com: -0.176D-05 0.264D-05 0.759D-05-0.202D-04 0.168D-04-0.833D-04
 Coeff-Com:  0.173D-03-0.226D-03-0.558D-03 0.106D-03 0.617D-02-0.156D-01
 Coeff-Com:  0.172D-01-0.268D-01 0.167D+00-0.731D+00 0.158D+01
 Coeff:     -0.176D-05 0.264D-05 0.759D-05-0.202D-04 0.168D-04-0.833D-04
 Coeff:      0.173D-03-0.226D-03-0.558D-03 0.106D-03 0.617D-02-0.156D-01
 Coeff:      0.172D-01-0.268D-01 0.167D+00-0.731D+00 0.158D+01
 Gap=     0.209 Goal=   None    Shift=    0.000
 Gap=     0.209 Goal=   None    Shift=    0.000
 RMSDP=6.43D-08 MaxDP=1.99D-06 DE=-1.26D-10 OVMax= 1.17D-05

 Cycle  18  Pass 1  IDiag  1:
 Density matrix breaks symmetry, PCut= 1.00D-07
 Density matrix has no symmetry -- integrals replicated.
 E= -24.9309095369800     Delta-E=       -0.000000000011 Rises=F Damp=F
 DIIS: error= 1.35D-08 at cycle  18 NSaved=  18.
 NSaved=18 IEnMin=18 EnMin= -24.9309095369800     IErMin=18 ErrMin= 1.35D-08
 ErrMax= 1.35D-08  0.00D+00 EMaxC= 1.00D-01 BMatC= 1.74D-14 BMatP= 4.21D-12
 IDIUse=1 WtCom= 1.00D+00 WtEn= 0.00D+00
 Large coefficients: NSaved= 18 BigCof=    0.00 CofMax=   10.00 Det=-8.26D-15
 Inversion failed.  Reducing to 17 matrices.
 Large coefficients: NSaved= 17 BigCof=    0.00 CofMax=   10.00 Det=-8.72D-15
 Inversion failed.  Reducing to 16 matrices.
 Coeff-Com: -0.125D-05 0.161D-06-0.391D-05 0.356D-04-0.449D-04 0.212D-04
 Coeff-Com:  0.709D-04-0.156D-03 0.227D-03-0.820D-03 0.580D-03 0.127D-02
 Coeff-Com: -0.304D-01 0.182D+00-0.520D+00 0.137D+01
 Coeff:     -0.125D-05 0.161D-06-0.391D-05 0.356D-04-0.449D-04 0.212D-04
 Coeff:      0.709D-04-0.156D-03 0.227D-03-0.820D-03 0.580D-03 0.127D-02
 Coeff:     -0.304D-01 0.182D+00-0.520D+00 0.137D+01
 Gap=     0.209 Goal=   None    Shift=    0.000
 Gap=     0.209 Goal=   None    Shift=    0.000
 RMSDP=4.35D-09 MaxDP=1.31D-07 DE=-1.14D-11 OVMax= 7.81D-07

 Density matrix breaks symmetry, PCut= 1.00D-07
 Density matrix has no symmetry -- integrals replicated.
 SCF Done:  E(UHF) =  -24.9309095370     A.U. after   18 cycles
            NFock= 18  Conv=0.44D-08     -V/T= 2.0074
 <Sx>= 0.0000 <Sy>= 0.0000 <Sz>= 0.0000 <S**2>= 0.1441 S= 0.1277
 <L.S>=  0.00000000000    
 KE= 2.474747824038D+01 PE=-5.870467204700D+01 EE= 8.248082488876D+00
 Annihilation of the first spin contaminant:
 S**2 before annihilation     0.1441,   after     0.0019
 Leave Link  502 at Sun May 22 21:07:22 2022, MaxMem=   104857600 cpu:               3.9 elap:               3.9
 (Enter /apps/software/g16/l601.exe)
 Copying SCF densities to generalized density rwf, IOpCl= 1 IROHF=0.
 SCF density gives NOpUse=  1 NOpAll=  4.
 Marking SCF density as not fully symmetric.

 **********************************************************************

            Population analysis using the SCF density.

 **********************************************************************

 Orbital symmetries:
 Alpha Orbitals:
       Occupied  (SG) (?A) (?A)
       Virtual   (?A) (?A) (?A) (?A) (?A) (?A) (SG) (SG) (?B) (?B)
                 (?B) (?B) (SG) (?C) (?C) (?C) (?C) (?C) (?C) (SG)
                 (?D) (?D) (?D) (?D) (?D) (?D) (?D) (?D) (?D) (PI)
                 (PI) (SG) (SG) (DLTA) (DLTA) (PI) (PI) (PI) (PI)
                 (SG) (?E) (?E) (?E) (SG) (?F) (?F) (?F) (?F) (?F)
                 (?F) (?F) (?F) (?F) (?F) (?F) (?F) (?F) (?F) (?F)
                 (?F) (?F) (?F) (?G) (?G) (?G) (SG) (PHI) (PHI)
                 (DLTA) (DLTA) (SG) (PI) (PI) (SG) (DLTA) (DLTA)
                 (PI) (PI) (PI) (PI) (SG) (SG) (PI) (PI) (SG) (?H)
                 (?H) (?H) (?H) (?H) (?H) (?H) (?H) (?H) (?H) (?H)
                 (PI) (PI) (?I) (?I) (?I) (?I) (PI) (PI) (SG) (SG)
                 (PHI) (PHI) (DLTA) (DLTA) (PI) (PI) (SG) (SG)
                 (PI) (PI) (SG) (DLTA) (DLTA) (PI) (PI) (SG) (SG)
 Beta  Orbitals:
       Occupied  (SG) (?A) (?A)
       Virtual   (?A) (?A) (?A) (?A) (?A) (?A) (SG) (SG) (?B) (?B)
                 (?B) (?B) (SG) (?C) (?C) (?C) (?C) (?C) (?C) (SG)
                 (?D) (?D) (?D) (?D) (?D) (?D) (?D) (?D) (?D) (PI)
                 (PI) (SG) (SG) (DLTA) (DLTA) (PI) (PI) (PI) (PI)
                 (SG) (?E) (?E) (?E) (SG) (?F) (?F) (?F) (?F) (?F)
                 (?F) (?F) (?F) (?F) (?F) (?F) (?F) (?F) (?F) (?F)
                 (?F) (?F) (?F) (?G) (?G) (?G) (SG) (PHI) (PHI)
                 (DLTA) (DLTA) (SG) (PI) (PI) (SG) (DLTA) (DLTA)
                 (PI) (PI) (PI) (PI) (SG) (SG) (PI) (PI) (SG) (?H)
                 (?H) (?H) (?H) (?H) (?H) (?H) (?H) (?H) (?H) (?H)
                 (PI) (PI) (?I) (?I) (?I) (?I) (PI) (PI) (SG) (SG)
                 (PHI) (PHI) (DLTA) (DLTA) (PI) (PI) (SG) (SG)
                 (PI) (PI) (SG) (DLTA) (DLTA) (PI) (PI) (SG) (SG)
 Unable to determine electronic state:  an orbital has unidentified symmetry.
 Alpha  occ. eigenvalues --   -7.86751  -0.60373  -0.25928
 Alpha virt. eigenvalues --   -0.05023  -0.02964  -0.02184   0.02954   0.04835
 Alpha virt. eigenvalues --    0.04907   0.06892   0.08929   0.12759   0.12760
 Alpha virt. eigenvalues --    0.13364   0.13399   0.16427   0.24753   0.24830
 Alpha virt. eigenvalues --    0.26802   0.27150   0.27387   0.29900   0.34067
 Alpha virt. eigenvalues --    0.42885   0.42885   0.43507   0.43507   0.44894
 Alpha virt. eigenvalues --    0.44902   0.45489   0.45530   0.46010   0.48212
 Alpha virt. eigenvalues --    0.48282   0.50205   0.58978   0.69824   0.69824
 Alpha virt. eigenvalues --    0.78870   0.78898   0.88001   0.88007   0.89899
 Alpha virt. eigenvalues --    0.93519   0.96071   0.96185   1.03944   1.30792
 Alpha virt. eigenvalues --    1.31262   1.31262   1.31981   1.31987   1.32242
 Alpha virt. eigenvalues --    1.32242   1.32588   1.32592   1.33166   1.33256
 Alpha virt. eigenvalues --    1.33661   1.33708   1.33904   1.36718   1.36718
 Alpha virt. eigenvalues --    1.38206   1.38207   1.41714   1.43556   1.43729
 Alpha virt. eigenvalues --    1.61458   1.63941   1.63941   1.67190   1.67190
 Alpha virt. eigenvalues --    1.77313   1.80484   1.80521   1.92628   2.55835
 Alpha virt. eigenvalues --    2.55835   2.63360   2.63367   2.68942   2.68945
 Alpha virt. eigenvalues --    2.76299   2.81233   3.60284   3.60443   3.66977
 Alpha virt. eigenvalues --    3.82269   3.82269   3.83085   3.83085   3.83340
 Alpha virt. eigenvalues --    3.83341   3.84413   3.84603   3.84662   3.84669
 Alpha virt. eigenvalues --    3.85858   3.90571   3.90789   3.97360   3.97360
 Alpha virt. eigenvalues --    3.98876   3.98879   4.01718   4.01929   4.05849
 Alpha virt. eigenvalues --    4.09083   6.64797   6.64797   6.65570   6.65570
 Alpha virt. eigenvalues --    6.69117   6.69119   6.73362   7.57690   8.04608
 Alpha virt. eigenvalues --    8.04610   8.13334   8.49031   8.49031   8.54018
 Alpha virt. eigenvalues --    8.54019   8.64142  12.94950
  Beta  occ. eigenvalues --   -7.86751  -0.60373  -0.25928
  Beta virt. eigenvalues --   -0.05023  -0.02964  -0.02184   0.02954   0.04835
  Beta virt. eigenvalues --    0.04907   0.06892   0.08929   0.12759   0.12760
  Beta virt. eigenvalues --    0.13364   0.13399   0.16427   0.24753   0.24830
  Beta virt. eigenvalues --    0.26802   0.27150   0.27387   0.29900   0.34067
  Beta virt. eigenvalues --    0.42885   0.42885   0.43507   0.43507   0.44894
  Beta virt. eigenvalues --    0.44902   0.45489   0.45530   0.46010   0.48212
  Beta virt. eigenvalues --    0.48282   0.50205   0.58978   0.69824   0.69824
  Beta virt. eigenvalues --    0.78870   0.78898   0.88001   0.88007   0.89899
  Beta virt. eigenvalues --    0.93519   0.96071   0.96185   1.03944   1.30792
  Beta virt. eigenvalues --    1.31262   1.31262   1.31981   1.31987   1.32242
  Beta virt. eigenvalues --    1.32242   1.32588   1.32592   1.33166   1.33256
  Beta virt. eigenvalues --    1.33661   1.33708   1.33904   1.36718   1.36718
  Beta virt. eigenvalues --    1.38206   1.38207   1.41714   1.43556   1.43729
  Beta virt. eigenvalues --    1.61458   1.63941   1.63941   1.67190   1.67190
  Beta virt. eigenvalues --    1.77313   1.80484   1.80521   1.92628   2.55835
  Beta virt. eigenvalues --    2.55835   2.63360   2.63367   2.68942   2.68945
  Beta virt. eigenvalues --    2.76299   2.81233   3.60284   3.60443   3.66977
  Beta virt. eigenvalues --    3.82269   3.82269   3.83085   3.83085   3.83340
  Beta virt. eigenvalues --    3.83341   3.84413   3.84603   3.84662   3.84669
  Beta virt. eigenvalues --    3.85858   3.90571   3.90789   3.97360   3.97360
  Beta virt. eigenvalues --    3.98876   3.98879   4.01718   4.01929   4.05849
  Beta virt. eigenvalues --    4.09083   6.64797   6.64797   6.65570   6.65570
  Beta virt. eigenvalues --    6.69117   6.69119   6.73362   7.57690   8.04608
  Beta virt. eigenvalues --    8.04610   8.13334   8.49031   8.49031   8.54018
  Beta virt. eigenvalues --    8.54019   8.64142  12.94950
          Condensed to atoms (all electrons):
               1          2
     1  B    4.485806   0.175107
     2  H    0.175107   1.163981
          Atomic-Atomic Spin Densities.
               1          2
     1  B    0.000000   0.000000
     2  H    0.000000   0.000000
 Mulliken charges and spin densities:
               1          2
     1  B    0.339088   0.000000
     2  H   -0.339088   0.000000
 Sum of Mulliken charges =   0.00000   0.00000
 Mulliken charges and spin densities with hydrogens summed into heavy atoms:
               1          2
     1  B    0.000000   0.000000
 Electronic spatial extent (au):  <R**2>=             64.1061
 Charge=              0.0000 electrons
 Dipole moment (field-independent basis, Debye):
    X=              0.0000    Y=              0.0000    Z=              6.3105  Tot=              6.3105
 Quadrupole moment (field-independent basis, Debye-Ang):
   XX=             -9.0645   YY=             -8.7975   ZZ=            -22.0920
   XY=              0.0000   XZ=              0.0000   YZ=              0.0000
 Traceless Quadrupole moment (field-independent basis, Debye-Ang):
   XX=              4.2535   YY=              4.5205   ZZ=             -8.7740
   XY=              0.0000   XZ=              0.0000   YZ=              0.0000
 Octapole moment (field-independent basis, Debye-Ang**2):
  XXX=              0.0000  YYY=              0.0000  ZZZ=             45.3214  XYY=              0.0000
  XXY=              0.0000  XXZ=              6.9134  XZZ=              0.0000  YZZ=              0.0000
  YYZ=              7.0926  XYZ=              0.0000
 Hexadecapole moment (field-independent basis, Debye-Ang**3):
 XXXX=            -18.6490 YYYY=            -17.7749 ZZZZ=           -249.8787 XXXY=              0.0000
 XXXZ=              0.0000 YYYX=              0.0000 YYYZ=             -0.0000 ZZZX=              0.0000
 ZZZY=             -0.0000 XXYY=             -6.0708 XXZZ=            -34.0088 YYZZ=            -33.7356
 XXYZ=             -0.0000 YYXZ=              0.0000 ZZXY=              0.0000
 N-N= 7.782017807647D-01 E-N=-5.870467206275D+01  KE= 2.474747824038D+01
 Symmetry A1   KE= 2.468962546756D+01
 Symmetry A2   KE= 2.071815588753D-29
 Symmetry B1   KE= 5.785277282404D-02
 Symmetry B2   KE= 3.448487933999D-29
 Symmetry A1   SP= 0.000000000000D+00
 Symmetry A2   SP= 0.000000000000D+00
 Symmetry B1   SP= 0.000000000000D+00
 Symmetry B2   SP= 0.000000000000D+00
                          Isotropic Fermi Contact Couplings
        Atom                 a.u.       MegaHertz       Gauss      10(-4) cm-1
     1  B(11)              0.00000       0.00000       0.00000       0.00000
     2  H(1)               0.00000       0.00000       0.00000       0.00000
 --------------------------------------------------------
       Center         ----  Spin Dipole Couplings  ----
                      3XX-RR        3YY-RR        3ZZ-RR
 --------------------------------------------------------
     1   Atom        0.000000      0.000000      0.000000
     2   Atom        0.000000      0.000000      0.000000
 --------------------------------------------------------
                        XY            XZ            YZ
 --------------------------------------------------------
     1   Atom       -0.000000     -0.137798      0.000000
     2   Atom        0.000000      0.001146      0.000000
 --------------------------------------------------------


 ---------------------------------------------------------------------------------
              Anisotropic Spin Dipole Couplings in Principal Axis System
 ---------------------------------------------------------------------------------

       Atom             a.u.   MegaHertz   Gauss  10(-4) cm-1        Axes

              Baa    -0.1378   -23.593    -8.419    -7.870  0.7071  0.0000  0.7071
     1 B(11)  Bbb    -0.0000    -0.000    -0.000    -0.000  0.0000  1.0000 -0.0000
              Bcc     0.1378    23.593     8.419     7.870  0.7071 -0.0000 -0.7071
 
              Baa    -0.0011    -0.611    -0.218    -0.204  0.7071 -0.0000 -0.7071
     2 H(1)   Bbb     0.0000     0.000     0.000     0.000 -0.0000  1.0000 -0.0000
              Bcc     0.0011     0.611     0.218     0.204  0.7071  0.0000  0.7071
 

 ---------------------------------------------------------------------------------

 No NMR shielding tensors so no spin-rotation constants.
 Leave Link  601 at Sun May 22 21:07:22 2022, MaxMem=   104857600 cpu:               0.2 elap:               0.2
 (Enter /apps/software/g16/l801.exe)
 Range of M.O.s used for correlation:     1   126
 NBasis=   126 NAE=     3 NBE=     3 NFC=     0 NFV=     0
 NROrb=    126 NOA=     3 NOB=     3 NVA=   123 NVB=   123
 Leave Link  801 at Sun May 22 21:07:22 2022, MaxMem=   104857600 cpu:               0.0 elap:               0.0
 (Enter /apps/software/g16/l914.exe)
 UHF ground state
 Doing stability rather than CIS.
 Keep R1 and R2 ints in memory in symmetry-blocked form, NReq=40144005.
 FoFCou: FMM=F IPFlag=           0 FMFlag=           0 FMFlg1=           0
         NFxFlg=           0 DoJE=F BraDBF=F KetDBF=F FulRan=T
         wScrn=  0.000000 ICntrl=       600 IOpCl=  0 I1Cent=           0 NGrid=           0
         NMat0=    1 NMatS0=   8001 NMatT0=    0 NMatD0=    1 NMtDS0=    0 NMtDT0=    0
 Petite list used in FoFCou.
 MDV=   104857600 DFT=F DoStab=T Mixed=F DoRPA=F DoScal=F NonHer=F
 Making orbital integer symmetry assigments:
 Orbital symmetries:
 Alpha Orbitals:
       Occupied  (SG) (?A) (?A)
       Virtual   (?A) (?A) (?A) (?A) (?A) (?A) (SG) (SG) (?B) (?B)
                 (?B) (?B) (SG) (?C) (?C) (?C) (?C) (?C) (?C) (SG)
                 (?D) (?D) (?D) (?D) (?D) (?D) (?D) (?D) (?D) (PI)
                 (PI) (SG) (SG) (DLTA) (DLTA) (PI) (PI) (PI) (PI)
                 (SG) (?E) (?E) (?E) (SG) (?F) (?F) (?F) (?F) (?F)
                 (?F) (?F) (?F) (?F) (?F) (?F) (?F) (?F) (?F) (?F)
                 (?F) (?F) (?F) (?G) (?G) (?G) (SG) (PHI) (PHI)
                 (DLTA) (DLTA) (SG) (PI) (PI) (SG) (DLTA) (DLTA)
                 (PI) (PI) (PI) (PI) (SG) (SG) (PI) (PI) (SG) (?H)
                 (?H) (?H) (?H) (?H) (?H) (?H) (?H) (?H) (?H) (?H)
                 (PI) (PI) (?I) (?I) (?I) (?I) (PI) (PI) (SG) (SG)
                 (PHI) (PHI) (DLTA) (DLTA) (PI) (PI) (SG) (SG)
                 (PI) (PI) (SG) (DLTA) (DLTA) (PI) (PI) (SG) (SG)
 Beta  Orbitals:
       Occupied  (SG) (?A) (?A)
       Virtual   (?A) (?A) (?A) (?A) (?A) (?A) (SG) (SG) (?B) (?B)
                 (?B) (?B) (SG) (?C) (?C) (?C) (?C) (?C) (?C) (SG)
                 (?D) (?D) (?D) (?D) (?D) (?D) (?D) (?D) (?D) (PI)
                 (PI) (SG) (SG) (DLTA) (DLTA) (PI) (PI) (PI) (PI)
                 (SG) (?E) (?E) (?E) (SG) (?F) (?F) (?F) (?F) (?F)
                 (?F) (?F) (?F) (?F) (?F) (?F) (?F) (?F) (?F) (?F)
                 (?F) (?F) (?F) (?G) (?G) (?G) (SG) (PHI) (PHI)
                 (DLTA) (DLTA) (SG) (PI) (PI) (SG) (DLTA) (DLTA)
                 (PI) (PI) (PI) (PI) (SG) (SG) (PI) (PI) (SG) (?H)
                 (?H) (?H) (?H) (?H) (?H) (?H) (?H) (?H) (?H) (?H)
                 (PI) (PI) (?I) (?I) (?I) (?I) (PI) (PI) (SG) (SG)
                 (PHI) (PHI) (DLTA) (DLTA) (PI) (PI) (SG) (SG)
                 (PI) (PI) (SG) (DLTA) (DLTA) (PI) (PI) (SG) (SG)
    12 initial guesses have been made.
 Convergence on wavefunction:    0.001000000000000
 Davidson Disk Diagonalization:  ConvIn= 1.00D-03 SkipCon=T Conv= 1.00D-03.
 Max sub-space:  1476 roots to seek:    12 dimension of matrix:          738
 Iteration     1 Dimension    12 NMult     0 NNew     12
 CISAX will form    12 AO SS matrices at one time.
 NMat=    12 NSing=    12 JSym2X= 2.
 New state      1 was old state      5
 Excitation Energies [eV] at current iteration:
 Root      1 :    -3.857012418319301
 Root      2 :     0.946814123744302
 Root      3 :     1.277668784853406
 Root      4 :     1.454122858853887
 Root      5 :     1.514169394490941
 Root      6 :     4.817209401190273
 Root      7 :     4.849146030010094
 Root      8 :     5.583671993061823
 Root      9 :     5.626551549307496
 Root     10 :     5.727402121263396
 Root     11 :     5.752268811501449
 Root     12 :     8.305682123466053
 Iteration     2 Dimension    24 NMult    12 NNew     12
 CISAX will form    12 AO SS matrices at one time.
 NMat=    12 NSing=    12 JSym2X= 2.
 Root      1 not converged, maximum delta is    0.091937879545973
 Excitation Energies [eV] at current iteration:
 Root      1 :    -5.591537179073089   Change is   -1.734524760753788
 Root      2 :     0.339292625478187   Change is   -0.607521498266115
 Root      3 :     0.699036772253052   Change is   -0.578632012600354
 Root      4 :     1.028854129936593   Change is   -0.485315264554347
 Root      5 :     1.052881360597644   Change is   -0.401241498256243
 Root      6 :     4.346638287954569   Change is   -0.470571113235704
 Root      7 :     4.444920103865641   Change is   -0.404225926144453
 Root      8 :     5.056867194979831   Change is   -0.526804798081992
 Root      9 :     5.239237675312757   Change is   -0.387313873994740
 Root     10 :     5.277571003733815   Change is   -0.474697807767635
 Root     11 :     5.422089370697010   Change is   -0.305312750566386
 Root     12 :     6.114822533604938   Change is   -2.190859589861114
 Iteration     3 Dimension    27 NMult    24 NNew      3
 CISAX will form     3 AO SS matrices at one time.
 NMat=     3 NSing=     3 JSym2X= 2.
 Root      1 not converged, maximum delta is    0.016807135375966
 Excitation Energies [eV] at current iteration:
 Root      1 :    -5.656127770751012   Change is   -0.064590591677924
 Root      2 :     0.253550256063293   Change is   -0.085742369414894
 Root      3 :     0.641754971095968   Change is   -0.057281801157085
 Iteration     4 Dimension    30 NMult    27 NNew      3
 CISAX will form     3 AO SS matrices at one time.
 NMat=     3 NSing=     3 JSym2X= 2.
 Root      1 not converged, maximum delta is    0.001681634285164
 Excitation Energies [eV] at current iteration:
 Root      1 :    -5.657287459448500   Change is   -0.001159688697487
 Root      2 :     0.029550481577146   Change is   -0.223999774486147
 Root      3 :     0.536534618542701   Change is   -0.105220352553267
 Iteration     5 Dimension    33 NMult    30 NNew      3
 CISAX will form     3 AO SS matrices at one time.
 NMat=     3 NSing=     3 JSym2X= 2.
 Root      1 has converged.
 Excitation Energies [eV] at current iteration:
 Root      1 :    -5.657302562977961   Change is   -0.000015103529461
 Root      2 :     0.002330769124094   Change is   -0.027219712453052
 Root      3 :     0.484813713093361   Change is   -0.051720905449340
 Convergence achieved on expansion vectors.
 ***********************************************************************
 Stability analysis using <AA,BB:AA,BB> singles matrix:
 ***********************************************************************
 1PDM for each excited state written to RWF  633
 Ground to excited state transition densities written to RWF  633

 Eigenvectors of the stability matrix:
 
 Excited state symmetry could not be determined.
 Eigenvector   1:  2.931-?Sym  Eigenvalue=-0.2079020  <S**2>=1.898
      3A ->  4A       -0.62881
      3A ->  6A       -0.19904
      3A ->  7A        0.14567
      3A -> 16A        0.10747
      3B ->  4B        0.62881
      3B ->  6B       -0.19904
      3B ->  7B       -0.14567
      3B -> 16B       -0.10747
 The wavefunction has an internal instability.
 Leave Link  914 at Sun May 22 21:07:26 2022, MaxMem=   104857600 cpu:               4.1 elap:               4.1
 (Enter /apps/software/g16/l508.exe)
 Keep R1 and R2 ints in memory in symmetry-blocked form, NReq=40144065.
 FoFCou: FMM=F IPFlag=           0 FMFlag=           0 FMFlg1=           0
         NFxFlg=           0 DoJE=F BraDBF=F KetDBF=F FulRan=T
         wScrn=  0.000000 ICntrl=       600 IOpCl=  0 I1Cent=           0 NGrid=           0
         NMat0=    1 NMatS0=   8001 NMatT0=    0 NMatD0=    1 NMtDS0=    0 NMtDT0=    0
 Petite list used in FoFCou.
 Tight linear equation convergence will be used.
 UHF wavefunction.
 Quadratic Convergence SCF Method.
 Line search only if initial step raises energy.
 Perform preliminary linear searches along instability eigenvector.
     ILin= 1 X=0.000D+00 Y=-2.493090953698D+01 DE= 0.00D+00
     ILin= 2 X=1.000D-01 Y=-2.493296997069D+01 DE=-2.06D-03
     ILin= 3 X=1.414D-01 Y=-2.493499345724D+01 DE=-4.08D-03
     ILin= 4 X=2.000D-01 Y=-2.493893083501D+01 DE=-8.02D-03
     ILin= 5 X=2.828D-01 Y=-2.494637582217D+01 DE=-1.55D-02
     ILin= 6 X=4.000D-01 Y=-2.495961416291D+01 DE=-2.87D-02
     ILin= 7 X=5.657D-01 Y=-2.498000077583D+01 DE=-4.91D-02
     ILin= 8 X=8.000D-01 Y=-2.500019622240D+01 DE=-6.93D-02
     ILin= 9 X=1.131D+00 Y=-2.498353919372D+01 DE=-5.26D-02
     An  expanding polynomial of degree  9 produced  0.8824
 Iteration F X= 8.824D-01 EE=-2.500198465745613D+01
     ILin= 1 X=0.000D+00 Y=-2.493090953698D+01 DE= 0.00D+00
     ILin= 2 X=1.000D-01 Y=-2.493296996982D+01 DE=-2.06D-03
     ILin= 3 X=1.414D-01 Y=-2.493499345478D+01 DE=-4.08D-03
 The two search directions are symmetric.
 Iteration B X= 8.824D-01 EE=-2.500198465745613D+01
 Take forward step, X= 8.824D-01 Step= 8.824D-01
 Iteration   1 EE= -25.0019832307872                                    Grad=9.785D-02 Max rot=    2.0735 deg.
 Gradient too large for Newton-Raphson -- use scaled steepest descent instead.
 Alpha Gap=     0.494 HL deriv= 6.15D-02
  Beta Gap=     0.313 HL deriv= 1.16D-01
     ILin= 1 X=0.000D+00 Y=-2.500198323079D+01 DE= 0.00D+00 F= -2.95D-02
     ILin= 2 X=3.000D-01 Y=-2.501017775323D+01 DE=-8.19D-03 F= -2.50D-02
     ILin= 3 X=5.000D-01 Y=-2.501485710798D+01 DE=-1.29D-02 F= -2.18D-02
     ILin= 4 X=7.000D-01 Y=-2.501886669032D+01 DE=-1.69D-02 F= -1.83D-02
     ILin= 5 X=1.100D+00 Y=-2.502474428568D+01 DE=-2.28D-02 F= -1.10D-02
     ILin= 6 X=1.700D+00 Y=-2.502779514857D+01 DE=-2.58D-02 F=  9.56D-04
     Accept linear search using points  5 and  6.
     An  expanding polynomial of degree  6 produced  1.5523
     Minimum is close to point  6 DX= -1.48D-01 DF= -1.35D-04 DXR=  9.52D-02 DFR=  5.23D-03 which will be used.
 Iteration   2 EE= -25.0277951485670     Delta-E=       -0.025811917780 Grad=4.843D-02 Max rot=    0.9306 deg.
 Gradient too large for Newton-Raphson -- use scaled steepest descent instead.
 Alpha Gap=     0.553 HL deriv= 2.94D-02
  Beta Gap=     0.360 HL deriv= 3.92D-02
     ILin= 1 X=0.000D+00 Y=-2.502779514857D+01 DE= 0.00D+00 F= -6.03D-03
     ILin= 2 X=7.000D-01 Y=-2.503095530754D+01 DE=-3.16D-03 F= -2.97D-03
     ILin= 3 X=1.300D+00 Y=-2.503192063028D+01 DE=-4.13D-03 F= -2.29D-04
     Reject lnstep minimum 1.626D+00 FVal=-2.503201794155D+01 Lims=  7.00D-01  1.30D+00
     ILin= 4 X=2.300D+00 Y=-2.502978793893D+01 DE=-1.99D-03 F=  4.53D-03
     An  expanding polynomial of degree  4 produced  1.3501
     Minimum is close to point  3 DX=  5.01D-02 DF= -5.83D-06 DXR=  3.71D-02 DFR=  1.41D-03 which will be used.
 Iteration   3 EE= -25.0319206302841     Delta-E=       -0.004125481717 Grad=1.865D-02 Max rot=    0.3118 deg.
 Gradient too large for Newton-Raphson -- use scaled steepest descent instead.
 Alpha Gap=     0.568 HL deriv= 2.90D-03
  Beta Gap=     0.371 HL deriv= 1.47D-02
     ILin= 1 X=0.000D+00 Y=-2.503192063028D+01 DE= 0.00D+00 F= -8.64D-04
     ILin= 2 X=1.400D+00 Y=-2.503265890839D+01 DE=-7.38D-04 F= -1.88D-04
     ILin= 3 X=2.900D+00 Y=-2.503238617262D+01 DE=-4.66D-04 F=  5.54D-04
     An  expanding polynomial of degree  3 produced  1.7782
 Iteration   4 EE= -25.0326948245611     Delta-E=       -0.000774194277 Grad=1.100D-02 Max rot=    0.2825 deg.
 Gradient too large for Newton-Raphson -- use scaled steepest descent instead.
 Alpha Gap=     0.574 HL deriv= 3.94D-03
  Beta Gap=     0.375 HL deriv= 4.91D-03
     ILin= 1 X=0.000D+00 Y=-2.503269482456D+01 DE= 0.00D+00 F= -2.56D-04
     ILin= 2 X=1.500D+00 Y=-2.503287110532D+01 DE=-1.76D-04 F=  2.13D-05
     Accept linear search using points  1 and  2.
     An  expanding polynomial of degree  2 produced  1.4544
     Minimum is close to point  2 DX= -4.56D-02 DF= -3.21D-07 DXR=  3.13D-02 DFR=  1.82D-03 which will be used.
 Iteration   5 EE= -25.0328711053176     Delta-E=       -0.000176280757 Grad=6.426D-03 Max rot=    0.1519 deg.
 QCNR:  CnvC1=2.72D-09 CnvC2=2.72D-08
 LinEq1:  Iter=  0 NonCon=     1 RMS=2.83D-04 Max=2.94D-03 NDo=     1
 AX will form     1 AO Fock derivatives at one time.
 LinEq1:  Iter=  1 NonCon=     1 RMS=9.82D-05 Max=1.13D-03 NDo=     1
 LinEq1:  Iter=  2 NonCon=     1 RMS=1.50D-05 Max=1.62D-04 NDo=     1
 LinEq1:  Iter=  3 NonCon=     1 RMS=2.52D-06 Max=2.99D-05 NDo=     1
 LinEq1:  Iter=  4 NonCon=     1 RMS=4.08D-07 Max=4.31D-06 NDo=     1
 LinEq1:  Iter=  5 NonCon=     1 RMS=1.35D-07 Max=1.38D-06 NDo=     1
 LinEq1:  Iter=  6 NonCon=     1 RMS=3.35D-08 Max=4.26D-07 NDo=     1
 LinEq1:  Iter=  7 NonCon=     1 RMS=7.01D-09 Max=6.05D-08 NDo=     1
 LinEq1:  Iter=  8 NonCon=     0 RMS=1.04D-09 Max=8.65D-09 NDo=     1
 Linear equations converged to 2.717D-09 2.717D-08 after     8 iterations.
 Angle between quadratic step and gradient=  70.97 degrees.
     ILin= 1 X=0.000D+00 Y=-2.503287110532D+01 DE= 0.00D+00 F= -8.07D-04
     ILin= 2 X=1.000D+00 Y=-2.503324114376D+01 DE=-3.70D-04 F=  1.27D-04
     Accept linear search using points  1 and  2.
     An  expanding polynomial of degree  2 produced  0.8844
 Iteration   6 EE= -25.0332479147239     Delta-E=       -0.000376809406 Grad=8.541D-03 Max rot=    0.2994 deg.
 QCNR:  CnvC1=2.72D-09 CnvC2=2.72D-08
 LinEq1:  Iter=  0 NonCon=     1 RMS=1.79D-04 Max=2.22D-03 NDo=     1
 LinEq1:  Iter=  1 NonCon=     1 RMS=4.26D-05 Max=3.63D-04 NDo=     1
 LinEq1:  Iter=  2 NonCon=     1 RMS=1.14D-05 Max=9.70D-05 NDo=     1
 LinEq1:  Iter=  3 NonCon=     1 RMS=3.24D-06 Max=3.17D-05 NDo=     1
 LinEq1:  Iter=  4 NonCon=     1 RMS=7.35D-07 Max=6.04D-06 NDo=     1
 LinEq1:  Iter=  5 NonCon=     1 RMS=1.19D-07 Max=1.22D-06 NDo=     1
 LinEq1:  Iter=  6 NonCon=     1 RMS=2.67D-08 Max=3.75D-07 NDo=     1
 LinEq1:  Iter=  7 NonCon=     1 RMS=8.43D-09 Max=1.02D-07 NDo=     1
 LinEq1:  Iter=  8 NonCon=     0 RMS=1.68D-09 Max=1.58D-08 NDo=     1
 Linear equations converged to 2.717D-09 2.717D-08 after     8 iterations.
 Angle between quadratic step and gradient=  76.29 degrees.
     ILin= 1 X=0.000D+00 Y=-2.503324791472D+01 DE= 0.00D+00 F= -1.16D-04
     ILin= 2 X=1.000D+00 Y=-2.503330614335D+01 DE=-5.82D-05 F= -1.73D-06
     Reject lnstep minimum 1.016D+00 FVal=-2.503330615678D+01 Lims=  0.00D+00  1.00D+00
     ILin= 3 X=2.000D+00 Y=-2.503325331543D+01 DE=-5.40D-06 F=  1.06D-04
     An  expanding polynomial of degree  3 produced  1.0243
     Minimum is close to point  2 DX=  2.43D-02 DF= -3.28D-08 DXR=  2.37D-02 DFR=  5.64D-04 which will be used.
 Iteration   7 EE= -25.0333061433495     Delta-E=       -0.000058228626 Grad=2.670D-03 Max rot=    0.0868 deg.
 QCNR:  CnvC1=2.72D-09 CnvC2=2.72D-08
 LinEq1:  Iter=  0 NonCon=     1 RMS=2.91D-05 Max=2.68D-04 NDo=     1
 LinEq1:  Iter=  1 NonCon=     1 RMS=8.43D-06 Max=1.04D-04 NDo=     1
 LinEq1:  Iter=  2 NonCon=     1 RMS=2.63D-06 Max=3.95D-05 NDo=     1
 LinEq1:  Iter=  3 NonCon=     1 RMS=6.00D-07 Max=5.08D-06 NDo=     1
 LinEq1:  Iter=  4 NonCon=     1 RMS=1.04D-07 Max=9.95D-07 NDo=     1
 LinEq1:  Iter=  5 NonCon=     1 RMS=2.16D-08 Max=2.91D-07 NDo=     1
 LinEq1:  Iter=  6 NonCon=     1 RMS=3.46D-09 Max=2.31D-08 NDo=     1
 LinEq1:  Iter=  7 NonCon=     0 RMS=6.01D-10 Max=4.74D-09 NDo=     1
 Linear equations converged to 2.717D-09 2.717D-08 after     7 iterations.
 Angle between quadratic step and gradient=  87.81 degrees.
     ILin= 1 X=0.000D+00 Y=-2.503330614335D+01 DE= 0.00D+00 F= -2.88D-05
     ILin= 2 X=1.000D+00 Y=-2.503331510778D+01 DE=-8.96D-06 F=  2.01D-05
     Accept linear search using points  1 and  2.
     An  expanding polynomial of degree  2 produced  0.7106
 Iteration   8 EE= -25.0333177569192     Delta-E=       -0.000011613570 Grad=1.189D-03 Max rot=    0.0197 deg.
 QCNR:  CnvC1=2.72D-09 CnvC2=2.72D-08
 LinEq1:  Iter=  0 NonCon=     1 RMS=2.82D-05 Max=3.30D-04 NDo=     1
 LinEq1:  Iter=  1 NonCon=     1 RMS=3.08D-06 Max=2.21D-05 NDo=     1
 LinEq1:  Iter=  2 NonCon=     1 RMS=1.00D-06 Max=1.28D-05 NDo=     1
 LinEq1:  Iter=  3 NonCon=     1 RMS=2.50D-07 Max=2.20D-06 NDo=     1
 LinEq1:  Iter=  4 NonCon=     1 RMS=6.55D-08 Max=6.31D-07 NDo=     1
 LinEq1:  Iter=  5 NonCon=     1 RMS=1.02D-08 Max=8.90D-08 NDo=     1
 LinEq1:  Iter=  6 NonCon=     0 RMS=2.47D-09 Max=2.03D-08 NDo=     1
 Linear equations converged to 2.717D-09 2.717D-08 after     6 iterations.
 Angle between quadratic step and gradient=  84.99 degrees.
     ILin= 1 X=0.000D+00 Y=-2.503331775692D+01 DE= 0.00D+00 F= -2.88D-06
     ILin= 2 X=1.000D+00 Y=-2.503331912039D+01 DE=-1.36D-06 F=  1.08D-07
     Accept linear search using points  1 and  2.
     An  expanding polynomial of degree  2 produced  0.9624
     Minimum is close to point  2 DX= -3.76D-02 DF= -2.02D-09 DXR=  3.90D-02 DFR=  1.48D-03 which will be used.
 Iteration   9 EE= -25.0333191203884     Delta-E=       -0.000001363469 Grad=6.107D-04 Max rot=    0.0205 deg.
 QCNR:  CnvC1=2.72D-09 CnvC2=2.72D-08
 LinEq1:  Iter=  0 NonCon=     1 RMS=7.34D-06 Max=5.86D-05 NDo=     1
 LinEq1:  Iter=  1 NonCon=     1 RMS=2.70D-06 Max=2.66D-05 NDo=     1
 LinEq1:  Iter=  2 NonCon=     1 RMS=6.80D-07 Max=6.34D-06 NDo=     1
 LinEq1:  Iter=  3 NonCon=     1 RMS=1.22D-07 Max=1.21D-06 NDo=     1
 LinEq1:  Iter=  4 NonCon=     1 RMS=2.25D-08 Max=2.42D-07 NDo=     1
 LinEq1:  Iter=  5 NonCon=     1 RMS=7.77D-09 Max=8.32D-08 NDo=     1
 LinEq1:  Iter=  6 NonCon=     0 RMS=1.79D-09 Max=2.16D-08 NDo=     1
 Linear equations converged to 2.717D-09 2.717D-08 after     6 iterations.
 Angle between quadratic step and gradient=  81.64 degrees.
     ILin= 1 X=0.000D+00 Y=-2.503331912039D+01 DE= 0.00D+00 F= -4.73D-07
     ILin= 2 X=1.000D+00 Y=-2.503331935306D+01 DE=-2.33D-07 F=  7.37D-09
     Accept linear search using points  1 and  2.
     An  expanding polynomial of degree  2 produced  0.9846
     Minimum is close to point  2 DX= -1.54D-02 DF= -5.67D-11 DXR=  1.56D-02 DFR=  2.44D-04 which will be used.
 Iteration  10 EE= -25.0333193530562     Delta-E=       -0.000000232668 Grad=1.257D-04 Max rot=    0.0040 deg.
 QCNR:  CnvC1=1.26D-09 CnvC2=1.26D-08
 LinEq1:  Iter=  0 NonCon=     1 RMS=2.20D-06 Max=2.70D-05 NDo=     1
 LinEq1:  Iter=  1 NonCon=     1 RMS=6.68D-07 Max=7.40D-06 NDo=     1
 LinEq1:  Iter=  2 NonCon=     1 RMS=1.95D-07 Max=2.17D-06 NDo=     1
 LinEq1:  Iter=  3 NonCon=     1 RMS=4.67D-08 Max=4.23D-07 NDo=     1
 LinEq1:  Iter=  4 NonCon=     1 RMS=8.11D-09 Max=6.15D-08 NDo=     1
 LinEq1:  Iter=  5 NonCon=     1 RMS=1.86D-09 Max=1.86D-08 NDo=     1
 LinEq1:  Iter=  6 NonCon=     0 RMS=5.99D-10 Max=5.12D-09 NDo=     1
 Linear equations converged to 1.257D-09 1.257D-08 after     6 iterations.
 Angle between quadratic step and gradient=  84.41 degrees.
     ILin= 1 X=0.000D+00 Y=-2.503331935306D+01 DE= 0.00D+00 F= -1.58D-07
     ILin= 2 X=1.000D+00 Y=-2.503331939663D+01 DE=-4.36D-08 F=  7.12D-08
     Accept linear search using points  1 and  2.
     An  expanding polynomial of degree  2 produced  0.6901
 Iteration  11 EE= -25.0333194076657     Delta-E=       -0.000000054610 Grad=2.606D-04 Max rot=    0.0088 deg.
 QCNR:  CnvC1=2.61D-09 CnvC2=2.61D-08
 LinEq1:  Iter=  0 NonCon=     1 RMS=2.88D-06 Max=2.19D-05 NDo=     1
 LinEq1:  Iter=  1 NonCon=     1 RMS=1.10D-06 Max=1.00D-05 NDo=     1
 LinEq1:  Iter=  2 NonCon=     1 RMS=2.46D-07 Max=2.26D-06 NDo=     1
 LinEq1:  Iter=  3 NonCon=     1 RMS=6.02D-08 Max=7.30D-07 NDo=     1
 LinEq1:  Iter=  4 NonCon=     1 RMS=1.11D-08 Max=1.08D-07 NDo=     1
 LinEq1:  Iter=  5 NonCon=     1 RMS=3.52D-09 Max=3.36D-08 NDo=     1
 LinEq1:  Iter=  6 NonCon=     0 RMS=1.04D-09 Max=7.67D-09 NDo=     1
 Linear equations converged to 2.606D-09 2.606D-08 after     6 iterations.
 Angle between quadratic step and gradient=  83.34 degrees.
     ILin= 1 X=0.000D+00 Y=-2.503331940767D+01 DE= 0.00D+00 F= -8.27D-08
     ILin= 2 X=1.000D+00 Y=-2.503331944632D+01 DE=-3.87D-08 F=  5.38D-09
     Accept linear search using points  1 and  2.
     An  expanding polynomial of degree  2 produced  0.9389
     Minimum is close to point  2 DX= -6.11D-02 DF= -1.64D-10 DXR=  6.51D-02 DFR=  4.25D-03 which will be used.
 Iteration  12 EE= -25.0333194463233     Delta-E=       -0.000000038658 Grad=1.157D-04 Max rot=    0.0036 deg.
 QCNR:  CnvC1=1.16D-09 CnvC2=1.16D-08
 LinEq1:  Iter=  0 NonCon=     1 RMS=1.65D-06 Max=1.21D-05 NDo=     1
 LinEq1:  Iter=  1 NonCon=     1 RMS=5.26D-07 Max=5.54D-06 NDo=     1
 LinEq1:  Iter=  2 NonCon=     1 RMS=1.59D-07 Max=1.57D-06 NDo=     1
 LinEq1:  Iter=  3 NonCon=     1 RMS=3.34D-08 Max=2.65D-07 NDo=     1
 LinEq1:  Iter=  4 NonCon=     1 RMS=7.32D-09 Max=6.05D-08 NDo=     1
 LinEq1:  Iter=  5 NonCon=     1 RMS=1.83D-09 Max=1.66D-08 NDo=     1
 LinEq1:  Iter=  6 NonCon=     0 RMS=5.78D-10 Max=4.51D-09 NDo=     1
 Linear equations converged to 1.157D-09 1.157D-08 after     6 iterations.
 Angle between quadratic step and gradient=  85.17 degrees.
     ILin= 1 X=0.000D+00 Y=-2.503331944632D+01 DE= 0.00D+00 F= -4.54D-08
     ILin= 2 X=1.000D+00 Y=-2.503331945870D+01 DE=-1.24D-08 F=  2.07D-08
     Accept linear search using points  1 and  2.
     An  expanding polynomial of degree  2 produced  0.6872
 Iteration  13 EE= -25.0333194619384     Delta-E=       -0.000000015615 Grad=1.644D-04 Max rot=    0.0053 deg.
 QCNR:  CnvC1=1.64D-09 CnvC2=1.64D-08
 LinEq1:  Iter=  0 NonCon=     1 RMS=1.65D-06 Max=1.26D-05 NDo=     1
 LinEq1:  Iter=  1 NonCon=     1 RMS=6.12D-07 Max=5.24D-06 NDo=     1
 LinEq1:  Iter=  2 NonCon=     1 RMS=1.41D-07 Max=1.43D-06 NDo=     1
 LinEq1:  Iter=  3 NonCon=     1 RMS=4.23D-08 Max=4.74D-07 NDo=     1
 LinEq1:  Iter=  4 NonCon=     1 RMS=5.13D-09 Max=4.75D-08 NDo=     1
 LinEq1:  Iter=  5 NonCon=     1 RMS=1.91D-09 Max=1.54D-08 NDo=     1
 LinEq1:  Iter=  6 NonCon=     0 RMS=4.02D-10 Max=3.62D-09 NDo=     1
 Linear equations converged to 1.644D-09 1.644D-08 after     6 iterations.
 Angle between quadratic step and gradient=  85.82 degrees.
     ILin= 1 X=0.000D+00 Y=-2.503331946194D+01 DE= 0.00D+00 F= -3.42D-08
     ILin= 2 X=1.000D+00 Y=-2.503331947653D+01 DE=-1.46D-08 F=  5.05D-09
     Accept linear search using points  1 and  2.
     An  expanding polynomial of degree  2 produced  0.8714
 Iteration  14 EE= -25.0333194768551     Delta-E=       -0.000000014917 Grad=1.220D-04 Max rot=    0.0039 deg.
 QCNR:  CnvC1=1.22D-09 CnvC2=1.22D-08
 LinEq1:  Iter=  0 NonCon=     1 RMS=1.84D-06 Max=1.67D-05 NDo=     1
 LinEq1:  Iter=  1 NonCon=     1 RMS=4.60D-07 Max=4.65D-06 NDo=     1
 LinEq1:  Iter=  2 NonCon=     1 RMS=1.60D-07 Max=1.94D-06 NDo=     1
 LinEq1:  Iter=  3 NonCon=     1 RMS=3.02D-08 Max=2.64D-07 NDo=     1
 LinEq1:  Iter=  4 NonCon=     1 RMS=6.66D-09 Max=6.66D-08 NDo=     1
 LinEq1:  Iter=  5 NonCon=     1 RMS=1.66D-09 Max=1.50D-08 NDo=     1
 LinEq1:  Iter=  6 NonCon=     0 RMS=5.27D-10 Max=4.77D-09 NDo=     1
 Linear equations converged to 1.220D-09 1.220D-08 after     6 iterations.
 Angle between quadratic step and gradient=  86.03 degrees.
     ILin= 1 X=0.000D+00 Y=-2.503331947686D+01 DE= 0.00D+00 F= -2.67D-08
     ILin= 2 X=1.000D+00 Y=-2.503331948556D+01 DE=-8.70D-09 F=  9.31D-09
     Accept linear search using points  1 and  2.
     An  expanding polynomial of degree  2 produced  0.7415
 Iteration  15 EE= -25.0333194867629     Delta-E=       -0.000000009908 Grad=1.469D-04 Max rot=    0.0060 deg.
 QCNR:  CnvC1=1.47D-09 CnvC2=1.47D-08
 LinEq1:  Iter=  0 NonCon=     1 RMS=1.20D-06 Max=7.81D-06 NDo=     1
 LinEq1:  Iter=  1 NonCon=     1 RMS=4.44D-07 Max=3.85D-06 NDo=     1
 LinEq1:  Iter=  2 NonCon=     1 RMS=1.08D-07 Max=8.50D-07 NDo=     1
 LinEq1:  Iter=  3 NonCon=     1 RMS=2.93D-08 Max=2.73D-07 NDo=     1
 LinEq1:  Iter=  4 NonCon=     1 RMS=4.56D-09 Max=3.80D-08 NDo=     1
 LinEq1:  Iter=  5 NonCon=     0 RMS=1.32D-09 Max=1.15D-08 NDo=     1
 Linear equations converged to 1.469D-09 1.469D-08 after     5 iterations.
 Angle between quadratic step and gradient=  85.00 degrees.
     ILin= 1 X=0.000D+00 Y=-2.503331948676D+01 DE= 0.00D+00 F= -1.82D-08
     ILin= 2 X=1.000D+00 Y=-2.503331949372D+01 DE=-6.96D-09 F=  4.28D-09
     Accept linear search using points  1 and  2.
     An  expanding polynomial of degree  2 produced  0.8095
 Iteration  16 EE= -25.0333194941267     Delta-E=       -0.000000007364 Grad=4.897D-05 Max rot=    0.0013 deg.
 QCNR:  CnvC1=4.90D-10 CnvC2=4.90D-09
 LinEq1:  Iter=  0 NonCon=     1 RMS=6.88D-07 Max=6.91D-06 NDo=     1
 LinEq1:  Iter=  1 NonCon=     1 RMS=2.85D-07 Max=3.10D-06 NDo=     1
 LinEq1:  Iter=  2 NonCon=     1 RMS=4.85D-08 Max=5.71D-07 NDo=     1
 LinEq1:  Iter=  3 NonCon=     1 RMS=9.84D-09 Max=8.62D-08 NDo=     1
 LinEq1:  Iter=  4 NonCon=     1 RMS=1.77D-09 Max=2.16D-08 NDo=     1
 LinEq1:  Iter=  5 NonCon=     1 RMS=6.60D-10 Max=8.84D-09 NDo=     1
 LinEq1:  Iter=  6 NonCon=     0 RMS=1.33D-10 Max=1.42D-09 NDo=     1
 Linear equations converged to 4.897D-10 4.897D-09 after     6 iterations.
 Angle between quadratic step and gradient=  84.96 degrees.
     ILin= 1 X=0.000D+00 Y=-2.503331949413D+01 DE= 0.00D+00 F= -1.62D-08
     ILin= 2 X=1.000D+00 Y=-2.503331949395D+01 DE= 1.80D-10 F=  1.66D-08
     Reject lnstep minimum 4.946D-01 FVal=-2.503331949814D+01 Lims=  0.00D+00  1.00D+00
     ILin= 3 X=5.000D-01 Y=-2.503331949814D+01 DE=-4.01D-09 F=  1.76D-10
     A contracting polynomial of degree  3 produced  0.4945
 Iteration  17 EE= -25.0333194981415     Delta-E=       -0.000000004015 Grad=1.783D-04 Max rot=    0.0091 deg.
 QCNR:  CnvC1=1.78D-09 CnvC2=1.78D-08
 LinEq1:  Iter=  0 NonCon=     1 RMS=1.07D-06 Max=1.17D-05 NDo=     1
 LinEq1:  Iter=  1 NonCon=     1 RMS=3.00D-07 Max=4.00D-06 NDo=     1
 LinEq1:  Iter=  2 NonCon=     1 RMS=9.84D-08 Max=1.27D-06 NDo=     1
 LinEq1:  Iter=  3 NonCon=     1 RMS=2.48D-08 Max=2.93D-07 NDo=     1
 LinEq1:  Iter=  4 NonCon=     1 RMS=4.31D-09 Max=4.31D-08 NDo=     1
 LinEq1:  Iter=  5 NonCon=     0 RMS=6.76D-10 Max=5.04D-09 NDo=     1
 Linear equations converged to 1.783D-09 1.783D-08 after     5 iterations.
 Angle between quadratic step and gradient=  88.40 degrees.
     ILin= 1 X=0.000D+00 Y=-2.503331949814D+01 DE= 0.00D+00 F= -2.26D-08
     ILin= 2 X=1.000D+00 Y=-2.503331950443D+01 DE=-6.29D-09 F=  1.00D-08
     Accept linear search using points  1 and  2.
     An  expanding polynomial of degree  2 produced  0.6924
 Iteration  18 EE= -25.0333195059733     Delta-E=       -0.000000007832 Grad=4.871D-05 Max rot=    0.0012 deg.
 QCNR:  CnvC1=4.87D-10 CnvC2=4.87D-09
 LinEq1:  Iter=  0 NonCon=     1 RMS=1.17D-06 Max=9.73D-06 NDo=     1
 LinEq1:  Iter=  1 NonCon=     1 RMS=3.31D-07 Max=3.20D-06 NDo=     1
 LinEq1:  Iter=  2 NonCon=     1 RMS=9.24D-08 Max=7.65D-07 NDo=     1
 LinEq1:  Iter=  3 NonCon=     1 RMS=1.79D-08 Max=1.27D-07 NDo=     1
 LinEq1:  Iter=  4 NonCon=     1 RMS=3.25D-09 Max=4.40D-08 NDo=     1
 LinEq1:  Iter=  5 NonCon=     1 RMS=9.80D-10 Max=1.02D-08 NDo=     1
 LinEq1:  Iter=  6 NonCon=     0 RMS=2.27D-10 Max=2.59D-09 NDo=     1
 Linear equations converged to 4.871D-10 4.871D-09 after     6 iterations.
 Angle between quadratic step and gradient=  78.49 degrees.
     ILin= 1 X=0.000D+00 Y=-2.503331950597D+01 DE= 0.00D+00 F= -8.32D-09
     ILin= 2 X=1.000D+00 Y=-2.503331950884D+01 DE=-2.87D-09
 Iteration  19 EE= -25.0333195088388     Delta-E=       -0.000000002866 Grad=1.156D-04 Max rot=    0.0056 deg.
 QCNR:  CnvC1=1.16D-09 CnvC2=1.16D-08
 LinEq1:  Iter=  0 NonCon=     1 RMS=6.27D-07 Max=7.15D-06 NDo=     1
 LinEq1:  Iter=  1 NonCon=     1 RMS=2.14D-07 Max=2.53D-06 NDo=     1
 LinEq1:  Iter=  2 NonCon=     1 RMS=5.37D-08 Max=6.77D-07 NDo=     1
 LinEq1:  Iter=  3 NonCon=     1 RMS=1.39D-08 Max=1.35D-07 NDo=     1
 LinEq1:  Iter=  4 NonCon=     1 RMS=2.79D-09 Max=2.82D-08 NDo=     1
 LinEq1:  Iter=  5 NonCon=     0 RMS=5.86D-10 Max=5.86D-09 NDo=     1
 Linear equations converged to 1.156D-09 1.156D-08 after     5 iterations.
 Angle between quadratic step and gradient=  87.49 degrees.
     ILin= 1 X=0.000D+00 Y=-2.503331950884D+01 DE= 0.00D+00 F= -5.57D-09
     ILin= 2 X=1.000D+00 Y=-2.503331951100D+01 DE=-2.16D-09 F=  1.25D-09
     Accept linear search using points  1 and  2.
     An  expanding polynomial of degree  2 produced  0.8168
 Iteration  20 EE= -25.0333195111149     Delta-E=       -0.000000002276 Grad=2.401D-05 Max rot=    0.0004 deg.
 QCNR:  CnvC1=2.40D-10 CnvC2=2.40D-09
 LinEq1:  Iter=  0 NonCon=     1 RMS=4.22D-07 Max=3.99D-06 NDo=     1
 LinEq1:  Iter=  1 NonCon=     1 RMS=1.55D-07 Max=1.72D-06 NDo=     1
 LinEq1:  Iter=  2 NonCon=     1 RMS=3.31D-08 Max=2.47D-07 NDo=     1
 LinEq1:  Iter=  3 NonCon=     1 RMS=5.43D-09 Max=5.03D-08 NDo=     1
 LinEq1:  Iter=  4 NonCon=     1 RMS=1.37D-09 Max=1.55D-08 NDo=     1
 LinEq1:  Iter=  5 NonCon=     1 RMS=3.19D-10 Max=2.55D-09 NDo=     1
 LinEq1:  Iter=  6 NonCon=     0 RMS=9.05D-11 Max=9.22D-10 NDo=     1
 Linear equations converged to 2.401D-10 2.401D-09 after     6 iterations.
 Angle between quadratic step and gradient=  82.71 degrees.
     ILin= 1 X=0.000D+00 Y=-2.503331951111D+01 DE= 0.00D+00 F= -2.63D-09
     ILin= 2 X=1.000D+00 Y=-2.503331951118D+01 DE=-6.81D-11
 Iteration  21 EE= -25.0333195111829     Delta-E=       -0.000000000068 Grad=1.073D-04 Max rot=    0.0040 deg.
 QCNR:  CnvC1=1.07D-09 CnvC2=1.07D-08
 LinEq1:  Iter=  0 NonCon=     1 RMS=7.00D-07 Max=7.15D-06 NDo=     1
 LinEq1:  Iter=  1 NonCon=     1 RMS=2.20D-07 Max=2.13D-06 NDo=     1
 LinEq1:  Iter=  2 NonCon=     1 RMS=4.95D-08 Max=5.36D-07 NDo=     1
 LinEq1:  Iter=  3 NonCon=     1 RMS=1.45D-08 Max=1.48D-07 NDo=     1
 LinEq1:  Iter=  4 NonCon=     1 RMS=2.99D-09 Max=2.79D-08 NDo=     1
 LinEq1:  Iter=  5 NonCon=     0 RMS=5.89D-10 Max=4.97D-09 NDo=     1
 Linear equations converged to 1.073D-09 1.073D-08 after     5 iterations.
 Angle between quadratic step and gradient=  85.73 degrees.
     ILin= 1 X=0.000D+00 Y=-2.503331951118D+01 DE= 0.00D+00 F= -4.13D-09
     ILin= 2 X=1.000D+00 Y=-2.503331951294D+01 DE=-1.76D-09 F=  6.19D-10
     Accept linear search using points  1 and  2.
     An  expanding polynomial of degree  2 produced  0.8697
 Iteration  22 EE= -25.0333195129786     Delta-E=       -0.000000001796 Grad=1.845D-05 Max rot=    0.0003 deg.
 QCNR:  CnvC1=1.84D-10 CnvC2=1.84D-09
 LinEq1:  Iter=  0 NonCon=     1 RMS=2.86D-07 Max=2.75D-06 NDo=     1
 LinEq1:  Iter=  1 NonCon=     1 RMS=1.04D-07 Max=1.00D-06 NDo=     1
 LinEq1:  Iter=  2 NonCon=     1 RMS=2.33D-08 Max=2.47D-07 NDo=     1
 LinEq1:  Iter=  3 NonCon=     1 RMS=3.55D-09 Max=2.82D-08 NDo=     1
 LinEq1:  Iter=  4 NonCon=     1 RMS=9.93D-10 Max=1.02D-08 NDo=     1
 LinEq1:  Iter=  5 NonCon=     1 RMS=2.56D-10 Max=2.36D-09 NDo=     1
 LinEq1:  Iter=  6 NonCon=     0 RMS=7.27D-11 Max=8.77D-10 NDo=     1
 Linear equations converged to 1.845D-10 1.845D-09 after     6 iterations.
 Angle between quadratic step and gradient=  84.14 degrees.
     ILin= 1 X=0.000D+00 Y=-2.503331951298D+01 DE= 0.00D+00 F= -1.30D-09
     ILin= 2 X=1.000D+00 Y=-2.503331951323D+01 DE=-2.54D-10
 Iteration  23 EE= -25.0333195132329     Delta-E=       -0.000000000254 Grad=5.506D-05 Max rot=    0.0023 deg.
 QCNR:  CnvC1=5.51D-10 CnvC2=5.51D-09
 LinEq1:  Iter=  0 NonCon=     1 RMS=4.62D-07 Max=5.58D-06 NDo=     1
 LinEq1:  Iter=  1 NonCon=     1 RMS=1.30D-07 Max=1.49D-06 NDo=     1
 LinEq1:  Iter=  2 NonCon=     1 RMS=3.57D-08 Max=3.43D-07 NDo=     1
 LinEq1:  Iter=  3 NonCon=     1 RMS=9.98D-09 Max=8.93D-08 NDo=     1
 LinEq1:  Iter=  4 NonCon=     1 RMS=1.83D-09 Max=1.84D-08 NDo=     1
 LinEq1:  Iter=  5 NonCon=     0 RMS=3.98D-10 Max=3.80D-09 NDo=     1
 Linear equations converged to 5.506D-10 5.506D-09 after     5 iterations.
 Angle between quadratic step and gradient=  84.37 degrees.
     ILin= 1 X=0.000D+00 Y=-2.503331951323D+01 DE= 0.00D+00 F= -1.49D-09
     ILin= 2 X=1.000D+00 Y=-2.503331951390D+01 DE=-6.62D-10
 Iteration  24 EE= -25.0333195138952     Delta-E=       -0.000000000662 Grad=1.385D-05 Max rot=    0.0005 deg.
 QCNR:  CnvC1=1.39D-10 CnvC2=1.39D-09
 LinEq1:  Iter=  0 NonCon=     1 RMS=1.35D-07 Max=1.29D-06 NDo=     1
 LinEq1:  Iter=  1 NonCon=     1 RMS=5.82D-08 Max=5.69D-07 NDo=     1
 LinEq1:  Iter=  2 NonCon=     1 RMS=7.31D-09 Max=5.68D-08 NDo=     1
 LinEq1:  Iter=  3 NonCon=     1 RMS=1.68D-09 Max=1.69D-08 NDo=     1
 LinEq1:  Iter=  4 NonCon=     1 RMS=5.09D-10 Max=5.72D-09 NDo=     1
 LinEq1:  Iter=  5 NonCon=     0 RMS=1.24D-10 Max=1.17D-09 NDo=     1
 Linear equations converged to 1.385D-10 1.385D-09 after     5 iterations.
 Angle between quadratic step and gradient=  84.85 degrees.
     ILin= 1 X=0.000D+00 Y=-2.503331951390D+01 DE= 0.00D+00 F= -6.63D-10
     ILin= 2 X=1.000D+00 Y=-2.503331951393D+01 DE=-3.83D-11
 Iteration  25 EE= -25.0333195139336     Delta-E=       -0.000000000038 Grad=4.916D-05 Max rot=    0.0020 deg.
 QCNR:  CnvC1=4.92D-10 CnvC2=4.92D-09
 LinEq1:  Iter=  0 NonCon=     1 RMS=3.81D-07 Max=3.58D-06 NDo=     1
 LinEq1:  Iter=  1 NonCon=     1 RMS=9.93D-08 Max=1.15D-06 NDo=     1
 LinEq1:  Iter=  2 NonCon=     1 RMS=3.10D-08 Max=2.94D-07 NDo=     1
 LinEq1:  Iter=  3 NonCon=     1 RMS=7.25D-09 Max=5.59D-08 NDo=     1
 LinEq1:  Iter=  4 NonCon=     1 RMS=1.54D-09 Max=1.97D-08 NDo=     1
 LinEq1:  Iter=  5 NonCon=     0 RMS=3.79D-10 Max=3.96D-09 NDo=     1
 Linear equations converged to 4.916D-10 4.916D-09 after     5 iterations.
 Angle between quadratic step and gradient=  84.26 degrees.
     ILin= 1 X=0.000D+00 Y=-2.503331951393D+01 DE= 0.00D+00 F= -9.17D-10
     ILin= 2 X=1.000D+00 Y=-2.503331951434D+01 DE=-4.02D-10
 Iteration  26 EE= -25.0333195143353     Delta-E=       -0.000000000402 Grad=1.202D-05 Max rot=    0.0004 deg.
 QCNR:  CnvC1=1.20D-10 CnvC2=1.20D-09
 LinEq1:  Iter=  0 NonCon=     1 RMS=1.15D-07 Max=1.20D-06 NDo=     1
 LinEq1:  Iter=  1 NonCon=     1 RMS=4.49D-08 Max=5.19D-07 NDo=     1
 LinEq1:  Iter=  2 NonCon=     1 RMS=8.66D-09 Max=7.03D-08 NDo=     1
 LinEq1:  Iter=  3 NonCon=     1 RMS=1.78D-09 Max=1.70D-08 NDo=     1
 LinEq1:  Iter=  4 NonCon=     1 RMS=4.67D-10 Max=4.39D-09 NDo=     1
 LinEq1:  Iter=  5 NonCon=     1 RMS=1.61D-10 Max=1.29D-09 NDo=     1
 LinEq1:  Iter=  6 NonCon=     0 RMS=2.39D-11 Max=3.04D-10 NDo=     1
 Linear equations converged to 1.202D-10 1.202D-09 after     6 iterations.
 Angle between quadratic step and gradient=  86.63 degrees.
     ILin= 1 X=0.000D+00 Y=-2.503331951434D+01 DE= 0.00D+00 F= -3.99D-10
     ILin= 2 X=1.000D+00 Y=-2.503331951448D+01 DE=-1.42D-10
 Iteration  27 EE= -25.0333195144770     Delta-E=       -0.000000000142 Grad=1.411D-05 Max rot=    0.0004 deg.
 QCNR:  CnvC1=1.41D-10 CnvC2=1.41D-09
 LinEq1:  Iter=  0 NonCon=     1 RMS=2.59D-07 Max=3.30D-06 NDo=     1
 LinEq1:  Iter=  1 NonCon=     1 RMS=4.60D-08 Max=3.96D-07 NDo=     1
 LinEq1:  Iter=  2 NonCon=     1 RMS=1.53D-08 Max=1.47D-07 NDo=     1
 LinEq1:  Iter=  3 NonCon=     1 RMS=4.08D-09 Max=3.90D-08 NDo=     1
 LinEq1:  Iter=  4 NonCon=     1 RMS=7.35D-10 Max=5.21D-09 NDo=     1
 LinEq1:  Iter=  5 NonCon=     1 RMS=1.61D-10 Max=1.89D-09 NDo=     1
 LinEq1:  Iter=  6 NonCon=     0 RMS=5.62D-11 Max=4.72D-10 NDo=     1
 Linear equations converged to 1.411D-10 1.411D-09 after     6 iterations.
 Angle between quadratic step and gradient=  79.82 degrees.
     ILin= 1 X=0.000D+00 Y=-2.503331951448D+01 DE= 0.00D+00 F= -3.24D-10
     ILin= 2 X=1.000D+00 Y=-2.503331951463D+01 DE=-1.55D-10
 Iteration  28 EE= -25.0333195146320     Delta-E=       -0.000000000155 Grad=7.255D-06 Max rot=    0.0002 deg.
 QCNR:  CnvC1=7.26D-11 CnvC2=7.26D-10
 LinEq1:  Iter=  0 NonCon=     1 RMS=6.54D-08 Max=5.49D-07 NDo=     1
 LinEq1:  Iter=  1 NonCon=     1 RMS=2.53D-08 Max=2.89D-07 NDo=     1
 LinEq1:  Iter=  2 NonCon=     1 RMS=5.75D-09 Max=4.65D-08 NDo=     1
 LinEq1:  Iter=  3 NonCon=     1 RMS=1.12D-09 Max=1.17D-08 NDo=     1
 LinEq1:  Iter=  4 NonCon=     1 RMS=2.65D-10 Max=2.54D-09 NDo=     1
 LinEq1:  Iter=  5 NonCon=     1 RMS=9.18D-11 Max=6.68D-10 NDo=     1
 LinEq1:  Iter=  6 NonCon=     0 RMS=1.75D-11 Max=2.03D-10 NDo=     1
 Linear equations converged to 7.255D-11 7.255D-10 after     6 iterations.
 Angle between quadratic step and gradient=  86.70 degrees.
     ILin= 1 X=0.000D+00 Y=-2.503331951463D+01 DE= 0.00D+00 F= -1.24D-10
     ILin= 2 X=1.000D+00 Y=-2.503331951467D+01 DE=-3.48D-11
 Iteration  29 EE= -25.0333195146668     Delta-E=       -0.000000000035 Grad=1.279D-05 Max rot=    0.0004 deg.
 QCNR:  CnvC1=1.28D-10 CnvC2=1.28D-09
 LinEq1:  Iter=  0 NonCon=     1 RMS=1.45D-07 Max=1.68D-06 NDo=     1
 LinEq1:  Iter=  1 NonCon=     1 RMS=3.28D-08 Max=2.75D-07 NDo=     1
 LinEq1:  Iter=  2 NonCon=     1 RMS=1.10D-08 Max=1.11D-07 NDo=     1
 LinEq1:  Iter=  3 NonCon=     1 RMS=2.69D-09 Max=2.79D-08 NDo=     1
 LinEq1:  Iter=  4 NonCon=     1 RMS=4.81D-10 Max=3.26D-09 NDo=     1
 LinEq1:  Iter=  5 NonCon=     0 RMS=1.03D-10 Max=1.20D-09 NDo=     1
 Linear equations converged to 1.279D-10 1.279D-09 after     5 iterations.
 Angle between quadratic step and gradient=  82.41 degrees.
     ILin= 1 X=0.000D+00 Y=-2.503331951467D+01 DE= 0.00D+00 F= -1.30D-10
     ILin= 2 X=1.000D+00 Y=-2.503331951473D+01 DE=-6.03D-11
 Iteration  30 EE= -25.0333195147271     Delta-E=       -0.000000000060 Grad=3.305D-06 Max rot=    0.0001 deg.
 QCNR:  CnvC1=3.30D-11 CnvC2=3.30D-10
 LinEq1:  Iter=  0 NonCon=     1 RMS=2.83D-08 Max=3.28D-07 NDo=     1
 LinEq1:  Iter=  1 NonCon=     1 RMS=1.21D-08 Max=1.25D-07 NDo=     1
 LinEq1:  Iter=  2 NonCon=     1 RMS=1.83D-09 Max=1.28D-08 NDo=     1
 LinEq1:  Iter=  3 NonCon=     1 RMS=3.28D-10 Max=2.58D-09 NDo=     1
 LinEq1:  Iter=  4 NonCon=     1 RMS=1.19D-10 Max=1.13D-09 NDo=     1
 LinEq1:  Iter=  5 NonCon=     0 RMS=2.80D-11 Max=2.26D-10 NDo=     1
 Linear equations converged to 3.305D-11 3.305D-10 after     5 iterations.
 Angle between quadratic step and gradient=  85.15 degrees.
     ILin= 1 X=0.000D+00 Y=-2.503331951473D+01 DE= 0.00D+00 F= -5.08D-11
     ILin= 2 X=1.000D+00 Y=-2.503331951472D+01 DE= 4.44D-12 F=  5.99D-11
     ILin= 3 X=2.000D+00 Y=-2.503331951461D+01 DE= 1.20D-10 F=  1.71D-10
 QCLLim is confused:  Bigger=T Turned=T
 NLin=  3 IMin12=  1  2 I12=  0  2 IX=  1 XLMin= 0.000D+00 XLMax= 0.000D+00
 X = 0.000D+00 1.000D+00 2.000D+00
 DE= 0.000D+00 4.441D-12 1.195D-10
     An  expanding polynomial of degree  3 produced  0.4599
 Iteration  31 EE= -25.0333195147388     Delta-E=       -0.000000000012 Grad=6.444D-06 Max rot=    0.0002 deg.
 QCNR:  CnvC1=6.44D-11 CnvC2=6.44D-10
 LinEq1:  Iter=  0 NonCon=     1 RMS=5.39D-08 Max=4.40D-07 NDo=     1
 LinEq1:  Iter=  1 NonCon=     1 RMS=1.52D-08 Max=1.63D-07 NDo=     1
 LinEq1:  Iter=  2 NonCon=     1 RMS=5.18D-09 Max=5.75D-08 NDo=     1
 LinEq1:  Iter=  3 NonCon=     1 RMS=9.68D-10 Max=7.23D-09 NDo=     1
 LinEq1:  Iter=  4 NonCon=     1 RMS=1.88D-10 Max=1.74D-09 NDo=     1
 LinEq1:  Iter=  5 NonCon=     0 RMS=5.76D-11 Max=5.13D-10 NDo=     1
 Linear equations converged to 6.444D-11 6.444D-10 after     5 iterations.
 Angle between quadratic step and gradient=  87.08 degrees.
     ILin= 1 X=0.000D+00 Y=-2.503331951474D+01 DE= 0.00D+00 F= -3.97D-11
     ILin= 2 X=1.000D+00 Y=-2.503331951475D+01 DE=-1.11D-11
 Iteration  32 EE= -25.0333195147498     Delta-E=       -0.000000000011 Grad=7.151D-06 Max rot=    0.0002 deg.
 QCNR:  CnvC1=7.15D-11 CnvC2=7.15D-10
 LinEq1:  Iter=  0 NonCon=     1 RMS=4.96D-08 Max=4.42D-07 NDo=     1
 LinEq1:  Iter=  1 NonCon=     1 RMS=1.94D-08 Max=1.75D-07 NDo=     1
 LinEq1:  Iter=  2 NonCon=     1 RMS=4.39D-09 Max=4.48D-08 NDo=     1
 LinEq1:  Iter=  3 NonCon=     1 RMS=8.43D-10 Max=9.29D-09 NDo=     1
 LinEq1:  Iter=  4 NonCon=     1 RMS=2.17D-10 Max=2.07D-09 NDo=     1
 LinEq1:  Iter=  5 NonCon=     1 RMS=7.00D-11 Max=8.21D-10 NDo=     1
[...]
 NROrb=    126 NOA=     3 NOB=     3 NVA=   123 NVB=   123
 Leave Link  801 at Sun May 22 21:07:38 2022, MaxMem=   104857600 cpu:               0.0 elap:               0.0
 (Enter /apps/software/g16/l914.exe)
 UHF ground state
 Doing stability rather than CIS.
 Keep R1 and R2 ints in memory in symmetry-blocked form, NReq=40144005.
 FoFCou: FMM=F IPFlag=           0 FMFlag=           0 FMFlg1=           0
         NFxFlg=           0 DoJE=F BraDBF=F KetDBF=F FulRan=T
         wScrn=  0.000000 ICntrl=       600 IOpCl=  0 I1Cent=           0 NGrid=           0
         NMat0=    1 NMatS0=   8001 NMatT0=    0 NMatD0=    1 NMtDS0=    0 NMtDT0=    0
 Petite list used in FoFCou.
 MDV=   104857600 DFT=F DoStab=T Mixed=F DoRPA=F DoScal=F NonHer=F
 Making orbital integer symmetry assigments:
 Orbital symmetries:
 Alpha Orbitals:
       Occupied  (SG) (SG) (SG)
       Virtual   (PI) (PI) (SG) (SG) (SG) (PI) (PI) (SG) (PI) (PI)
                 (DLTA) (DLTA) (SG) (PI) (PI) (SG) (PI) (PI) (SG)
                 (SG) (SG) (PHI) (PHI) (DLTA) (DLTA) (PI) (PI)
                 (DLTA) (DLTA) (SG) (PI) (PI) (SG) (DLTA) (DLTA)
                 (PI) (PI) (PI) (PI) (SG) (SG) (PI) (PI) (SG) (PI)
                 (PI) (?A) (?A) (DLTA) (DLTA) (SG) (PHI) (PHI)
                 (DLTA) (DLTA) (SG) (PHI) (PHI) (PI) (PI) (DLTA)
                 (DLTA) (SG) (PI) (PI) (PHI) (PHI) (DLTA) (DLTA)
                 (SG) (SG) (PI) (PI) (SG) (DLTA) (DLTA) (PI) (PI)
                 (PI) (PI) (SG) (SG) (PI) (PI) (SG) (?A) (?A) (PHI)
                 (PHI) (DLTA) (DLTA) (DLTA) (DLTA) (PI) (PI) (SG)
                 (PI) (PI) (PHI) (PHI) (DLTA) (DLTA) (PI) (PI)
                 (SG) (SG) (PHI) (PHI) (DLTA) (DLTA) (PI) (PI)
                 (SG) (SG) (PI) (PI) (SG) (DLTA) (DLTA) (PI) (PI)
                 (SG) (SG)
 Beta  Orbitals:
       Occupied  (SG) (SG) (SG)
       Virtual   (PI) (PI) (SG) (SG) (PI) (PI) (SG) (SG) (PI) (PI)
                 (DLTA) (DLTA) (SG) (PI) (PI) (SG) (PI) (PI) (SG)
                 (SG) (DLTA) (DLTA) (PHI) (PHI) (PI) (PI) (SG)
                 (DLTA) (DLTA) (PI) (PI) (SG) (SG) (DLTA) (DLTA)
                 (PI) (PI) (PI) (PI) (SG) (SG) (PI) (PI) (SG) (PI)
                 (PI) (SG) (?A) (?A) (DLTA) (DLTA) (PHI) (PHI)
                 (SG) (PI) (PI) (DLTA) (DLTA) (PHI) (PHI) (DLTA)
                 (DLTA) (SG) (PI) (PI) (PHI) (PHI) (DLTA) (DLTA)
                 (SG) (SG) (PI) (PI) (SG) (DLTA) (DLTA) (PI) (PI)
                 (PI) (PI) (SG) (SG) (PI) (PI) (SG) (?A) (?A) (PHI)
                 (PHI) (DLTA) (DLTA) (DLTA) (DLTA) (PI) (PI) (SG)
                 (PI) (PI) (PHI) (PHI) (DLTA) (DLTA) (PI) (PI)
                 (SG) (SG) (PHI) (PHI) (DLTA) (DLTA) (PI) (PI)
                 (SG) (SG) (PI) (PI) (SG) (DLTA) (DLTA) (PI) (PI)
                 (SG) (SG)
    12 initial guesses have been made.
 Convergence on wavefunction:    0.001000000000000
 Davidson Disk Diagonalization:  ConvIn= 1.00D-03 SkipCon=T Conv= 1.00D-03.
 Max sub-space:  1476 roots to seek:    12 dimension of matrix:          738
 Iteration     1 Dimension    12 NMult     0 NNew     12
 CISAX will form    12 AO SS matrices at one time.
 NMat=    12 NSing=    12 JSym2X= 2.
 New state      1 was old state      2
 Excitation Energies [eV] at current iteration:
 Root      1 :     0.501262525282237
 Root      2 :     0.547950942075086
 Root      3 :     1.256459480890994
 Root      4 :     1.256478823265576
 Root      5 :     5.190801552684650
 Root      6 :     6.057684561420976
 Root      7 :     6.577676255104901
 Root      8 :     7.085262416918044
 Root      9 :    11.550568499123910
 Root     10 :    11.550571157723946
 Root     11 :    11.878389575387297
 Root     12 :    11.878393078693403
 Iteration     2 Dimension    24 NMult    12 NNew     12
 CISAX will form    12 AO SS matrices at one time.
 NMat=    12 NSing=    12 JSym2X= 2.
 Root      1 not converged, maximum delta is    0.060683779782053
 Excitation Energies [eV] at current iteration:
 Root      1 :     0.025432158273441   Change is   -0.475830367008796
 Root      2 :     0.028191705111047   Change is   -0.519759236964038
 Root      3 :     0.824268710412478   Change is   -0.432190770478517
 Root      4 :     0.824276490008722   Change is   -0.432202333256854
 Root      5 :     4.662729762740529   Change is   -0.528071789944121
 Root      6 :     5.291873632197626   Change is   -0.765810929223351
 Root      7 :     6.043966149890210   Change is   -1.041296267027834
 Root      8 :     6.500493547130806   Change is   -0.077182707974095
 Root      9 :     8.447854700558336   Change is   -3.102713798565576
 Root     10 :     8.448114855482983   Change is   -3.102456302240964
 Root     11 :    10.385188204263484   Change is   -1.493204874429920
 Root     12 :    10.390104338018267   Change is   -1.488285237369031
 Iteration     3 Dimension    27 NMult    24 NNew      3
 CISAX will form     3 AO SS matrices at one time.
 NMat=     3 NSing=     3 JSym2X= 2.
 Root      1 not converged, maximum delta is    0.005212737419385
 Excitation Energies [eV] at current iteration:
 Root      1 :     0.019556829855098   Change is   -0.005875328418343
 Root      2 :     0.019609950807878   Change is   -0.008581754303170
 Root      3 :     0.811893617575000   Change is   -0.012375092837478
 Iteration     4 Dimension    30 NMult    27 NNew      3
 CISAX will form     3 AO SS matrices at one time.
 NMat=     3 NSing=     3 JSym2X= 2.
 Root      1 has converged.
 Excitation Energies [eV] at current iteration:
 Root      1 :     0.019494753323557   Change is   -0.000062076531541
 Root      2 :     0.019495566906648   Change is   -0.000114383901230
 Root      3 :     0.811733174658471   Change is   -0.000160442916529
 Convergence achieved on expansion vectors.
 ***********************************************************************
 Stability analysis using <AA,BB:AA,BB> singles matrix:
 ***********************************************************************
 1PDM for each excited state written to RWF  633
 Ground to excited state transition densities written to RWF  633

 Eigenvectors of the stability matrix:
 
 Excited state symmetry could not be determined.
 Eigenvector   1:  2.274-?Sym  Eigenvalue= 0.0007164  <S**2>=1.043
      3B ->  5B       -0.69095
      3B ->  9B        0.64799
      3B -> 21B        0.28207
 The wavefunction is stable under the perturbations considered.
 Leave Link  914 at Sun May 22 21:07:42 2022, MaxMem=   104857600 cpu:               3.9 elap:               3.9
 (Enter /apps/software/g16/l508.exe)
 The wavefunction is already stable.
 Leave Link  508 at Sun May 22 21:07:42 2022, MaxMem=   104857600 cpu:               0.0 elap:               0.0
 (Enter /apps/software/g16/l601.exe)
 Copying SCF densities to generalized density rwf, IOpCl= 1 IROHF=0.

 **********************************************************************

            Population analysis using the SCF density.

 **********************************************************************

 Orbital symmetries:
 Alpha Orbitals:
       Occupied  (SG) (SG) (SG)
       Virtual   (PI) (PI) (SG) (SG) (SG) (PI) (PI) (SG) (PI) (PI)
                 (DLTA) (DLTA) (SG) (PI) (PI) (SG) (PI) (PI) (SG)
                 (SG) (SG) (PHI) (PHI) (DLTA) (DLTA) (PI) (PI)
                 (DLTA) (DLTA) (SG) (PI) (PI) (SG) (DLTA) (DLTA)
                 (PI) (PI) (PI) (PI) (SG) (SG) (PI) (PI) (SG) (PI)
                 (PI) (?A) (?A) (DLTA) (DLTA) (SG) (PHI) (PHI)
                 (DLTA) (DLTA) (SG) (PHI) (PHI) (PI) (PI) (DLTA)
                 (DLTA) (SG) (PI) (PI) (PHI) (PHI) (DLTA) (DLTA)
                 (SG) (SG) (PI) (PI) (SG) (DLTA) (DLTA) (PI) (PI)
                 (PI) (PI) (SG) (SG) (PI) (PI) (SG) (?A) (?A) (PHI)
                 (PHI) (DLTA) (DLTA) (DLTA) (DLTA) (PI) (PI) (SG)
                 (PI) (PI) (PHI) (PHI) (DLTA) (DLTA) (PI) (PI)
                 (SG) (SG) (PHI) (PHI) (DLTA) (DLTA) (PI) (PI)
                 (SG) (SG) (PI) (PI) (SG) (DLTA) (DLTA) (PI) (PI)
                 (SG) (SG)
 Beta  Orbitals:
       Occupied  (SG) (SG) (SG)
       Virtual   (PI) (PI) (SG) (SG) (PI) (PI) (SG) (SG) (PI) (PI)
                 (DLTA) (DLTA) (SG) (PI) (PI) (SG) (PI) (PI) (SG)
                 (SG) (DLTA) (DLTA) (PHI) (PHI) (PI) (PI) (SG)
                 (DLTA) (DLTA) (PI) (PI) (SG) (SG) (DLTA) (DLTA)
                 (PI) (PI) (PI) (PI) (SG) (SG) (PI) (PI) (SG) (PI)
                 (PI) (SG) (?A) (?A) (DLTA) (DLTA) (PHI) (PHI)
                 (SG) (PI) (PI) (DLTA) (DLTA) (PHI) (PHI) (DLTA)
                 (DLTA) (SG) (PI) (PI) (PHI) (PHI) (DLTA) (DLTA)
                 (SG) (SG) (PI) (PI) (SG) (DLTA) (DLTA) (PI) (PI)
                 (PI) (PI) (SG) (SG) (PI) (PI) (SG) (?A) (?A) (PHI)
                 (PHI) (DLTA) (DLTA) (DLTA) (DLTA) (PI) (PI) (SG)
                 (PI) (PI) (PHI) (PHI) (DLTA) (DLTA) (PI) (PI)
                 (SG) (SG) (PHI) (PHI) (DLTA) (DLTA) (PI) (PI)
                 (SG) (SG) (PI) (PI) (SG) (DLTA) (DLTA) (PI) (PI)
                 (SG) (SG)
 The electronic state is 1-SG.
 Alpha  occ. eigenvalues --   -7.68903  -0.49130  -0.44662
 Alpha virt. eigenvalues --    0.02654   0.02654   0.04109   0.05451   0.08179
 Alpha virt. eigenvalues --    0.08335   0.08335   0.11472   0.14358   0.14358
 Alpha virt. eigenvalues --    0.14532   0.14532   0.18616   0.22551   0.22551
 Alpha virt. eigenvalues --    0.26591   0.32024   0.32024   0.35650   0.36022
 Alpha virt. eigenvalues --    0.45123   0.46119   0.46119   0.46298   0.46298
 Alpha virt. eigenvalues --    0.48944   0.48944   0.50077   0.50077   0.52482
 Alpha virt. eigenvalues --    0.52868   0.52868   0.58942   0.64484   0.64484
 Alpha virt. eigenvalues --    0.74219   0.74219   0.80260   0.80260   0.84514
 Alpha virt. eigenvalues --    0.94148   1.05954   1.05954   1.12855   1.36553
 Alpha virt. eigenvalues --    1.36553   1.36880   1.36880   1.37793   1.37793
 Alpha virt. eigenvalues --    1.37901   1.38276   1.38276   1.41465   1.41465
 Alpha virt. eigenvalues --    1.43700   1.43815   1.43815   1.45144   1.45144
 Alpha virt. eigenvalues --    1.46198   1.46198   1.50543   1.52194   1.52194
 Alpha virt. eigenvalues --    1.56822   1.56822   1.61446   1.61446   1.65841
 Alpha virt. eigenvalues --    1.68660   1.77049   1.77049   1.89909   2.46796
 Alpha virt. eigenvalues --    2.46796   2.54363   2.54363   2.58876   2.58876
 Alpha virt. eigenvalues --    2.67245   2.74000   3.74341   3.74341   3.83243
 Alpha virt. eigenvalues --    3.91886   3.91886   3.94409   3.94409   3.95933
 Alpha virt. eigenvalues --    3.95933   3.96769   3.96769   3.99728   3.99728
 Alpha virt. eigenvalues --    4.00749   4.03590   4.03590   4.08706   4.08706
 Alpha virt. eigenvalues --    4.12263   4.12263   4.16431   4.16431   4.21003
 Alpha virt. eigenvalues --    4.22840   6.56101   6.56101   6.56884   6.56884
 Alpha virt. eigenvalues --    6.60478   6.60478   6.64767   7.47834   7.95433
 Alpha virt. eigenvalues --    7.95433   8.04334   8.40308   8.40308   8.45365
 Alpha virt. eigenvalues --    8.45365   8.55575  13.11373
  Beta  occ. eigenvalues --   -7.70382  -0.54643  -0.31941
  Beta virt. eigenvalues --    0.02300   0.02300   0.02414   0.04810   0.07649
  Beta virt. eigenvalues --    0.07649   0.08132   0.10669   0.14437   0.14437
  Beta virt. eigenvalues --    0.14529   0.14529   0.18800   0.24079   0.24079
  Beta virt. eigenvalues --    0.26103   0.31253   0.31253   0.32321   0.36075
  Beta virt. eigenvalues --    0.46012   0.46012   0.46126   0.46126   0.47557
  Beta virt. eigenvalues --    0.47557   0.48883   0.49968   0.49968   0.50954
  Beta virt. eigenvalues --    0.50954   0.52175   0.58674   0.65687   0.65687
  Beta virt. eigenvalues --    0.76490   0.76490   0.85345   0.85345   0.89616
  Beta virt. eigenvalues --    0.93968   1.05059   1.05059   1.06483   1.35924
  Beta virt. eigenvalues --    1.35924   1.36803   1.36908   1.36908   1.37181
  Beta virt. eigenvalues --    1.37181   1.37769   1.37769   1.39418   1.40368
  Beta virt. eigenvalues --    1.40368   1.40915   1.40915   1.43760   1.43760
  Beta virt. eigenvalues --    1.44670   1.44670   1.47470   1.49827   1.49827
  Beta virt. eigenvalues --    1.58057   1.58057   1.62396   1.62396   1.65680
  Beta virt. eigenvalues --    1.76866   1.77611   1.77611   1.90696   2.50701
  Beta virt. eigenvalues --    2.50701   2.58561   2.58561   2.65744   2.65744
  Beta virt. eigenvalues --    2.72604   2.78295   3.73654   3.73654   3.78717
  Beta virt. eigenvalues --    3.91823   3.91823   3.93334   3.93334   3.94899
  Beta virt. eigenvalues --    3.94899   3.95459   3.95459   3.96162   3.96162
  Beta virt. eigenvalues --    3.96974   4.01302   4.01302   4.08450   4.08450
  Beta virt. eigenvalues --    4.10149   4.10149   4.13180   4.13180   4.17165
  Beta virt. eigenvalues --    4.19793   6.58973   6.58973   6.59745   6.59745
  Beta virt. eigenvalues --    6.63308   6.63308   6.67581   7.55859   8.01188
  Beta virt. eigenvalues --    8.01188   8.09972   8.44510   8.44510   8.49529
  Beta virt. eigenvalues --    8.49529   8.59680  13.10266
          Condensed to atoms (all electrons):
               1          2
     1  B    4.995071  -0.000195
     2  H   -0.000195   1.005319
          Atomic-Atomic Spin Densities.
               1          2
     1  B   -0.993234  -0.005460
     2  H   -0.005460   1.004153
 Mulliken charges and spin densities:
               1          2
     1  B    0.005124  -0.998693
     2  H   -0.005124   0.998693
 Sum of Mulliken charges =  -0.00000   0.00000
 Mulliken charges and spin densities with hydrogens summed into heavy atoms:
               1          2
     1  B   -0.000000   0.000000
 Electronic spatial extent (au):  <R**2>=             53.4493
 Charge=             -0.0000 electrons
 Dipole moment (field-independent basis, Debye):
    X=              0.0000    Y=              0.0000    Z=              0.1144  Tot=              0.1144
 Quadrupole moment (field-independent basis, Debye-Ang):
   XX=             -7.3127   YY=             -7.3127   ZZ=            -10.9948
   XY=              0.0000   XZ=              0.0000   YZ=              0.0000
 Traceless Quadrupole moment (field-independent basis, Debye-Ang):
   XX=              1.2274   YY=              1.2274   ZZ=             -2.4547
   XY=              0.0000   XZ=              0.0000   YZ=              0.0000
 Octapole moment (field-independent basis, Debye-Ang**2):
  XXX=              0.0000  YYY=              0.0000  ZZZ=             -2.8996  XYY=              0.0000
  XXY=              0.0000  XXZ=              0.5247  XZZ=              0.0000  YZZ=              0.0000
  YYZ=              0.5247  XYZ=              0.0000
 Hexadecapole moment (field-independent basis, Debye-Ang**3):
 XXXX=            -10.7457 YYYY=            -10.7457 ZZZZ=           -109.3023 XXXY=              0.0000
 XXXZ=              0.0000 YYYX=              0.0000 YYYZ=              0.0000 ZZZX=              0.0000
 ZZZY=              0.0000 XXYY=             -3.5819 XXZZ=            -18.2827 YYZZ=            -18.2827
 XXYZ=              0.0000 YYXZ=              0.0000 ZZXY=              0.0000
 N-N= 7.782017807647D-01 E-N=-5.945562608878D+01  KE= 2.502918819083D+01
 Symmetry A1   KE= 2.502918819083D+01
 Symmetry A2   KE= 0.000000000000D+00
 Symmetry B1   KE= 0.000000000000D+00
 Symmetry B2   KE= 0.000000000000D+00
 Symmetry A1   SP= 1.538502484631D-15
 Symmetry A2   SP= 0.000000000000D+00
 Symmetry B1   SP= 0.000000000000D+00
 Symmetry B2   SP= 0.000000000000D+00
                          Isotropic Fermi Contact Couplings
        Atom                 a.u.       MegaHertz       Gauss      10(-4) cm-1
     1  B(11)              0.00521       3.73893       1.33414       1.24717
     2  H(1)               0.29718     664.18473     236.99763     221.54818
 --------------------------------------------------------
       Center         ----  Spin Dipole Couplings  ----
                      3XX-RR        3YY-RR        3ZZ-RR
 --------------------------------------------------------
     1   Atom        0.324966      0.324966     -0.649932
     2   Atom        0.005707      0.005707     -0.011413
 --------------------------------------------------------
                        XY            XZ            YZ
 --------------------------------------------------------
     1   Atom        0.000000      0.000000      0.000000
     2   Atom        0.000000      0.000000      0.000000
 --------------------------------------------------------


 ---------------------------------------------------------------------------------
              Anisotropic Spin Dipole Couplings in Principal Axis System
 ---------------------------------------------------------------------------------

       Atom             a.u.   MegaHertz   Gauss  10(-4) cm-1        Axes

              Baa    -0.6499  -111.278   -39.707   -37.118  0.0000  0.0000  1.0000
     1 B(11)  Bbb     0.3250    55.639    19.853    18.559  1.0000  0.0000  0.0000
              Bcc     0.3250    55.639    19.853    18.559 -0.0000  1.0000  0.0000
 
              Baa    -0.0114    -6.090    -2.173    -2.031  0.0000  0.0000  1.0000
     2 H(1)   Bbb     0.0057     3.045     1.086     1.016 -0.0000  1.0000  0.0000
              Bcc     0.0057     3.045     1.086     1.016  1.0000  0.0000  0.0000
 

 ---------------------------------------------------------------------------------

 No NMR shielding tensors so no spin-rotation constants.
 Leave Link  601 at Sun May 22 21:07:42 2022, MaxMem=   104857600 cpu:               0.2 elap:               0.2
 (Enter /apps/software/g16/l9999.exe)
 1\1\GINC-CNODE01\Stability\UHF\Aug-CC-pVQZ\B1H1\LCZ\22-May-2022\0\\#p 
 UHF/aug-cc-pVQZ guess=mix stable=opt\\BH UHF at 3.4 Angstrom\\0,1\B,0,
 0.,0.,0.\H,0,3.4,0.,0.\\Version=ES64L-G16RevA.03\State=1-SG\HF=-25.033
 3195\S2=0.994281\S2-1=0.\S2A=0.08528\RMSD=8.907e-09\Dipole=-0.0449958,
 0.,0.\Quadrupole=-1.8250282,0.9125141,0.9125141,0.,0.,0.\PG=C*V [C*(H1
 B1)]\\@


 WHAT THE SLIME CONTAINS, THE GLOWING REVEALS
 BY THE FLAME'S BRIGHT HUE WHEN YOU IGNITE IT.
   --  LEONARD THURNEYSSER, 1531-1596
 DESCRIBING HIS FLAME PHOTOLYSIS ANALYTIC METHOD
 Job cpu time:       0 days  0 hours  0 minutes 24.4 seconds.
 Elapsed time:       0 days  0 hours  0 minutes 24.6 seconds.
 File lengths (MBytes):  RWF=     29 Int=      0 D2E=      0 Chk=      4 Scr=      1
 Normal termination of Gaussian 16 at Sun May 22 21:07:42 2022.

Sender: Unischeduler System <lcz@mgt01>
Subject: Job 134356: <#!/bin/bash
#BSUB -J intel
#BSUB -o BH-3.4-UHF-G.out
#BSUB -n 8
#BSUB -q cqueue
#BSUB -R span[hosts=1]
export g16root=/apps/software
source /apps/software/g16/bsd/g16.profile
export GAUSS_SCRDIR=/scratch
/apps/software/g16/g16 < BH-3.4-UHF-G.inp > BH-3.4-UHF-G.out> Done

Job <#!/bin/bash
#BSUB -J intel
#BSUB -o BH-3.4-UHF-G.out
#BSUB -n 8
#BSUB -q cqueue
#BSUB -R span[hosts=1]
export g16root=/apps/software
source /apps/software/g16/bsd/g16.profile
export GAUSS_SCRDIR=/scratch
/apps/software/g16/g16 < BH-3.4-UHF-G.inp > BH-3.4-UHF-G.out> was submitted from host <mgt01> by user <lcz>.
Job was executed on host(s) <8*cnode01>, in queue <cqueue>, as user <lcz>.
</apps/users/lcz> was used as the home directory.
</apps/users/lcz/exe13/UCCSD_T> was used as the working directory.
Started at 2022-05-22 21:07:17
Results reported at 2022-05-22 21:07:42

Your job looked like:

------------------------------------------------------------
# User input
#!/bin/bash
#BSUB -J intel
#BSUB -o BH-3.4-UHF-G.out
#BSUB -n 8
#BSUB -q cqueue
#BSUB -R span[hosts=1]
export g16root=/apps/software
source /apps/software/g16/bsd/g16.profile
export GAUSS_SCRDIR=/scratch
/apps/software/g16/g16 < BH-3.4-UHF-G.inp > BH-3.4-UHF-G.out
------------------------------------------------------------

Successfully completed.

Resource usage summary:

    CPU time   :           22.32 sec.
    Max Memory :               478 MB
    Max Processes  :               5


The output (if any) follows:

