 Entering Gaussian System, Link 0=/apps/software/g16/g16
 Initial command:
 /apps/software/g16/l1.exe "/scratch/Gau-370456.inp" -scrdir="/scratch/"
 Entering Link 1 = /apps/software/g16/l1.exe PID=    370457.
  
 Copyright (c) 1988,1990,1992,1993,1995,1998,2003,2009,2016,
            Gaussian, Inc.  All Rights Reserved.
  
 This is part of the Gaussian(R) 16 program.  It is based on
 the Gaussian(R) 09 system (copyright 2009, Gaussian, Inc.),
 the Gaussian(R) 03 system (copyright 2003, Gaussian, Inc.),
 the Gaussian(R) 98 system (copyright 1998, Gaussian, Inc.),
 the Gaussian(R) 94 system (copyright 1995, Gaussian, Inc.),
 the Gaussian 92(TM) system (copyright 1992, Gaussian, Inc.),
 the Gaussian 90(TM) system (copyright 1990, Gaussian, Inc.),
 the Gaussian 88(TM) system (copyright 1988, Gaussian, Inc.),
 the Gaussian 86(TM) system (copyright 1986, Carnegie Mellon
 University), and the Gaussian 82(TM) system (copyright 1983,
 Carnegie Mellon University). Gaussian is a federally registered
 trademark of Gaussian, Inc.
  
 This software contains proprietary and confidential information,
 including trade secrets, belonging to Gaussian, Inc.
  
 This software is provided under written license and may be
 used, copied, transmitted, or stored only in accord with that
 written license.
  
 The following legend is applicable only to US Government
 contracts under FAR:
  
                    RESTRICTED RIGHTS LEGEND
  
 Use, reproduction and disclosure by the US Government is
 subject to restrictions as set forth in subparagraphs (a)
 and (c) of the Commercial Computer Software - Restricted
 Rights clause in FAR 52.227-19.
  
 Gaussian, Inc.
 340 Quinnipiac St., Bldg. 40, Wallingford CT 06492
  
  
 ---------------------------------------------------------------
 Warning -- This program may not be used in any manner that
 competes with the business of Gaussian, Inc. or will provide
 assistance to any competitor of Gaussian, Inc.  The licensee
 of this program is prohibited from giving any competitor of
 Gaussian, Inc. access to this program.  By using this program,
 the user acknowledges that Gaussian, Inc. is engaged in the
 business of creating and licensing software in the field of
 computational chemistry and represents and warrants to the
 licensee that it is not a competitor of Gaussian, Inc. and that
 it will not use this program in any manner prohibited above.
 ---------------------------------------------------------------
  

 Cite this work as:
 Gaussian 16, Revision A.03,
 M. J. Frisch, G. W. Trucks, H. B. Schlegel, G. E. Scuseria, 
 M. A. Robb, J. R. Cheeseman, G. Scalmani, V. Barone, 
 G. A. Petersson, H. Nakatsuji, X. Li, M. Caricato, A. V. Marenich, 
 J. Bloino, B. G. Janesko, R. Gomperts, B. Mennucci, H. P. Hratchian, 
 J. V. Ortiz, A. F. Izmaylov, J. L. Sonnenberg, D. Williams-Young, 
 F. Ding, F. Lipparini, F. Egidi, J. Goings, B. Peng, A. Petrone, 
 T. Henderson, D. Ranasinghe, V. G. Zakrzewski, J. Gao, N. Rega, 
 G. Zheng, W. Liang, M. Hada, M. Ehara, K. Toyota, R. Fukuda, 
 J. Hasegawa, M. Ishida, T. Nakajima, Y. Honda, O. Kitao, H. Nakai, 
 T. Vreven, K. Throssell, J. A. Montgomery, Jr., J. E. Peralta, 
 F. Ogliaro, M. J. Bearpark, J. J. Heyd, E. N. Brothers, K. N. Kudin, 
 V. N. Staroverov, T. A. Keith, R. Kobayashi, J. Normand, 
 K. Raghavachari, A. P. Rendell, J. C. Burant, S. S. Iyengar, 
 J. Tomasi, M. Cossi, J. M. Millam, M. Klene, C. Adamo, R. Cammi, 
 J. W. Ochterski, R. L. Martin, K. Morokuma, O. Farkas, 
 J. B. Foresman, and D. J. Fox, Gaussian, Inc., Wallingford CT, 2016.
 
 ******************************************
 Gaussian 16:  ES64L-G16RevA.03 25-Dec-2016
                22-May-2022 
 ******************************************
 %chk=BH-3.0-UHF-G.chk
 ---------------------------------------
 #p UHF/aug-cc-pVQZ guess=mix stable=opt
 ---------------------------------------
 1/38=1,172=1/1;
 2/12=2,17=6,18=5,40=1/2;
 3/5=16,6=2,7=10,11=2,25=1,30=1,116=2/1,2,3;
 4/13=-1/1;
 5/5=2,38=5/2;
 6/7=2,8=2,9=2,10=2,28=1/1;
 8/6=1,10=90,11=11/1;
 9/8=-3,42=1,46=1/14;
 5/5=2,8=3,17=40,38=5/8(-2);
 6/7=2,8=2,9=2,10=2,28=1/1;
 99/5=1,9=1/99;
 Leave Link    1 at Sun May 22 21:07:11 2022, MaxMem=           0 cpu:               0.0 elap:               0.0
 (Enter /apps/software/g16/l101.exe)
 ----------------------
 BH UHF at 3.0 Angstrom
 ----------------------
 Symbolic Z-matrix:
 Charge =  0 Multiplicity = 1
 B                     0.        0.        0. 
 H                     3.        0.        0. 
 
 ITRead=  0  0
 MicOpt= -1 -1
 NAtoms=      2 NQM=        2 NQMF=       0 NMMI=      0 NMMIF=      0
                NMic=       0 NMicF=      0.
                    Isotopes and Nuclear Properties:
 (Nuclear quadrupole moments (NQMom) in fm**2, nuclear magnetic moments (NMagM)
  in nuclear magnetons)

  Atom         1           2
 IAtWgt=          11           1
 AtmWgt=  11.0093053   1.0078250
 NucSpn=           3           1
 AtZEff=  -0.0000000  -0.0000000
 NQMom=    4.0590000   0.0000000
 NMagM=    2.6886370   2.7928460
 AtZNuc=   5.0000000   1.0000000
 Leave Link  101 at Sun May 22 21:07:11 2022, MaxMem=   104857600 cpu:               0.1 elap:               0.1
 (Enter /apps/software/g16/l202.exe)
                          Input orientation:                          
 ---------------------------------------------------------------------
 Center     Atomic      Atomic             Coordinates (Angstroms)
 Number     Number       Type             X           Y           Z
 ---------------------------------------------------------------------
      1          5           0        0.000000    0.000000    0.000000
      2          1           0        3.000000    0.000000    0.000000
 ---------------------------------------------------------------------
 Stoichiometry    BH
 Framework group  C*V[C*(HB)]
 Deg. of freedom     1
 Full point group                 C*V     NOp   4
 Largest Abelian subgroup         C2V     NOp   4
 Largest concise Abelian subgroup C1      NOp   1
                         Standard orientation:                         
 ---------------------------------------------------------------------
 Center     Atomic      Atomic             Coordinates (Angstroms)
 Number     Number       Type             X           Y           Z
 ---------------------------------------------------------------------
      1          5           0        0.000000    0.000000    0.500000
      2          1           0        0.000000    0.000000   -2.500000
 ---------------------------------------------------------------------
 Rotational constants (GHZ):           0.0000000          60.8177576          60.8177576
 Leave Link  202 at Sun May 22 21:07:11 2022, MaxMem=   104857600 cpu:               0.0 elap:               0.0
 (Enter /apps/software/g16/l301.exe)
 Standard basis: Aug-CC-pVQZ (5D, 7F)
 Ernie: Thresh=  0.10000D-02 Tol=  0.10000D-05 Strict=F.
 Ernie:  4 primitive shells out of 54 were deleted.
 There are    68 symmetry adapted cartesian basis functions of A1  symmetry.
 There are    18 symmetry adapted cartesian basis functions of A2  symmetry.
 There are    37 symmetry adapted cartesian basis functions of B1  symmetry.
 There are    37 symmetry adapted cartesian basis functions of B2  symmetry.
 There are    50 symmetry adapted basis functions of A1  symmetry.
 There are    16 symmetry adapted basis functions of A2  symmetry.
 There are    30 symmetry adapted basis functions of B1  symmetry.
 There are    30 symmetry adapted basis functions of B2  symmetry.
   126 basis functions,   180 primitive gaussians,   160 cartesian basis functions
     3 alpha electrons        3 beta electrons
       nuclear repulsion energy         0.8819620182 Hartrees.
 IExCor=    0 DFT=F Ex=HF Corr=None ExCW=0 ScaHFX=  1.000000
 ScaDFX=  1.000000  1.000000  1.000000  1.000000 ScalE2=  1.000000  1.000000
 IRadAn=      5 IRanWt=     -1 IRanGd=            0 ICorTp=0 IEmpDi=  4
 NAtoms=    2 NActive=    2 NUniq=    2 SFac= 1.00D+00 NAtFMM=   60 NAOKFM=F Big=F
 Integral buffers will be    131072 words long.
 Raffenetti 2 integral format.
 Two-electron integral symmetry is turned on.
 Leave Link  301 at Sun May 22 21:07:11 2022, MaxMem=   104857600 cpu:               0.1 elap:               0.1
 (Enter /apps/software/g16/l302.exe)
 NPDir=0 NMtPBC=     1 NCelOv=     1 NCel=       1 NClECP=     1 NCelD=      1
         NCelK=      1 NCelE2=     1 NClLst=     1 CellRange=     0.0.
 One-electron integrals computed using PRISM.
 One-electron integral symmetry used in STVInt
 NBasis=   126 RedAO= T EigKep=  2.29D-03  NBF=    50    16    30    30
 NBsUse=   126 1.00D-06 EigRej= -1.00D+00 NBFU=    50    16    30    30
 Leave Link  302 at Sun May 22 21:07:12 2022, MaxMem=   104857600 cpu:               0.1 elap:               0.1
 (Enter /apps/software/g16/l303.exe)
 DipDrv:  MaxL=1.
 Leave Link  303 at Sun May 22 21:07:12 2022, MaxMem=   104857600 cpu:               0.0 elap:               0.0
 (Enter /apps/software/g16/l401.exe)
 ExpMin= 1.88D-02 ExpMax= 2.39D+04 ExpMxC= 2.30D+02 IAcc=3 IRadAn=         5 AccDes= 0.00D+00
 Harris functional with IExCor=  205 and IRadAn=       5 diagonalized for initial guess.
 HarFok:  IExCor=  205 AccDes= 0.00D+00 IRadAn=         5 IDoV= 1 UseB2=F ITyADJ=14
 ICtDFT=  3500011 ScaDFX=  1.000000  1.000000  1.000000  1.000000
 FoFCou: FMM=F IPFlag=           0 FMFlag=      100000 FMFlg1=           0
         NFxFlg=           0 DoJE=T BraDBF=F KetDBF=T FulRan=T
         wScrn=  0.000000 ICntrl=       500 IOpCl=  0 I1Cent=   200000004 NGrid=           0
         NMat0=    1 NMatS0=      1 NMatT0=    0 NMatD0=    1 NMtDS0=    0 NMtDT0=    0
 Petite list used in FoFCou.
 Harris En= -24.9981790138265    
 JPrj=0 DoOrth=F DoCkMO=T.
 Mixing orbitals, IMix= 1 IMixAn=  0 NRI=1 NE=    3 Coef=  7.07106781D-01  7.07106781D-01
 Mixing orbitals, IMix= 1 IMixAn=  0 NRI=1 NE=    3 Coef= -7.07106781D-01  7.07106781D-01
 Initial guess orbital symmetries:
 Alpha Orbitals:
       Occupied  (SG) (SG) (?A)
       Virtual   (?A) (?A) (SG) (SG) (PI) (PI) (SG) (SG) (PI) (PI)
                 (DLTA) (DLTA) (SG) (PI) (PI) (SG) (PI) (PI) (SG)
                 (SG) (PI) (PI) (SG) (DLTA) (DLTA) (DLTA) (DLTA)
                 (PHI) (PHI) (SG) (PI) (PI) (SG) (DLTA) (DLTA)
                 (PI) (PI) (SG) (PI) (PI) (SG) (PI) (PI) (SG) (SG)
                 (DLTA) (DLTA) (PI) (PI) (SG) (DLTA) (DLTA) (PI)
                 (PI) (PHI) (PHI) (?B) (?B) (PHI) (PHI) (DLTA)
                 (DLTA) (SG) (PI) (PI) (PHI) (PHI) (SG) (DLTA)
                 (DLTA) (SG) (PI) (PI) (SG) (DLTA) (DLTA) (PI)
                 (PI) (PI) (PI) (SG) (SG) (PI) (PI) (SG) (DLTA)
                 (DLTA) (PI) (PI) (SG) (?B) (?B) (PHI) (PHI) (DLTA)
                 (DLTA) (PHI) (PHI) (PI) (PI) (DLTA) (DLTA) (PI)
                 (PI) (SG) (SG) (PHI) (PHI) (DLTA) (DLTA) (PI)
                 (PI) (SG) (SG) (PI) (PI) (SG) (DLTA) (DLTA) (PI)
                 (PI) (SG) (SG)
 Beta  Orbitals:
       Occupied  (SG) (SG) (?A)
       Virtual   (?A) (?A) (SG) (SG) (PI) (PI) (SG) (SG) (PI) (PI)
                 (DLTA) (DLTA) (SG) (PI) (PI) (SG) (PI) (PI) (SG)
                 (SG) (PI) (PI) (SG) (DLTA) (DLTA) (DLTA) (DLTA)
                 (PHI) (PHI) (SG) (PI) (PI) (SG) (DLTA) (DLTA)
                 (PI) (PI) (SG) (PI) (PI) (SG) (PI) (PI) (SG) (SG)
                 (DLTA) (DLTA) (PI) (PI) (SG) (DLTA) (DLTA) (PI)
                 (PI) (PHI) (PHI) (?B) (?B) (PHI) (PHI) (DLTA)
                 (DLTA) (SG) (PI) (PI) (PHI) (PHI) (SG) (DLTA)
                 (DLTA) (SG) (PI) (PI) (SG) (DLTA) (DLTA) (PI)
                 (PI) (PI) (PI) (SG) (SG) (PI) (PI) (SG) (DLTA)
                 (DLTA) (PI) (PI) (SG) (?B) (?B) (PHI) (PHI) (DLTA)
                 (DLTA) (PHI) (PHI) (PI) (PI) (DLTA) (DLTA) (PI)
                 (PI) (SG) (SG) (PHI) (PHI) (DLTA) (DLTA) (PI)
                 (PI) (SG) (SG) (PI) (PI) (SG) (DLTA) (DLTA) (PI)
                 (PI) (SG) (SG)
 Initial guess <Sx>= 0.0000 <Sy>= 0.0000 <Sz>= 0.0000 <S**2>= 1.0000 S= 0.6180
 Leave Link  401 at Sun May 22 21:07:12 2022, MaxMem=   104857600 cpu:               0.2 elap:               0.2
 (Enter /apps/software/g16/l502.exe)
 Keep R1 and R2 ints in memory in symmetry-blocked form, NReq=40143665.
 FoFCou: FMM=F IPFlag=           0 FMFlag=           0 FMFlg1=           0
         NFxFlg=           0 DoJE=F BraDBF=F KetDBF=F FulRan=T
         wScrn=  0.000000 ICntrl=       600 IOpCl=  0 I1Cent=           0 NGrid=           0
         NMat0=    1 NMatS0=   8001 NMatT0=    0 NMatD0=    1 NMtDS0=    0 NMtDT0=    0
 Petite list used in FoFCou.
 UHF open shell SCF:
 Using DIIS extrapolation, IDIIS=  1040.
 NGot=   104857600 LenX=    88563632 LenY=    88537591
 Requested convergence on RMS density matrix=1.00D-08 within 128 cycles.
 Requested convergence on MAX density matrix=1.00D-06.
 Requested convergence on             energy=1.00D-06.
 No special actions if energy rises.
 An orbital has undefined symmetry, so N**3 symmetry is turned off.

 Cycle   1  Pass 1  IDiag  1:
 Density matrix breaks symmetry, PCut= 1.00D-07
 Density matrix has no symmetry -- integrals replicated.
 E= -24.8668530278518    
 DIIS: error= 2.91D-02 at cycle   1 NSaved=   1.
 NSaved= 1 IEnMin= 1 EnMin= -24.8668530278518     IErMin= 1 ErrMin= 2.91D-02
 ErrMax= 2.91D-02  0.00D+00 EMaxC= 1.00D-01 BMatC= 1.55D-01 BMatP= 1.55D-01
 IDIUse=3 WtCom= 7.09D-01 WtEn= 2.91D-01
 Coeff-Com:  0.100D+01
 Coeff-En:   0.100D+01
 Coeff:      0.100D+01
 Gap=     0.191 Goal=   None    Shift=    0.000
 Gap=     0.191 Goal=   None    Shift=    0.000
 GapD=    0.191 DampG=1.000 DampE=0.500 DampFc=0.5000 IDamp=-1.
 Damping current iteration by 5.00D-01
 RMSDP=1.47D-03 MaxDP=5.84D-02              OVMax= 3.09D-01

 Cycle   2  Pass 1  IDiag  1:
 Density matrix breaks symmetry, PCut= 1.00D-07
 Density matrix has no symmetry -- integrals replicated.
 E= -24.8918845151735     Delta-E=       -0.025031487322 Rises=F Damp=T
 DIIS: error= 1.92D-02 at cycle   2 NSaved=   2.
 NSaved= 2 IEnMin= 2 EnMin= -24.8918845151735     IErMin= 2 ErrMin= 1.92D-02
 ErrMax= 1.92D-02  0.00D+00 EMaxC= 1.00D-01 BMatC= 5.06D-02 BMatP= 1.55D-01
 IDIUse=3 WtCom= 8.08D-01 WtEn= 1.92D-01
 Coeff-Com: -0.840D+00 0.184D+01
 Coeff-En:   0.000D+00 0.100D+01
 Coeff:     -0.679D+00 0.168D+01
 Gap=     0.186 Goal=   None    Shift=    0.000
 Gap=     0.186 Goal=   None    Shift=    0.000
 RMSDP=1.22D-03 MaxDP=5.22D-02 DE=-2.50D-02 OVMax= 1.39D-01

 Cycle   3  Pass 1  IDiag  1:
 Density matrix breaks symmetry, PCut= 1.00D-07
 Density matrix has no symmetry -- integrals replicated.
 E= -24.9352033437986     Delta-E=       -0.043318828625 Rises=F Damp=F
 DIIS: error= 9.76D-03 at cycle   3 NSaved=   3.
 NSaved= 3 IEnMin= 3 EnMin= -24.9352033437986     IErMin= 3 ErrMin= 9.76D-03
 ErrMax= 9.76D-03  0.00D+00 EMaxC= 1.00D-01 BMatC= 4.06D-03 BMatP= 5.06D-02
 IDIUse=3 WtCom= 9.02D-01 WtEn= 9.76D-02
 Coeff-Com: -0.141D+00 0.206D+00 0.935D+00
 Coeff-En:   0.000D+00 0.000D+00 0.100D+01
 Coeff:     -0.128D+00 0.186D+00 0.941D+00
 Gap=     0.223 Goal=   None    Shift=    0.000
 Gap=     0.223 Goal=   None    Shift=    0.000
 RMSDP=4.54D-04 MaxDP=1.20D-02 DE=-4.33D-02 OVMax= 9.61D-02

 Cycle   4  Pass 1  IDiag  1:
 Density matrix breaks symmetry, PCut= 1.00D-07
 Density matrix has no symmetry -- integrals replicated.
 E= -24.9445978771540     Delta-E=       -0.009394533355 Rises=F Damp=F
 DIIS: error= 5.15D-03 at cycle   4 NSaved=   4.
 NSaved= 4 IEnMin= 4 EnMin= -24.9445978771540     IErMin= 4 ErrMin= 5.15D-03
 ErrMax= 5.15D-03  0.00D+00 EMaxC= 1.00D-01 BMatC= 1.95D-03 BMatP= 4.06D-03
 IDIUse=3 WtCom= 9.48D-01 WtEn= 5.15D-02
 Coeff-Com:  0.163D+00-0.299D+00-0.110D+01 0.223D+01
 Coeff-En:   0.000D+00 0.000D+00 0.000D+00 0.100D+01
 Coeff:      0.155D+00-0.284D+00-0.104D+01 0.217D+01
 Gap=     0.232 Goal=   None    Shift=    0.000
 Gap=     0.232 Goal=   None    Shift=    0.000
 RMSDP=7.05D-04 MaxDP=1.70D-02 DE=-9.39D-03 OVMax= 1.46D-01

 Cycle   5  Pass 1  IDiag  1:
 Density matrix breaks symmetry, PCut= 1.00D-07
 Density matrix has no symmetry -- integrals replicated.
 E= -24.9526943971568     Delta-E=       -0.008096520003 Rises=F Damp=F
 DIIS: error= 3.28D-03 at cycle   5 NSaved=   5.
 NSaved= 5 IEnMin= 5 EnMin= -24.9526943971568     IErMin= 5 ErrMin= 3.28D-03
 ErrMax= 3.28D-03  0.00D+00 EMaxC= 1.00D-01 BMatC= 7.69D-04 BMatP= 1.95D-03
 IDIUse=3 WtCom= 9.67D-01 WtEn= 3.28D-02
 Coeff-Com: -0.156D+00 0.296D+00-0.186D+00-0.194D-01 0.107D+01
 Coeff-En:   0.000D+00 0.000D+00 0.000D+00 0.000D+00 0.100D+01
 Coeff:     -0.150D+00 0.286D+00-0.180D+00-0.188D-01 0.106D+01
 Gap=     0.241 Goal=   None    Shift=    0.000
 Gap=     0.241 Goal=   None    Shift=    0.000
 RMSDP=2.00D-04 MaxDP=5.77D-03 DE=-8.10D-03 OVMax= 4.12D-02

 Cycle   6  Pass 1  IDiag  1:
 Density matrix breaks symmetry, PCut= 1.00D-07
 Density matrix has no symmetry -- integrals replicated.
 E= -24.9541543898446     Delta-E=       -0.001459992688 Rises=F Damp=F
 DIIS: error= 2.30D-03 at cycle   6 NSaved=   6.
 NSaved= 6 IEnMin= 6 EnMin= -24.9541543898446     IErMin= 6 ErrMin= 2.30D-03
 ErrMax= 2.30D-03  0.00D+00 EMaxC= 1.00D-01 BMatC= 1.95D-04 BMatP= 7.69D-04
 IDIUse=3 WtCom= 9.77D-01 WtEn= 2.30D-02
 Coeff-Com: -0.135D-02-0.998D-02 0.216D+00-0.522D+00-0.523D+00 0.184D+01
 Coeff-En:   0.000D+00 0.000D+00 0.000D+00 0.000D+00 0.000D+00 0.100D+01
 Coeff:     -0.131D-02-0.975D-02 0.211D+00-0.510D+00-0.511D+00 0.182D+01
 Gap=     0.247 Goal=   None    Shift=    0.000
 Gap=     0.247 Goal=   None    Shift=    0.000
 RMSDP=2.62D-04 MaxDP=8.25D-03 DE=-1.46D-03 OVMax= 6.27D-02

 Cycle   7  Pass 1  IDiag  1:
 Density matrix breaks symmetry, PCut= 1.00D-07
 Density matrix has no symmetry -- integrals replicated.
 E= -24.9552306176265     Delta-E=       -0.001076227782 Rises=F Damp=F
 DIIS: error= 1.25D-03 at cycle   7 NSaved=   7.
 NSaved= 7 IEnMin= 7 EnMin= -24.9552306176265     IErMin= 7 ErrMin= 1.25D-03
 ErrMax= 1.25D-03  0.00D+00 EMaxC= 1.00D-01 BMatC= 6.04D-05 BMatP= 1.95D-04
 IDIUse=3 WtCom= 9.88D-01 WtEn= 1.25D-02
 Coeff-Com:  0.373D-01-0.662D-01-0.314D+00 0.862D+00 0.187D+00-0.223D+01
 Coeff-Com:  0.253D+01
 Coeff-En:   0.000D+00 0.000D+00 0.000D+00 0.000D+00 0.000D+00 0.000D+00
 Coeff-En:   0.100D+01
 Coeff:      0.368D-01-0.653D-01-0.310D+00 0.851D+00 0.185D+00-0.220D+01
 Coeff:      0.251D+01
 Gap=     0.248 Goal=   None    Shift=    0.000
 Gap=     0.248 Goal=   None    Shift=    0.000
 RMSDP=1.57D-04 MaxDP=4.73D-03 DE=-1.08D-03 OVMax= 3.76D-02

 Cycle   8  Pass 1  IDiag  1:
 Density matrix breaks symmetry, PCut= 1.00D-07
 Density matrix has no symmetry -- integrals replicated.
 E= -24.9555064705606     Delta-E=       -0.000275852934 Rises=F Damp=F
 DIIS: error= 3.56D-04 at cycle   8 NSaved=   8.
 NSaved= 8 IEnMin= 8 EnMin= -24.9555064705606     IErMin= 8 ErrMin= 3.56D-04
 ErrMax= 3.56D-04  0.00D+00 EMaxC= 1.00D-01 BMatC= 1.36D-05 BMatP= 6.04D-05
 IDIUse=3 WtCom= 9.96D-01 WtEn= 3.56D-03
 Coeff-Com: -0.227D-01 0.424D-01 0.543D-01-0.210D+00 0.229D+00 0.663D-01
 Coeff-Com: -0.476D+00 0.132D+01
 Coeff-En:   0.000D+00 0.000D+00 0.000D+00 0.000D+00 0.000D+00 0.000D+00
 Coeff-En:   0.000D+00 0.100D+01
 Coeff:     -0.226D-01 0.423D-01 0.541D-01-0.209D+00 0.228D+00 0.660D-01
 Coeff:     -0.474D+00 0.132D+01
 Gap=     0.248 Goal=   None    Shift=    0.000
 Gap=     0.248 Goal=   None    Shift=    0.000
 RMSDP=4.86D-05 MaxDP=1.27D-03 DE=-2.76D-04 OVMax= 1.00D-02

 Cycle   9  Pass 1  IDiag  1:
 Density matrix breaks symmetry, PCut= 1.00D-07
 Density matrix has no symmetry -- integrals replicated.
 E= -24.9555360957996     Delta-E=       -0.000029625239 Rises=F Damp=F
 DIIS: error= 2.46D-04 at cycle   9 NSaved=   9.
 NSaved= 9 IEnMin= 9 EnMin= -24.9555360957996     IErMin= 9 ErrMin= 2.46D-04
 ErrMax= 2.46D-04  0.00D+00 EMaxC= 1.00D-01 BMatC= 3.34D-06 BMatP= 1.36D-05
 IDIUse=3 WtCom= 9.98D-01 WtEn= 2.46D-03
 Coeff-Com: -0.271D-02 0.465D-02 0.267D-02-0.146D-01-0.468D-01 0.144D+00
 Coeff-Com: -0.174D+00-0.239D-01 0.111D+01
 Coeff-En:   0.000D+00 0.000D+00 0.000D+00 0.000D+00 0.000D+00 0.000D+00
 Coeff-En:   0.000D+00 0.000D+00 0.100D+01
 Coeff:     -0.271D-02 0.464D-02 0.267D-02-0.145D-01-0.467D-01 0.144D+00
 Coeff:     -0.173D+00-0.238D-01 0.111D+01
 Gap=     0.249 Goal=   None    Shift=    0.000
 Gap=     0.249 Goal=   None    Shift=    0.000
 RMSDP=1.60D-05 MaxDP=4.23D-04 DE=-2.96D-05 OVMax= 3.28D-03

 Cycle  10  Pass 1  IDiag  1:
 Density matrix breaks symmetry, PCut= 1.00D-07
 Density matrix has no symmetry -- integrals replicated.
 E= -24.9555439414285     Delta-E=       -0.000007845629 Rises=F Damp=F
 DIIS: error= 2.11D-04 at cycle  10 NSaved=  10.
 NSaved=10 IEnMin=10 EnMin= -24.9555439414285     IErMin=10 ErrMin= 2.11D-04
 ErrMax= 2.11D-04  0.00D+00 EMaxC= 1.00D-01 BMatC= 1.75D-06 BMatP= 3.34D-06
 IDIUse=3 WtCom= 9.98D-01 WtEn= 2.11D-03
 Coeff-Com: -0.643D-02 0.122D-01 0.290D-02-0.349D-01 0.126D+00-0.138D+00
 Coeff-Com:  0.544D-01 0.239D+00-0.204D+01 0.278D+01
 Coeff-En:   0.000D+00 0.000D+00 0.000D+00 0.000D+00 0.000D+00 0.000D+00
 Coeff-En:   0.000D+00 0.000D+00 0.000D+00 0.100D+01
 Coeff:     -0.642D-02 0.122D-01 0.289D-02-0.348D-01 0.126D+00-0.138D+00
 Coeff:      0.543D-01 0.238D+00-0.203D+01 0.278D+01
 Gap=     0.249 Goal=   None    Shift=    0.000
 Gap=     0.249 Goal=   None    Shift=    0.000
 RMSDP=2.32D-05 MaxDP=8.01D-04 DE=-7.85D-06 OVMax= 3.92D-03

 Cycle  11  Pass 1  IDiag  1:
 Density matrix breaks symmetry, PCut= 1.00D-07
 Density matrix has no symmetry -- integrals replicated.
 E= -24.9555529267668     Delta-E=       -0.000008985338 Rises=F Damp=F
 DIIS: error= 1.76D-04 at cycle  11 NSaved=  11.
 NSaved=11 IEnMin=11 EnMin= -24.9555529267668     IErMin=11 ErrMin= 1.76D-04
 ErrMax= 1.76D-04  0.00D+00 EMaxC= 1.00D-01 BMatC= 1.31D-06 BMatP= 1.75D-06
 IDIUse=3 WtCom= 9.98D-01 WtEn= 1.76D-03
 Coeff-Com: -0.209D-02 0.446D-02 0.530D-02-0.428D-02 0.568D-01-0.117D+00
 Coeff-Com:  0.272D-01 0.641D+00 0.103D+01-0.708D+01 0.645D+01
 Coeff-En:   0.000D+00 0.000D+00 0.000D+00 0.000D+00 0.000D+00 0.000D+00
 Coeff-En:   0.000D+00 0.000D+00 0.000D+00 0.000D+00 0.100D+01
 Coeff:     -0.209D-02 0.445D-02 0.529D-02-0.427D-02 0.567D-01-0.116D+00
 Coeff:      0.271D-01 0.640D+00 0.102D+01-0.707D+01 0.644D+01
 Gap=     0.248 Goal=   None    Shift=    0.000
 Gap=     0.248 Goal=   None    Shift=    0.000
 RMSDP=9.06D-05 MaxDP=3.66D-03 DE=-8.99D-06 OVMax= 1.21D-02

 Cycle  12  Pass 1  IDiag  1:
 Density matrix breaks symmetry, PCut= 1.00D-07
 Density matrix has no symmetry -- integrals replicated.
 E= -24.9555714179971     Delta-E=       -0.000018491230 Rises=F Damp=F
 DIIS: error= 3.91D-05 at cycle  12 NSaved=  12.
 NSaved=12 IEnMin=12 EnMin= -24.9555714179971     IErMin=12 ErrMin= 3.91D-05
 ErrMax= 3.91D-05  0.00D+00 EMaxC= 1.00D-01 BMatC= 2.41D-07 BMatP= 1.31D-06
 IDIUse=1 WtCom= 1.00D+00 WtEn= 0.00D+00
 Coeff-Com:  0.773D-03-0.154D-02-0.241D-02 0.957D-02-0.236D-01 0.186D-01
 Coeff-Com:  0.388D-01-0.274D+00 0.305D+00 0.125D+01-0.187D+01 0.156D+01
 Coeff:      0.773D-03-0.154D-02-0.241D-02 0.957D-02-0.236D-01 0.186D-01
 Coeff:      0.388D-01-0.274D+00 0.305D+00 0.125D+01-0.187D+01 0.156D+01
 Gap=     0.249 Goal=   None    Shift=    0.000
 Gap=     0.249 Goal=   None    Shift=    0.000
 RMSDP=2.29D-05 MaxDP=1.04D-03 DE=-1.85D-05 OVMax= 3.34D-03

 Cycle  13  Pass 1  IDiag  1:
 Density matrix breaks symmetry, PCut= 1.00D-07
 Density matrix has no symmetry -- integrals replicated.
 E= -24.9555724465619     Delta-E=       -0.000001028565 Rises=F Damp=F
 DIIS: error= 4.75D-06 at cycle  13 NSaved=  13.
 NSaved=13 IEnMin=13 EnMin= -24.9555724465619     IErMin=13 ErrMin= 4.75D-06
 ErrMax= 4.75D-06  0.00D+00 EMaxC= 1.00D-01 BMatC= 2.60D-09 BMatP= 2.41D-07
 IDIUse=1 WtCom= 1.00D+00 WtEn= 0.00D+00
 Coeff-Com: -0.107D-03 0.230D-03-0.235D-03 0.892D-04 0.568D-02-0.103D-01
 Coeff-Com: -0.548D-03 0.501D-01-0.767D-01-0.233D+00 0.399D+00-0.414D+00
 Coeff-Com:  0.128D+01
 Coeff:     -0.107D-03 0.230D-03-0.235D-03 0.892D-04 0.568D-02-0.103D-01
 Coeff:     -0.548D-03 0.501D-01-0.767D-01-0.233D+00 0.399D+00-0.414D+00
 Coeff:      0.128D+01
 Gap=     0.249 Goal=   None    Shift=    0.000
 Gap=     0.249 Goal=   None    Shift=    0.000
 RMSDP=5.77D-07 MaxDP=1.63D-05 DE=-1.03D-06 OVMax= 8.70D-05

 Cycle  14  Pass 1  IDiag  1:
 Density matrix breaks symmetry, PCut= 1.00D-07
 Density matrix has no symmetry -- integrals replicated.
 E= -24.9555724501456     Delta-E=       -0.000000003584 Rises=F Damp=F
 DIIS: error= 4.71D-07 at cycle  14 NSaved=  14.
 NSaved=14 IEnMin=14 EnMin= -24.9555724501456     IErMin=14 ErrMin= 4.71D-07
 ErrMax= 4.71D-07  0.00D+00 EMaxC= 1.00D-01 BMatC= 2.93D-11 BMatP= 2.60D-09
 IDIUse=1 WtCom= 1.00D+00 WtEn= 0.00D+00
 Coeff-Com:  0.370D-04-0.749D-04 0.451D-04 0.743D-04-0.155D-02 0.252D-02
 Coeff-Com:  0.500D-03-0.122D-01 0.205D-01 0.537D-01-0.975D-01 0.114D+00
 Coeff-Com: -0.406D+00 0.133D+01
 Coeff:      0.370D-04-0.749D-04 0.451D-04 0.743D-04-0.155D-02 0.252D-02
 Coeff:      0.500D-03-0.122D-01 0.205D-01 0.537D-01-0.975D-01 0.114D+00
 Coeff:     -0.406D+00 0.133D+01
 Gap=     0.249 Goal=   None    Shift=    0.000
 Gap=     0.249 Goal=   None    Shift=    0.000
 RMSDP=2.04D-07 MaxDP=7.01D-06 DE=-3.58D-09 OVMax= 3.08D-05

 Cycle  15  Pass 1  IDiag  1:
 Density matrix breaks symmetry, PCut= 1.00D-07
 Density matrix has no symmetry -- integrals replicated.
 E= -24.9555724502372     Delta-E=       -0.000000000092 Rises=F Damp=F
 DIIS: error= 2.24D-07 at cycle  15 NSaved=  15.
 NSaved=15 IEnMin=15 EnMin= -24.9555724502372     IErMin=15 ErrMin= 2.24D-07
 ErrMax= 2.24D-07  0.00D+00 EMaxC= 1.00D-01 BMatC= 7.71D-12 BMatP= 2.93D-11
 IDIUse=1 WtCom= 1.00D+00 WtEn= 0.00D+00
 Coeff-Com:  0.528D-05-0.795D-05-0.559D-04 0.162D-03 0.221D-03-0.756D-03
 Coeff-Com:  0.338D-03 0.124D-02-0.717D-03-0.137D-01 0.192D-01-0.209D-01
 Coeff-Com:  0.801D-01-0.514D+00 0.145D+01
 Coeff:      0.528D-05-0.795D-05-0.559D-04 0.162D-03 0.221D-03-0.756D-03
 Coeff:      0.338D-03 0.124D-02-0.717D-03-0.137D-01 0.192D-01-0.209D-01
 Coeff:      0.801D-01-0.514D+00 0.145D+01
 Gap=     0.249 Goal=   None    Shift=    0.000
 Gap=     0.249 Goal=   None    Shift=    0.000
 RMSDP=2.12D-08 MaxDP=5.31D-07 DE=-9.15D-11 OVMax= 2.75D-06

 Cycle  16  Pass 1  IDiag  1:
 Density matrix breaks symmetry, PCut= 1.00D-07
 Density matrix has no symmetry -- integrals replicated.
 E= -24.9555724502455     Delta-E=       -0.000000000008 Rises=F Damp=F
 DIIS: error= 8.12D-08 at cycle  16 NSaved=  16.
 NSaved=16 IEnMin=16 EnMin= -24.9555724502455     IErMin=16 ErrMin= 8.12D-08
 ErrMax= 8.12D-08  0.00D+00 EMaxC= 1.00D-01 BMatC= 9.23D-13 BMatP= 7.71D-12
 IDIUse=1 WtCom= 1.00D+00 WtEn= 0.00D+00
 Coeff-Com: -0.195D-05 0.362D-05 0.987D-05-0.281D-04 0.325D-04-0.184D-04
 Coeff-Com:  0.823D-05 0.452D-03-0.673D-03-0.179D-02 0.304D-02-0.197D-02
 Coeff-Com:  0.332D-02 0.787D-01-0.593D+00 0.151D+01
 Coeff:     -0.195D-05 0.362D-05 0.987D-05-0.281D-04 0.325D-04-0.184D-04
 Coeff:      0.823D-05 0.452D-03-0.673D-03-0.179D-02 0.304D-02-0.197D-02
 Coeff:      0.332D-02 0.787D-01-0.593D+00 0.151D+01
 Gap=     0.249 Goal=   None    Shift=    0.000
 Gap=     0.249 Goal=   None    Shift=    0.000
 RMSDP=1.94D-08 MaxDP=5.31D-07 DE=-8.32D-12 OVMax= 3.65D-06

 Cycle  17  Pass 1  IDiag  1:
 Density matrix breaks symmetry, PCut= 1.00D-07
 Density matrix has no symmetry -- integrals replicated.
 E= -24.9555724502477     Delta-E=       -0.000000000002 Rises=F Damp=F
 DIIS: error= 1.23D-08 at cycle  17 NSaved=  17.
 NSaved=17 IEnMin=17 EnMin= -24.9555724502477     IErMin=17 ErrMin= 1.23D-08
 ErrMax= 1.23D-08  0.00D+00 EMaxC= 1.00D-01 BMatC= 1.24D-14 BMatP= 9.23D-13
 IDIUse=1 WtCom= 1.00D+00 WtEn= 0.00D+00
 Coeff-Com:  0.337D-06-0.534D-06-0.260D-05 0.556D-05 0.483D-05-0.136D-04
 Coeff-Com: -0.139D-05-0.816D-04-0.103D-03 0.935D-03-0.977D-03 0.369D-03
 Coeff-Com:  0.294D-04-0.234D-01 0.188D+00-0.627D+00 0.146D+01
 Coeff:      0.337D-06-0.534D-06-0.260D-05 0.556D-05 0.483D-05-0.136D-04
 Coeff:     -0.139D-05-0.816D-04-0.103D-03 0.935D-03-0.977D-03 0.369D-03
 Coeff:      0.294D-04-0.234D-01 0.188D+00-0.627D+00 0.146D+01
 Gap=     0.249 Goal=   None    Shift=    0.000
 Gap=     0.249 Goal=   None    Shift=    0.000
 RMSDP=7.31D-09 MaxDP=2.78D-07 DE=-2.20D-12 OVMax= 1.09D-06

 Density matrix breaks symmetry, PCut= 1.00D-07
 Density matrix has no symmetry -- integrals replicated.
 SCF Done:  E(UHF) =  -24.9555724502     A.U. after   17 cycles
            NFock= 17  Conv=0.73D-08     -V/T= 2.0084
 <Sx>= 0.0000 <Sy>= 0.0000 <Sz>= 0.0000 <S**2>= 0.1416 S= 0.1257
 <L.S>=  0.00000000000    
 KE= 2.474696806969D+01 PE=-5.898413077050D+01 EE= 8.399628232370D+00
 Annihilation of the first spin contaminant:
 S**2 before annihilation     0.1416,   after     0.0016
 Leave Link  502 at Sun May 22 21:07:16 2022, MaxMem=   104857600 cpu:               3.8 elap:               3.8
 (Enter /apps/software/g16/l601.exe)
 Copying SCF densities to generalized density rwf, IOpCl= 1 IROHF=0.
 SCF density gives NOpUse=  1 NOpAll=  4.
 Marking SCF density as not fully symmetric.

 **********************************************************************

            Population analysis using the SCF density.

 **********************************************************************

 Orbital symmetries:
 Alpha Orbitals:
       Occupied  (SG) (?A) (?A)
       Virtual   (?A) (?A) (?A) (?A) (?A) (?A) (SG) (SG) (?B) (?B)
                 (?B) (?B) (SG) (?C) (?C) (?C) (?C) (?C) (?C) (SG)
                 (?D) (?D) (?D) (?D) (?D) (?D) (?D) (?D) (SG) (PI)
                 (PI) (SG) (SG) (DLTA) (DLTA) (PI) (PI) (SG) (PI)
                 (PI) (?E) (?E) (?E) (SG) (?F) (?F) (?F) (?F) (?F)
                 (?F) (?F) (?F) (?F) (?F) (?F) (?F) (?F) (?F) (?F)
                 (?F) (?F) (?F) (SG) (PI) (PI) (PHI) (PHI) (SG)
                 (DLTA) (DLTA) (SG) (PI) (PI) (SG) (DLTA) (DLTA)
                 (PI) (PI) (PI) (PI) (SG) (SG) (PI) (PI) (SG) (?G)
                 (?G) (?G) (?G) (?G) (?G) (?G) (?G) (?H) (?H) (?H)
                 (?I) (?I) (?I) (?I) (?I) (?I) (PI) (PI) (SG) (SG)
                 (PHI) (PHI) (DLTA) (DLTA) (PI) (PI) (SG) (SG)
                 (PI) (PI) (SG) (DLTA) (DLTA) (PI) (PI) (SG) (SG)
 Beta  Orbitals:
       Occupied  (SG) (?A) (?A)
       Virtual   (?A) (?A) (?A) (?A) (?A) (?A) (SG) (SG) (?B) (?B)
                 (?B) (?B) (SG) (?C) (?C) (?C) (?C) (?C) (?C) (SG)
                 (?D) (?D) (?D) (?D) (?D) (?D) (?D) (?D) (SG) (PI)
                 (PI) (SG) (SG) (DLTA) (DLTA) (PI) (PI) (SG) (PI)
                 (PI) (?E) (?E) (?E) (SG) (?F) (?F) (?F) (?F) (?F)
                 (?F) (?F) (?F) (?F) (?F) (?F) (?F) (?F) (?F) (?F)
                 (?F) (?F) (?F) (SG) (PI) (PI) (PHI) (PHI) (SG)
                 (DLTA) (DLTA) (SG) (PI) (PI) (SG) (DLTA) (DLTA)
                 (PI) (PI) (PI) (PI) (SG) (SG) (PI) (PI) (SG) (?G)
                 (?G) (?G) (?G) (?G) (?G) (?G) (?G) (?H) (?H) (?H)
                 (?I) (?I) (?I) (?I) (?I) (?I) (PI) (PI) (SG) (SG)
                 (PHI) (PHI) (DLTA) (DLTA) (PI) (PI) (SG) (SG)
                 (PI) (PI) (SG) (DLTA) (DLTA) (PI) (PI) (SG) (SG)
 Unable to determine electronic state:  an orbital has unidentified symmetry.
 Alpha  occ. eigenvalues --   -7.85115  -0.59120  -0.27660
 Alpha virt. eigenvalues --   -0.02805  -0.01897  -0.00996   0.03401   0.05185
 Alpha virt. eigenvalues --    0.05284   0.07054   0.08614   0.13181   0.13182
 Alpha virt. eigenvalues --    0.13651   0.13687   0.16838   0.25279   0.25358
 Alpha virt. eigenvalues --    0.27856   0.28162   0.28846   0.29626   0.33774
 Alpha virt. eigenvalues --    0.43566   0.43566   0.44217   0.44217   0.45694
 Alpha virt. eigenvalues --    0.45719   0.46159   0.46209   0.47205   0.50196
 Alpha virt. eigenvalues --    0.50265   0.53397   0.60639   0.70932   0.70932
 Alpha virt. eigenvalues --    0.83381   0.83416   0.88111   0.88422   0.88433
 Alpha virt. eigenvalues --    0.92337   0.97155   0.97244   1.14255   1.32241
 Alpha virt. eigenvalues --    1.32241   1.32548   1.32550   1.32855   1.33102
 Alpha virt. eigenvalues --    1.33103   1.33452   1.33456   1.34281   1.34394
 Alpha virt. eigenvalues --    1.35360   1.36371   1.36544   1.37844   1.37844
 Alpha virt. eigenvalues --    1.39814   1.39815   1.45435   1.48937   1.49090
 Alpha virt. eigenvalues --    1.63816   1.63816   1.68786   1.72737   1.72737
 Alpha virt. eigenvalues --    1.83957   1.95211   1.95264   1.98035   2.56446
 Alpha virt. eigenvalues --    2.56446   2.67847   2.67855   2.69684   2.69692
 Alpha virt. eigenvalues --    2.77439   2.93599   3.62075   3.62249   3.76554
 Alpha virt. eigenvalues --    3.83566   3.83566   3.84527   3.84528   3.84821
 Alpha virt. eigenvalues --    3.84821   3.85953   3.86156   3.87737   3.87744
 Alpha virt. eigenvalues --    3.89234   3.98771   3.98772   3.99274   3.99491
 Alpha virt. eigenvalues --    4.00557   4.00567   4.03847   4.04063   4.09431
 Alpha virt. eigenvalues --    4.23164   6.64572   6.64572   6.66731   6.66731
 Alpha virt. eigenvalues --    6.74024   6.74027   6.77638   7.60300   8.05684
 Alpha virt. eigenvalues --    8.05686   8.27210   8.49467   8.49467   8.56244
 Alpha virt. eigenvalues --    8.56246   8.65536  12.98383
  Beta  occ. eigenvalues --   -7.85115  -0.59120  -0.27660
  Beta virt. eigenvalues --   -0.02805  -0.01897  -0.00996   0.03401   0.05185
  Beta virt. eigenvalues --    0.05284   0.07054   0.08614   0.13181   0.13182
  Beta virt. eigenvalues --    0.13651   0.13687   0.16838   0.25279   0.25358
  Beta virt. eigenvalues --    0.27856   0.28162   0.28846   0.29626   0.33774
  Beta virt. eigenvalues --    0.43566   0.43566   0.44217   0.44217   0.45694
  Beta virt. eigenvalues --    0.45719   0.46159   0.46209   0.47205   0.50196
  Beta virt. eigenvalues --    0.50265   0.53397   0.60639   0.70932   0.70932
  Beta virt. eigenvalues --    0.83381   0.83416   0.88111   0.88422   0.88433
  Beta virt. eigenvalues --    0.92337   0.97155   0.97244   1.14255   1.32241
  Beta virt. eigenvalues --    1.32241   1.32548   1.32550   1.32855   1.33102
  Beta virt. eigenvalues --    1.33103   1.33452   1.33456   1.34281   1.34394
  Beta virt. eigenvalues --    1.35360   1.36371   1.36544   1.37844   1.37844
  Beta virt. eigenvalues --    1.39814   1.39815   1.45435   1.48937   1.49090
  Beta virt. eigenvalues --    1.63816   1.63816   1.68786   1.72737   1.72737
  Beta virt. eigenvalues --    1.83957   1.95211   1.95264   1.98035   2.56446
  Beta virt. eigenvalues --    2.56446   2.67847   2.67855   2.69684   2.69692
  Beta virt. eigenvalues --    2.77439   2.93599   3.62075   3.62249   3.76554
  Beta virt. eigenvalues --    3.83566   3.83566   3.84527   3.84528   3.84821
  Beta virt. eigenvalues --    3.84821   3.85953   3.86156   3.87737   3.87744
  Beta virt. eigenvalues --    3.89234   3.98771   3.98772   3.99274   3.99491
  Beta virt. eigenvalues --    4.00557   4.00567   4.03847   4.04063   4.09431
  Beta virt. eigenvalues --    4.23164   6.64572   6.64572   6.66731   6.66731
  Beta virt. eigenvalues --    6.74024   6.74027   6.77638   7.60300   8.05684
  Beta virt. eigenvalues --    8.05686   8.27210   8.49467   8.49467   8.56244
  Beta virt. eigenvalues --    8.56246   8.65536  12.98383
          Condensed to atoms (all electrons):
               1          2
     1  B    4.489058   0.214704
     2  H    0.214704   1.081534
          Atomic-Atomic Spin Densities.
               1          2
     1  B    0.000000   0.000000
     2  H    0.000000   0.000000
 Mulliken charges and spin densities:
               1          2
     1  B    0.296238   0.000000
     2  H   -0.296238   0.000000
 Sum of Mulliken charges =  -0.00000   0.00000
 Mulliken charges and spin densities with hydrogens summed into heavy atoms:
               1          2
     1  B   -0.000000   0.000000
 Electronic spatial extent (au):  <R**2>=             53.5017
 Charge=             -0.0000 electrons
 Dipole moment (field-independent basis, Debye):
    X=              0.0000    Y=             -0.0000    Z=              5.1051  Tot=              5.1051
 Quadrupole moment (field-independent basis, Debye-Ang):
   XX=             -8.7625   YY=             -8.5137   ZZ=            -18.6614
   XY=              0.0000   XZ=              0.0000   YZ=             -0.0000
 Traceless Quadrupole moment (field-independent basis, Debye-Ang):
   XX=              3.2167   YY=              3.4655   ZZ=             -6.6822
   XY=              0.0000   XZ=              0.0000   YZ=             -0.0000
 Octapole moment (field-independent basis, Debye-Ang**2):
  XXX=              0.0000  YYY=             -0.0000  ZZZ=             29.5139  XYY=              0.0000
  XXY=              0.0000  XXZ=              5.4218  XZZ=              0.0000  YZZ=             -0.0000
  YYZ=              5.5820  XYZ=              0.0000
 Hexadecapole moment (field-independent basis, Debye-Ang**3):
 XXXX=            -16.6687 YYYY=            -15.9409 ZZZZ=           -169.9334 XXXY=              0.0000
 XXXZ=              0.0000 YYYX=              0.0000 YYYZ=              0.0000 ZZZX=              0.0000
 ZZZY=              0.0000 XXYY=             -5.4350 XXZZ=            -26.1402 YYZZ=            -25.9160
 XXYZ=             -0.0000 YYXZ=              0.0000 ZZXY=              0.0000
 N-N= 8.819620182000D-01 E-N=-5.898413091122D+01  KE= 2.474696806969D+01
 Symmetry A1   KE= 2.468714004148D+01
 Symmetry A2   KE= 2.265209924014D-30
 Symmetry B1   KE= 5.982802821067D-02
 Symmetry B2   KE= 1.891239370619D-29
 Symmetry A1   SP= 0.000000000000D+00
 Symmetry A2   SP= 0.000000000000D+00
 Symmetry B1   SP= 0.000000000000D+00
 Symmetry B2   SP= 0.000000000000D+00
                          Isotropic Fermi Contact Couplings
        Atom                 a.u.       MegaHertz       Gauss      10(-4) cm-1
     1  B(11)              0.00000       0.00000       0.00000       0.00000
     2  H(1)               0.00000       0.00000       0.00000       0.00000
 --------------------------------------------------------
       Center         ----  Spin Dipole Couplings  ----
                      3XX-RR        3YY-RR        3ZZ-RR
 --------------------------------------------------------
     1   Atom        0.000000      0.000000      0.000000
     2   Atom        0.000000      0.000000      0.000000
 --------------------------------------------------------
                        XY            XZ            YZ
 --------------------------------------------------------
     1   Atom        0.000000     -0.137825      0.000000
     2   Atom        0.000000      0.001265      0.000000
 --------------------------------------------------------


 ---------------------------------------------------------------------------------
              Anisotropic Spin Dipole Couplings in Principal Axis System
 ---------------------------------------------------------------------------------

       Atom             a.u.   MegaHertz   Gauss  10(-4) cm-1        Axes

              Baa    -0.1378   -23.598    -8.420    -7.871  0.7071 -0.0000  0.7071
     1 B(11)  Bbb     0.0000     0.000     0.000     0.000  0.0000  1.0000  0.0000
              Bcc     0.1378    23.598     8.420     7.871  0.7071  0.0000 -0.7071
 
              Baa    -0.0013    -0.675    -0.241    -0.225  0.7071 -0.0000 -0.7071
     2 H(1)   Bbb     0.0000     0.000     0.000     0.000 -0.0000  1.0000 -0.0000
              Bcc     0.0013     0.675     0.241     0.225  0.7071  0.0000  0.7071
 

 ---------------------------------------------------------------------------------

 No NMR shielding tensors so no spin-rotation constants.
 Leave Link  601 at Sun May 22 21:07:16 2022, MaxMem=   104857600 cpu:               0.3 elap:               0.2
 (Enter /apps/software/g16/l801.exe)
 Range of M.O.s used for correlation:     1   126
 NBasis=   126 NAE=     3 NBE=     3 NFC=     0 NFV=     0
 NROrb=    126 NOA=     3 NOB=     3 NVA=   123 NVB=   123
 Leave Link  801 at Sun May 22 21:07:16 2022, MaxMem=   104857600 cpu:               0.0 elap:               0.0
 (Enter /apps/software/g16/l914.exe)
 UHF ground state
 Doing stability rather than CIS.
 Keep R1 and R2 ints in memory in symmetry-blocked form, NReq=40144005.
 FoFCou: FMM=F IPFlag=           0 FMFlag=           0 FMFlg1=           0
         NFxFlg=           0 DoJE=F BraDBF=F KetDBF=F FulRan=T
         wScrn=  0.000000 ICntrl=       600 IOpCl=  0 I1Cent=           0 NGrid=           0
         NMat0=    1 NMatS0=   8001 NMatT0=    0 NMatD0=    1 NMtDS0=    0 NMtDT0=    0
 Petite list used in FoFCou.
 MDV=   104857600 DFT=F DoStab=T Mixed=F DoRPA=F DoScal=F NonHer=F
 Making orbital integer symmetry assigments:
 Orbital symmetries:
 Alpha Orbitals:
       Occupied  (SG) (?A) (?A)
       Virtual   (?A) (?A) (?A) (?A) (?A) (?A) (SG) (SG) (?B) (?B)
                 (?B) (?B) (SG) (?C) (?C) (?C) (?C) (?C) (?C) (SG)
                 (?D) (?D) (?D) (?D) (?D) (?D) (?D) (?D) (SG) (PI)
                 (PI) (SG) (SG) (DLTA) (DLTA) (PI) (PI) (SG) (PI)
                 (PI) (?E) (?E) (?E) (SG) (?F) (?F) (?F) (?F) (?F)
                 (?F) (?F) (?F) (?F) (?F) (?F) (?F) (?F) (?F) (?F)
                 (?F) (?F) (?F) (SG) (PI) (PI) (PHI) (PHI) (SG)
                 (DLTA) (DLTA) (SG) (PI) (PI) (SG) (DLTA) (DLTA)
                 (PI) (PI) (PI) (PI) (SG) (SG) (PI) (PI) (SG) (?G)
                 (?G) (?G) (?G) (?G) (?G) (?G) (?G) (?H) (?H) (?H)
                 (?I) (?I) (?I) (?I) (?I) (?I) (PI) (PI) (SG) (SG)
                 (PHI) (PHI) (DLTA) (DLTA) (PI) (PI) (SG) (SG)
                 (PI) (PI) (SG) (DLTA) (DLTA) (PI) (PI) (SG) (SG)
 Beta  Orbitals:
       Occupied  (SG) (?A) (?A)
       Virtual   (?A) (?A) (?A) (?A) (?A) (?A) (SG) (SG) (?B) (?B)
                 (?B) (?B) (SG) (?C) (?C) (?C) (?C) (?C) (?C) (SG)
                 (?D) (?D) (?D) (?D) (?D) (?D) (?D) (?D) (SG) (PI)
                 (PI) (SG) (SG) (DLTA) (DLTA) (PI) (PI) (SG) (PI)
                 (PI) (?E) (?E) (?E) (SG) (?F) (?F) (?F) (?F) (?F)
                 (?F) (?F) (?F) (?F) (?F) (?F) (?F) (?F) (?F) (?F)
                 (?F) (?F) (?F) (SG) (PI) (PI) (PHI) (PHI) (SG)
                 (DLTA) (DLTA) (SG) (PI) (PI) (SG) (DLTA) (DLTA)
                 (PI) (PI) (PI) (PI) (SG) (SG) (PI) (PI) (SG) (?G)
                 (?G) (?G) (?G) (?G) (?G) (?G) (?G) (?H) (?H) (?H)
                 (?I) (?I) (?I) (?I) (?I) (?I) (PI) (PI) (SG) (SG)
                 (PHI) (PHI) (DLTA) (DLTA) (PI) (PI) (SG) (SG)
                 (PI) (PI) (SG) (DLTA) (DLTA) (PI) (PI) (SG) (SG)
    12 initial guesses have been made.
 Convergence on wavefunction:    0.001000000000000
 Davidson Disk Diagonalization:  ConvIn= 1.00D-03 SkipCon=T Conv= 1.00D-03.
 Max sub-space:  1476 roots to seek:    12 dimension of matrix:          738
 Iteration     1 Dimension    12 NMult     0 NNew     12
 CISAX will form    12 AO SS matrices at one time.
 NMat=    12 NSing=    12 JSym2X= 2.
 New state      1 was old state      5
 Excitation Energies [eV] at current iteration:
 Root      1 :    -3.187401507872507
 Root      2 :     1.260290447110792
 Root      3 :     1.576719499897610
 Root      4 :     1.865230993868342
 Root      5 :     1.930353603812211
 Root      6 :     5.247354868231936
 Root      7 :     5.249949312690711
 Root      8 :     5.938850231568196
 Root      9 :     5.983261110160757
 Root     10 :     6.117998946124411
 Root     11 :     6.132637393676116
 Root     12 :     8.883222477039606
 Iteration     2 Dimension    24 NMult    12 NNew     12
 CISAX will form    12 AO SS matrices at one time.
 NMat=    12 NSing=    12 JSym2X= 2.
 Root      1 not converged, maximum delta is    0.097646865014772
 Excitation Energies [eV] at current iteration:
 Root      1 :    -4.840347054787228   Change is   -1.652945546914721
 Root      2 :     0.555694138583467   Change is   -0.704596308527325
 Root      3 :     0.911839048834030   Change is   -0.664880451063580
 Root      4 :     1.442061542471226   Change is   -0.488292061340985
 Root      5 :     1.462561212940264   Change is   -0.402669780928079
 Root      6 :     4.815654254999289   Change is   -0.434295057691422
 Root      7 :     4.854911402421909   Change is   -0.392443465810027
 Root      8 :     5.428725601021184   Change is   -0.510124630547013
 Root      9 :     5.461612167358376   Change is   -0.521648942802381
 Root     10 :     5.684208290908250   Change is   -0.433790655216160
 Root     11 :     5.700830077140060   Change is   -0.431807316536056
 Root     12 :     6.732401935999700   Change is   -2.150820541039906
 Iteration     3 Dimension    27 NMult    24 NNew      3
 CISAX will form     3 AO SS matrices at one time.
 NMat=     3 NSing=     3 JSym2X= 2.
 Root      1 not converged, maximum delta is    0.020414471313640
 Excitation Energies [eV] at current iteration:
 Root      1 :    -4.903329489070509   Change is   -0.062982434283282
 Root      2 :     0.359401413451893   Change is   -0.196292725131574
 Root      3 :     0.793243057903822   Change is   -0.118595990930209
 Iteration     4 Dimension    30 NMult    27 NNew      3
 CISAX will form     3 AO SS matrices at one time.
 NMat=     3 NSing=     3 JSym2X= 2.
 Root      1 not converged, maximum delta is    0.001519597235913
 Excitation Energies [eV] at current iteration:
 Root      1 :    -4.904146815556357   Change is   -0.000817326485848
 Root      2 :     0.028869547314681   Change is   -0.330531866137212
 Root      3 :     0.568088212770941   Change is   -0.225154845132881
 Iteration     5 Dimension    33 NMult    30 NNew      3
 CISAX will form     3 AO SS matrices at one time.
 NMat=     3 NSing=     3 JSym2X= 2.
 Root      1 has converged.
 Excitation Energies [eV] at current iteration:
 Root      1 :    -4.904156557088552   Change is   -0.000009741532195
 Root      2 :     0.001732338921056   Change is   -0.027137208393625
 Root      3 :     0.528371346557051   Change is   -0.039716866213889
 Convergence achieved on expansion vectors.
 ***********************************************************************
 Stability analysis using <AA,BB:AA,BB> singles matrix:
 ***********************************************************************
 1PDM for each excited state written to RWF  633
 Ground to excited state transition densities written to RWF  633

 Eigenvectors of the stability matrix:
 
 Excited state symmetry could not be determined.
 Eigenvector   1:  2.963-?Sym  Eigenvalue=-0.1802244  <S**2>=1.945
      3A ->  4A        0.55914
      3A ->  6A        0.30420
      3A ->  7A       -0.20316
      3A -> 16A       -0.12270
      3B ->  4B       -0.55914
      3B ->  6B       -0.30420
      3B ->  7B        0.20316
      3B -> 16B        0.12270
 The wavefunction has an internal instability.
 Leave Link  914 at Sun May 22 21:07:20 2022, MaxMem=   104857600 cpu:               4.2 elap:               4.2
 (Enter /apps/software/g16/l508.exe)
 Keep R1 and R2 ints in memory in symmetry-blocked form, NReq=40144065.
 FoFCou: FMM=F IPFlag=           0 FMFlag=           0 FMFlg1=           0
         NFxFlg=           0 DoJE=F BraDBF=F KetDBF=F FulRan=T
         wScrn=  0.000000 ICntrl=       600 IOpCl=  0 I1Cent=           0 NGrid=           0
         NMat0=    1 NMatS0=   8001 NMatT0=    0 NMatD0=    1 NMtDS0=    0 NMtDT0=    0
 Petite list used in FoFCou.
 Tight linear equation convergence will be used.
 UHF wavefunction.
 Quadratic Convergence SCF Method.
 Line search only if initial step raises energy.
 Perform preliminary linear searches along instability eigenvector.
     ILin= 1 X=0.000D+00 Y=-2.495557245025D+01 DE= 0.00D+00
     ILin= 2 X=1.000D-01 Y=-2.495735696418D+01 DE=-1.78D-03
     ILin= 3 X=1.414D-01 Y=-2.495910623716D+01 DE=-3.53D-03
     ILin= 4 X=2.000D-01 Y=-2.496250026622D+01 DE=-6.93D-03
     ILin= 5 X=2.828D-01 Y=-2.496887858549D+01 DE=-1.33D-02
     ILin= 6 X=4.000D-01 Y=-2.498006147057D+01 DE=-2.45D-02
     ILin= 7 X=5.657D-01 Y=-2.499663147559D+01 DE=-4.11D-02
     ILin= 8 X=8.000D-01 Y=-2.501024391567D+01 DE=-5.47D-02
     ILin= 9 X=1.131D+00 Y=-2.498376025599D+01 DE=-2.82D-02
     An  expanding polynomial of degree  9 produced  0.8255
 Iteration F X= 8.255D-01 EE=-2.501040563841577D+01
     ILin= 1 X=0.000D+00 Y=-2.495557245025D+01 DE= 0.00D+00
     ILin= 2 X=1.000D-01 Y=-2.495735696555D+01 DE=-1.78D-03
     ILin= 3 X=1.414D-01 Y=-2.495910624101D+01 DE=-3.53D-03
 The two search directions are symmetric.
 Iteration B X= 8.255D-01 EE=-2.501040563841577D+01
 Take forward step, X= 8.255D-01 Step= 8.255D-01
 Iteration   1 EE= -25.0104053857560                                    Grad=8.709D-02 Max rot=    1.5404 deg.
 Gradient too large for Newton-Raphson -- use scaled steepest descent instead.
 Alpha Gap=     0.327 HL deriv= 8.23D-02
  Beta Gap=     0.484 HL deriv= 4.25D-02
     ILin= 1 X=0.000D+00 Y=-2.501040538576D+01 DE= 0.00D+00 F= -2.16D-02
     ILin= 2 X=3.000D-01 Y=-2.501638437693D+01 DE=-5.98D-03 F= -1.82D-02
     ILin= 3 X=5.000D-01 Y=-2.501978200894D+01 DE=-9.38D-03 F= -1.58D-02
     ILin= 4 X=8.000D-01 Y=-2.502395030828D+01 DE=-1.35D-02 F= -1.20D-02
     ILin= 5 X=1.300D+00 Y=-2.502828690757D+01 DE=-1.79D-02 F= -5.29D-03
     ILin= 6 X=2.100D+00 Y=-2.502798795139D+01 DE=-1.76D-02 F=  6.15D-03
     An  expanding polynomial of degree  6 produced  1.6759
 Iteration   2 EE= -25.0292867871286     Delta-E=       -0.018881401373 Grad=4.052D-02 Max rot=    0.7106 deg.
 Gradient too large for Newton-Raphson -- use scaled steepest descent instead.
 Alpha Gap=     0.359 HL deriv= 3.46D-02
  Beta Gap=     0.530 HL deriv= 2.07D-02
     ILin= 1 X=0.000D+00 Y=-2.502928678713D+01 DE= 0.00D+00 F= -4.33D-03
     ILin= 2 X=7.000D-01 Y=-2.503164824089D+01 DE=-2.36D-03 F= -2.40D-03
     ILin= 3 X=1.300D+00 Y=-2.503256885852D+01 DE=-3.28D-03 F= -6.58D-04
     ILin= 4 X=2.500D+00 Y=-2.503117612823D+01 DE=-1.89D-03 F=  3.02D-03
     An  expanding polynomial of degree  4 produced  1.5216
 Iteration   3 EE= -25.0326415351955     Delta-E=       -0.003354748067 Grad=2.023D-02 Max rot=    0.3773 deg.
 Gradient too large for Newton-Raphson -- use scaled steepest descent instead.
 Alpha Gap=     0.370 HL deriv= 1.13D-02
  Beta Gap=     0.547 HL deriv= 3.26D-03
     ILin= 1 X=0.000D+00 Y=-2.503264153520D+01 DE= 0.00D+00 F= -8.72D-04
     ILin= 2 X=1.600D+00 Y=-2.503333951878D+01 DE=-6.98D-04 F=  2.81D-06
     ILin= 3 X=3.200D+00 Y=-2.503262312595D+01 DE= 1.84D-05 F=  8.95D-04
     An  expanding polynomial of degree  3 produced  1.5896
     Minimum is close to point  2 DX= -1.04D-02 DF= -3.00D-08 DXR=  6.55D-03 DFR=  4.29D-05 which will be used.
 Iteration   4 EE= -25.0333395187840     Delta-E=       -0.000697983588 Grad=1.058D-02 Max rot=    0.2321 deg.
 Gradient too large for Newton-Raphson -- use scaled steepest descent instead.
 Alpha Gap=     0.373 HL deriv= 5.47D-03
  Beta Gap=     0.551 HL deriv= 3.71D-03
     ILin= 1 X=0.000D+00 Y=-2.503333951878D+01 DE= 0.00D+00 F= -2.43D-04
     ILin= 2 X=1.600D+00 Y=-2.503354057010D+01 DE=-2.01D-04 F= -7.76D-06
     ILin= 3 X=3.100D+00 Y=-2.503338522761D+01 DE=-4.57D-05 F=  2.15D-04
     An  expanding polynomial of degree  3 produced  1.6497
     Minimum is close to point  2 DX=  4.97D-02 DF= -1.83D-07 DXR=  3.01D-02 DFR=  9.09D-04 which will be used.
 Iteration   5 EE= -25.0335405701028     Delta-E=       -0.000201051319 Grad=6.689D-03 Max rot=    0.1399 deg.
 QCNR:  CnvC1=2.72D-09 CnvC2=2.72D-08
 LinEq1:  Iter=  0 NonCon=     1 RMS=2.98D-04 Max=3.04D-03 NDo=     1
 AX will form     1 AO Fock derivatives at one time.
 LinEq1:  Iter=  1 NonCon=     1 RMS=9.59D-05 Max=1.02D-03 NDo=     1
 LinEq1:  Iter=  2 NonCon=     1 RMS=1.59D-05 Max=1.89D-04 NDo=     1
 LinEq1:  Iter=  3 NonCon=     1 RMS=2.82D-06 Max=3.03D-05 NDo=     1
 LinEq1:  Iter=  4 NonCon=     1 RMS=6.65D-07 Max=9.34D-06 NDo=     1
 LinEq1:  Iter=  5 NonCon=     1 RMS=1.86D-07 Max=1.79D-06 NDo=     1
 LinEq1:  Iter=  6 NonCon=     1 RMS=3.09D-08 Max=4.45D-07 NDo=     1
 LinEq1:  Iter=  7 NonCon=     1 RMS=7.39D-09 Max=7.06D-08 NDo=     1
 LinEq1:  Iter=  8 NonCon=     0 RMS=1.01D-09 Max=8.45D-09 NDo=     1
 Linear equations converged to 2.717D-09 2.717D-08 after     8 iterations.
 Angle between quadratic step and gradient=  71.56 degrees.
     ILin= 1 X=0.000D+00 Y=-2.503354057010D+01 DE= 0.00D+00 F= -9.99D-04
     ILin= 2 X=1.000D+00 Y=-2.503400476436D+01 DE=-4.64D-04 F=  1.96D-04
     Accept linear search using points  1 and  2.
     An  expanding polynomial of degree  2 produced  0.8723
 Iteration   6 EE= -25.0340160694460     Delta-E=       -0.000475499343 Grad=6.377D-03 Max rot=    0.1654 deg.
 QCNR:  CnvC1=2.72D-09 CnvC2=2.72D-08
 LinEq1:  Iter=  0 NonCon=     1 RMS=2.01D-04 Max=2.66D-03 NDo=     1
 LinEq1:  Iter=  1 NonCon=     1 RMS=4.46D-05 Max=3.79D-04 NDo=     1
 LinEq1:  Iter=  2 NonCon=     1 RMS=1.17D-05 Max=9.88D-05 NDo=     1
 LinEq1:  Iter=  3 NonCon=     1 RMS=3.35D-06 Max=3.53D-05 NDo=     1
 LinEq1:  Iter=  4 NonCon=     1 RMS=6.92D-07 Max=6.05D-06 NDo=     1
 LinEq1:  Iter=  5 NonCon=     1 RMS=1.15D-07 Max=9.76D-07 NDo=     1
 LinEq1:  Iter=  6 NonCon=     1 RMS=2.64D-08 Max=3.69D-07 NDo=     1
 LinEq1:  Iter=  7 NonCon=     1 RMS=8.34D-09 Max=8.91D-08 NDo=     1
 LinEq1:  Iter=  8 NonCon=     0 RMS=1.66D-09 Max=1.70D-08 NDo=     1
 Linear equations converged to 2.717D-09 2.717D-08 after     8 iterations.
 Angle between quadratic step and gradient=  70.27 degrees.
     ILin= 1 X=0.000D+00 Y=-2.503401606945D+01 DE= 0.00D+00 F= -1.64D-04
     ILin= 2 X=1.000D+00 Y=-2.503409908697D+01 DE=-8.30D-05 F= -4.38D-06
     Reject lnstep minimum 1.029D+00 FVal=-2.503409914956D+01 Lims=  0.00D+00  1.00D+00
     ILin= 3 X=2.000D+00 Y=-2.503402807215D+01 DE=-1.20D-05 F=  1.45D-04
     An  expanding polynomial of degree  3 produced  1.0390
     Minimum is close to point  2 DX=  3.90D-02 DF= -1.17D-07 DXR=  3.75D-02 DFR=  1.41D-03 which will be used.
 Iteration   7 EE= -25.0340990869714     Delta-E=       -0.000083017525 Grad=2.448D-03 Max rot=    0.0640 deg.
 QCNR:  CnvC1=2.72D-09 CnvC2=2.72D-08
 LinEq1:  Iter=  0 NonCon=     1 RMS=2.77D-05 Max=2.58D-04 NDo=     1
 LinEq1:  Iter=  1 NonCon=     1 RMS=8.99D-06 Max=1.13D-04 NDo=     1
 LinEq1:  Iter=  2 NonCon=     1 RMS=2.60D-06 Max=2.91D-05 NDo=     1
 LinEq1:  Iter=  3 NonCon=     1 RMS=5.64D-07 Max=4.72D-06 NDo=     1
 LinEq1:  Iter=  4 NonCon=     1 RMS=1.07D-07 Max=9.74D-07 NDo=     1
 LinEq1:  Iter=  5 NonCon=     1 RMS=1.96D-08 Max=2.39D-07 NDo=     1
 LinEq1:  Iter=  6 NonCon=     1 RMS=3.81D-09 Max=3.07D-08 NDo=     1
 LinEq1:  Iter=  7 NonCon=     0 RMS=6.30D-10 Max=6.24D-09 NDo=     1
 Linear equations converged to 2.717D-09 2.717D-08 after     7 iterations.
 Angle between quadratic step and gradient=  86.80 degrees.
     ILin= 1 X=0.000D+00 Y=-2.503409908697D+01 DE= 0.00D+00 F= -1.59D-05
     ILin= 2 X=1.000D+00 Y=-2.503410685426D+01 DE=-7.77D-06 F=  6.60D-07
     Accept linear search using points  1 and  2.
     An  expanding polynomial of degree  2 produced  0.9620
     Minimum is close to point  2 DX= -3.80D-02 DF= -1.25D-08 DXR=  3.95D-02 DFR=  1.61D-03 which will be used.
 Iteration   8 EE= -25.0341068542617     Delta-E=       -0.000007767290 Grad=3.719D-04 Max rot=    0.0057 deg.
 QCNR:  CnvC1=2.72D-09 CnvC2=2.72D-08
 LinEq1:  Iter=  0 NonCon=     1 RMS=9.50D-06 Max=9.62D-05 NDo=     1
 LinEq1:  Iter=  1 NonCon=     1 RMS=1.11D-06 Max=1.49D-05 NDo=     1
 LinEq1:  Iter=  2 NonCon=     1 RMS=2.97D-07 Max=2.29D-06 NDo=     1
 LinEq1:  Iter=  3 NonCon=     1 RMS=6.90D-08 Max=5.47D-07 NDo=     1
 LinEq1:  Iter=  4 NonCon=     1 RMS=2.25D-08 Max=1.77D-07 NDo=     1
 LinEq1:  Iter=  5 NonCon=     1 RMS=3.15D-09 Max=2.27D-08 NDo=     1
 LinEq1:  Iter=  6 NonCon=     0 RMS=5.69D-10 Max=5.12D-09 NDo=     1
 Linear equations converged to 2.717D-09 2.717D-08 after     6 iterations.
 Angle between quadratic step and gradient=  53.20 degrees.
     ILin= 1 X=0.000D+00 Y=-2.503410685426D+01 DE= 0.00D+00 F= -2.65D-07
     ILin= 2 X=1.000D+00 Y=-2.503410698657D+01 DE=-1.32D-07 F=  4.86D-12
     Accept linear search using points  1 and  2.
     An  expanding polynomial of degree  2 produced  1.0000
     Minimum is close to point  2 DX= -1.84D-05 DF=  0.00D+00 DXR=  1.84D-05 DFR=  0.00D+00 which will be used.
 Iteration   9 EE= -25.0341069865722     Delta-E=       -0.000000132311 Grad=1.434D-05 Max rot=    0.0004 deg.
 QCNR:  CnvC1=1.43D-10 CnvC2=1.43D-09
 LinEq1:  Iter=  0 NonCon=     1 RMS=1.39D-07 Max=1.27D-06 NDo=     1
 LinEq1:  Iter=  1 NonCon=     1 RMS=4.93D-08 Max=7.09D-07 NDo=     1
 LinEq1:  Iter=  2 NonCon=     1 RMS=1.36D-08 Max=1.12D-07 NDo=     1
 LinEq1:  Iter=  3 NonCon=     1 RMS=2.27D-09 Max=1.95D-08 NDo=     1
 LinEq1:  Iter=  4 NonCon=     1 RMS=3.80D-10 Max=2.55D-09 NDo=     1
 LinEq1:  Iter=  5 NonCon=     0 RMS=8.52D-11 Max=9.16D-10 NDo=     1
 Linear equations converged to 1.434D-10 1.434D-09 after     5 iterations.
 Angle between quadratic step and gradient=  86.51 degrees.
     ILin= 1 X=0.000D+00 Y=-2.503410698657D+01 DE= 0.00D+00 F= -5.92D-10
     ILin= 2 X=1.000D+00 Y=-2.503410698686D+01 DE=-2.88D-10
 Iteration  10 EE= -25.0341069868604     Delta-E=       -0.000000000288 Grad=6.368D-06 Max rot=    0.0001 deg.
 QCNR:  CnvC1=6.37D-11 CnvC2=6.37D-10
 LinEq1:  Iter=  0 NonCon=     1 RMS=7.69D-08 Max=8.27D-07 NDo=     1
 LinEq1:  Iter=  1 NonCon=     1 RMS=2.84D-08 Max=2.49D-07 NDo=     1
 LinEq1:  Iter=  2 NonCon=     1 RMS=5.17D-09 Max=4.27D-08 NDo=     1
 LinEq1:  Iter=  3 NonCon=     1 RMS=1.19D-09 Max=1.34D-08 NDo=     1
 LinEq1:  Iter=  4 NonCon=     1 RMS=2.37D-10 Max=1.65D-09 NDo=     1
 LinEq1:  Iter=  5 NonCon=     1 RMS=6.50D-11 Max=8.02D-10 NDo=     1
 LinEq1:  Iter=  6 NonCon=     0 RMS=1.98D-11 Max=2.29D-10 NDo=     1
 Linear equations converged to 6.368D-11 6.368D-10 after     6 iterations.
 Angle between quadratic step and gradient=  80.17 degrees.
     ILin= 1 X=0.000D+00 Y=-2.503410698686D+01 DE= 0.00D+00 F= -6.64D-11
     ILin= 2 X=1.000D+00 Y=-2.503410698689D+01 DE=-3.32D-11
 Iteration  11 EE= -25.0341069868935     Delta-E=       -0.000000000033 Grad=9.066D-07 Max rot=    0.0000 deg.
 QCNR:  CnvC1=9.07D-12 CnvC2=9.07D-11
 LinEq1:  Iter=  0 NonCon=     1 RMS=1.17D-08 Max=1.35D-07 NDo=     1
 LinEq1:  Iter=  1 NonCon=     1 RMS=3.95D-09 Max=5.02D-08 NDo=     1
 LinEq1:  Iter=  2 NonCon=     1 RMS=1.08D-09 Max=7.79D-09 NDo=     1
 LinEq1:  Iter=  3 NonCon=     1 RMS=2.20D-10 Max=2.54D-09 NDo=     1
 LinEq1:  Iter=  4 NonCon=     1 RMS=4.85D-11 Max=5.33D-10 NDo=     1
 LinEq1:  Iter=  5 NonCon=     0 RMS=7.98D-12 Max=5.89D-11 NDo=     1
 Linear equations converged to 9.066D-12 9.066D-11 after     5 iterations.
 Angle between quadratic step and gradient=  84.77 degrees.
     ILin= 1 X=0.000D+00 Y=-2.503410698689D+01 DE= 0.00D+00 F= -5.53D-12
     ILin= 2 X=1.000D+00 Y=-2.503410698690D+01 DE=-2.38D-12
 Iteration  12 EE= -25.0341069868959     Delta-E=       -0.000000000002 Grad=1.853D-06 Max rot=    0.0000 deg.
 QCNR:  CnvC1=1.85D-11 CnvC2=1.85D-10
 LinEq1:  Iter=  0 NonCon=     1 RMS=1.20D-08 Max=8.85D-08 NDo=     1
 LinEq1:  Iter=  1 NonCon=     1 RMS=4.41D-09 Max=4.80D-08 NDo=     1
 LinEq1:  Iter=  2 NonCon=     1 RMS=9.55D-10 Max=7.66D-09 NDo=     1
 LinEq1:  Iter=  3 NonCon=     1 RMS=1.74D-10 Max=1.33D-09 NDo=     1
 LinEq1:  Iter=  4 NonCon=     1 RMS=3.05D-11 Max=2.70D-10 NDo=     1
 LinEq1:  Iter=  5 NonCon=     0 RMS=9.64D-12 Max=1.46D-10 NDo=     1
 Linear equations converged to 1.853D-11 1.853D-10 after     5 iterations.
 Angle between quadratic step and gradient=  83.19 degrees.
     ILin= 1 X=0.000D+00 Y=-2.503410698690D+01 DE= 0.00D+00 F= -1.47D-12
     ILin= 2 X=1.000D+00 Y=-2.503410698690D+01 DE=-8.03D-13
 Iteration  13 EE= -25.0341069868967     Delta-E=       -0.000000000001 Grad=8.389D-08 Max rot=    0.0000 deg.
 Rotation gradient small -- convergence achieved.
 Orbital symmetries in SymMO:
    1=1    2=1    3=1    4=3    5=4    6=1    7=1    8=3    9=4   10=1
   11=1   12=4   13=3   14=2   15=1   16=1   17=4   18=3   19=1   20=1
   21=4   22=3   23=1   24=2   25=1   26=3   27=4   28=4   29=3   30=1
   31=2   32=1   33=4   34=3   35=1   36=1   37=2   38=1   39=4   40=3
   41=4   42=3   43=1   44=1   45=4   46=3   47=1   48=1   49=2   50=4
   51=3   52=2   53=1   54=3   55=4   56=1   57=1   58=1   59=2   60=3
   61=4   62=3   63=4   64=1   65=2   66=1   67=4   68=3   69=4   70=3
   71=1   72=2   73=1   74=1   75=4   76=3   77=1   78=1   79=2   80=4
   81=3   82=4   83=3   84=1   85=1   86=4   87=3   88=1   89=2   90=1
   91=4   92=3   93=1   94=2   95=4   96=3   97=1   98=2   99=1  100=4
  101=3  102=3  103=4  104=1  105=2  106=4  107=3  108=1  109=1  110=4
  111=3  112=1  113=2  114=3  115=4  116=1  117=1  118=3  119=4  120=1
  121=1  122=2  123=3  124=4  125=1  126=1
 Orbital symmetries in SymMO:
    1=1    2=1    3=1    4=3    5=4    6=1    7=1    8=4    9=3   10=1
   11=1   12=3   13=4   14=1   15=2   16=1   17=4   18=3   19=1   20=4
   21=3   22=1   23=1   24=4   25=3   26=1   27=2   28=1   29=1   30=2
   31=4   32=3   33=3   34=4   35=1   36=1   37=1   38=2   39=3   40=4
   41=4   42=3   43=1   44=1   45=4   46=3   47=1   48=1   49=2   50=2
   51=1   52=3   53=4   54=4   55=3   56=1   57=2   58=1   59=1   60=4
   61=3   62=4   63=3   64=2   65=1   66=1   67=4   68=3   69=4   70=3
   71=1   72=1   73=2   74=1   75=4   76=3   77=1   78=1   79=2   80=3
   81=4   82=3   83=4   84=1   85=1   86=3   87=4   88=1   89=2   90=1
   91=3   92=4   93=2   94=1   95=2   96=1   97=4   98=3   99=1  100=4
  101=3  102=4  103=3  104=2  105=1  106=4  107=3  108=1  109=1  110=4
  111=3  112=1  113=2  114=3  115=4  116=1  117=1  118=3  119=4  120=1
  121=1  122=2  123=3  124=4  125=1  126=1
 SCF Done:  E(UHF) =  -25.0341069869     a.u. after   13 cycles
            Convg  =    0.8389D-07                    85 Fock formations.
              S**2 =  0.9648                  -V/T =  2.0004
 <Sx>= 0.0000 <Sy>= 0.0000 <Sz>= 0.0000 <S**2>= 0.9648 S= 0.6022
 <L.S>=  0.00000000000    
 Annihilation of the first spin contaminant:
 S**2 before annihilation     0.9648,   after     0.0784
 Leave Link  508 at Sun May 22 21:07:25 2022, MaxMem=   104857600 cpu:               5.1 elap:               5.2
 (Enter /apps/software/g16/l801.exe)
 Range of M.O.s used for correlation:     1   126
 NBasis=   126 NAE=     3 NBE=     3 NFC=     0 NFV=     0
 NROrb=    126 NOA=     3 NOB=     3 NVA=   123 NVB=   123
 Leave Link  801 at Sun May 22 21:07:25 2022, MaxMem=   104857600 cpu:               0.0 elap:               0.0
 (Enter /apps/software/g16/l914.exe)
 UHF ground state
 Doing stability rather than CIS.
 Keep R1 and R2 ints in memory in symmetry-blocked form, NReq=40144005.
 FoFCou: FMM=F IPFlag=           0 FMFlag=           0 FMFlg1=           0
         NFxFlg=           0 DoJE=F BraDBF=F KetDBF=F FulRan=T
         wScrn=  0.000000 ICntrl=       600 IOpCl=  0 I1Cent=           0 NGrid=           0
         NMat0=    1 NMatS0=   8001 NMatT0=    0 NMatD0=    1 NMtDS0=    0 NMtDT0=    0
 Petite list used in FoFCou.
 MDV=   104857600 DFT=F DoStab=T Mixed=F DoRPA=F DoScal=F NonHer=F
 Making orbital integer symmetry assigments:
 Orbital symmetries:
 Alpha Orbitals:
       Occupied  (SG) (SG) (SG)
       Virtual   (PI) (PI) (SG) (SG) (PI) (PI) (SG) (SG) (PI) (PI)
                 (DLTA) (DLTA) (SG) (PI) (PI) (SG) (SG) (PI) (PI)
                 (SG) (DLTA) (DLTA) (PHI) (PHI) (PI) (PI) (DLTA)
                 (DLTA) (SG) (PI) (PI) (SG) (SG) (DLTA) (DLTA)
                 (PI) (PI) (PI) (PI) (SG) (SG) (PI) (PI) (SG) (DLTA)
                 (DLTA) (PI) (PI) (?A) (?A) (PHI) (PHI) (SG) (SG)
                 (DLTA) (DLTA) (PI) (PI) (PHI) (PHI) (DLTA) (DLTA)
                 (SG) (PI) (PI) (PHI) (PHI) (DLTA) (DLTA) (SG)
                 (SG) (PI) (PI) (SG) (DLTA) (DLTA) (PI) (PI) (PI)
                 (PI) (SG) (SG) (PI) (PI) (SG) (?A) (?A) (PHI)
                 (PHI) (DLTA) (DLTA) (PI) (PI) (DLTA) (DLTA) (SG)
                 (PI) (PI) (PHI) (PHI) (DLTA) (DLTA) (PI) (PI)
                 (SG) (SG) (PHI) (PHI) (DLTA) (DLTA) (PI) (PI)
                 (SG) (SG) (PI) (PI) (SG) (DLTA) (DLTA) (PI) (PI)
                 (SG) (SG)
 Beta  Orbitals:
       Occupied  (SG) (SG) (SG)
       Virtual   (PI) (PI) (SG) (SG) (PI) (PI) (SG) (SG) (PI) (PI)
                 (DLTA) (DLTA) (SG) (PI) (PI) (SG) (PI) (PI) (SG)
                 (SG) (PHI) (PHI) (DLTA) (DLTA) (SG) (DLTA) (DLTA)
                 (PI) (PI) (PI) (PI) (SG) (SG) (DLTA) (DLTA) (PI)
                 (PI) (PI) (PI) (SG) (SG) (PI) (PI) (SG) (DLTA)
                 (DLTA) (?A) (?A) (PHI) (PHI) (PI) (PI) (SG) (DLTA)
                 (DLTA) (SG) (PHI) (PHI) (PI) (PI) (DLTA) (DLTA)
                 (SG) (PI) (PI) (PHI) (PHI) (SG) (DLTA) (DLTA)
                 (SG) (PI) (PI) (SG) (DLTA) (DLTA) (PI) (PI) (PI)
                 (PI) (SG) (SG) (PI) (PI) (SG) (?A) (?A) (PHI)
                 (PHI) (DLTA) (DLTA) (DLTA) (DLTA) (PI) (PI) (SG)
                 (PHI) (PHI) (PI) (PI) (DLTA) (DLTA) (PI) (PI)
                 (SG) (SG) (PHI) (PHI) (DLTA) (DLTA) (PI) (PI)
                 (SG) (SG) (PI) (PI) (SG) (DLTA) (DLTA) (PI) (PI)
                 (SG) (SG)
    12 initial guesses have been made.
 Convergence on wavefunction:    0.001000000000000
 Davidson Disk Diagonalization:  ConvIn= 1.00D-03 SkipCon=T Conv= 1.00D-03.
 Max sub-space:  1476 roots to seek:    12 dimension of matrix:          738
 Iteration     1 Dimension    12 NMult     0 NNew     12
 CISAX will form    12 AO SS matrices at one time.
 NMat=    12 NSing=    12 JSym2X= 2.
 New state      1 was old state      2
 Excitation Energies [eV] at current iteration:
 Root      1 :     0.540683312520423
 Root      2 :     0.588853858167503
 Root      3 :     1.240732694636310
 Root      4 :     1.241167849107853
 Root      5 :     5.124524798253439
 Root      6 :     6.068694662388644
 Root      7 :     6.607550457631383
 Root      8 :     7.502587798813373
 Root      9 :    10.994488475919377
 Root     10 :    10.994489438450312
 Root     11 :    11.739223061648085
 Root     12 :    11.739245711533364
 Iteration     2 Dimension    24 NMult    12 NNew     12
 CISAX will form    12 AO SS matrices at one time.
 NMat=    12 NSing=    12 JSym2X= 2.
 Root      1 not converged, maximum delta is    0.066467723382486
 Excitation Energies [eV] at current iteration:
 Root      1 :     0.060432739907247   Change is   -0.480250572613176
 Root      2 :     0.063321273866556   Change is   -0.525532584300947
 Root      3 :     0.813213595565792   Change is   -0.427519099070517
 Root      4 :     0.813268517893184   Change is   -0.427899331214669
 Root      5 :     4.592731753514762   Change is   -0.531793044738676
 Root      6 :     5.149583293296957   Change is   -0.919111369091687
 Root      7 :     6.104651983460739   Change is   -1.397935815352634
 Root      8 :     6.527278284168694   Change is   -0.080272173462689
 Root      9 :     8.436089032490733   Change is   -3.303134029157351
 Root     10 :     8.436542985120875   Change is   -3.302702726412489
 Root     11 :     9.748628287966204   Change is   -1.245861150484108
 Root     12 :     9.756612763565331   Change is   -1.237875712354047
 Iteration     3 Dimension    27 NMult    24 NNew      3
 CISAX will form     3 AO SS matrices at one time.
 NMat=     3 NSing=     3 JSym2X= 2.
 Root      1 not converged, maximum delta is    0.005511077352305
 Excitation Energies [eV] at current iteration:
 Root      1 :     0.054412516993183   Change is   -0.006020222914064
 Root      2 :     0.054473012010134   Change is   -0.008848261856422
 Root      3 :     0.801101656622268   Change is   -0.012111938943524
 Iteration     4 Dimension    30 NMult    27 NNew      3
 CISAX will form     3 AO SS matrices at one time.
 NMat=     3 NSing=     3 JSym2X= 2.
 Root      1 has converged.
 Excitation Energies [eV] at current iteration:
 Root      1 :     0.054348793967889   Change is   -0.000063723025294
 Root      2 :     0.054350027968671   Change is   -0.000122984041462
 Root      3 :     0.800930065957504   Change is   -0.000171590664764
 Convergence achieved on expansion vectors.
 ***********************************************************************
 Stability analysis using <AA,BB:AA,BB> singles matrix:
 ***********************************************************************
 1PDM for each excited state written to RWF  633
 Ground to excited state transition densities written to RWF  633

 Eigenvectors of the stability matrix:
 
 Excited state symmetry could not be determined.
 Eigenvector   1:  2.286-?Sym  Eigenvalue= 0.0019973  <S**2>=1.057
      3A ->  5A        0.69777
      3A ->  9A       -0.63795
      3A -> 21A       -0.27216
 The wavefunction is stable under the perturbations considered.
 Leave Link  914 at Sun May 22 21:07:29 2022, MaxMem=   104857600 cpu:               4.0 elap:               4.0
 (Enter /apps/software/g16/l508.exe)
 The wavefunction is already stable.
 Leave Link  508 at Sun May 22 21:07:29 2022, MaxMem=   104857600 cpu:               0.0 elap:               0.0
 (Enter /apps/software/g16/l601.exe)
 Copying SCF densities to generalized density rwf, IOpCl= 1 IROHF=0.

 **********************************************************************

            Population analysis using the SCF density.

 **********************************************************************

 Orbital symmetries:
 Alpha Orbitals:
       Occupied  (SG) (SG) (SG)
       Virtual   (PI) (PI) (SG) (SG) (PI) (PI) (SG) (SG) (PI) (PI)
                 (DLTA) (DLTA) (SG) (PI) (PI) (SG) (SG) (PI) (PI)
                 (SG) (DLTA) (DLTA) (PHI) (PHI) (PI) (PI) (DLTA)
                 (DLTA) (SG) (PI) (PI) (SG) (SG) (DLTA) (DLTA)
                 (PI) (PI) (PI) (PI) (SG) (SG) (PI) (PI) (SG) (DLTA)
                 (DLTA) (PI) (PI) (?A) (?A) (PHI) (PHI) (SG) (SG)
                 (DLTA) (DLTA) (PI) (PI) (PHI) (PHI) (DLTA) (DLTA)
                 (SG) (PI) (PI) (PHI) (PHI) (DLTA) (DLTA) (SG)
                 (SG) (PI) (PI) (SG) (DLTA) (DLTA) (PI) (PI) (PI)
                 (PI) (SG) (SG) (PI) (PI) (SG) (?A) (?A) (PHI)
                 (PHI) (DLTA) (DLTA) (PI) (PI) (DLTA) (DLTA) (SG)
                 (PI) (PI) (PHI) (PHI) (DLTA) (DLTA) (PI) (PI)
                 (SG) (SG) (PHI) (PHI) (DLTA) (DLTA) (PI) (PI)
                 (SG) (SG) (PI) (PI) (SG) (DLTA) (DLTA) (PI) (PI)
                 (SG) (SG)
 Beta  Orbitals:
       Occupied  (SG) (SG) (SG)
       Virtual   (PI) (PI) (SG) (SG) (PI) (PI) (SG) (SG) (PI) (PI)
                 (DLTA) (DLTA) (SG) (PI) (PI) (SG) (PI) (PI) (SG)
                 (SG) (PHI) (PHI) (DLTA) (DLTA) (SG) (DLTA) (DLTA)
                 (PI) (PI) (PI) (PI) (SG) (SG) (DLTA) (DLTA) (PI)
                 (PI) (PI) (PI) (SG) (SG) (PI) (PI) (SG) (DLTA)
                 (DLTA) (?A) (?A) (PHI) (PHI) (PI) (PI) (SG) (DLTA)
                 (DLTA) (SG) (PHI) (PHI) (PI) (PI) (DLTA) (DLTA)
                 (SG) (PI) (PI) (PHI) (PHI) (SG) (DLTA) (DLTA)
                 (SG) (PI) (PI) (SG) (DLTA) (DLTA) (PI) (PI) (PI)
                 (PI) (SG) (SG) (PI) (PI) (SG) (?A) (?A) (PHI)
                 (PHI) (DLTA) (DLTA) (DLTA) (DLTA) (PI) (PI) (SG)
                 (PHI) (PHI) (PI) (PI) (DLTA) (DLTA) (PI) (PI)
                 (SG) (SG) (PHI) (PHI) (DLTA) (DLTA) (PI) (PI)
                 (SG) (SG) (PI) (PI) (SG) (DLTA) (DLTA) (PI) (PI)
                 (SG) (SG)
 The electronic state is 1-SG.
 Alpha  occ. eigenvalues --   -7.70736  -0.54793  -0.32045
 Alpha virt. eigenvalues --    0.02224   0.02224   0.02702   0.04720   0.07557
 Alpha virt. eigenvalues --    0.07557   0.08390   0.10648   0.14487   0.14487
 Alpha virt. eigenvalues --    0.14490   0.14490   0.18791   0.25140   0.25140
 Alpha virt. eigenvalues --    0.27660   0.30790   0.31308   0.31308   0.36204
 Alpha virt. eigenvalues --    0.45909   0.45909   0.46055   0.46055   0.47904
 Alpha virt. eigenvalues --    0.47904   0.49844   0.49844   0.50010   0.51909
 Alpha virt. eigenvalues --    0.51909   0.54938   0.60601   0.67768   0.67768
 Alpha virt. eigenvalues --    0.82073   0.82073   0.86274   0.86274   0.87888
 Alpha virt. eigenvalues --    0.93584   1.04661   1.04661   1.15598   1.35249
 Alpha virt. eigenvalues --    1.35249   1.36717   1.36717   1.36788   1.36788
 Alpha virt. eigenvalues --    1.37293   1.37293   1.37781   1.39748   1.40706
 Alpha virt. eigenvalues --    1.40706   1.40954   1.40954   1.43586   1.43586
 Alpha virt. eigenvalues --    1.45129   1.45129   1.49805   1.53548   1.53548
 Alpha virt. eigenvalues --    1.59012   1.59012   1.69534   1.69534   1.72071
 Alpha virt. eigenvalues --    1.84403   1.93419   1.93419   1.96540   2.52219
 Alpha virt. eigenvalues --    2.52219   2.64017   2.64017   2.67388   2.67388
 Alpha virt. eigenvalues --    2.74297   2.92548   3.73643   3.73643   3.85967
 Alpha virt. eigenvalues --    3.91625   3.91625   3.93176   3.93176   3.95060
 Alpha virt. eigenvalues --    3.95060   3.95905   3.95905   3.96364   3.96364
 Alpha virt. eigenvalues --    3.98394   4.08157   4.08157   4.08225   4.08225
 Alpha virt. eigenvalues --    4.09980   4.09980   4.13433   4.13433   4.18857
 Alpha virt. eigenvalues --    4.31932   6.59587   6.59587   6.61774   6.61774
 Alpha virt. eigenvalues --    6.69097   6.69097   6.72734   7.59186   8.03015
 Alpha virt. eigenvalues --    8.03015   8.24679   8.45712   8.45712   8.52537
 Alpha virt. eigenvalues --    8.52537   8.61823  13.11773
  Beta  occ. eigenvalues --   -7.69315  -0.49009  -0.44457
  Beta virt. eigenvalues --    0.02573   0.02573   0.03925   0.05507   0.08208
  Beta virt. eigenvalues --    0.08208   0.08493   0.11468   0.14442   0.14442
  Beta virt. eigenvalues --    0.14491   0.14491   0.18729   0.23605   0.23605
  Beta virt. eigenvalues --    0.26543   0.32021   0.32021   0.35328   0.36472
  Beta virt. eigenvalues --    0.46049   0.46049   0.46156   0.46156   0.47421
  Beta virt. eigenvalues --    0.49952   0.49952   0.50191   0.50191   0.52773
  Beta virt. eigenvalues --    0.52773   0.52980   0.60675   0.66630   0.66630
  Beta virt. eigenvalues --    0.78009   0.78009   0.83318   0.83318   0.85664
  Beta virt. eigenvalues --    0.94802   1.05531   1.05531   1.19287   1.35659
  Beta virt. eigenvalues --    1.35659   1.36760   1.36760   1.37762   1.37762
  Beta virt. eigenvalues --    1.37866   1.37866   1.38890   1.41251   1.41251
  Beta virt. eigenvalues --    1.43561   1.43632   1.43632   1.45442   1.45442
  Beta virt. eigenvalues --    1.46690   1.46690   1.52317   1.55410   1.55410
  Beta virt. eigenvalues --    1.57843   1.57843   1.67553   1.68745   1.68745
  Beta virt. eigenvalues --    1.80863   1.92843   1.92843   1.95751   2.48382
  Beta virt. eigenvalues --    2.48382   2.60078   2.60078   2.60657   2.60657
  Beta virt. eigenvalues --    2.70661   2.88131   3.74288   3.74288   3.89618
  Beta virt. eigenvalues --    3.91675   3.91675   3.94227   3.94227   3.95708
  Beta virt. eigenvalues --    3.95708   3.97986   3.97986   3.99475   3.99475
  Beta virt. eigenvalues --    4.02169   4.08459   4.08459   4.10252   4.10252
  Beta virt. eigenvalues --    4.12046   4.12046   4.16647   4.16647   4.22126
  Beta virt. eigenvalues --    4.35286   6.56748   6.56748   6.58963   6.58963
  Beta virt. eigenvalues --    6.66343   6.66343   6.69991   7.51292   7.97337
  Beta virt. eigenvalues --    7.97337   8.19294   8.41560   8.41560   8.48440
  Beta virt. eigenvalues --    8.48440   8.57775  13.12827
          Condensed to atoms (all electrons):
               1          2
     1  B    4.987397  -0.000184
     2  H   -0.000184   1.012970
          Atomic-Atomic Spin Densities.
               1          2
     1  B    0.977672   0.015455
     2  H    0.015455  -1.008582
 Mulliken charges and spin densities:
               1          2
     1  B    0.012786   0.993127
     2  H   -0.012786  -0.993127
 Sum of Mulliken charges =   0.00000   0.00000
 Mulliken charges and spin densities with hydrogens summed into heavy atoms:
               1          2
     1  B    0.000000   0.000000
 Electronic spatial extent (au):  <R**2>=             45.9968
 Charge=             -0.0000 electrons
 Dipole moment (field-independent basis, Debye):
    X=              0.0000    Y=              0.0000    Z=              0.2305  Tot=              0.2305
 Quadrupole moment (field-independent basis, Debye-Ang):
   XX=             -7.3154   YY=             -7.3154   ZZ=            -11.2124
   XY=              0.0000   XZ=              0.0000   YZ=              0.0000
 Traceless Quadrupole moment (field-independent basis, Debye-Ang):
   XX=              1.2990   YY=              1.2990   ZZ=             -2.5980
   XY=              0.0000   XZ=              0.0000   YZ=              0.0000
 Octapole moment (field-independent basis, Debye-Ang**2):
  XXX=              0.0000  YYY=              0.0000  ZZZ=             -1.6716  XYY=              0.0000
  XXY=              0.0000  XXZ=              0.5475  XZZ=              0.0000  YZZ=              0.0000
  YYZ=              0.5475  XYZ=              0.0000
 Hexadecapole moment (field-independent basis, Debye-Ang**3):
 XXXX=            -10.7353 YYYY=            -10.7353 ZZZZ=            -92.1779 XXXY=              0.0000
 XXXZ=              0.0000 YYYX=              0.0000 YYYZ=              0.0000 ZZZX=              0.0000
 ZZZY=              0.0000 XXYY=             -3.5784 XXZZ=            -15.6000 YYZZ=            -15.6000
 XXYZ=              0.0000 YYXZ=              0.0000 ZZXY=              0.0000
 N-N= 8.819620182000D-01 E-N=-5.965217925009D+01  KE= 2.502359046961D+01
 Symmetry A1   KE= 2.502359046961D+01
 Symmetry A2   KE= 0.000000000000D+00
 Symmetry B1   KE= 0.000000000000D+00
 Symmetry B2   KE= 0.000000000000D+00
 Symmetry A1   SP= 1.738607709501D-15
 Symmetry A2   SP= 0.000000000000D+00
 Symmetry B1   SP= 0.000000000000D+00
 Symmetry B2   SP= 0.000000000000D+00
                          Isotropic Fermi Contact Couplings
        Atom                 a.u.       MegaHertz       Gauss      10(-4) cm-1
     1  B(11)             -0.01809     -12.97469      -4.62969      -4.32789
     2  H(1)              -0.29408    -657.24555    -234.52156    -219.23352
 --------------------------------------------------------
       Center         ----  Spin Dipole Couplings  ----
                      3XX-RR        3YY-RR        3ZZ-RR
 --------------------------------------------------------
     1   Atom       -0.318313     -0.318313      0.636625
     2   Atom       -0.008855     -0.008855      0.017710
 --------------------------------------------------------
                        XY            XZ            YZ
 --------------------------------------------------------
     1   Atom        0.000000      0.000000      0.000000
     2   Atom        0.000000      0.000000      0.000000
 --------------------------------------------------------


 ---------------------------------------------------------------------------------
              Anisotropic Spin Dipole Couplings in Principal Axis System
 ---------------------------------------------------------------------------------

       Atom             a.u.   MegaHertz   Gauss  10(-4) cm-1        Axes

              Baa    -0.3183   -54.500   -19.447   -18.179  1.0000  0.0000  0.0000
     1 B(11)  Bbb    -0.3183   -54.500   -19.447   -18.179 -0.0000  1.0000  0.0000
              Bcc     0.6366   109.000    38.894    36.358  0.0000  0.0000  1.0000
 
              Baa    -0.0089    -4.725    -1.686    -1.576  1.0000  0.0000  0.0000
     2 H(1)   Bbb    -0.0089    -4.725    -1.686    -1.576 -0.0000  1.0000  0.0000
              Bcc     0.0177     9.449     3.372     3.152  0.0000  0.0000  1.0000
 

 ---------------------------------------------------------------------------------

 No NMR shielding tensors so no spin-rotation constants.
 Leave Link  601 at Sun May 22 21:07:30 2022, MaxMem=   104857600 cpu:               0.2 elap:               0.2
 (Enter /apps/software/g16/l9999.exe)
 1\1\GINC-CNODE01\Stability\UHF\Aug-CC-pVQZ\B1H1\LCZ\22-May-2022\0\\#p 
 UHF/aug-cc-pVQZ guess=mix stable=opt\\BH UHF at 3.0 Angstrom\\0,1\B,0,
 0.,0.,0.\H,0,3.,0.,0.\\Version=ES64L-G16RevA.03\State=1-SG\HF=-25.0341
 07\S2=0.96484\S2-1=0.\S2A=0.078371\RMSD=3.088e-09\Dipole=-0.0906921,0.
 ,0.\Quadrupole=-1.9315729,0.9657865,0.9657864,0.,0.,0.\PG=C*V [C*(H1B1
 )]\\@


 MISERY NO LONGER LOVES COMPANY.  NOWADAYS IT INSISTS ON IT.

                                              -- BAKER'S LAW
 Job cpu time:       0 days  0 hours  0 minutes 18.5 seconds.
 Elapsed time:       0 days  0 hours  0 minutes 18.5 seconds.
 File lengths (MBytes):  RWF=     33 Int=      0 D2E=      0 Chk=      4 Scr=      1
 Normal termination of Gaussian 16 at Sun May 22 21:07:30 2022.

Sender: Unischeduler System <lcz@mgt01>
Subject: Job 134354: <#!/bin/bash
#BSUB -J intel
#BSUB -o BH-3.0-UHF-G.out
#BSUB -n 8
#BSUB -q cqueue
#BSUB -R span[hosts=1]
export g16root=/apps/software
source /apps/software/g16/bsd/g16.profile
export GAUSS_SCRDIR=/scratch
/apps/software/g16/g16 < BH-3.0-UHF-G.inp > BH-3.0-UHF-G.out> Done

Job <#!/bin/bash
#BSUB -J intel
#BSUB -o BH-3.0-UHF-G.out
#BSUB -n 8
#BSUB -q cqueue
#BSUB -R span[hosts=1]
export g16root=/apps/software
source /apps/software/g16/bsd/g16.profile
export GAUSS_SCRDIR=/scratch
/apps/software/g16/g16 < BH-3.0-UHF-G.inp > BH-3.0-UHF-G.out> was submitted from host <mgt01> by user <lcz>.
Job was executed on host(s) <8*cnode01>, in queue <cqueue>, as user <lcz>.
</apps/users/lcz> was used as the home directory.
</apps/users/lcz/exe13/UCCSD_T> was used as the working directory.
Started at 2022-05-22 21:07:11
Results reported at 2022-05-22 21:07:30

Your job looked like:

------------------------------------------------------------
# User input
#!/bin/bash
#BSUB -J intel
#BSUB -o BH-3.0-UHF-G.out
#BSUB -n 8
#BSUB -q cqueue
#BSUB -R span[hosts=1]
export g16root=/apps/software
source /apps/software/g16/bsd/g16.profile
export GAUSS_SCRDIR=/scratch
/apps/software/g16/g16 < BH-3.0-UHF-G.inp > BH-3.0-UHF-G.out
------------------------------------------------------------

Successfully completed.

Resource usage summary:

    CPU time   :           18.38 sec.
    Max Memory :               476 MB
    Max Processes  :               5


The output (if any) follows:

