 Entering Gaussian System, Link 0=/apps/software/g16/g16
 Initial command:
 /apps/software/g16/l1.exe "/scratch/Gau-402499.inp" -scrdir="/scratch/"
 Entering Link 1 = /apps/software/g16/l1.exe PID=    402500.
  
 Copyright (c) 1988,1990,1992,1993,1995,1998,2003,2009,2016,
            Gaussian, Inc.  All Rights Reserved.
  
 This is part of the Gaussian(R) 16 program.  It is based on
 the Gaussian(R) 09 system (copyright 2009, Gaussian, Inc.),
 the Gaussian(R) 03 system (copyright 2003, Gaussian, Inc.),
 the Gaussian(R) 98 system (copyright 1998, Gaussian, Inc.),
 the Gaussian(R) 94 system (copyright 1995, Gaussian, Inc.),
 the Gaussian 92(TM) system (copyright 1992, Gaussian, Inc.),
 the Gaussian 90(TM) system (copyright 1990, Gaussian, Inc.),
 the Gaussian 88(TM) system (copyright 1988, Gaussian, Inc.),
 the Gaussian 86(TM) system (copyright 1986, Carnegie Mellon
 University), and the Gaussian 82(TM) system (copyright 1983,
 Carnegie Mellon University). Gaussian is a federally registered
 trademark of Gaussian, Inc.
  
 This software contains proprietary and confidential information,
 including trade secrets, belonging to Gaussian, Inc.
  
 This software is provided under written license and may be
 used, copied, transmitted, or stored only in accord with that
 written license.
  
 The following legend is applicable only to US Government
 contracts under FAR:
  
                    RESTRICTED RIGHTS LEGEND
  
 Use, reproduction and disclosure by the US Government is
 subject to restrictions as set forth in subparagraphs (a)
 and (c) of the Commercial Computer Software - Restricted
 Rights clause in FAR 52.227-19.
  
 Gaussian, Inc.
 340 Quinnipiac St., Bldg. 40, Wallingford CT 06492
  
  
 ---------------------------------------------------------------
 Warning -- This program may not be used in any manner that
 competes with the business of Gaussian, Inc. or will provide
 assistance to any competitor of Gaussian, Inc.  The licensee
 of this program is prohibited from giving any competitor of
 Gaussian, Inc. access to this program.  By using this program,
 the user acknowledges that Gaussian, Inc. is engaged in the
 business of creating and licensing software in the field of
 computational chemistry and represents and warrants to the
 licensee that it is not a competitor of Gaussian, Inc. and that
 it will not use this program in any manner prohibited above.
 ---------------------------------------------------------------
  

 Cite this work as:
 Gaussian 16, Revision A.03,
 M. J. Frisch, G. W. Trucks, H. B. Schlegel, G. E. Scuseria, 
 M. A. Robb, J. R. Cheeseman, G. Scalmani, V. Barone, 
 G. A. Petersson, H. Nakatsuji, X. Li, M. Caricato, A. V. Marenich, 
 J. Bloino, B. G. Janesko, R. Gomperts, B. Mennucci, H. P. Hratchian, 
 J. V. Ortiz, A. F. Izmaylov, J. L. Sonnenberg, D. Williams-Young, 
 F. Ding, F. Lipparini, F. Egidi, J. Goings, B. Peng, A. Petrone, 
 T. Henderson, D. Ranasinghe, V. G. Zakrzewski, J. Gao, N. Rega, 
 G. Zheng, W. Liang, M. Hada, M. Ehara, K. Toyota, R. Fukuda, 
 J. Hasegawa, M. Ishida, T. Nakajima, Y. Honda, O. Kitao, H. Nakai, 
 T. Vreven, K. Throssell, J. A. Montgomery, Jr., J. E. Peralta, 
 F. Ogliaro, M. J. Bearpark, J. J. Heyd, E. N. Brothers, K. N. Kudin, 
 V. N. Staroverov, T. A. Keith, R. Kobayashi, J. Normand, 
 K. Raghavachari, A. P. Rendell, J. C. Burant, S. S. Iyengar, 
 J. Tomasi, M. Cossi, J. M. Millam, M. Klene, C. Adamo, R. Cammi, 
 J. W. Ochterski, R. L. Martin, K. Morokuma, O. Farkas, 
 J. B. Foresman, and D. J. Fox, Gaussian, Inc., Wallingford CT, 2016.
 
 ******************************************
 Gaussian 16:  ES64L-G16RevA.03 25-Dec-2016
                22-May-2022 
 ******************************************
 %chk=BH-4.0-UHF-G.chk
 ---------------------------------------
 #p UHF/aug-cc-pVQZ guess=mix stable=opt
 ---------------------------------------
 1/38=1,172=1/1;
 2/12=2,17=6,18=5,40=1/2;
 3/5=16,6=2,7=10,11=2,25=1,30=1,116=2/1,2,3;
 4/13=-1/1;
 5/5=2,38=5/2;
 6/7=2,8=2,9=2,10=2,28=1/1;
 8/6=1,10=90,11=11/1;
 9/8=-3,42=1,46=1/14;
 5/5=2,8=3,17=40,38=5/8(-2);
 6/7=2,8=2,9=2,10=2,28=1/1;
 99/5=1,9=1/99;
 Leave Link    1 at Sun May 22 21:10:25 2022, MaxMem=           0 cpu:               0.0 elap:               0.0
 (Enter /apps/software/g16/l101.exe)
 ----------------------
 BH UHF at 4.0 Angstrom
 ----------------------
 Symbolic Z-matrix:
 Charge =  0 Multiplicity = 1
 B                     0.        0.        0. 
 H                     4.        0.        0. 
 
 ITRead=  0  0
 MicOpt= -1 -1
 NAtoms=      2 NQM=        2 NQMF=       0 NMMI=      0 NMMIF=      0
                NMic=       0 NMicF=      0.
                    Isotopes and Nuclear Properties:
 (Nuclear quadrupole moments (NQMom) in fm**2, nuclear magnetic moments (NMagM)
  in nuclear magnetons)

  Atom         1           2
 IAtWgt=          11           1
 AtmWgt=  11.0093053   1.0078250
 NucSpn=           3           1
 AtZEff=  -0.0000000  -0.0000000
 NQMom=    4.0590000   0.0000000
 NMagM=    2.6886370   2.7928460
 AtZNuc=   5.0000000   1.0000000
 Leave Link  101 at Sun May 22 21:10:25 2022, MaxMem=   104857600 cpu:               0.1 elap:               0.1
 (Enter /apps/software/g16/l202.exe)
                          Input orientation:                          
 ---------------------------------------------------------------------
 Center     Atomic      Atomic             Coordinates (Angstroms)
 Number     Number       Type             X           Y           Z
 ---------------------------------------------------------------------
      1          5           0        0.000000    0.000000    0.000000
      2          1           0        4.000000    0.000000    0.000000
 ---------------------------------------------------------------------
 Stoichiometry    BH
 Framework group  C*V[C*(HB)]
 Deg. of freedom     1
 Full point group                 C*V     NOp   4
 Largest Abelian subgroup         C2V     NOp   4
 Largest concise Abelian subgroup C1      NOp   1
                         Standard orientation:                         
 ---------------------------------------------------------------------
 Center     Atomic      Atomic             Coordinates (Angstroms)
 Number     Number       Type             X           Y           Z
 ---------------------------------------------------------------------
      1          5           0        0.000000    0.000000    0.666667
      2          1           0        0.000000    0.000000   -3.333333
 ---------------------------------------------------------------------
 Rotational constants (GHZ):           0.0000000          34.2099886          34.2099886
 Leave Link  202 at Sun May 22 21:10:25 2022, MaxMem=   104857600 cpu:               0.0 elap:               0.0
 (Enter /apps/software/g16/l301.exe)
 Standard basis: Aug-CC-pVQZ (5D, 7F)
 Ernie: Thresh=  0.10000D-02 Tol=  0.10000D-05 Strict=F.
 Ernie:  4 primitive shells out of 54 were deleted.
 There are    68 symmetry adapted cartesian basis functions of A1  symmetry.
 There are    18 symmetry adapted cartesian basis functions of A2  symmetry.
 There are    37 symmetry adapted cartesian basis functions of B1  symmetry.
 There are    37 symmetry adapted cartesian basis functions of B2  symmetry.
 There are    50 symmetry adapted basis functions of A1  symmetry.
 There are    16 symmetry adapted basis functions of A2  symmetry.
 There are    30 symmetry adapted basis functions of B1  symmetry.
 There are    30 symmetry adapted basis functions of B2  symmetry.
   126 basis functions,   180 primitive gaussians,   160 cartesian basis functions
     3 alpha electrons        3 beta electrons
       nuclear repulsion energy         0.6614715137 Hartrees.
 IExCor=    0 DFT=F Ex=HF Corr=None ExCW=0 ScaHFX=  1.000000
 ScaDFX=  1.000000  1.000000  1.000000  1.000000 ScalE2=  1.000000  1.000000
 IRadAn=      5 IRanWt=     -1 IRanGd=            0 ICorTp=0 IEmpDi=  4
 NAtoms=    2 NActive=    2 NUniq=    2 SFac= 1.00D+00 NAtFMM=   60 NAOKFM=F Big=F
 Integral buffers will be    131072 words long.
 Raffenetti 2 integral format.
 Two-electron integral symmetry is turned on.
 Leave Link  301 at Sun May 22 21:10:25 2022, MaxMem=   104857600 cpu:               0.1 elap:               0.1
 (Enter /apps/software/g16/l302.exe)
 NPDir=0 NMtPBC=     1 NCelOv=     1 NCel=       1 NClECP=     1 NCelD=      1
         NCelK=      1 NCelE2=     1 NClLst=     1 CellRange=     0.0.
 One-electron integrals computed using PRISM.
 One-electron integral symmetry used in STVInt
 NBasis=   126 RedAO= T EigKep=  1.13D-02  NBF=    50    16    30    30
 NBsUse=   126 1.00D-06 EigRej= -1.00D+00 NBFU=    50    16    30    30
 Leave Link  302 at Sun May 22 21:10:25 2022, MaxMem=   104857600 cpu:               0.1 elap:               0.1
 (Enter /apps/software/g16/l303.exe)
 DipDrv:  MaxL=1.
 Leave Link  303 at Sun May 22 21:10:25 2022, MaxMem=   104857600 cpu:               0.0 elap:               0.0
 (Enter /apps/software/g16/l401.exe)
 ExpMin= 1.88D-02 ExpMax= 2.39D+04 ExpMxC= 2.30D+02 IAcc=3 IRadAn=         5 AccDes= 0.00D+00
 Harris functional with IExCor=  205 and IRadAn=       5 diagonalized for initial guess.
 HarFok:  IExCor=  205 AccDes= 0.00D+00 IRadAn=         5 IDoV= 1 UseB2=F ITyADJ=14
 ICtDFT=  3500011 ScaDFX=  1.000000  1.000000  1.000000  1.000000
 FoFCou: FMM=F IPFlag=           0 FMFlag=      100000 FMFlg1=           0
         NFxFlg=           0 DoJE=T BraDBF=F KetDBF=T FulRan=T
         wScrn=  0.000000 ICntrl=       500 IOpCl=  0 I1Cent=   200000004 NGrid=           0
         NMat0=    1 NMatS0=      1 NMatT0=    0 NMatD0=    1 NMtDS0=    0 NMtDT0=    0
 Petite list used in FoFCou.
 Harris En= -24.9897358755842    
 JPrj=0 DoOrth=F DoCkMO=T.
 Mixing orbitals, IMix= 1 IMixAn=  0 NRI=1 NE=    3 Coef=  7.07106781D-01  7.07106781D-01
 Mixing orbitals, IMix= 1 IMixAn=  0 NRI=1 NE=    3 Coef= -7.07106781D-01  7.07106781D-01
 Initial guess orbital symmetries:
 Alpha Orbitals:
       Occupied  (SG) (SG) (?A)
       Virtual   (?A) (?A) (SG) (SG) (PI) (PI) (SG) (SG) (PI) (PI)
                 (DLTA) (DLTA) (SG) (PI) (PI) (SG) (PI) (PI) (SG)
                 (SG) (SG) (PI) (PI) (SG) (DLTA) (DLTA) (DLTA)
                 (DLTA) (PHI) (PHI) (PI) (PI) (SG) (DLTA) (DLTA)
                 (PI) (PI) (SG) (PI) (PI) (SG) (PI) (PI) (SG) (SG)
                 (PI) (PI) (DLTA) (DLTA) (SG) (DLTA) (DLTA) (?B)
                 (?B) (?C) (?B) (?B) (?C) (SG) (DLTA) (DLTA) (PHI)
                 (PHI) (PI) (PI) (SG) (SG) (PHI) (PHI) (DLTA) (DLTA)
                 (PI) (PI) (SG) (DLTA) (DLTA) (PI) (PI) (SG) (PI)
                 (PI) (SG) (PI) (PI) (SG) (DLTA) (DLTA) (PI) (PI)
                 (SG) (?C) (PHI) (PHI) (?C) (DLTA) (DLTA) (PI)
                 (PI) (SG) (PHI) (PHI) (DLTA) (DLTA) (PI) (PI)
                 (SG) (PHI) (PHI) (DLTA) (DLTA) (PI) (PI) (SG)
                 (SG) (PI) (PI) (SG) (DLTA) (DLTA) (PI) (PI) (SG)
                 (SG)
 Beta  Orbitals:
       Occupied  (SG) (SG) (?A)
       Virtual   (?A) (?A) (SG) (SG) (PI) (PI) (SG) (SG) (PI) (PI)
                 (DLTA) (DLTA) (SG) (PI) (PI) (SG) (PI) (PI) (SG)
                 (SG) (SG) (PI) (PI) (SG) (DLTA) (DLTA) (DLTA)
                 (DLTA) (PHI) (PHI) (PI) (PI) (SG) (DLTA) (DLTA)
                 (PI) (PI) (SG) (PI) (PI) (SG) (PI) (PI) (SG) (SG)
                 (PI) (PI) (DLTA) (DLTA) (SG) (DLTA) (DLTA) (?B)
                 (?B) (?C) (?B) (?B) (?C) (SG) (DLTA) (DLTA) (PHI)
                 (PHI) (PI) (PI) (SG) (SG) (PHI) (PHI) (DLTA) (DLTA)
                 (PI) (PI) (SG) (DLTA) (DLTA) (PI) (PI) (SG) (PI)
                 (PI) (SG) (PI) (PI) (SG) (DLTA) (DLTA) (PI) (PI)
                 (SG) (?C) (PHI) (PHI) (?C) (DLTA) (DLTA) (PI)
                 (PI) (SG) (PHI) (PHI) (DLTA) (DLTA) (PI) (PI)
                 (SG) (PHI) (PHI) (DLTA) (DLTA) (PI) (PI) (SG)
                 (SG) (PI) (PI) (SG) (DLTA) (DLTA) (PI) (PI) (SG)
                 (SG)
 Initial guess <Sx>= 0.0000 <Sy>= 0.0000 <Sz>= 0.0000 <S**2>= 1.0000 S= 0.6180
 Leave Link  401 at Sun May 22 21:10:25 2022, MaxMem=   104857600 cpu:               0.2 elap:               0.2
 (Enter /apps/software/g16/l502.exe)
 Keep R1 and R2 ints in memory in symmetry-blocked form, NReq=40143665.
 FoFCou: FMM=F IPFlag=           0 FMFlag=           0 FMFlg1=           0
         NFxFlg=           0 DoJE=F BraDBF=F KetDBF=F FulRan=T
         wScrn=  0.000000 ICntrl=       600 IOpCl=  0 I1Cent=           0 NGrid=           0
         NMat0=    1 NMatS0=   8001 NMatT0=    0 NMatD0=    1 NMtDS0=    0 NMtDT0=    0
 Petite list used in FoFCou.
 UHF open shell SCF:
 Using DIIS extrapolation, IDIIS=  1040.
 NGot=   104857600 LenX=    88563632 LenY=    88537591
 Requested convergence on RMS density matrix=1.00D-08 within 128 cycles.
 Requested convergence on MAX density matrix=1.00D-06.
 Requested convergence on             energy=1.00D-06.
 No special actions if energy rises.
 An orbital has undefined symmetry, so N**3 symmetry is turned off.

 Cycle   1  Pass 1  IDiag  1:
 Density matrix breaks symmetry, PCut= 1.00D-07
 Density matrix has no symmetry -- integrals replicated.
 E= -24.8371823952141    
 DIIS: error= 2.58D-02 at cycle   1 NSaved=   1.
 NSaved= 1 IEnMin= 1 EnMin= -24.8371823952141     IErMin= 1 ErrMin= 2.58D-02
 ErrMax= 2.58D-02  0.00D+00 EMaxC= 1.00D-01 BMatC= 1.49D-01 BMatP= 1.49D-01
 IDIUse=3 WtCom= 7.42D-01 WtEn= 2.58D-01
 Coeff-Com:  0.100D+01
 Coeff-En:   0.100D+01
 Coeff:      0.100D+01
 Gap=     0.132 Goal=   None    Shift=    0.000
 Gap=     0.132 Goal=   None    Shift=    0.000
 GapD=    0.132 DampG=1.000 DampE=0.500 DampFc=0.5000 IDamp=-1.
 Damping current iteration by 5.00D-01
 RMSDP=1.73D-03 MaxDP=8.28D-02              OVMax= 3.63D-01

 Cycle   2  Pass 1  IDiag  1:
 Density matrix breaks symmetry, PCut= 1.00D-07
 Density matrix has no symmetry -- integrals replicated.
 E= -24.8569325154082     Delta-E=       -0.019750120194 Rises=F Damp=T
 DIIS: error= 1.33D-02 at cycle   2 NSaved=   2.
 NSaved= 2 IEnMin= 2 EnMin= -24.8569325154082     IErMin= 2 ErrMin= 1.33D-02
 ErrMax= 1.33D-02  0.00D+00 EMaxC= 1.00D-01 BMatC= 4.94D-02 BMatP= 1.49D-01
 IDIUse=3 WtCom= 8.67D-01 WtEn= 1.33D-01
 Coeff-Com: -0.629D+00 0.163D+01
 Coeff-En:   0.000D+00 0.100D+01
 Coeff:     -0.546D+00 0.155D+01
 Gap=     0.095 Goal=   None    Shift=    0.000
 Gap=     0.095 Goal=   None    Shift=    0.000
 RMSDP=1.25D-03 MaxDP=5.87D-02 DE=-1.98D-02 OVMax= 2.68D-01

 Cycle   3  Pass 1  IDiag  1:
 Density matrix breaks symmetry, PCut= 1.00D-07
 Density matrix has no symmetry -- integrals replicated.
 E= -24.8753587118907     Delta-E=       -0.018426196482 Rises=F Damp=F
 DIIS: error= 1.35D-02 at cycle   3 NSaved=   3.
 NSaved= 3 IEnMin= 3 EnMin= -24.8753587118907     IErMin= 2 ErrMin= 1.33D-02
 ErrMax= 1.35D-02  0.00D+00 EMaxC= 1.00D-01 BMatC= 1.06D-02 BMatP= 4.94D-02
 IDIUse=3 WtCom= 8.65D-01 WtEn= 1.35D-01
 Coeff-Com: -0.384D+00 0.672D+00 0.712D+00
 Coeff-En:   0.000D+00 0.000D+00 0.100D+01
 Coeff:     -0.332D+00 0.581D+00 0.751D+00
 Gap=     0.143 Goal=   None    Shift=    0.000
 Gap=     0.143 Goal=   None    Shift=    0.000
 RMSDP=8.02D-04 MaxDP=3.21D-02 DE=-1.84D-02 OVMax= 1.83D-01

 Cycle   4  Pass 1  IDiag  1:
 Density matrix breaks symmetry, PCut= 1.00D-07
 Density matrix has no symmetry -- integrals replicated.
 E= -24.8890445301171     Delta-E=       -0.013685818226 Rises=F Damp=F
 DIIS: error= 4.91D-03 at cycle   4 NSaved=   4.
 NSaved= 4 IEnMin= 4 EnMin= -24.8890445301171     IErMin= 4 ErrMin= 4.91D-03
 ErrMax= 4.91D-03  0.00D+00 EMaxC= 1.00D-01 BMatC= 2.95D-03 BMatP= 1.06D-02
 IDIUse=3 WtCom= 9.51D-01 WtEn= 4.91D-02
 Coeff-Com:  0.102D+00-0.221D+00 0.176D+00 0.943D+00
 Coeff-En:   0.000D+00 0.000D+00 0.000D+00 0.100D+01
 Coeff:      0.969D-01-0.210D+00 0.167D+00 0.946D+00
 Gap=     0.142 Goal=   None    Shift=    0.000
 Gap=     0.142 Goal=   None    Shift=    0.000
 RMSDP=4.10D-04 MaxDP=1.19D-02 DE=-1.37D-02 OVMax= 7.37D-02

 Cycle   5  Pass 1  IDiag  1:
 Density matrix breaks symmetry, PCut= 1.00D-07
 Density matrix has no symmetry -- integrals replicated.
 E= -24.8941540596553     Delta-E=       -0.005109529538 Rises=F Damp=F
 DIIS: error= 2.69D-03 at cycle   5 NSaved=   5.
 NSaved= 5 IEnMin= 5 EnMin= -24.8941540596553     IErMin= 5 ErrMin= 2.69D-03
 ErrMax= 2.69D-03  0.00D+00 EMaxC= 1.00D-01 BMatC= 8.43D-04 BMatP= 2.95D-03
 IDIUse=3 WtCom= 9.73D-01 WtEn= 2.69D-02
 Coeff-Com: -0.300D+00 0.579D+00-0.732D-01-0.142D+01 0.221D+01
 Coeff-En:   0.000D+00 0.000D+00 0.000D+00 0.000D+00 0.100D+01
 Coeff:     -0.292D+00 0.563D+00-0.712D-01-0.138D+01 0.218D+01
 Gap=     0.150 Goal=   None    Shift=    0.000
 Gap=     0.150 Goal=   None    Shift=    0.000
 RMSDP=5.12D-04 MaxDP=1.52D-02 DE=-5.11D-03 OVMax= 1.11D-01

 Cycle   6  Pass 1  IDiag  1:
 Density matrix breaks symmetry, PCut= 1.00D-07
 Density matrix has no symmetry -- integrals replicated.
 E= -24.8993190006577     Delta-E=       -0.005164941002 Rises=F Damp=F
 DIIS: error= 3.06D-03 at cycle   6 NSaved=   6.
 NSaved= 6 IEnMin= 6 EnMin= -24.8993190006577     IErMin= 5 ErrMin= 2.69D-03
 ErrMax= 3.06D-03  0.00D+00 EMaxC= 1.00D-01 BMatC= 5.05D-04 BMatP= 8.43D-04
 IDIUse=3 WtCom= 9.73D-01 WtEn= 2.69D-02
 Coeff-Com:  0.242D-01-0.545D-01-0.101D+00 0.597D+00-0.209D+01 0.262D+01
 Coeff-En:   0.000D+00 0.000D+00 0.000D+00 0.000D+00 0.000D+00 0.100D+01
 Coeff:      0.235D-01-0.530D-01-0.984D-01 0.581D+00-0.203D+01 0.258D+01
 Gap=     0.160 Goal=   None    Shift=    0.000
 Gap=     0.160 Goal=   None    Shift=    0.000
 RMSDP=7.31D-04 MaxDP=1.95D-02 DE=-5.16D-03 OVMax= 1.61D-01

 Cycle   7  Pass 1  IDiag  1:
 Density matrix breaks symmetry, PCut= 1.00D-07
 Density matrix has no symmetry -- integrals replicated.
 E= -24.9016825648890     Delta-E=       -0.002363564231 Rises=F Damp=F
 DIIS: error= 3.49D-03 at cycle   7 NSaved=   7.
 NSaved= 7 IEnMin= 7 EnMin= -24.9016825648890     IErMin= 5 ErrMin= 2.69D-03
 ErrMax= 3.49D-03  0.00D+00 EMaxC= 1.00D-01 BMatC= 1.31D-03 BMatP= 5.05D-04
 IDIUse=3 WtCom= 9.73D-01 WtEn= 2.69D-02
 Coeff-Com:  0.539D-01-0.102D+00-0.165D+00 0.424D+00-0.481D+00 0.824D+00
 Coeff-Com:  0.446D+00
 Coeff-En:   0.000D+00 0.000D+00 0.000D+00 0.000D+00 0.000D+00 0.000D+00
 Coeff-En:   0.100D+01
 Coeff:      0.524D-01-0.990D-01-0.160D+00 0.412D+00-0.468D+00 0.802D+00
 Coeff:      0.461D+00
 Gap=     0.159 Goal=   None    Shift=    0.000
 Gap=     0.159 Goal=   None    Shift=    0.000
 RMSDP=2.09D-04 MaxDP=9.41D-03 DE=-2.36D-03 OVMax= 4.45D-02

 Cycle   8  Pass 1  IDiag  1:
 Density matrix breaks symmetry, PCut= 1.00D-07
 Density matrix has no symmetry -- integrals replicated.
 E= -24.9028446501466     Delta-E=       -0.001162085258 Rises=F Damp=F
 DIIS: error= 2.13D-03 at cycle   8 NSaved=   8.
 NSaved= 8 IEnMin= 8 EnMin= -24.9028446501466     IErMin= 8 ErrMin= 2.13D-03
 ErrMax= 2.13D-03  0.00D+00 EMaxC= 1.00D-01 BMatC= 1.61D-04 BMatP= 5.05D-04
 IDIUse=3 WtCom= 9.79D-01 WtEn= 2.13D-02
 Coeff-Com: -0.104D+00 0.200D+00 0.831D-04-0.589D+00 0.953D+00-0.104D+01
 Coeff-Com: -0.481D+00 0.206D+01
 Coeff-En:   0.000D+00 0.000D+00 0.000D+00 0.000D+00 0.000D+00 0.000D+00
 Coeff-En:   0.000D+00 0.100D+01
 Coeff:     -0.102D+00 0.196D+00 0.814D-04-0.576D+00 0.933D+00-0.102D+01
 Coeff:     -0.471D+00 0.204D+01
 Gap=     0.161 Goal=   None    Shift=    0.000
 Gap=     0.161 Goal=   None    Shift=    0.000
 RMSDP=2.00D-04 MaxDP=6.42D-03 DE=-1.16D-03 OVMax= 4.61D-02

 Cycle   9  Pass 1  IDiag  1:
 Density matrix breaks symmetry, PCut= 1.00D-07
 Density matrix has no symmetry -- integrals replicated.
 E= -24.9035201099160     Delta-E=       -0.000675459769 Rises=F Damp=F
 DIIS: error= 1.19D-03 at cycle   9 NSaved=   9.
 NSaved= 9 IEnMin= 9 EnMin= -24.9035201099160     IErMin= 9 ErrMin= 1.19D-03
 ErrMax= 1.19D-03  0.00D+00 EMaxC= 1.00D-01 BMatC= 4.20D-05 BMatP= 1.61D-04
 IDIUse=3 WtCom= 9.88D-01 WtEn= 1.19D-02
 Coeff-Com:  0.861D-02-0.170D-01-0.229D-01 0.963D-02-0.143D+00 0.587D+00
 Coeff-Com:  0.319D+00-0.257D+01 0.283D+01
 Coeff-En:   0.000D+00 0.000D+00 0.000D+00 0.000D+00 0.000D+00 0.000D+00
 Coeff-En:   0.000D+00 0.000D+00 0.100D+01
 Coeff:      0.851D-02-0.168D-01-0.227D-01 0.952D-02-0.141D+00 0.580D+00
 Coeff:      0.315D+00-0.254D+01 0.281D+01
 Gap=     0.163 Goal=   None    Shift=    0.000
 Gap=     0.163 Goal=   None    Shift=    0.000
 RMSDP=2.44D-04 MaxDP=7.93D-03 DE=-6.75D-04 OVMax= 5.56D-02

 Cycle  10  Pass 1  IDiag  1:
 Density matrix breaks symmetry, PCut= 1.00D-07
 Density matrix has no symmetry -- integrals replicated.
 E= -24.9038465996983     Delta-E=       -0.000326489782 Rises=F Damp=F
 DIIS: error= 4.84D-04 at cycle  10 NSaved=  10.
 NSaved=10 IEnMin=10 EnMin= -24.9038465996983     IErMin=10 ErrMin= 4.84D-04
 ErrMax= 4.84D-04  0.00D+00 EMaxC= 1.00D-01 BMatC= 2.20D-05 BMatP= 4.20D-05
 IDIUse=3 WtCom= 9.95D-01 WtEn= 4.84D-03
 Coeff-Com:  0.101D-01-0.197D-01 0.183D-01 0.974D-01-0.149D+00-0.110D+00
 Coeff-Com: -0.405D+00 0.137D+01-0.166D+01 0.185D+01
 Coeff-En:   0.000D+00 0.000D+00 0.000D+00 0.000D+00 0.000D+00 0.000D+00
 Coeff-En:   0.000D+00 0.000D+00 0.000D+00 0.100D+01
 Coeff:      0.101D-01-0.196D-01 0.182D-01 0.970D-01-0.149D+00-0.110D+00
 Coeff:     -0.403D+00 0.136D+01-0.166D+01 0.185D+01
 Gap=     0.164 Goal=   None    Shift=    0.000
 Gap=     0.164 Goal=   None    Shift=    0.000
 RMSDP=1.00D-04 MaxDP=3.48D-03 DE=-3.26D-04 OVMax= 2.28D-02

 Cycle  11  Pass 1  IDiag  1:
 Density matrix breaks symmetry, PCut= 1.00D-07
 Density matrix has no symmetry -- integrals replicated.
 E= -24.9038997195800     Delta-E=       -0.000053119882 Rises=F Damp=F
 DIIS: error= 9.55D-05 at cycle  11 NSaved=  11.
 NSaved=11 IEnMin=11 EnMin= -24.9038997195800     IErMin=11 ErrMin= 9.55D-05
 ErrMax= 9.55D-05  0.00D+00 EMaxC= 1.00D-01 BMatC= 7.94D-07 BMatP= 2.20D-05
 IDIUse=1 WtCom= 1.00D+00 WtEn= 0.00D+00
 Coeff-Com: -0.969D-02 0.191D-01-0.368D-02-0.919D-01 0.192D+00-0.160D+00
 Coeff-Com:  0.153D+00-0.838D-01 0.210D+00-0.113D+01 0.190D+01
 Coeff:     -0.969D-02 0.191D-01-0.368D-02-0.919D-01 0.192D+00-0.160D+00
 Coeff:      0.153D+00-0.838D-01 0.210D+00-0.113D+01 0.190D+01
 Gap=     0.164 Goal=   None    Shift=    0.000
 Gap=     0.164 Goal=   None    Shift=    0.000
 RMSDP=3.81D-05 MaxDP=1.26D-03 DE=-5.31D-05 OVMax= 8.04D-03

 Cycle  12  Pass 1  IDiag  1:
 Density matrix breaks symmetry, PCut= 1.00D-07
 Density matrix has no symmetry -- integrals replicated.
 E= -24.9038973219738     Delta-E=        0.000002397606 Rises=F Damp=F
 DIIS: error= 1.16D-04 at cycle  12 NSaved=  12.
 NSaved=12 IEnMin=11 EnMin= -24.9038997195800     IErMin=11 ErrMin= 9.55D-05
 ErrMax= 1.16D-04  0.00D+00 EMaxC= 1.00D-01 BMatC= 1.28D-06 BMatP= 7.94D-07
 IDIUse=1 WtCom= 1.00D+00 WtEn= 0.00D+00
 Coeff-Com: -0.371D-02 0.706D-02 0.701D-02-0.126D-01 0.181D-01-0.407D-01
 Coeff-Com:  0.867D-02 0.651D-01-0.185D-01 0.989D-01-0.811D+00 0.168D+01
 Coeff:     -0.371D-02 0.706D-02 0.701D-02-0.126D-01 0.181D-01-0.407D-01
 Coeff:      0.867D-02 0.651D-01-0.185D-01 0.989D-01-0.811D+00 0.168D+01
 Gap=     0.164 Goal=   None    Shift=    0.000
 Gap=     0.164 Goal=   None    Shift=    0.000
 RMSDP=9.04D-06 MaxDP=3.52D-04 DE= 2.40D-06 OVMax= 1.25D-03

 Cycle  13  Pass 1  IDiag  1:
 Density matrix breaks symmetry, PCut= 1.00D-07
 Density matrix has no symmetry -- integrals replicated.
 E= -24.9038991996192     Delta-E=       -0.000001877645 Rises=F Damp=F
 DIIS: error= 1.06D-04 at cycle  13 NSaved=  13.
 NSaved=13 IEnMin=11 EnMin= -24.9038997195800     IErMin=11 ErrMin= 9.55D-05
 ErrMax= 1.06D-04  0.00D+00 EMaxC= 1.00D-01 BMatC= 1.27D-06 BMatP= 7.94D-07
 IDIUse=1 WtCom= 1.00D+00 WtEn= 0.00D+00
 Coeff-Com: -0.200D-02 0.411D-02-0.288D-02-0.323D-01 0.936D-01-0.108D+00
 Coeff-Com:  0.373D-01 0.118D+00-0.138D+00-0.244D+00 0.122D+01-0.537D+01
 Coeff-Com:  0.542D+01
 Coeff:     -0.200D-02 0.411D-02-0.288D-02-0.323D-01 0.936D-01-0.108D+00
 Coeff:      0.373D-01 0.118D+00-0.138D+00-0.244D+00 0.122D+01-0.537D+01
 Coeff:      0.542D+01
 Gap=     0.164 Goal=   None    Shift=    0.000
 Gap=     0.164 Goal=   None    Shift=    0.000
 RMSDP=4.34D-05 MaxDP=1.25D-03 DE=-1.88D-06 OVMax= 8.27D-03

 Cycle  14  Pass 1  IDiag  1:
 Density matrix breaks symmetry, PCut= 1.00D-07
 Density matrix has no symmetry -- integrals replicated.
 E= -24.9039070469927     Delta-E=       -0.000007847374 Rises=F Damp=F
 DIIS: error= 4.11D-05 at cycle  14 NSaved=  14.
 NSaved=14 IEnMin=14 EnMin= -24.9039070469927     IErMin=14 ErrMin= 4.11D-05
 ErrMax= 4.11D-05  0.00D+00 EMaxC= 1.00D-01 BMatC= 1.93D-07 BMatP= 7.94D-07
 IDIUse=1 WtCom= 1.00D+00 WtEn= 0.00D+00
 Coeff-Com: -0.367D-04 0.866D-04 0.144D-03 0.825D-03-0.107D-01 0.213D-01
 Coeff-Com:  0.120D-01-0.906D-01 0.117D+00-0.704D-01-0.174D+00 0.176D+01
 Coeff-Com: -0.259D+01 0.203D+01
 Coeff:     -0.367D-04 0.866D-04 0.144D-03 0.825D-03-0.107D-01 0.213D-01
 Coeff:      0.120D-01-0.906D-01 0.117D+00-0.704D-01-0.174D+00 0.176D+01
 Coeff:     -0.259D+01 0.203D+01
 Gap=     0.164 Goal=   None    Shift=    0.000
 Gap=     0.164 Goal=   None    Shift=    0.000
 RMSDP=2.73D-05 MaxDP=8.26D-04 DE=-7.85D-06 OVMax= 4.96D-03

 Cycle  15  Pass 1  IDiag  1:
 Density matrix breaks symmetry, PCut= 1.00D-07
 Density matrix has no symmetry -- integrals replicated.
 E= -24.9039081190594     Delta-E=       -0.000001072067 Rises=F Damp=F
 DIIS: error= 3.21D-05 at cycle  15 NSaved=  15.
 NSaved=15 IEnMin=15 EnMin= -24.9039081190594     IErMin=15 ErrMin= 3.21D-05
 ErrMax= 3.21D-05  0.00D+00 EMaxC= 1.00D-01 BMatC= 8.62D-08 BMatP= 1.93D-07
 IDIUse=1 WtCom= 1.00D+00 WtEn= 0.00D+00
 Coeff-Com:  0.537D-04-0.147D-03 0.283D-03 0.120D-02-0.706D-02 0.110D-01
 Coeff-Com: -0.517D-02-0.130D-01 0.223D-01-0.261D-01 0.241D-01-0.520D-01
 Coeff-Com:  0.224D+00-0.312D+00 0.113D+01
 Coeff:      0.537D-04-0.147D-03 0.283D-03 0.120D-02-0.706D-02 0.110D-01
 Coeff:     -0.517D-02-0.130D-01 0.223D-01-0.261D-01 0.241D-01-0.520D-01
 Coeff:      0.224D+00-0.312D+00 0.113D+01
 Gap=     0.164 Goal=   None    Shift=    0.000
 Gap=     0.164 Goal=   None    Shift=    0.000
 RMSDP=4.42D-06 MaxDP=1.33D-04 DE=-1.07D-06 OVMax= 9.15D-04

 Cycle  16  Pass 1  IDiag  1:
 Density matrix breaks symmetry, PCut= 1.00D-07
 Density matrix has no symmetry -- integrals replicated.
 E= -24.9039082477361     Delta-E=       -0.000000128677 Rises=F Damp=F
 DIIS: error= 2.41D-06 at cycle  16 NSaved=  16.
 NSaved=16 IEnMin=16 EnMin= -24.9039082477361     IErMin=16 ErrMin= 2.41D-06
 ErrMax= 2.41D-06  0.00D+00 EMaxC= 1.00D-01 BMatC= 3.87D-10 BMatP= 8.62D-08
 IDIUse=1 WtCom= 1.00D+00 WtEn= 0.00D+00
 Coeff-Com: -0.148D-04 0.348D-04-0.381D-04-0.204D-03 0.613D-03-0.165D-03
 Coeff-Com:  0.624D-03-0.127D-02 0.837D-03 0.598D-02-0.348D-01 0.119D+00
 Coeff-Com: -0.170D+00 0.117D+00-0.255D+00 0.122D+01
 Coeff:     -0.148D-04 0.348D-04-0.381D-04-0.204D-03 0.613D-03-0.165D-03
 Coeff:      0.624D-03-0.127D-02 0.837D-03 0.598D-02-0.348D-01 0.119D+00
 Coeff:     -0.170D+00 0.117D+00-0.255D+00 0.122D+01
 Gap=     0.164 Goal=   None    Shift=    0.000
 Gap=     0.164 Goal=   None    Shift=    0.000
 RMSDP=8.31D-07 MaxDP=2.63D-05 DE=-1.29D-07 OVMax= 1.46D-04

 Cycle  17  Pass 1  IDiag  1:
 Density matrix breaks symmetry, PCut= 1.00D-07
 Density matrix has no symmetry -- integrals replicated.
 E= -24.9039082492535     Delta-E=       -0.000000001517 Rises=F Damp=F
 DIIS: error= 1.42D-06 at cycle  17 NSaved=  17.
 NSaved=17 IEnMin=17 EnMin= -24.9039082492535     IErMin=17 ErrMin= 1.42D-06
 ErrMax= 1.42D-06  0.00D+00 EMaxC= 1.00D-01 BMatC= 1.60D-10 BMatP= 3.87D-10
 IDIUse=1 WtCom= 1.00D+00 WtEn= 0.00D+00
 Coeff-Com: -0.116D-04 0.211D-04-0.869D-05-0.709D-04 0.192D-03-0.329D-03
 Coeff-Com:  0.887D-04 0.727D-03-0.103D-02-0.111D-02 0.125D-01-0.486D-01
 Coeff-Com:  0.704D-01-0.516D-01 0.928D-01-0.307D+00 0.123D+01
 Coeff:     -0.116D-04 0.211D-04-0.869D-05-0.709D-04 0.192D-03-0.329D-03
 Coeff:      0.887D-04 0.727D-03-0.103D-02-0.111D-02 0.125D-01-0.486D-01
 Coeff:      0.704D-01-0.516D-01 0.928D-01-0.307D+00 0.123D+01
 Gap=     0.164 Goal=   None    Shift=    0.000
 Gap=     0.164 Goal=   None    Shift=    0.000
 RMSDP=1.28D-07 MaxDP=4.27D-06 DE=-1.52D-09 OVMax= 2.29D-05

 Cycle  18  Pass 1  IDiag  1:
 Density matrix breaks symmetry, PCut= 1.00D-07
 Density matrix has no symmetry -- integrals replicated.
 E= -24.9039082494757     Delta-E=       -0.000000000222 Rises=F Damp=F
 DIIS: error= 1.83D-07 at cycle  18 NSaved=  18.
 NSaved=18 IEnMin=18 EnMin= -24.9039082494757     IErMin=18 ErrMin= 1.83D-07
 ErrMax= 1.83D-07  0.00D+00 EMaxC= 1.00D-01 BMatC= 2.98D-12 BMatP= 1.60D-10
 IDIUse=1 WtCom= 1.00D+00 WtEn= 0.00D+00
 Coeff-Com:  0.816D-06-0.139D-05-0.256D-05 0.432D-05-0.555D-04 0.135D-03
 Coeff-Com:  0.908D-04-0.596D-03 0.792D-03-0.735D-03-0.751D-03 0.881D-02
 Coeff-Com: -0.151D-01 0.117D-01-0.159D-01 0.112D-01-0.180D+00 0.118D+01
 Coeff:      0.816D-06-0.139D-05-0.256D-05 0.432D-05-0.555D-04 0.135D-03
 Coeff:      0.908D-04-0.596D-03 0.792D-03-0.735D-03-0.751D-03 0.881D-02
 Coeff:     -0.151D-01 0.117D-01-0.159D-01 0.112D-01-0.180D+00 0.118D+01
 Gap=     0.164 Goal=   None    Shift=    0.000
 Gap=     0.164 Goal=   None    Shift=    0.000
 RMSDP=5.44D-08 MaxDP=1.81D-06 DE=-2.22D-10 OVMax= 9.22D-06

 Cycle  19  Pass 1  IDiag  1:
 Density matrix breaks symmetry, PCut= 1.00D-07
 Density matrix has no symmetry -- integrals replicated.
 E= -24.9039082494737     Delta-E=        0.000000000002 Rises=F Damp=F
 DIIS: error= 1.93D-07 at cycle  19 NSaved=  19.
 NSaved=19 IEnMin=18 EnMin= -24.9039082494757     IErMin=18 ErrMin= 1.83D-07
 ErrMax= 1.93D-07  0.00D+00 EMaxC= 1.00D-01 BMatC= 3.35D-12 BMatP= 2.98D-12
 IDIUse=1 WtCom= 1.00D+00 WtEn= 0.00D+00
 Coeff-Com:  0.657D-06-0.124D-05 0.450D-06 0.393D-05-0.731D-05-0.246D-05
 Coeff-Com: -0.377D-04 0.935D-04-0.111D-03 0.140D-03-0.136D-03 0.363D-03
 Coeff-Com: -0.533D-03 0.154D-02-0.529D-02 0.107D-01-0.103D-01-0.344D+00
 Coeff-Com:  0.135D+01
 Coeff:      0.657D-06-0.124D-05 0.450D-06 0.393D-05-0.731D-05-0.246D-05
 Coeff:     -0.377D-04 0.935D-04-0.111D-03 0.140D-03-0.136D-03 0.363D-03
 Coeff:     -0.533D-03 0.154D-02-0.529D-02 0.107D-01-0.103D-01-0.344D+00
 Coeff:      0.135D+01
 Gap=     0.164 Goal=   None    Shift=    0.000
 Gap=     0.164 Goal=   None    Shift=    0.000
 RMSDP=3.39D-08 MaxDP=9.85D-07 DE= 2.04D-12 OVMax= 6.73D-06

 Cycle  20  Pass 1  IDiag  1:
 Density matrix breaks symmetry, PCut= 1.00D-07
 Density matrix has no symmetry -- integrals replicated.
 E= -24.9039082494801     Delta-E=       -0.000000000006 Rises=F Damp=F
 DIIS: error= 1.02D-08 at cycle  20 NSaved=  20.
 NSaved=20 IEnMin=20 EnMin= -24.9039082494801     IErMin=20 ErrMin= 1.02D-08
 ErrMax= 1.02D-08  0.00D+00 EMaxC= 1.00D-01 BMatC= 4.72D-15 BMatP= 2.98D-12
 IDIUse=1 WtCom= 1.00D+00 WtEn= 0.00D+00
 Large coefficients: NSaved= 20 BigCof=    0.00 CofMax=   10.00 Det=-2.75D-15
 Inversion failed.  Reducing to 19 matrices.
 Large coefficients: NSaved= 19 BigCof=    0.00 CofMax=   10.00 Det=-2.77D-15
 Inversion failed.  Reducing to 18 matrices.
 Large coefficients: NSaved= 18 BigCof=    0.00 CofMax=   10.00 Det=-2.77D-15
 Inversion failed.  Reducing to 17 matrices.
 Large coefficients: NSaved= 17 BigCof=    0.00 CofMax=   10.00 Det=-2.87D-15
 Inversion failed.  Reducing to 16 matrices.
 Large coefficients: NSaved= 16 BigCof=    0.00 CofMax=   10.00 Det=-3.06D-15
 Inversion failed.  Reducing to 15 matrices.
 Coeff-Com: -0.220D-06 0.375D-05-0.149D-04 0.132D-04 0.138D-04-0.439D-04
 Coeff-Com:  0.153D-04 0.150D-03-0.661D-03 0.332D-02-0.692D-02-0.248D-03
 Coeff-Com:  0.896D-01-0.672D+00 0.159D+01
 Coeff:     -0.220D-06 0.375D-05-0.149D-04 0.132D-04 0.138D-04-0.439D-04
 Coeff:      0.153D-04 0.150D-03-0.661D-03 0.332D-02-0.692D-02-0.248D-03
 Coeff:      0.896D-01-0.672D+00 0.159D+01
 Gap=     0.164 Goal=   None    Shift=    0.000
 Gap=     0.164 Goal=   None    Shift=    0.000
 RMSDP=2.24D-09 MaxDP=7.50D-08 DE=-6.41D-12 OVMax= 4.95D-07

 Density matrix breaks symmetry, PCut= 1.00D-07
 Density matrix has no symmetry -- integrals replicated.
 SCF Done:  E(UHF) =  -24.9039082495     A.U. after   20 cycles
            NFock= 20  Conv=0.22D-08     -V/T= 2.0059
 <Sx>= 0.0000 <Sy>= 0.0000 <Sz>= 0.0000 <S**2>= 0.2059 S= 0.1752
 <L.S>=  0.00000000000    
 KE= 2.475752319711D+01 PE=-5.841876328272D+01 EE= 8.095860322472D+00
 Annihilation of the first spin contaminant:
 S**2 before annihilation     0.2059,   after     0.0034
 Leave Link  502 at Sun May 22 21:10:29 2022, MaxMem=   104857600 cpu:               4.0 elap:               4.0
 (Enter /apps/software/g16/l601.exe)
 Copying SCF densities to generalized density rwf, IOpCl= 1 IROHF=0.
 SCF density gives NOpUse=  1 NOpAll=  4.
 Marking SCF density as not fully symmetric.

 **********************************************************************

            Population analysis using the SCF density.

 **********************************************************************

 Orbital symmetries:
 Alpha Orbitals:
       Occupied  (SG) (?A) (?A)
       Virtual   (?A) (?A) (?A) (?A) (?A) (?A) (SG) (SG) (?B) (?B)
                 (?B) (?B) (SG) (?C) (?C) (?C) (?C) (?C) (?C) (SG)
                 (?D) (?D) (?D) (?D) (?E) (?E) (?E) (?E) (?E) (?E)
                 (?E) (SG) (SG) (DLTA) (DLTA) (PI) (PI) (SG) (PI)
                 (PI) (?F) (?F) (?F) (?F) (?G) (?G) (?G) (?G) (?G)
                 (?G) (?G) (?G) (?G) (?G) (?G) (?G) (?G) (?G) (?H)
                 (?H) (?H) (?H) (?H) (?H) (?H) (SG) (PHI) (PHI)
                 (DLTA) (DLTA) (PI) (PI) (SG) (SG) (DLTA) (DLTA)
                 (PI) (PI) (SG) (PI) (PI) (SG) (?I) (?I) (?I) (?J)
                 (?J) (?J) (?J) (?J) (?J) (?J) (?J) (?J) (?J) (?J)
                 (?J) (?J) (SG) (?K) (?K) (?K) (?K) (?K) (?K) (SG)
                 (PHI) (PHI) (DLTA) (DLTA) (PI) (PI) (SG) (SG)
                 (PI) (PI) (SG) (DLTA) (DLTA) (PI) (PI) (SG) (SG)
 Beta  Orbitals:
       Occupied  (SG) (?A) (?A)
       Virtual   (?A) (?A) (?A) (?A) (?A) (?A) (SG) (SG) (?B) (?B)
                 (?B) (?B) (SG) (?C) (?C) (?C) (?C) (?C) (?C) (SG)
                 (?D) (?D) (?D) (?D) (?E) (?E) (?E) (?E) (?E) (?E)
                 (?E) (SG) (SG) (DLTA) (DLTA) (PI) (PI) (SG) (PI)
                 (PI) (?F) (?F) (?F) (?F) (?G) (?G) (?G) (?G) (?G)
                 (?G) (?G) (?G) (?G) (?G) (?G) (?G) (?G) (?G) (?H)
                 (?H) (?H) (?H) (?H) (?H) (?H) (SG) (PHI) (PHI)
                 (DLTA) (DLTA) (PI) (PI) (SG) (SG) (DLTA) (DLTA)
                 (PI) (PI) (SG) (PI) (PI) (SG) (?I) (?I) (?I) (?J)
                 (?J) (?J) (?J) (?J) (?J) (?J) (?J) (?J) (?J) (?J)
                 (?J) (?J) (SG) (?K) (?K) (?K) (?K) (?K) (?K) (SG)
                 (PHI) (PHI) (DLTA) (DLTA) (PI) (PI) (SG) (SG)
                 (PI) (PI) (SG) (DLTA) (DLTA) (PI) (PI) (SG) (SG)
 Unable to determine electronic state:  an orbital has unidentified symmetry.
 Alpha  occ. eigenvalues --   -7.87882  -0.61457  -0.24136
 Alpha virt. eigenvalues --   -0.07713  -0.03962  -0.03022   0.02588   0.04478
 Alpha virt. eigenvalues --    0.04542   0.06464   0.09434   0.12240   0.12241
 Alpha virt. eigenvalues --    0.12932   0.12978   0.15821   0.24119   0.24344
 Alpha virt. eigenvalues --    0.24879   0.25773   0.25884   0.29482   0.33896
 Alpha virt. eigenvalues --    0.42157   0.42157   0.42787   0.42787   0.43940
 Alpha virt. eigenvalues --    0.43958   0.44253   0.44600   0.44691   0.45692
 Alpha virt. eigenvalues --    0.45801   0.47484   0.56273   0.68989   0.68989
 Alpha virt. eigenvalues --    0.73994   0.74016   0.81811   0.86997   0.87003
 Alpha virt. eigenvalues --    0.95135   0.95146   0.95828   0.99850   1.29910
 Alpha virt. eigenvalues --    1.30368   1.30368   1.30940   1.30969   1.31207
 Alpha virt. eigenvalues --    1.31212   1.31831   1.31837   1.32051   1.32211
 Alpha virt. eigenvalues --    1.32865   1.33036   1.33344   1.35741   1.35741
 Alpha virt. eigenvalues --    1.36763   1.36773   1.37394   1.39350   1.39588
 Alpha virt. eigenvalues --    1.47961   1.64212   1.64212   1.64768   1.64768
 Alpha virt. eigenvalues --    1.68625   1.68645   1.70391   1.83147   2.55283
 Alpha virt. eigenvalues --    2.55283   2.58579   2.58584   2.66292   2.68193
 Alpha virt. eigenvalues --    2.68196   2.76644   3.59144   3.59340   3.63058
 Alpha virt. eigenvalues --    3.81278   3.81278   3.82001   3.82003   3.82163
 Alpha virt. eigenvalues --    3.82165   3.82839   3.82860   3.83191   3.83433
 Alpha virt. eigenvalues --    3.83911   3.84044   3.84219   3.90966   3.96301
 Alpha virt. eigenvalues --    3.96301   3.97412   3.97414   3.99457   3.99774
 Alpha virt. eigenvalues --    4.04473   6.64859   6.64859   6.65021   6.65021
 Alpha virt. eigenvalues --    6.65914   6.65916   6.67602   7.54889   8.04040
 Alpha virt. eigenvalues --    8.04041   8.08315   8.48573   8.48573   8.50822
 Alpha virt. eigenvalues --    8.50823   8.57773  12.90706
  Beta  occ. eigenvalues --   -7.87882  -0.61457  -0.24136
  Beta virt. eigenvalues --   -0.07713  -0.03962  -0.03022   0.02588   0.04478
  Beta virt. eigenvalues --    0.04542   0.06464   0.09434   0.12240   0.12241
  Beta virt. eigenvalues --    0.12932   0.12978   0.15821   0.24119   0.24344
  Beta virt. eigenvalues --    0.24879   0.25773   0.25884   0.29482   0.33896
  Beta virt. eigenvalues --    0.42157   0.42157   0.42787   0.42787   0.43940
  Beta virt. eigenvalues --    0.43958   0.44253   0.44600   0.44691   0.45692
  Beta virt. eigenvalues --    0.45801   0.47484   0.56273   0.68989   0.68989
  Beta virt. eigenvalues --    0.73994   0.74016   0.81811   0.86997   0.87003
  Beta virt. eigenvalues --    0.95135   0.95146   0.95828   0.99850   1.29910
  Beta virt. eigenvalues --    1.30368   1.30368   1.30940   1.30969   1.31207
  Beta virt. eigenvalues --    1.31212   1.31831   1.31837   1.32051   1.32211
  Beta virt. eigenvalues --    1.32865   1.33036   1.33344   1.35741   1.35741
  Beta virt. eigenvalues --    1.36763   1.36773   1.37394   1.39350   1.39588
  Beta virt. eigenvalues --    1.47961   1.64212   1.64212   1.64768   1.64768
  Beta virt. eigenvalues --    1.68625   1.68645   1.70391   1.83147   2.55283
  Beta virt. eigenvalues --    2.55283   2.58579   2.58584   2.66292   2.68193
  Beta virt. eigenvalues --    2.68196   2.76644   3.59144   3.59340   3.63058
  Beta virt. eigenvalues --    3.81278   3.81278   3.82001   3.82003   3.82163
  Beta virt. eigenvalues --    3.82165   3.82839   3.82860   3.83191   3.83433
  Beta virt. eigenvalues --    3.83911   3.84044   3.84219   3.90966   3.96301
  Beta virt. eigenvalues --    3.96301   3.97412   3.97414   3.99457   3.99774
  Beta virt. eigenvalues --    4.04473   6.64859   6.64859   6.65021   6.65021
  Beta virt. eigenvalues --    6.65914   6.65916   6.67602   7.54889   8.04040
  Beta virt. eigenvalues --    8.04041   8.08315   8.48573   8.48573   8.50822
  Beta virt. eigenvalues --    8.50823   8.57773  12.90706
          Condensed to atoms (all electrons):
               1          2
     1  B    4.511396   0.122839
     2  H    0.122839   1.242926
          Atomic-Atomic Spin Densities.
               1          2
     1  B   -0.000000  -0.000000
     2  H   -0.000000   0.000000
 Mulliken charges and spin densities:
               1          2
     1  B    0.365765  -0.000000
     2  H   -0.365765   0.000000
 Sum of Mulliken charges =  -0.00000   0.00000
 Mulliken charges and spin densities with hydrogens summed into heavy atoms:
               1          2
     1  B   -0.000000   0.000000
 Electronic spatial extent (au):  <R**2>=             81.9480
 Charge=             -0.0000 electrons
 Dipole moment (field-independent basis, Debye):
    X=              0.0000    Y=              0.0000    Z=              7.7145  Tot=              7.7145
 Quadrupole moment (field-independent basis, Debye-Ang):
   XX=             -9.4688   YY=             -9.0431   ZZ=            -27.6683
   XY=              0.0000   XZ=             -0.0000   YZ=              0.0000
 Traceless Quadrupole moment (field-independent basis, Debye-Ang):
   XX=              5.9246   YY=              6.3503   ZZ=            -12.2749
   XY=              0.0000   XZ=             -0.0000   YZ=              0.0000
 Octapole moment (field-independent basis, Debye-Ang**2):
  XXX=              0.0000  YYY=             -0.0000  ZZZ=             74.8869  XYY=              0.0000
  XXY=              0.0000  XXZ=              8.6826  XZZ=             -0.0000  YZZ=              0.0000
  YYZ=              8.9831  XYZ=              0.0000
 Hexadecapole moment (field-independent basis, Debye-Ang**3):
 XXXX=            -21.3637 YYYY=            -19.7293 ZZZZ=           -415.8984 XXXY=              0.0000
 XXXZ=             -0.0000 YYYX=              0.0000 YYYZ=              0.0000 ZZZX=             -0.0000
 ZZZY=              0.0000 XXYY=             -6.8494 XXZZ=            -47.3742 YYZZ=            -46.8664
 XXYZ=             -0.0000 YYXZ=             -0.0000 ZZXY=              0.0000
 N-N= 6.614715136500D-01 E-N=-5.841876342592D+01  KE= 2.475752319711D+01
 Symmetry A1   KE= 2.468107274659D+01
 Symmetry A2   KE= 1.667933925840D-29
 Symmetry B1   KE= 7.645045052575D-02
 Symmetry B2   KE= 4.076462174950D-29
 Symmetry A1   SP= 1.010591564083D-09
 Symmetry A2   SP=-2.860092138853D-31
 Symmetry B1   SP=-1.010585152433D-09
 Symmetry B2   SP=-2.378642949492D-30
                          Isotropic Fermi Contact Couplings
        Atom                 a.u.       MegaHertz       Gauss      10(-4) cm-1
     1  B(11)              0.00000       0.00000       0.00000       0.00000
     2  H(1)               0.00000       0.00000       0.00000       0.00000
 --------------------------------------------------------
       Center         ----  Spin Dipole Couplings  ----
                      3XX-RR        3YY-RR        3ZZ-RR
 --------------------------------------------------------
     1   Atom        0.000000      0.000000     -0.000000
     2   Atom        0.000000      0.000000     -0.000000
 --------------------------------------------------------
                        XY            XZ            YZ
 --------------------------------------------------------
     1   Atom        0.000000     -0.166259      0.000000
     2   Atom        0.000000      0.001004     -0.000000
 --------------------------------------------------------


 ---------------------------------------------------------------------------------
              Anisotropic Spin Dipole Couplings in Principal Axis System
 ---------------------------------------------------------------------------------

       Atom             a.u.   MegaHertz   Gauss  10(-4) cm-1        Axes

              Baa    -0.1663   -28.466   -10.157    -9.495  0.7071 -0.0000  0.7071
     1 B(11)  Bbb     0.0000     0.000     0.000     0.000  0.0000  1.0000  0.0000
              Bcc     0.1663    28.466    10.157     9.495  0.7071 -0.0000 -0.7071
 
              Baa    -0.0010    -0.536    -0.191    -0.179  0.7071 -0.0000 -0.7071
     2 H(1)   Bbb     0.0000     0.000     0.000     0.000 -0.0000  1.0000 -0.0000
              Bcc     0.0010     0.536     0.191     0.179  0.7071  0.0000  0.7071
 

 ---------------------------------------------------------------------------------

 No NMR shielding tensors so no spin-rotation constants.
 Leave Link  601 at Sun May 22 21:10:30 2022, MaxMem=   104857600 cpu:               0.2 elap:               0.2
 (Enter /apps/software/g16/l801.exe)
 Range of M.O.s used for correlation:     1   126
 NBasis=   126 NAE=     3 NBE=     3 NFC=     0 NFV=     0
 NROrb=    126 NOA=     3 NOB=     3 NVA=   123 NVB=   123
 Leave Link  801 at Sun May 22 21:10:30 2022, MaxMem=   104857600 cpu:               0.0 elap:               0.0
 (Enter /apps/software/g16/l914.exe)
 UHF ground state
 Doing stability rather than CIS.
 Keep R1 and R2 ints in memory in symmetry-blocked form, NReq=40144005.
 FoFCou: FMM=F IPFlag=           0 FMFlag=           0 FMFlg1=           0
         NFxFlg=           0 DoJE=F BraDBF=F KetDBF=F FulRan=T
         wScrn=  0.000000 ICntrl=       600 IOpCl=  0 I1Cent=           0 NGrid=           0
         NMat0=    1 NMatS0=   8001 NMatT0=    0 NMatD0=    1 NMtDS0=    0 NMtDT0=    0
 Petite list used in FoFCou.
 MDV=   104857600 DFT=F DoStab=T Mixed=F DoRPA=F DoScal=F NonHer=F
 Making orbital integer symmetry assigments:
 Orbital symmetries:
 Alpha Orbitals:
       Occupied  (SG) (?A) (?A)
       Virtual   (?A) (?A) (?A) (?A) (?A) (?A) (SG) (SG) (?B) (?B)
                 (?B) (?B) (SG) (?C) (?C) (?C) (?C) (?C) (?C) (SG)
                 (?D) (?D) (?D) (?D) (?E) (?E) (?E) (?E) (?E) (?E)
                 (?E) (SG) (SG) (DLTA) (DLTA) (PI) (PI) (SG) (PI)
                 (PI) (?F) (?F) (?F) (?F) (?G) (?G) (?G) (?G) (?G)
                 (?G) (?G) (?G) (?G) (?G) (?G) (?G) (?G) (?G) (?H)
                 (?H) (?H) (?H) (?H) (?H) (?H) (SG) (PHI) (PHI)
                 (DLTA) (DLTA) (PI) (PI) (SG) (SG) (DLTA) (DLTA)
                 (PI) (PI) (SG) (PI) (PI) (SG) (?I) (?I) (?I) (?J)
                 (?J) (?J) (?J) (?J) (?J) (?J) (?J) (?J) (?J) (?J)
                 (?J) (?J) (SG) (?K) (?K) (?K) (?K) (?K) (?K) (SG)
                 (PHI) (PHI) (DLTA) (DLTA) (PI) (PI) (SG) (SG)
                 (PI) (PI) (SG) (DLTA) (DLTA) (PI) (PI) (SG) (SG)
 Beta  Orbitals:
       Occupied  (SG) (?A) (?A)
       Virtual   (?A) (?A) (?A) (?A) (?A) (?A) (SG) (SG) (?B) (?B)
                 (?B) (?B) (SG) (?C) (?C) (?C) (?C) (?C) (?C) (SG)
                 (?D) (?D) (?D) (?D) (?E) (?E) (?E) (?E) (?E) (?E)
                 (?E) (SG) (SG) (DLTA) (DLTA) (PI) (PI) (SG) (PI)
                 (PI) (?F) (?F) (?F) (?F) (?G) (?G) (?G) (?G) (?G)
                 (?G) (?G) (?G) (?G) (?G) (?G) (?G) (?G) (?G) (?H)
                 (?H) (?H) (?H) (?H) (?H) (?H) (SG) (PHI) (PHI)
                 (DLTA) (DLTA) (PI) (PI) (SG) (SG) (DLTA) (DLTA)
                 (PI) (PI) (SG) (PI) (PI) (SG) (?I) (?I) (?I) (?J)
                 (?J) (?J) (?J) (?J) (?J) (?J) (?J) (?J) (?J) (?J)
                 (?J) (?J) (SG) (?K) (?K) (?K) (?K) (?K) (?K) (SG)
                 (PHI) (PHI) (DLTA) (DLTA) (PI) (PI) (SG) (SG)
                 (PI) (PI) (SG) (DLTA) (DLTA) (PI) (PI) (SG) (SG)
    12 initial guesses have been made.
 Convergence on wavefunction:    0.001000000000000
 Davidson Disk Diagonalization:  ConvIn= 1.00D-03 SkipCon=T Conv= 1.00D-03.
 Max sub-space:  1476 roots to seek:    12 dimension of matrix:          738
 Iteration     1 Dimension    12 NMult     0 NNew     12
 CISAX will form    12 AO SS matrices at one time.
 NMat=    12 NSing=    12 JSym2X= 2.
 New state      1 was old state      5
 Excitation Energies [eV] at current iteration:
 Root      1 :    -4.743926551428084
 Root      2 :     0.662928523400254
 Root      3 :     1.049637791524876
 Root      4 :     1.125153536546561
 Root      5 :     1.159936392229420
 Root      6 :     4.370701404637226
 Root      7 :     4.459161131090589
 Root      8 :     5.232956898717599
 Root      9 :     5.287329586779665
 Root     10 :     5.298592011945903
 Root     11 :     5.364889904378752
 Root     12 :     7.919097253148730
 Iteration     2 Dimension    24 NMult    12 NNew     12
 CISAX will form    12 AO SS matrices at one time.
 NMat=    12 NSing=    12 JSym2X= 2.
 Root      1 not converged, maximum delta is    0.097469418595380
 Excitation Energies [eV] at current iteration:
 Root      1 :    -6.452227136073819   Change is   -1.708300584645736
 Root      2 :     0.133776774925397   Change is   -0.529151748474857
 Root      3 :     0.594854405939712   Change is   -0.530299130606849
 Root      4 :     0.632132721311740   Change is   -0.527803670917680
 Root      5 :     0.647700313157201   Change is   -0.401937478367674
 Root      6 :     4.119187983884701   Change is   -0.251513420752525
 Root      7 :     4.150288518148950   Change is   -0.308872612941638
 Root      8 :     4.707849540168908   Change is   -0.579480046610756
 Root      9 :     4.725787642925023   Change is   -0.507169255792576
 Root     10 :     4.794195425464487   Change is   -0.504396586481416
 Root     11 :     4.878297800305317   Change is   -0.486592104073435
 Root     12 :     5.503199008296930   Change is   -2.415898244851800
 Iteration     3 Dimension    27 NMult    24 NNew      3
 CISAX will form     3 AO SS matrices at one time.
 NMat=     3 NSing=     3 JSym2X= 2.
 Root      1 not converged, maximum delta is    0.013789090746601
 Excitation Energies [eV] at current iteration:
 Root      1 :    -6.515891228507937   Change is   -0.063664092434117
 Root      2 :     0.105375421932384   Change is   -0.028401352993013
 Root      3 :     0.556315235843931   Change is   -0.038539170095781
 Iteration     4 Dimension    30 NMult    27 NNew      3
 CISAX will form     3 AO SS matrices at one time.
 NMat=     3 NSing=     3 JSym2X= 2.
 Root      1 not converged, maximum delta is    0.001841392406476
 Excitation Energies [eV] at current iteration:
 Root      1 :    -6.517118352322422   Change is   -0.001227123814485
 Root      2 :     0.018222339203803   Change is   -0.087153082728581
 Root      3 :     0.518652954844839   Change is   -0.037662280999092
 Iteration     5 Dimension    33 NMult    30 NNew      3
 CISAX will form     3 AO SS matrices at one time.
 NMat=     3 NSing=     3 JSym2X= 2.
 Root      1 has converged.
 Excitation Energies [eV] at current iteration:
 Root      1 :    -6.517131228117562   Change is   -0.000012875795141
 Root      2 :     0.001048201626163   Change is   -0.017174137577639
 Root      3 :     0.511435304765833   Change is   -0.007217650079006
 Convergence achieved on expansion vectors.
 ***********************************************************************
 Stability analysis using <AA,BB:AA,BB> singles matrix:
 ***********************************************************************
 1PDM for each excited state written to RWF  633
 Ground to excited state transition densities written to RWF  633

 Eigenvectors of the stability matrix:
 
 Excited state symmetry could not be determined.
 Eigenvector   1:  2.829-?Sym  Eigenvalue=-0.2395002  <S**2>=1.751
      3A ->  4A       -0.65837
      3A ->  6A       -0.13461
      3A ->  7A        0.10409
      3B ->  4B        0.65837
      3B ->  6B       -0.13461
      3B ->  7B       -0.10409
 The wavefunction has an internal instability.
 Leave Link  914 at Sun May 22 21:10:34 2022, MaxMem=   104857600 cpu:               4.2 elap:               4.2
 (Enter /apps/software/g16/l508.exe)
 Keep R1 and R2 ints in memory in symmetry-blocked form, NReq=40144065.
 FoFCou: FMM=F IPFlag=           0 FMFlag=           0 FMFlg1=           0
         NFxFlg=           0 DoJE=F BraDBF=F KetDBF=F FulRan=T
         wScrn=  0.000000 ICntrl=       600 IOpCl=  0 I1Cent=           0 NGrid=           0
         NMat0=    1 NMatS0=   8001 NMatT0=    0 NMatD0=    1 NMtDS0=    0 NMtDT0=    0
 Petite list used in FoFCou.
 Tight linear equation convergence will be used.
 UHF wavefunction.
 Quadratic Convergence SCF Method.
 Line search only if initial step raises energy.
 Perform preliminary linear searches along instability eigenvector.
     ILin= 1 X=0.000D+00 Y=-2.490390824948D+01 DE= 0.00D+00
     ILin= 2 X=1.000D-01 Y=-2.490628353987D+01 DE=-2.38D-03
     ILin= 3 X=1.414D-01 Y=-2.490861964557D+01 DE=-4.71D-03
     ILin= 4 X=2.000D-01 Y=-2.491317560867D+01 DE=-9.27D-03
     ILin= 5 X=2.828D-01 Y=-2.492183156454D+01 DE=-1.79D-02
     ILin= 6 X=4.000D-01 Y=-2.493739024273D+01 DE=-3.35D-02
     ILin= 7 X=5.657D-01 Y=-2.496203573356D+01 DE=-5.81D-02
     ILin= 8 X=8.000D-01 Y=-2.498940264940D+01 DE=-8.55D-02
     ILin= 9 X=1.131D+00 Y=-2.498292319932D+01 DE=-7.90D-02
     Reject polynomial minimum-5.092D+00 FVal=-3.363872553042D+02 Lims=  5.66D-01  1.13D+00
     ILin=10 X=1.600D+00 Y=-2.487033485944D+01 DE= 3.36D-02
     An  expanding polynomial of degree 10 produced  0.9373
 Iteration F X= 9.373D-01 EE=-2.499469579512253D+01
     ILin= 1 X=0.000D+00 Y=-2.490390824948D+01 DE= 0.00D+00
     ILin= 2 X=1.000D-01 Y=-2.490628353911D+01 DE=-2.38D-03
     ILin= 3 X=1.414D-01 Y=-2.490861964404D+01 DE=-4.71D-03
 The two search directions are symmetric.
 Iteration B X= 9.373D-01 EE=-2.499469579512253D+01
 Take forward step, X= 9.373D-01 Step= 9.373D-01
 Iteration   1 EE= -24.9946957939496                                    Grad=1.081D-01 Max rot=    2.5066 deg.
 Gradient too large for Newton-Raphson -- use scaled steepest descent instead.
 Alpha Gap=     0.495 HL deriv= 7.75D-02
  Beta Gap=     0.295 HL deriv= 1.48D-01
     ILin= 1 X=0.000D+00 Y=-2.499469579395D+01 DE= 0.00D+00 F= -3.87D-02
     ILin= 2 X=3.000D-01 Y=-2.500544929896D+01 DE=-1.08D-02 F= -3.28D-02
     ILin= 3 X=4.000D-01 Y=-2.500862421706D+01 DE=-1.39D-02 F= -3.07D-02
     ILin= 4 X=7.000D-01 Y=-2.501680284628D+01 DE=-2.21D-02 F= -2.37D-02
     ILin= 5 X=1.000D+00 Y=-2.502280512116D+01 DE=-2.81D-02 F= -1.62D-02
     ILin= 6 X=1.400D+00 Y=-2.502712856463D+01 DE=-3.24D-02 F= -5.31D-03
     ILin= 7 X=2.100D+00 Y=-2.502382682593D+01 DE=-2.91D-02 F=  1.49D-02
     An  expanding polynomial of degree  7 produced  1.5874
 Iteration   2 EE= -25.0276283189666     Delta-E=       -0.032932525017 Grad=4.835D-02 Max rot=    0.9615 deg.
 Gradient too large for Newton-Raphson -- use scaled steepest descent instead.
 Alpha Gap=     0.561 HL deriv= 2.99D-02
  Beta Gap=     0.357 HL deriv= 3.85D-02
     ILin= 1 X=0.000D+00 Y=-2.502762831897D+01 DE= 0.00D+00 F= -6.18D-03
     ILin= 2 X=7.000D-01 Y=-2.503085386905D+01 DE=-3.23D-03 F= -3.01D-03
     ILin= 3 X=1.300D+00 Y=-2.503181625764D+01 DE=-4.19D-03 F= -1.84D-04
     Reject lnstep minimum 1.628D+00 FVal=-2.503189558897D+01 Lims=  7.00D-01  1.30D+00
     ILin= 4 X=2.400D+00 Y=-2.502909013561D+01 DE=-1.46D-03 F=  5.17D-03
     An  expanding polynomial of degree  4 produced  1.3394
     Minimum is close to point  3 DX=  3.94D-02 DF= -3.71D-06 DXR=  2.94D-02 DFR=  8.86D-04 which will be used.
 Iteration   3 EE= -25.0318162576393     Delta-E=       -0.004187938673 Grad=1.875D-02 Max rot=    0.3171 deg.
 Gradient too large for Newton-Raphson -- use scaled steepest descent instead.
 Alpha Gap=     0.573 HL deriv= 5.02D-03
  Beta Gap=     0.367 HL deriv= 1.25D-02
     ILin= 1 X=0.000D+00 Y=-2.503181625764D+01 DE= 0.00D+00 F= -8.93D-04
     ILin= 2 X=1.500D+00 Y=-2.503252973927D+01 DE=-7.13D-04 F= -5.52D-05
     Reject lnstep minimum 1.527D+00 FVal=-2.503253024028D+01 Lims=  0.00D+00  1.50D+00
     ILin= 3 X=2.900D+00 Y=-2.503205028707D+01 DE=-2.34D-04 F=  7.42D-04
     An  expanding polynomial of degree  3 produced  1.5930
     Minimum is close to point  2 DX=  9.30D-02 DF= -2.44D-06 DXR=  5.84D-02 DFR=  3.42D-03 which will be used.
 Iteration   4 EE= -25.0325297392708     Delta-E=       -0.000713481631 Grad=9.036D-03 Max rot=    0.1644 deg.
 QCNR:  CnvC1=2.72D-09 CnvC2=2.72D-08
 LinEq1:  Iter=  0 NonCon=     1 RMS=4.43D-04 Max=4.94D-03 NDo=     1
 AX will form     1 AO Fock derivatives at one time.
 LinEq1:  Iter=  1 NonCon=     1 RMS=1.24D-04 Max=1.17D-03 NDo=     1
 LinEq1:  Iter=  2 NonCon=     1 RMS=3.43D-05 Max=3.32D-04 NDo=     1
 LinEq1:  Iter=  3 NonCon=     1 RMS=4.31D-06 Max=4.37D-05 NDo=     1
 LinEq1:  Iter=  4 NonCon=     1 RMS=8.12D-07 Max=9.29D-06 NDo=     1
 LinEq1:  Iter=  5 NonCon=     1 RMS=1.63D-07 Max=1.83D-06 NDo=     1
 LinEq1:  Iter=  6 NonCon=     1 RMS=2.87D-08 Max=2.39D-07 NDo=     1
 LinEq1:  Iter=  7 NonCon=     1 RMS=8.23D-09 Max=1.23D-07 NDo=     1
 LinEq1:  Iter=  8 NonCon=     0 RMS=1.83D-09 Max=1.64D-08 NDo=     1
 Linear equations converged to 2.717D-09 2.717D-08 after     8 iterations.
 Angle between quadratic step and gradient=  59.49 degrees.
     ILin= 1 X=0.000D+00 Y=-2.503252973927D+01 DE= 0.00D+00 F= -8.75D-04
     ILin= 2 X=1.000D+00 Y=-2.503298647659D+01 DE=-4.57D-04 F= -5.01D-05
     Reject lnstep minimum 1.064D+00 FVal=-2.503298806871D+01 Lims=  0.00D+00  1.00D+00
     ILin= 3 X=1.800D+00 Y=-2.503276432062D+01 DE=-2.35D-04 F=  6.15D-04
     An  expanding polynomial of degree  3 produced  1.0597
     Minimum is close to point  2 DX=  5.97D-02 DF= -1.45D-06 DXR=  5.63D-02 DFR=  3.18D-03 which will be used.
 Iteration   5 EE= -25.0329864765896     Delta-E=       -0.000456737319 Grad=1.260D-03 Max rot=    0.0292 deg.
 QCNR:  CnvC1=2.72D-09 CnvC2=2.72D-08
 LinEq1:  Iter=  0 NonCon=     1 RMS=3.56D-05 Max=4.05D-04 NDo=     1
 LinEq1:  Iter=  1 NonCon=     1 RMS=1.14D-05 Max=9.73D-05 NDo=     1
 LinEq1:  Iter=  2 NonCon=     1 RMS=2.19D-06 Max=1.93D-05 NDo=     1
 LinEq1:  Iter=  3 NonCon=     1 RMS=4.30D-07 Max=3.57D-06 NDo=     1
 LinEq1:  Iter=  4 NonCon=     1 RMS=9.53D-08 Max=9.99D-07 NDo=     1
 LinEq1:  Iter=  5 NonCon=     1 RMS=3.16D-08 Max=3.03D-07 NDo=     1
 LinEq1:  Iter=  6 NonCon=     1 RMS=6.47D-09 Max=5.58D-08 NDo=     1
 LinEq1:  Iter=  7 NonCon=     0 RMS=1.40D-09 Max=1.53D-08 NDo=     1
 Linear equations converged to 2.717D-09 2.717D-08 after     7 iterations.
 Angle between quadratic step and gradient=  80.53 degrees.
     ILin= 1 X=0.000D+00 Y=-2.503298647659D+01 DE= 0.00D+00 F= -1.22D-05
     ILin= 2 X=1.000D+00 Y=-2.503299012814D+01 DE=-3.65D-06 F=  4.99D-06
     Accept linear search using points  1 and  2.
     An  expanding polynomial of degree  2 produced  0.7135
 Iteration   6 EE= -25.0329908412422     Delta-E=       -0.000004364653 Grad=2.240D-03 Max rot=    0.0716 deg.
 QCNR:  CnvC1=2.72D-09 CnvC2=2.72D-08
 LinEq1:  Iter=  0 NonCon=     1 RMS=3.07D-05 Max=3.57D-04 NDo=     1
 LinEq1:  Iter=  1 NonCon=     1 RMS=8.67D-06 Max=8.71D-05 NDo=     1
 LinEq1:  Iter=  2 NonCon=     1 RMS=1.80D-06 Max=1.63D-05 NDo=     1
 LinEq1:  Iter=  3 NonCon=     1 RMS=6.18D-07 Max=5.66D-06 NDo=     1
 LinEq1:  Iter=  4 NonCon=     1 RMS=1.14D-07 Max=1.33D-06 NDo=     1
 LinEq1:  Iter=  5 NonCon=     1 RMS=2.57D-08 Max=2.33D-07 NDo=     1
 LinEq1:  Iter=  6 NonCon=     1 RMS=7.32D-09 Max=6.26D-08 NDo=     1
 LinEq1:  Iter=  7 NonCon=     0 RMS=1.51D-09 Max=1.23D-08 NDo=     1
 Linear equations converged to 2.717D-09 2.717D-08 after     7 iterations.
 Angle between quadratic step and gradient=  86.97 degrees.
     ILin= 1 X=0.000D+00 Y=-2.503299084124D+01 DE= 0.00D+00 F= -6.88D-06
     ILin= 2 X=1.000D+00 Y=-2.503299285250D+01 DE=-2.01D-06 F=  2.81D-06
     Accept linear search using points  1 and  2.
     An  expanding polynomial of degree  2 produced  0.7069
 Iteration   7 EE= -25.0329932644185     Delta-E=       -0.000002423176 Grad=1.046D-03 Max rot=    0.0207 deg.
 QCNR:  CnvC1=2.72D-09 CnvC2=2.72D-08
 LinEq1:  Iter=  0 NonCon=     1 RMS=2.61D-05 Max=2.54D-04 NDo=     1
 LinEq1:  Iter=  1 NonCon=     1 RMS=7.04D-06 Max=5.41D-05 NDo=     1
 LinEq1:  Iter=  2 NonCon=     1 RMS=2.06D-06 Max=2.06D-05 NDo=     1
 LinEq1:  Iter=  3 NonCon=     1 RMS=4.78D-07 Max=4.14D-06 NDo=     1
 LinEq1:  Iter=  4 NonCon=     1 RMS=9.81D-08 Max=9.53D-07 NDo=     1
 LinEq1:  Iter=  5 NonCon=     1 RMS=2.43D-08 Max=2.45D-07 NDo=     1
 LinEq1:  Iter=  6 NonCon=     1 RMS=6.95D-09 Max=6.19D-08 NDo=     1
 LinEq1:  Iter=  7 NonCon=     0 RMS=1.90D-09 Max=1.96D-08 NDo=     1
 Linear equations converged to 2.717D-09 2.717D-08 after     7 iterations.
 Angle between quadratic step and gradient=  82.01 degrees.
     ILin= 1 X=0.000D+00 Y=-2.503299326442D+01 DE= 0.00D+00 F= -3.90D-06
     ILin= 2 X=1.000D+00 Y=-2.503299378438D+01 DE=-5.20D-07 F=  2.87D-06
     Accept linear search using points  1 and  2.
     An  expanding polynomial of degree  2 produced  0.5770
 Iteration   8 EE= -25.0329943903102     Delta-E=       -0.000001125892 Grad=1.784D-03 Max rot=    0.0613 deg.
 QCNR:  CnvC1=2.72D-09 CnvC2=2.72D-08
 LinEq1:  Iter=  0 NonCon=     1 RMS=1.83D-05 Max=1.56D-04 NDo=     1
 LinEq1:  Iter=  1 NonCon=     1 RMS=5.32D-06 Max=5.23D-05 NDo=     1
 LinEq1:  Iter=  2 NonCon=     1 RMS=1.51D-06 Max=1.76D-05 NDo=     1
 LinEq1:  Iter=  3 NonCon=     1 RMS=3.95D-07 Max=4.48D-06 NDo=     1
 LinEq1:  Iter=  4 NonCon=     1 RMS=7.78D-08 Max=9.09D-07 NDo=     1
 LinEq1:  Iter=  5 NonCon=     1 RMS=7.41D-09 Max=7.23D-08 NDo=     1
 LinEq1:  Iter=  6 NonCon=     0 RMS=1.75D-09 Max=2.07D-08 NDo=     1
 Linear equations converged to 2.717D-09 2.717D-08 after     6 iterations.
 Angle between quadratic step and gradient=  88.42 degrees.
     ILin= 1 X=0.000D+00 Y=-2.503299439031D+01 DE= 0.00D+00 F= -2.38D-05
     ILin= 2 X=1.000D+00 Y=-2.503295893711D+01 DE= 3.55D-05 F=  1.77D-04
     Reject lnstep minimum 4.000D-01 FVal=-2.503300064937D+01 Lims=  0.00D+00  1.00D+00
     ILin= 3 X=4.000D-01 Y=-2.503300017841D+01 DE=-5.79D-06 F=  6.95D-07
     A contracting polynomial of degree  3 produced  0.2870
 Iteration   9 EE= -25.0329995969272     Delta-E=       -0.000005206617 Grad=1.619D-03 Max rot=    0.0524 deg.
 QCNR:  CnvC1=2.72D-09 CnvC2=2.72D-08
 LinEq1:  Iter=  0 NonCon=     1 RMS=2.06D-05 Max=2.02D-04 NDo=     1
 LinEq1:  Iter=  1 NonCon=     1 RMS=6.45D-06 Max=6.56D-05 NDo=     1
 LinEq1:  Iter=  2 NonCon=     1 RMS=1.76D-06 Max=1.85D-05 NDo=     1
 LinEq1:  Iter=  3 NonCon=     1 RMS=3.26D-07 Max=2.87D-06 NDo=     1
 LinEq1:  Iter=  4 NonCon=     1 RMS=8.24D-08 Max=7.45D-07 NDo=     1
 LinEq1:  Iter=  5 NonCon=     1 RMS=2.26D-08 Max=2.07D-07 NDo=     1
 LinEq1:  Iter=  6 NonCon=     1 RMS=6.46D-09 Max=5.89D-08 NDo=     1
 LinEq1:  Iter=  7 NonCon=     0 RMS=1.18D-09 Max=1.15D-08 NDo=     1
 Linear equations converged to 2.717D-09 2.717D-08 after     7 iterations.
 Angle between quadratic step and gradient=  85.52 degrees.
     ILin= 1 X=0.000D+00 Y=-2.503299959693D+01 DE= 0.00D+00 F= -4.40D-06
     ILin= 2 X=1.000D+00 Y=-2.503300116801D+01 DE=-1.57D-06 F=  1.26D-06
     Accept linear search using points  1 and  2.
     An  expanding polynomial of degree  2 produced  0.7775
 Iteration  10 EE= -25.0330013086351     Delta-E=       -0.000001711708 Grad=1.022D-03 Max rot=    0.0199 deg.
 QCNR:  CnvC1=2.72D-09 CnvC2=2.72D-08
 LinEq1:  Iter=  0 NonCon=     1 RMS=2.18D-05 Max=2.00D-04 NDo=     1
 LinEq1:  Iter=  1 NonCon=     1 RMS=5.09D-06 Max=5.48D-05 NDo=     1
 LinEq1:  Iter=  2 NonCon=     1 RMS=1.28D-06 Max=1.42D-05 NDo=     1
 LinEq1:  Iter=  3 NonCon=     1 RMS=3.66D-07 Max=2.95D-06 NDo=     1
 LinEq1:  Iter=  4 NonCon=     1 RMS=8.12D-08 Max=6.39D-07 NDo=     1
 LinEq1:  Iter=  5 NonCon=     1 RMS=1.45D-08 Max=1.05D-07 NDo=     1
 LinEq1:  Iter=  6 NonCon=     0 RMS=2.58D-09 Max=2.05D-08 NDo=     1
 Linear equations converged to 2.717D-09 2.717D-08 after     6 iterations.
 Angle between quadratic step and gradient=  87.78 degrees.
     ILin= 1 X=0.000D+00 Y=-2.503300130864D+01 DE= 0.00D+00 F= -1.12D-05
     ILin= 2 X=1.000D+00 Y=-2.503299487612D+01 DE= 6.43D-06 F=  2.94D-05
     Reject lnstep minimum 3.654D-01 FVal=-2.503300346815D+01 Lims=  0.00D+00  1.00D+00
     ILin= 3 X=4.000D-01 Y=-2.503300321576D+01 DE=-1.91D-06 F=  1.64D-06
     A contracting polynomial of degree  3 produced  0.3277
 Iteration  11 EE= -25.0330032485195     Delta-E=       -0.000001939884 Grad=4.097D-03 Max rot=    0.1446 deg.
 QCNR:  CnvC1=2.72D-09 CnvC2=2.72D-08
 LinEq1:  Iter=  0 NonCon=     1 RMS=2.47D-05 Max=2.45D-04 NDo=     1
 LinEq1:  Iter=  1 NonCon=     1 RMS=6.29D-06 Max=5.24D-05 NDo=     1
 LinEq1:  Iter=  2 NonCon=     1 RMS=1.75D-06 Max=1.44D-05 NDo=     1
 LinEq1:  Iter=  3 NonCon=     1 RMS=5.30D-07 Max=4.11D-06 NDo=     1
 LinEq1:  Iter=  4 NonCon=     1 RMS=8.16D-08 Max=8.37D-07 NDo=     1
 LinEq1:  Iter=  5 NonCon=     1 RMS=1.75D-08 Max=1.37D-07 NDo=     1
 LinEq1:  Iter=  6 NonCon=     1 RMS=4.89D-09 Max=3.93D-08 NDo=     1
 LinEq1:  Iter=  7 NonCon=     0 RMS=1.31D-09 Max=1.27D-08 NDo=     1
 Linear equations converged to 2.717D-09 2.717D-08 after     7 iterations.
 Angle between quadratic step and gradient=  86.64 degrees.
     ILin= 1 X=0.000D+00 Y=-2.503300324852D+01 DE= 0.00D+00 F= -5.02D-06
     ILin= 2 X=1.000D+00 Y=-2.503300469820D+01 DE=-1.45D-06 F=  2.12D-06
     Accept linear search using points  1 and  2.
     An  expanding polynomial of degree  2 produced  0.7033
 Iteration  12 EE= -25.0330050127378     Delta-E=       -0.000001764218 Grad=1.459D-03 Max rot=    0.0395 deg.
 QCNR:  CnvC1=2.72D-09 CnvC2=2.72D-08
 LinEq1:  Iter=  0 NonCon=     1 RMS=1.43D-05 Max=1.46D-04 NDo=     1
 LinEq1:  Iter=  1 NonCon=     1 RMS=4.06D-06 Max=4.08D-05 NDo=     1
 LinEq1:  Iter=  2 NonCon=     1 RMS=1.17D-06 Max=1.12D-05 NDo=     1
 LinEq1:  Iter=  3 NonCon=     1 RMS=2.89D-07 Max=3.38D-06 NDo=     1
 LinEq1:  Iter=  4 NonCon=     1 RMS=5.15D-08 Max=4.69D-07 NDo=     1
 LinEq1:  Iter=  5 NonCon=     1 RMS=1.05D-08 Max=8.73D-08 NDo=     1
 LinEq1:  Iter=  6 NonCon=     1 RMS=3.64D-09 Max=3.67D-08 NDo=     1
 LinEq1:  Iter=  7 NonCon=     0 RMS=4.19D-10 Max=4.13D-09 NDo=     1
 Linear equations converged to 2.717D-09 2.717D-08 after     7 iterations.
 Angle between quadratic step and gradient=  88.25 degrees.
     ILin= 1 X=0.000D+00 Y=-2.503300501274D+01 DE= 0.00D+00 F= -3.52D-06
     ILin= 2 X=1.000D+00 Y=-2.503300520938D+01 DE=-1.97D-07 F=  3.13D-06
     Accept linear search using points  1 and  2.
     An  expanding polynomial of degree  2 produced  0.5297
 Iteration  13 EE= -25.0330059436816     Delta-E=       -0.000000930944 Grad=2.088D-03 Max rot=    0.0449 deg.
 QCNR:  CnvC1=2.72D-09 CnvC2=2.72D-08
 LinEq1:  Iter=  0 NonCon=     1 RMS=1.94D-05 Max=1.79D-04 NDo=     1
 LinEq1:  Iter=  1 NonCon=     1 RMS=4.45D-06 Max=3.71D-05 NDo=     1
 LinEq1:  Iter=  2 NonCon=     1 RMS=1.31D-06 Max=1.55D-05 NDo=     1
 LinEq1:  Iter=  3 NonCon=     1 RMS=3.07D-07 Max=2.92D-06 NDo=     1
 LinEq1:  Iter=  4 NonCon=     1 RMS=7.24D-08 Max=7.49D-07 NDo=     1
 LinEq1:  Iter=  5 NonCon=     1 RMS=1.44D-08 Max=1.20D-07 NDo=     1
 LinEq1:  Iter=  6 NonCon=     1 RMS=3.16D-09 Max=3.22D-08 NDo=     1
 LinEq1:  Iter=  7 NonCon=     0 RMS=1.09D-09 Max=1.18D-08 NDo=     1
 Linear equations converged to 2.717D-09 2.717D-08 after     7 iterations.
 Angle between quadratic step and gradient=  88.33 degrees.
     ILin= 1 X=0.000D+00 Y=-2.503300594368D+01 DE= 0.00D+00 F= -3.32D-06
     ILin= 2 X=1.000D+00 Y=-2.503300690529D+01 DE=-9.62D-07 F=  1.39D-06
     Accept linear search using points  1 and  2.
     An  expanding polynomial of degree  2 produced  0.7039
 Iteration  14 EE= -25.0330071106508     Delta-E=       -0.000001166969 Grad=1.397D-03 Max rot=    0.0286 deg.
 QCNR:  CnvC1=2.72D-09 CnvC2=2.72D-08
 LinEq1:  Iter=  0 NonCon=     1 RMS=1.28D-05 Max=1.11D-04 NDo=     1
 LinEq1:  Iter=  1 NonCon=     1 RMS=4.54D-06 Max=4.31D-05 NDo=     1
 LinEq1:  Iter=  2 NonCon=     1 RMS=1.13D-06 Max=6.47D-06 NDo=     1
 LinEq1:  Iter=  3 NonCon=     1 RMS=2.03D-07 Max=2.87D-06 NDo=     1
 LinEq1:  Iter=  4 NonCon=     1 RMS=4.43D-08 Max=3.66D-07 NDo=     1
 LinEq1:  Iter=  5 NonCon=     1 RMS=1.31D-08 Max=1.47D-07 NDo=     1
 LinEq1:  Iter=  6 NonCon=     1 RMS=3.21D-09 Max=2.40D-08 NDo=     1
 LinEq1:  Iter=  7 NonCon=     0 RMS=4.02D-10 Max=2.58D-09 NDo=     1
 Linear equations converged to 2.717D-09 2.717D-08 after     7 iterations.
 Angle between quadratic step and gradient=  88.18 degrees.
     ILin= 1 X=0.000D+00 Y=-2.503300711065D+01 DE= 0.00D+00 F= -3.84D-06
     ILin= 2 X=1.000D+00 Y=-2.503300608871D+01 DE= 1.02D-06 F=  5.87D-06
     Reject lnstep minimum 3.945D-01 FVal=-2.503300786801D+01 Lims=  0.00D+00  1.00D+00
     ILin= 3 X=4.000D-01 Y=-2.503300786546D+01 DE=-7.55D-07 F=  5.75D-08
     A contracting polynomial of degree  3 produced  0.3946
     Minimum is close to point  3 DX= -5.39D-03 DF= -1.41D-10 DXR=  1.37D-02 DFR=  1.87D-04 which will be used.
 Iteration  15 EE= -25.0330078654588     Delta-E=       -0.000000754808 Grad=1.995D-03 Max rot=    0.0529 deg.
 QCNR:  CnvC1=2.72D-09 CnvC2=2.72D-08
 LinEq1:  Iter=  0 NonCon=     1 RMS=1.89D-05 Max=1.48D-04 NDo=     1
 LinEq1:  Iter=  1 NonCon=     1 RMS=4.27D-06 Max=3.43D-05 NDo=     1
 LinEq1:  Iter=  2 NonCon=     1 RMS=1.27D-06 Max=1.10D-05 NDo=     1
 LinEq1:  Iter=  3 NonCon=     1 RMS=3.56D-07 Max=4.16D-06 NDo=     1
 LinEq1:  Iter=  4 NonCon=     1 RMS=6.53D-08 Max=6.90D-07 NDo=     1
 LinEq1:  Iter=  5 NonCon=     1 RMS=1.85D-08 Max=1.52D-07 NDo=     1
 LinEq1:  Iter=  6 NonCon=     1 RMS=4.39D-09 Max=3.54D-08 NDo=     1
 LinEq1:  Iter=  7 NonCon=     0 RMS=1.38D-09 Max=1.03D-08 NDo=     1
 Linear equations converged to 2.717D-09 2.717D-08 after     7 iterations.
 Angle between quadratic step and gradient=  85.85 degrees.
     ILin= 1 X=0.000D+00 Y=-2.503300786546D+01 DE= 0.00D+00 F= -1.83D-06
     ILin= 2 X=1.000D+00 Y=-2.503300839697D+01 DE=-5.32D-07 F=  7.63D-07
     Accept linear search using points  1 and  2.
     An  expanding polynomial of degree  2 produced  0.7053
 Iteration  16 EE= -25.0330085094368     Delta-E=       -0.000000643978 Grad=1.268D-03 Max rot=    0.0277 deg.
 QCNR:  CnvC1=2.72D-09 CnvC2=2.72D-08
 LinEq1:  Iter=  0 NonCon=     1 RMS=8.92D-06 Max=6.30D-05 NDo=     1
 LinEq1:  Iter=  1 NonCon=     1 RMS=2.75D-06 Max=2.94D-05 NDo=     1
 LinEq1:  Iter=  2 NonCon=     1 RMS=7.28D-07 Max=7.24D-06 NDo=     1
 LinEq1:  Iter=  3 NonCon=     1 RMS=1.97D-07 Max=2.19D-06 NDo=     1
 LinEq1:  Iter=  4 NonCon=     1 RMS=2.56D-08 Max=2.77D-07 NDo=     1
 LinEq1:  Iter=  5 NonCon=     1 RMS=6.70D-09 Max=7.01D-08 NDo=     1
 LinEq1:  Iter=  6 NonCon=     0 RMS=2.07D-09 Max=1.49D-08 NDo=     1
 Linear equations converged to 2.717D-09 2.717D-08 after     6 iterations.
 Angle between quadratic step and gradient=  87.99 degrees.
     ILin= 1 X=0.000D+00 Y=-2.503300850944D+01 DE= 0.00D+00 F= -9.30D-07
     ILin= 2 X=1.000D+00 Y=-2.503300882706D+01 DE=-3.18D-07 F=  2.94D-07
     Accept linear search using points  1 and  2.
     An  expanding polynomial of degree  2 produced  0.7595
 Iteration  17 EE= -25.0330088624360     Delta-E=       -0.000000352999 Grad=1.122D-03 Max rot=    0.0419 deg.
 QCNR:  CnvC1=2.72D-09 CnvC2=2.72D-08
 LinEq1:  Iter=  0 NonCon=     1 RMS=6.70D-06 Max=5.26D-05 NDo=     1
 LinEq1:  Iter=  1 NonCon=     1 RMS=2.38D-06 Max=2.37D-05 NDo=     1
 LinEq1:  Iter=  2 NonCon=     1 RMS=6.55D-07 Max=6.97D-06 NDo=     1
 LinEq1:  Iter=  3 NonCon=     1 RMS=1.25D-07 Max=1.50D-06 NDo=     1
 LinEq1:  Iter=  4 NonCon=     1 RMS=3.10D-08 Max=2.64D-07 NDo=     1
 LinEq1:  Iter=  5 NonCon=     1 RMS=7.75D-09 Max=7.87D-08 NDo=     1
 LinEq1:  Iter=  6 NonCon=     0 RMS=1.49D-09 Max=1.62D-08 NDo=     1
 Linear equations converged to 2.717D-09 2.717D-08 after     6 iterations.
 Angle between quadratic step and gradient=  87.28 degrees.
     ILin= 1 X=0.000D+00 Y=-2.503300886244D+01 DE= 0.00D+00 F= -8.14D-07
     ILin= 2 X=1.000D+00 Y=-2.503300903181D+01 DE=-1.69D-07 F=  4.78D-07
     Accept linear search using points  1 and  2.
     An  expanding polynomial of degree  2 produced  0.6314
 Iteration  18 EE= -25.0330091198597     Delta-E=       -0.000000257424 Grad=7.764D-04 Max rot=    0.0240 deg.
 QCNR:  CnvC1=2.72D-09 CnvC2=2.72D-08
 LinEq1:  Iter=  0 NonCon=     1 RMS=9.50D-06 Max=1.09D-04 NDo=     1
 LinEq1:  Iter=  1 NonCon=     1 RMS=2.24D-06 Max=2.08D-05 NDo=     1
 LinEq1:  Iter=  2 NonCon=     1 RMS=6.29D-07 Max=7.42D-06 NDo=     1
 LinEq1:  Iter=  3 NonCon=     1 RMS=2.06D-07 Max=2.07D-06 NDo=     1
 LinEq1:  Iter=  4 NonCon=     1 RMS=3.58D-08 Max=3.02D-07 NDo=     1
 LinEq1:  Iter=  5 NonCon=     1 RMS=7.18D-09 Max=5.57D-08 NDo=     1
 LinEq1:  Iter=  6 NonCon=     0 RMS=1.65D-09 Max=1.64D-08 NDo=     1
 Linear equations converged to 2.717D-09 2.717D-08 after     6 iterations.
 Angle between quadratic step and gradient=  87.93 degrees.
     ILin= 1 X=0.000D+00 Y=-2.503300911986D+01 DE= 0.00D+00 F= -9.64D-07
     ILin= 2 X=1.000D+00 Y=-2.503300952467D+01 DE=-4.05D-07 F=  1.60D-07
     Accept linear search using points  1 and  2.
     An  expanding polynomial of degree  2 produced  0.8596
 Iteration  19 EE= -25.0330095358530     Delta-E=       -0.000000415993 Grad=8.908D-04 Max rot=    0.0296 deg.
 QCNR:  CnvC1=2.72D-09 CnvC2=2.72D-08
 LinEq1:  Iter=  0 NonCon=     1 RMS=6.72D-06 Max=6.72D-05 NDo=     1
 LinEq1:  Iter=  1 NonCon=     1 RMS=2.55D-06 Max=2.32D-05 NDo=     1
 LinEq1:  Iter=  2 NonCon=     1 RMS=5.45D-07 Max=4.68D-06 NDo=     1
 LinEq1:  Iter=  3 NonCon=     1 RMS=8.91D-08 Max=1.00D-06 NDo=     1
 LinEq1:  Iter=  4 NonCon=     1 RMS=2.50D-08 Max=2.54D-07 NDo=     1
 LinEq1:  Iter=  5 NonCon=     1 RMS=7.51D-09 Max=7.19D-08 NDo=     1
 LinEq1:  Iter=  6 NonCon=     0 RMS=1.88D-09 Max=2.22D-08 NDo=     1
 Linear equations converged to 2.717D-09 2.717D-08 after     6 iterations.
 Angle between quadratic step and gradient=  85.64 degrees.
     ILin= 1 X=0.000D+00 Y=-2.503300953585D+01 DE= 0.00D+00 F= -7.60D-07
     ILin= 2 X=1.000D+00 Y=-2.503300976437D+01 DE=-2.29D-07 F=  3.05D-07
     Accept linear search using points  1 and  2.
     An  expanding polynomial of degree  2 produced  0.7148
 Iteration  20 EE= -25.0330098078291     Delta-E=       -0.000000271976 Grad=1.012D-03 Max rot=    0.0330 deg.
 QCNR:  CnvC1=2.72D-09 CnvC2=2.72D-08
 LinEq1:  Iter=  0 NonCon=     1 RMS=7.63D-06 Max=8.98D-05 NDo=     1
 LinEq1:  Iter=  1 NonCon=     1 RMS=2.14D-06 Max=1.95D-05 NDo=     1
 LinEq1:  Iter=  2 NonCon=     1 RMS=5.49D-07 Max=7.08D-06 NDo=     1
 LinEq1:  Iter=  3 NonCon=     1 RMS=1.85D-07 Max=2.11D-06 NDo=     1
 LinEq1:  Iter=  4 NonCon=     1 RMS=2.80D-08 Max=2.25D-07 NDo=     1
 LinEq1:  Iter=  5 NonCon=     1 RMS=4.97D-09 Max=3.06D-08 NDo=     1
 LinEq1:  Iter=  6 NonCon=     0 RMS=1.39D-09 Max=1.83D-08 NDo=     1
 Linear equations converged to 2.717D-09 2.717D-08 after     6 iterations.
 Angle between quadratic step and gradient=  88.60 degrees.
     ILin= 1 X=0.000D+00 Y=-2.503300980783D+01 DE= 0.00D+00 F= -9.67D-07
     ILin= 2 X=1.000D+00 Y=-2.503301024417D+01 DE=-4.36D-07 F=  9.07D-08
     Accept linear search using points  1 and  2.
     An  expanding polynomial of degree  2 produced  0.9134
     Minimum is close to point  2 DX= -8.66D-02 DF= -3.93D-09 DXR=  9.48D-02 DFR=  9.00D-03 which will be used.
 Iteration  21 EE= -25.0330102441739     Delta-E=       -0.000000436345 Grad=6.464D-04 Max rot=    0.0179 deg.
 QCNR:  CnvC1=2.72D-09 CnvC2=2.72D-08
 LinEq1:  Iter=  0 NonCon=     1 RMS=7.26D-06 Max=9.30D-05 NDo=     1
 LinEq1:  Iter=  1 NonCon=     1 RMS=2.53D-06 Max=1.75D-05 NDo=     1
 LinEq1:  Iter=  2 NonCon=     1 RMS=4.61D-07 Max=4.31D-06 NDo=     1
 LinEq1:  Iter=  3 NonCon=     1 RMS=8.35D-08 Max=9.08D-07 NDo=     1
 LinEq1:  Iter=  4 NonCon=     1 RMS=2.32D-08 Max=2.77D-07 NDo=     1
 LinEq1:  Iter=  5 NonCon=     1 RMS=6.74D-09 Max=6.52D-08 NDo=     1
 LinEq1:  Iter=  6 NonCon=     0 RMS=1.93D-09 Max=1.85D-08 NDo=     1
 Linear equations converged to 2.717D-09 2.717D-08 after     6 iterations.
 Angle between quadratic step and gradient=  82.04 degrees.
     ILin= 1 X=0.000D+00 Y=-2.503301024417D+01 DE= 0.00D+00 F= -7.72D-07
     ILin= 2 X=1.000D+00 Y=-2.503301051346D+01 DE=-2.69D-07 F=  2.33D-07
     Accept linear search using points  1 and  2.
     An  expanding polynomial of degree  2 produced  0.7678
 Iteration  22 EE= -25.0330105405520     Delta-E=       -0.000000296378 Grad=1.114D-03 Max rot=    0.0367 deg.
 QCNR:  CnvC1=2.72D-09 CnvC2=2.72D-08
 LinEq1:  Iter=  0 NonCon=     1 RMS=5.50D-06 Max=5.08D-05 NDo=     1
 LinEq1:  Iter=  1 NonCon=     1 RMS=1.77D-06 Max=1.73D-05 NDo=     1
 LinEq1:  Iter=  2 NonCon=     1 RMS=4.68D-07 Max=5.52D-06 NDo=     1
 LinEq1:  Iter=  3 NonCon=     1 RMS=1.40D-07 Max=1.51D-06 NDo=     1
 LinEq1:  Iter=  4 NonCon=     1 RMS=2.19D-08 Max=2.41D-07 NDo=     1
 LinEq1:  Iter=  5 NonCon=     1 RMS=4.88D-09 Max=5.53D-08 NDo=     1
 LinEq1:  Iter=  6 NonCon=     0 RMS=1.58D-09 Max=1.49D-08 NDo=     1
 Linear equations converged to 2.717D-09 2.717D-08 after     6 iterations.
 Angle between quadratic step and gradient=  88.15 degrees.
     ILin= 1 X=0.000D+00 Y=-2.503301054055D+01 DE= 0.00D+00 F= -3.80D-07
     ILin= 2 X=1.000D+00 Y=-2.503301072408D+01 DE=-1.84D-07 F=  1.32D-08
     Accept linear search using points  1 and  2.
     An  expanding polynomial of degree  2 produced  0.9664
     Minimum is close to point  2 DX= -3.36D-02 DF= -2.22D-10 DXR=  3.48D-02 DFR=  1.21D-03 which will be used.
 Iteration  23 EE= -25.0330107240774     Delta-E=       -0.000000183525 Grad=4.483D-04 Max rot=    0.0100 deg.
 QCNR:  CnvC1=2.72D-09 CnvC2=2.72D-08
 LinEq1:  Iter=  0 NonCon=     1 RMS=4.43D-06 Max=4.18D-05 NDo=     1
 LinEq1:  Iter=  1 NonCon=     1 RMS=1.69D-06 Max=1.69D-05 NDo=     1
 LinEq1:  Iter=  2 NonCon=     1 RMS=4.32D-07 Max=5.64D-06 NDo=     1
 LinEq1:  Iter=  3 NonCon=     1 RMS=5.88D-08 Max=5.55D-07 NDo=     1
 LinEq1:  Iter=  4 NonCon=     1 RMS=1.81D-08 Max=2.08D-07 NDo=     1
 LinEq1:  Iter=  5 NonCon=     1 RMS=4.51D-09 Max=4.39D-08 NDo=     1
 LinEq1:  Iter=  6 NonCon=     0 RMS=1.41D-09 Max=1.48D-08 NDo=     1
 Linear equations converged to 2.717D-09 2.717D-08 after     6 iterations.
 Angle between quadratic step and gradient=  85.95 degrees.
     ILin= 1 X=0.000D+00 Y=-2.503301072408D+01 DE= 0.00D+00 F= -2.65D-07
     ILin= 2 X=1.000D+00 Y=-2.503301065553D+01 DE= 6.85D-08 F=  4.03D-07
     Reject lnstep minimum 3.977D-01 FVal=-2.503301077685D+01 Lims=  0.00D+00  1.00D+00
     ILin= 3 X=4.000D-01 Y=-2.503301077685D+01 DE=-5.28D-08 F=  1.53D-09
     A contracting polynomial of degree  3 produced  0.3974
     Minimum is close to point  3 DX= -2.57D-03 DF= -2.21D-12 DXR=  6.46D-03 DFR=  4.18D-05 which will be used.
 Iteration  24 EE= -25.0330107768513     Delta-E=       -0.000000052774 Grad=8.592D-04 Max rot=    0.0277 deg.
 QCNR:  CnvC1=2.72D-09 CnvC2=2.72D-08
 LinEq1:  Iter=  0 NonCon=     1 RMS=4.05D-06 Max=3.76D-05 NDo=     1
 LinEq1:  Iter=  1 NonCon=     1 RMS=1.44D-06 Max=1.38D-05 NDo=     1
 LinEq1:  Iter=  2 NonCon=     1 RMS=3.92D-07 Max=4.42D-06 NDo=     1
 LinEq1:  Iter=  3 NonCon=     1 RMS=1.14D-07 Max=1.21D-06 NDo=     1
 LinEq1:  Iter=  4 NonCon=     1 RMS=1.28D-08 Max=1.52D-07 NDo=     1
 LinEq1:  Iter=  5 NonCon=     1 RMS=3.66D-09 Max=3.96D-08 NDo=     1
 LinEq1:  Iter=  6 NonCon=     0 RMS=9.19D-10 Max=9.45D-09 NDo=     1
 Linear equations converged to 2.717D-09 2.717D-08 after     6 iterations.
 Angle between quadratic step and gradient=  88.71 degrees.
     ILin= 1 X=0.000D+00 Y=-2.503301077685D+01 DE= 0.00D+00 F= -6.71D-07
     ILin= 2 X=1.000D+00 Y=-2.503300979193D+01 DE= 9.85D-07 F=  2.64D-06
     Reject lnstep minimum 2.029D-01 FVal=-2.503301084493D+01 Lims=  0.00D+00  1.00D+00
     ILin= 3 X=2.000D-01 Y=-2.503301084488D+01 DE=-6.80D-08 F= -9.20D-09
     A contracting polynomial of degree  3 produced  0.2027
     Minimum is close to point  3 DX=  2.68D-03 DF= -1.19D-11 DXR=  1.32D-02 DFR=  1.74D-04 which will be used.
 Iteration  25 EE= -25.0330108448780     Delta-E=       -0.000000068027 Grad=9.783D-04 Max rot=    0.0290 deg.
 QCNR:  CnvC1=2.72D-09 CnvC2=2.72D-08
 LinEq1:  Iter=  0 NonCon=     1 RMS=5.76D-06 Max=6.06D-05 NDo=     1
 LinEq1:  Iter=  1 NonCon=     1 RMS=1.70D-06 Max=1.79D-05 NDo=     1
 LinEq1:  Iter=  2 NonCon=     1 RMS=4.65D-07 Max=5.16D-06 NDo=     1
 LinEq1:  Iter=  3 NonCon=     1 RMS=1.28D-07 Max=1.25D-06 NDo=     1
 LinEq1:  Iter=  4 NonCon=     1 RMS=2.49D-08 Max=2.69D-07 NDo=     1
 LinEq1:  Iter=  5 NonCon=     1 RMS=5.31D-09 Max=5.09D-08 NDo=     1
 LinEq1:  Iter=  6 NonCon=     0 RMS=1.80D-09 Max=1.54D-08 NDo=     1
 Linear equations converged to 2.717D-09 2.717D-08 after     6 iterations.
 Angle between quadratic step and gradient=  88.05 degrees.
     ILin= 1 X=0.000D+00 Y=-2.503301084488D+01 DE= 0.00D+00 F= -3.29D-07
     ILin= 2 X=1.000D+00 Y=-2.503301099678D+01 DE=-1.52D-07 F=  2.54D-08
     Accept linear search using points  1 and  2.
     An  expanding polynomial of degree  2 produced  0.9283
     Minimum is close to point  2 DX= -7.17D-02 DF= -9.11D-10 DXR=  7.72D-02 DFR=  6.00D-03 which will be used.
 Iteration  26 EE= -25.0330109967805     Delta-E=       -0.000000151902 Grad=4.280D-04 Max rot=    0.0121 deg.
 QCNR:  CnvC1=2.72D-09 CnvC2=2.72D-08
 LinEq1:  Iter=  0 NonCon=     1 RMS=3.66D-06 Max=3.15D-05 NDo=     1
 LinEq1:  Iter=  1 NonCon=     1 RMS=1.40D-06 Max=1.32D-05 NDo=     1
 LinEq1:  Iter=  2 NonCon=     1 RMS=3.15D-07 Max=3.78D-06 NDo=     1
 LinEq1:  Iter=  3 NonCon=     1 RMS=5.61D-08 Max=5.20D-07 NDo=     1
 LinEq1:  Iter=  4 NonCon=     1 RMS=1.57D-08 Max=1.89D-07 NDo=     1
 LinEq1:  Iter=  5 NonCon=     1 RMS=4.25D-09 Max=4.34D-08 NDo=     1
 LinEq1:  Iter=  6 NonCon=     0 RMS=1.29D-09 Max=1.21D-08 NDo=     1
[...]
 NBasis=   126 NAE=     3 NBE=     3 NFC=     0 NFV=     0
 NROrb=    126 NOA=     3 NOB=     3 NVA=   123 NVB=   123
 Leave Link  801 at Sun May 22 21:10:53 2022, MaxMem=   104857600 cpu:               0.0 elap:               0.0
 (Enter /apps/software/g16/l914.exe)
 UHF ground state
 Doing stability rather than CIS.
 Keep R1 and R2 ints in memory in symmetry-blocked form, NReq=40144005.
 FoFCou: FMM=F IPFlag=           0 FMFlag=           0 FMFlg1=           0
         NFxFlg=           0 DoJE=F BraDBF=F KetDBF=F FulRan=T
         wScrn=  0.000000 ICntrl=       600 IOpCl=  0 I1Cent=           0 NGrid=           0
         NMat0=    1 NMatS0=   8001 NMatT0=    0 NMatD0=    1 NMtDS0=    0 NMtDT0=    0
 Petite list used in FoFCou.
 MDV=   104857600 DFT=F DoStab=T Mixed=F DoRPA=F DoScal=F NonHer=F
 Making orbital integer symmetry assigments:
 Orbital symmetries:
 Alpha Orbitals:
       Occupied  (SG) (SG) (SG)
       Virtual   (PI) (PI) (SG) (SG) (SG) (PI) (PI) (SG) (PI) (PI)
                 (DLTA) (DLTA) (SG) (PI) (PI) (SG) (PI) (PI) (SG)
                 (SG) (SG) (PHI) (PHI) (DLTA) (DLTA) (PI) (PI)
                 (DLTA) (DLTA) (SG) (PI) (PI) (SG) (DLTA) (DLTA)
                 (PI) (PI) (SG) (PI) (PI) (SG) (PI) (PI) (SG) (?A)
                 (?A) (PHI) (PHI) (DLTA) (DLTA) (PI) (PI) (SG)
                 (DLTA) (DLTA) (SG) (PHI) (PHI) (PI) (PI) (DLTA)
                 (DLTA) (SG) (PI) (PI) (SG) (PHI) (PHI) (DLTA)
                 (DLTA) (SG) (PI) (PI) (SG) (DLTA) (DLTA) (PI)
                 (PI) (SG) (PI) (PI) (SG) (PI) (PI) (SG) (?A) (?A)
                 (PHI) (PHI) (DLTA) (DLTA) (DLTA) (DLTA) (PI) (PI)
                 (SG) (PI) (PI) (SG) (PHI) (PHI) (DLTA) (DLTA)
                 (PI) (PI) (SG) (PHI) (PHI) (DLTA) (DLTA) (PI)
                 (PI) (SG) (SG) (PI) (PI) (SG) (DLTA) (DLTA) (PI)
                 (PI) (SG) (SG)
 Beta  Orbitals:
       Occupied  (SG) (SG) (SG)
       Virtual   (SG) (PI) (PI) (SG) (PI) (PI) (SG) (SG) (PI) (PI)
                 (DLTA) (DLTA) (SG) (PI) (PI) (SG) (PI) (PI) (SG)
                 (SG) (PHI) (PHI) (DLTA) (DLTA) (SG) (PI) (PI)
                 (DLTA) (DLTA) (PI) (PI) (SG) (SG) (DLTA) (DLTA)
                 (PI) (PI) (SG) (PI) (PI) (SG) (PI) (PI) (SG) (?A)
                 (?A) (PHI) (PHI) (PI) (PI) (DLTA) (DLTA) (SG)
                 (SG) (PI) (PI) (DLTA) (DLTA) (PHI) (PHI) (SG)
                 (DLTA) (DLTA) (PI) (PI) (SG) (PHI) (PHI) (DLTA)
                 (DLTA) (PI) (PI) (SG) (SG) (DLTA) (DLTA) (PI)
                 (PI) (SG) (PI) (PI) (SG) (PI) (PI) (SG) (?A) (?A)
                 (PHI) (PHI) (DLTA) (DLTA) (DLTA) (DLTA) (PI) (PI)
                 (SG) (PI) (PI) (SG) (PHI) (PHI) (DLTA) (DLTA)
                 (PI) (PI) (SG) (PHI) (PHI) (DLTA) (DLTA) (PI)
                 (PI) (SG) (SG) (PI) (PI) (SG) (DLTA) (DLTA) (PI)
                 (PI) (SG) (SG)
    12 initial guesses have been made.
 Convergence on wavefunction:    0.001000000000000
 Davidson Disk Diagonalization:  ConvIn= 1.00D-03 SkipCon=T Conv= 1.00D-03.
 Max sub-space:  1476 roots to seek:    12 dimension of matrix:          738
 Iteration     1 Dimension    12 NMult     0 NNew     12
 CISAX will form    12 AO SS matrices at one time.
 NMat=    12 NSing=    12 JSym2X= 2.
 Excitation Energies [eV] at current iteration:
 Root      1 :     0.483916558018593
 Root      2 :     0.483916566445960
 Root      3 :     1.264982509946859
 Root      4 :     1.264982539357199
 Root      5 :     5.374668487074684
 Root      6 :     6.287316763593691
 Root      7 :     6.566144408126531
 Root      8 :     6.566144459170443
 Root      9 :    11.612593630512984
 Root     10 :    11.612593673311464
 Root     11 :    12.529661341813682
 Root     12 :    12.529661345643156
 Iteration     2 Dimension    24 NMult    12 NNew     12
 CISAX will form    12 AO SS matrices at one time.
 NMat=    12 NSing=    12 JSym2X= 2.
 Root      1 not converged, maximum delta is    0.063411272074091
 Excitation Energies [eV] at current iteration:
 Root      1 :     0.009860275451956   Change is   -0.474056282566636
 Root      2 :     0.009860280359099   Change is   -0.474056286086860
 Root      3 :     0.830074205549440   Change is   -0.434908304397419
 Root      4 :     0.830074227644282   Change is   -0.434908311712917
 Root      5 :     5.082889416389681   Change is   -0.291779070685003
 Root      6 :     5.847322882801952   Change is   -0.439993880791739
 Root      7 :     6.490675944522976   Change is   -0.075468463603555
 Root      8 :     6.490675988377466   Change is   -0.075468470792978
 Root      9 :     8.302769763567431   Change is   -3.309823866945554
 Root     10 :     8.302769773796818   Change is   -3.309823899514647
 Root     11 :    10.408509197876160   Change is   -2.121152143937522
 Root     12 :    10.408509229662808   Change is   -2.121152115980347
 Iteration     3 Dimension    27 NMult    24 NNew      3
 CISAX will form     3 AO SS matrices at one time.
 NMat=     3 NSing=     3 JSym2X= 2.
 Root      1 not converged, maximum delta is    0.006242525335488
 Excitation Energies [eV] at current iteration:
 Root      1 :     0.004032766725546   Change is   -0.005827508726410
 Root      2 :     0.004032772223816   Change is   -0.005827508135283
 Root      3 :     0.817980945915858   Change is   -0.012093259633583
 Iteration     4 Dimension    30 NMult    27 NNew      3
 CISAX will form     3 AO SS matrices at one time.
 NMat=     3 NSing=     3 JSym2X= 2.
 Root      1 has converged.
 Excitation Energies [eV] at current iteration:
 Root      1 :     0.003971320614950   Change is   -0.000061446110596
 Root      2 :     0.003971325919811   Change is   -0.000061446304005
 Root      3 :     0.817861257052468   Change is   -0.000119688863390
 Convergence achieved on expansion vectors.
 ***********************************************************************
 Stability analysis using <AA,BB:AA,BB> singles matrix:
 ***********************************************************************
 1PDM for each excited state written to RWF  633
 Ground to excited state transition densities written to RWF  633

 Eigenvectors of the stability matrix:
 
 Excited state symmetry could not be determined.
 Eigenvector   1:  2.272-?Sym  Eigenvalue= 0.0001459  <S**2>=1.041
      3B ->  6B       -0.68661
      3B ->  8B        0.65259
      3B -> 20B        0.28787
 The wavefunction is stable under the perturbations considered.
 Leave Link  914 at Sun May 22 21:10:57 2022, MaxMem=   104857600 cpu:               4.1 elap:               4.1
 (Enter /apps/software/g16/l508.exe)
 The wavefunction is already stable.
 Leave Link  508 at Sun May 22 21:10:58 2022, MaxMem=   104857600 cpu:               0.0 elap:               0.0
 (Enter /apps/software/g16/l601.exe)
 Copying SCF densities to generalized density rwf, IOpCl= 1 IROHF=0.

 **********************************************************************

            Population analysis using the SCF density.

 **********************************************************************

 Orbital symmetries:
 Alpha Orbitals:
       Occupied  (SG) (SG) (SG)
       Virtual   (PI) (PI) (SG) (SG) (SG) (PI) (PI) (SG) (PI) (PI)
                 (DLTA) (DLTA) (SG) (PI) (PI) (SG) (PI) (PI) (SG)
                 (SG) (SG) (PHI) (PHI) (DLTA) (DLTA) (PI) (PI)
                 (DLTA) (DLTA) (SG) (PI) (PI) (SG) (DLTA) (DLTA)
                 (PI) (PI) (SG) (PI) (PI) (SG) (PI) (PI) (SG) (?A)
                 (?A) (PHI) (PHI) (DLTA) (DLTA) (PI) (PI) (SG)
                 (DLTA) (DLTA) (SG) (PHI) (PHI) (PI) (PI) (DLTA)
                 (DLTA) (SG) (PI) (PI) (SG) (PHI) (PHI) (DLTA)
                 (DLTA) (SG) (PI) (PI) (SG) (DLTA) (DLTA) (PI)
                 (PI) (SG) (PI) (PI) (SG) (PI) (PI) (SG) (?A) (?A)
                 (PHI) (PHI) (DLTA) (DLTA) (DLTA) (DLTA) (PI) (PI)
                 (SG) (PI) (PI) (SG) (PHI) (PHI) (DLTA) (DLTA)
                 (PI) (PI) (SG) (PHI) (PHI) (DLTA) (DLTA) (PI)
                 (PI) (SG) (SG) (PI) (PI) (SG) (DLTA) (DLTA) (PI)
                 (PI) (SG) (SG)
 Beta  Orbitals:
       Occupied  (SG) (SG) (SG)
       Virtual   (SG) (PI) (PI) (SG) (PI) (PI) (SG) (SG) (PI) (PI)
                 (DLTA) (DLTA) (SG) (PI) (PI) (SG) (PI) (PI) (SG)
                 (SG) (PHI) (PHI) (DLTA) (DLTA) (SG) (PI) (PI)
                 (DLTA) (DLTA) (PI) (PI) (SG) (SG) (DLTA) (DLTA)
                 (PI) (PI) (SG) (PI) (PI) (SG) (PI) (PI) (SG) (?A)
                 (?A) (PHI) (PHI) (PI) (PI) (DLTA) (DLTA) (SG)
                 (SG) (PI) (PI) (DLTA) (DLTA) (PHI) (PHI) (SG)
                 (DLTA) (DLTA) (PI) (PI) (SG) (PHI) (PHI) (DLTA)
                 (DLTA) (PI) (PI) (SG) (SG) (DLTA) (DLTA) (PI)
                 (PI) (SG) (PI) (PI) (SG) (PI) (PI) (SG) (?A) (?A)
                 (PHI) (PHI) (DLTA) (DLTA) (DLTA) (DLTA) (PI) (PI)
                 (SG) (PI) (PI) (SG) (PHI) (PHI) (DLTA) (DLTA)
                 (PI) (PI) (SG) (PHI) (PHI) (DLTA) (DLTA) (PI)
                 (PI) (SG) (SG) (PI) (PI) (SG) (DLTA) (DLTA) (PI)
                 (PI) (SG) (SG)
 The electronic state is 1-SG.
 Alpha  occ. eigenvalues --   -7.68699  -0.49422  -0.44658
 Alpha virt. eigenvalues --    0.02707   0.02707   0.04284   0.05309   0.07803
 Alpha virt. eigenvalues --    0.08404   0.08404   0.11554   0.14247   0.14247
 Alpha virt. eigenvalues --    0.14559   0.14559   0.17955   0.21180   0.21180
 Alpha virt. eigenvalues --    0.26072   0.31962   0.31962   0.34912   0.36055
 Alpha virt. eigenvalues --    0.41974   0.46161   0.46161   0.46742   0.46742
 Alpha virt. eigenvalues --    0.47322   0.47322   0.50120   0.50120   0.51214
 Alpha virt. eigenvalues --    0.52952   0.52952   0.57801   0.62617   0.62617
 Alpha virt. eigenvalues --    0.68860   0.68860   0.77408   0.77817   0.77817
 Alpha virt. eigenvalues --    0.89742   1.06135   1.06135   1.13229   1.36946
 Alpha virt. eigenvalues --    1.36946   1.38414   1.38414   1.39368   1.39368
 Alpha virt. eigenvalues --    1.39379   1.39379   1.40033   1.41573   1.41573
 Alpha virt. eigenvalues --    1.43407   1.43938   1.43938   1.45056   1.45056
 Alpha virt. eigenvalues --    1.46052   1.46052   1.47630   1.49009   1.49009
 Alpha virt. eigenvalues --    1.55976   1.56371   1.56371   1.57365   1.57365
 Alpha virt. eigenvalues --    1.60391   1.63090   1.63090   1.78466   2.45626
 Alpha virt. eigenvalues --    2.45626   2.48970   2.48970   2.56667   2.57244
 Alpha virt. eigenvalues --    2.57244   2.66862   3.74486   3.74486   3.81223
 Alpha virt. eigenvalues --    3.91995   3.91995   3.94525   3.94525   3.96002
 Alpha virt. eigenvalues --    3.96002   3.96488   3.96488   3.98249   3.98249
 Alpha virt. eigenvalues --    4.00138   4.00294   4.00294   4.07071   4.08831
 Alpha virt. eigenvalues --    4.08831   4.12189   4.12189   4.15794   4.15794
 Alpha virt. eigenvalues --    4.21250   6.55674   6.55674   6.55824   6.55824
 Alpha virt. eigenvalues --    6.56724   6.56724   6.58430   7.44613   7.94444
 Alpha virt. eigenvalues --    7.94444   7.98697   8.39412   8.39412   8.41685
 Alpha virt. eigenvalues --    8.41685   8.48746  13.08484
  Beta  occ. eigenvalues --   -7.70206  -0.54563  -0.31896
  Beta virt. eigenvalues --    0.02097   0.02344   0.02344   0.04946   0.07705
  Beta virt. eigenvalues --    0.07705   0.07775   0.10761   0.14327   0.14327
  Beta virt. eigenvalues --    0.14553   0.14553   0.18396   0.22668   0.22668
  Beta virt. eigenvalues --    0.24585   0.31158   0.31158   0.33080   0.34780
  Beta virt. eigenvalues --    0.46168   0.46168   0.46387   0.46387   0.46715
  Beta virt. eigenvalues --    0.46744   0.46744   0.50014   0.50014   0.50106
  Beta virt. eigenvalues --    0.50106   0.50178   0.56967   0.63902   0.63902
  Beta virt. eigenvalues --    0.70380   0.70380   0.80304   0.83906   0.83906
  Beta virt. eigenvalues --    0.93288   1.05227   1.05227   1.06177   1.36974
  Beta virt. eigenvalues --    1.36974   1.37899   1.37899   1.38461   1.38461
  Beta virt. eigenvalues --    1.38496   1.38496   1.38529   1.39653   1.40394
  Beta virt. eigenvalues --    1.40394   1.41082   1.41082   1.43875   1.43875
  Beta virt. eigenvalues --    1.44007   1.44519   1.44519   1.46595   1.46595
  Beta virt. eigenvalues --    1.53584   1.57627   1.57627   1.58509   1.58509
  Beta virt. eigenvalues --    1.63736   1.63736   1.68146   1.81509   2.49565
  Beta virt. eigenvalues --    2.49565   2.52990   2.52990   2.61622   2.64509
  Beta virt. eigenvalues --    2.64509   2.72655   3.73787   3.73787   3.76459
  Beta virt. eigenvalues --    3.91928   3.91928   3.93438   3.93438   3.94552
  Beta virt. eigenvalues --    3.94552   3.95561   3.95561   3.95943   3.95943
  Beta virt. eigenvalues --    3.96631   3.96670   3.96670   4.03408   4.08565
  Beta virt. eigenvalues --    4.08565   4.10051   4.10051   4.12480   4.12480
  Beta virt. eigenvalues --    4.17474   6.58558   6.58558   6.58704   6.58704
  Beta virt. eigenvalues --    6.59596   6.59596   6.61295   7.52715   8.00227
  Beta virt. eigenvalues --    8.00227   8.04429   8.43632   8.43632   8.45888
  Beta virt. eigenvalues --    8.45888   8.52912  13.07329
          Condensed to atoms (all electrons):
               1          2
     1  B    4.999427  -0.000640
     2  H   -0.000640   1.001854
          Atomic-Atomic Spin Densities.
               1          2
     1  B   -0.999293  -0.001201
     2  H   -0.001201   1.001695
 Mulliken charges and spin densities:
               1          2
     1  B    0.001213  -1.000494
     2  H   -0.001213   1.000494
 Sum of Mulliken charges =  -0.00000  -0.00000
 Mulliken charges and spin densities with hydrogens summed into heavy atoms:
               1          2
     1  B   -0.000000  -0.000000
 Electronic spatial extent (au):  <R**2>=             66.5405
 Charge=             -0.0000 electrons
 Dipole moment (field-independent basis, Debye):
    X=              0.0000    Y=              0.0000    Z=              0.0435  Tot=              0.0435
 Quadrupole moment (field-independent basis, Debye-Ang):
   XX=             -7.3090   YY=             -7.3090   ZZ=            -10.8385
   XY=              0.0000   XZ=              0.0000   YZ=              0.0000
 Traceless Quadrupole moment (field-independent basis, Debye-Ang):
   XX=              1.1765   YY=              1.1765   ZZ=             -2.3530
   XY=              0.0000   XZ=              0.0000   YZ=              0.0000
 Octapole moment (field-independent basis, Debye-Ang**2):
  XXX=              0.0000  YYY=              0.0000  ZZZ=             -4.2296  XYY=              0.0000
  XXY=              0.0000  XXZ=              0.5536  XZZ=              0.0000  YZZ=              0.0000
  YYZ=              0.5536  XYZ=              0.0000
 Hexadecapole moment (field-independent basis, Debye-Ang**3):
 XXXX=            -10.7410 YYYY=            -10.7410 ZZZZ=           -139.9879 XXXY=              0.0000
 XXXZ=              0.0000 YYYX=              0.0000 YYYZ=              0.0000 ZZZX=              0.0000
 ZZZY=              0.0000 XXYY=             -3.5803 XXZZ=            -23.0683 YYZZ=            -23.0683
 XXYZ=              0.0000 YYXZ=              0.0000 ZZXY=              0.0000
 N-N= 6.614715136500D-01 E-N=-5.922616594670D+01  KE= 2.503164414308D+01
 Symmetry A1   KE= 2.503164414308D+01
 Symmetry A2   KE= 0.000000000000D+00
 Symmetry B1   KE= 0.000000000000D+00
 Symmetry B2   KE= 0.000000000000D+00
 Symmetry A1   SP=-8.036925525575D-16
 Symmetry A2   SP= 0.000000000000D+00
 Symmetry B1   SP= 0.000000000000D+00
 Symmetry B2   SP= 0.000000000000D+00
                          Isotropic Fermi Contact Couplings
        Atom                 a.u.       MegaHertz       Gauss      10(-4) cm-1
     1  B(11)             -0.00079      -0.56774      -0.20258      -0.18938
     2  H(1)               0.29828     666.64894     237.87692     222.37015
 --------------------------------------------------------
       Center         ----  Spin Dipole Couplings  ----
                      3XX-RR        3YY-RR        3ZZ-RR
 --------------------------------------------------------
     1   Atom        0.328729      0.328729     -0.657458
     2   Atom        0.003207      0.003207     -0.006415
 --------------------------------------------------------
                        XY            XZ            YZ
 --------------------------------------------------------
     1   Atom        0.000000      0.000000      0.000000
     2   Atom        0.000000      0.000000      0.000000
 --------------------------------------------------------


 ---------------------------------------------------------------------------------
              Anisotropic Spin Dipole Couplings in Principal Axis System
 ---------------------------------------------------------------------------------

       Atom             a.u.   MegaHertz   Gauss  10(-4) cm-1        Axes

              Baa    -0.6575  -112.567   -40.167   -37.548  0.0000  0.0000  1.0000
     1 B(11)  Bbb     0.3287    56.283    20.083    18.774  1.0000  0.0000  0.0000
              Bcc     0.3287    56.283    20.083    18.774 -0.0000  1.0000  0.0000
 
              Baa    -0.0064    -3.423    -1.221    -1.142  0.0000  0.0000  1.0000
     2 H(1)   Bbb     0.0032     1.711     0.611     0.571 -0.0000  1.0000  0.0000
              Bcc     0.0032     1.711     0.611     0.571  1.0000  0.0000  0.0000
 

 ---------------------------------------------------------------------------------

 No NMR shielding tensors so no spin-rotation constants.
 Leave Link  601 at Sun May 22 21:10:58 2022, MaxMem=   104857600 cpu:               0.2 elap:               0.2
 (Enter /apps/software/g16/l9999.exe)
 1\1\GINC-CNODE04\Stability\UHF\Aug-CC-pVQZ\B1H1\LCZ\22-May-2022\0\\#p 
 UHF/aug-cc-pVQZ guess=mix stable=opt\\BH UHF at 4.0 Angstrom\\0,1\B,0,
 0.,0.,0.\H,0,4.,0.,0.\\Version=ES64L-G16RevA.03\State=1-SG\HF=-25.0330
 123\S2=1.00757\S2-1=0.\S2A=0.088631\RMSD=9.284e-09\Dipole=-0.0171156,0
 .,0.\Quadrupole=-1.7494175,0.8747088,0.8747087,0.,0.,0.\PG=C*V [C*(H1B
 1)]\\@


 READER, WHETHER YOU BE DILETTANTE OR PROFESSOR ... SHOW YOURSELF TO BE
 MORE HUMAN THAN CRITICAL, AND THEN YOUR PLEASURE WILL INCREASE.
                                           -- DOMENICO SCARLATTI (1738)
 Job cpu time:       0 days  0 hours  0 minutes 32.9 seconds.
 Elapsed time:       0 days  0 hours  0 minutes 33.0 seconds.
 File lengths (MBytes):  RWF=     29 Int=      0 D2E=      0 Chk=      4 Scr=      1
 Normal termination of Gaussian 16 at Sun May 22 21:10:58 2022.

Sender: Unischeduler System <lcz@mgt01>
Subject: Job 134359: <#!/bin/bash
#BSUB -J intel
#BSUB -o BH-4.0-UHF-G.out
#BSUB -n 8
#BSUB -q cqueue
#BSUB -R span[hosts=1]
export g16root=/apps/software
source /apps/software/g16/bsd/g16.profile
export GAUSS_SCRDIR=/scratch
/apps/software/g16/g16 < BH-4.0-UHF-G.inp > BH-4.0-UHF-G.out> Done

Job <#!/bin/bash
#BSUB -J intel
#BSUB -o BH-4.0-UHF-G.out
#BSUB -n 8
#BSUB -q cqueue
#BSUB -R span[hosts=1]
export g16root=/apps/software
source /apps/software/g16/bsd/g16.profile
export GAUSS_SCRDIR=/scratch
/apps/software/g16/g16 < BH-4.0-UHF-G.inp > BH-4.0-UHF-G.out> was submitted from host <mgt01> by user <lcz>.
Job was executed on host(s) <8*cnode04>, in queue <cqueue>, as user <lcz>.
</apps/users/lcz> was used as the home directory.
</apps/users/lcz/exe13/UCCSD_T> was used as the working directory.
Started at 2022-05-22 21:10:25
Results reported at 2022-05-22 21:10:58

Your job looked like:

------------------------------------------------------------
# User input
#!/bin/bash
#BSUB -J intel
#BSUB -o BH-4.0-UHF-G.out
#BSUB -n 8
#BSUB -q cqueue
#BSUB -R span[hosts=1]
export g16root=/apps/software
source /apps/software/g16/bsd/g16.profile
export GAUSS_SCRDIR=/scratch
/apps/software/g16/g16 < BH-4.0-UHF-G.inp > BH-4.0-UHF-G.out
------------------------------------------------------------

Successfully completed.

Resource usage summary:

    CPU time   :           24.01 sec.
    Max Memory :               483 MB
    Max Processes  :               5


The output (if any) follows:

