 Entering Gaussian System, Link 0=/apps/software/g16/g16
 Initial command:
 /apps/software/g16/l1.exe "/scratch/Gau-382897.inp" -scrdir="/scratch/"
 Entering Link 1 = /apps/software/g16/l1.exe PID=    382898.
  
 Copyright (c) 1988,1990,1992,1993,1995,1998,2003,2009,2016,
            Gaussian, Inc.  All Rights Reserved.
  
 This is part of the Gaussian(R) 16 program.  It is based on
 the Gaussian(R) 09 system (copyright 2009, Gaussian, Inc.),
 the Gaussian(R) 03 system (copyright 2003, Gaussian, Inc.),
 the Gaussian(R) 98 system (copyright 1998, Gaussian, Inc.),
 the Gaussian(R) 94 system (copyright 1995, Gaussian, Inc.),
 the Gaussian 92(TM) system (copyright 1992, Gaussian, Inc.),
 the Gaussian 90(TM) system (copyright 1990, Gaussian, Inc.),
 the Gaussian 88(TM) system (copyright 1988, Gaussian, Inc.),
 the Gaussian 86(TM) system (copyright 1986, Carnegie Mellon
 University), and the Gaussian 82(TM) system (copyright 1983,
 Carnegie Mellon University). Gaussian is a federally registered
 trademark of Gaussian, Inc.
  
 This software contains proprietary and confidential information,
 including trade secrets, belonging to Gaussian, Inc.
  
 This software is provided under written license and may be
 used, copied, transmitted, or stored only in accord with that
 written license.
  
 The following legend is applicable only to US Government
 contracts under FAR:
  
                    RESTRICTED RIGHTS LEGEND
  
 Use, reproduction and disclosure by the US Government is
 subject to restrictions as set forth in subparagraphs (a)
 and (c) of the Commercial Computer Software - Restricted
 Rights clause in FAR 52.227-19.
  
 Gaussian, Inc.
 340 Quinnipiac St., Bldg. 40, Wallingford CT 06492
  
  
 ---------------------------------------------------------------
 Warning -- This program may not be used in any manner that
 competes with the business of Gaussian, Inc. or will provide
 assistance to any competitor of Gaussian, Inc.  The licensee
 of this program is prohibited from giving any competitor of
 Gaussian, Inc. access to this program.  By using this program,
 the user acknowledges that Gaussian, Inc. is engaged in the
 business of creating and licensing software in the field of
 computational chemistry and represents and warrants to the
 licensee that it is not a competitor of Gaussian, Inc. and that
 it will not use this program in any manner prohibited above.
 ---------------------------------------------------------------
  

 Cite this work as:
 Gaussian 16, Revision A.03,
 M. J. Frisch, G. W. Trucks, H. B. Schlegel, G. E. Scuseria, 
 M. A. Robb, J. R. Cheeseman, G. Scalmani, V. Barone, 
 G. A. Petersson, H. Nakatsuji, X. Li, M. Caricato, A. V. Marenich, 
 J. Bloino, B. G. Janesko, R. Gomperts, B. Mennucci, H. P. Hratchian, 
 J. V. Ortiz, A. F. Izmaylov, J. L. Sonnenberg, D. Williams-Young, 
 F. Ding, F. Lipparini, F. Egidi, J. Goings, B. Peng, A. Petrone, 
 T. Henderson, D. Ranasinghe, V. G. Zakrzewski, J. Gao, N. Rega, 
 G. Zheng, W. Liang, M. Hada, M. Ehara, K. Toyota, R. Fukuda, 
 J. Hasegawa, M. Ishida, T. Nakajima, Y. Honda, O. Kitao, H. Nakai, 
 T. Vreven, K. Throssell, J. A. Montgomery, Jr., J. E. Peralta, 
 F. Ogliaro, M. J. Bearpark, J. J. Heyd, E. N. Brothers, K. N. Kudin, 
 V. N. Staroverov, T. A. Keith, R. Kobayashi, J. Normand, 
 K. Raghavachari, A. P. Rendell, J. C. Burant, S. S. Iyengar, 
 J. Tomasi, M. Cossi, J. M. Millam, M. Klene, C. Adamo, R. Cammi, 
 J. W. Ochterski, R. L. Martin, K. Morokuma, O. Farkas, 
 J. B. Foresman, and D. J. Fox, Gaussian, Inc., Wallingford CT, 2016.
 
 ******************************************
 Gaussian 16:  ES64L-G16RevA.03 25-Dec-2016
                22-May-2022 
 ******************************************
 %chk=BH-4.4-UHF-G.chk
 ---------------------------------------
 #p UHF/aug-cc-pVQZ guess=mix stable=opt
 ---------------------------------------
 1/38=1,172=1/1;
 2/12=2,17=6,18=5,40=1/2;
 3/5=16,6=2,7=10,11=2,25=1,30=1,116=2/1,2,3;
 4/13=-1/1;
 5/5=2,38=5/2;
 6/7=2,8=2,9=2,10=2,28=1/1;
 8/6=1,10=90,11=11/1;
 9/8=-3,42=1,46=1/14;
 5/5=2,8=3,17=40,38=5/8(-2);
 6/7=2,8=2,9=2,10=2,28=1/1;
 99/5=1,9=1/99;
 Leave Link    1 at Sun May 22 21:12:22 2022, MaxMem=           0 cpu:               0.0 elap:               0.0
 (Enter /apps/software/g16/l101.exe)
 ----------------------
 BH UHF at 4.4 Angstrom
 ----------------------
 Symbolic Z-matrix:
 Charge =  0 Multiplicity = 1
 B                     0.        0.        0. 
 H                     4.4       0.        0. 
 
 ITRead=  0  0
 MicOpt= -1 -1
 NAtoms=      2 NQM=        2 NQMF=       0 NMMI=      0 NMMIF=      0
                NMic=       0 NMicF=      0.
                    Isotopes and Nuclear Properties:
 (Nuclear quadrupole moments (NQMom) in fm**2, nuclear magnetic moments (NMagM)
  in nuclear magnetons)

  Atom         1           2
 IAtWgt=          11           1
 AtmWgt=  11.0093053   1.0078250
 NucSpn=           3           1
 AtZEff=  -0.0000000  -0.0000000
 NQMom=    4.0590000   0.0000000
 NMagM=    2.6886370   2.7928460
 AtZNuc=   5.0000000   1.0000000
 Leave Link  101 at Sun May 22 21:12:22 2022, MaxMem=   104857600 cpu:               0.1 elap:               0.1
 (Enter /apps/software/g16/l202.exe)
                          Input orientation:                          
 ---------------------------------------------------------------------
 Center     Atomic      Atomic             Coordinates (Angstroms)
 Number     Number       Type             X           Y           Z
 ---------------------------------------------------------------------
      1          5           0        0.000000    0.000000    0.000000
      2          1           0        4.400000    0.000000    0.000000
 ---------------------------------------------------------------------
 Stoichiometry    BH
 Framework group  C*V[C*(HB)]
 Deg. of freedom     1
 Full point group                 C*V     NOp   4
 Largest Abelian subgroup         C2V     NOp   4
 Largest concise Abelian subgroup C1      NOp   1
                         Standard orientation:                         
 ---------------------------------------------------------------------
 Center     Atomic      Atomic             Coordinates (Angstroms)
 Number     Number       Type             X           Y           Z
 ---------------------------------------------------------------------
      1          5           0        0.000000    0.000000    0.733333
      2          1           0        0.000000    0.000000   -3.666667
 ---------------------------------------------------------------------
 Rotational constants (GHZ):           0.0000000          28.2727179          28.2727179
 Leave Link  202 at Sun May 22 21:12:22 2022, MaxMem=   104857600 cpu:               0.0 elap:               0.0
 (Enter /apps/software/g16/l301.exe)
 Standard basis: Aug-CC-pVQZ (5D, 7F)
 Ernie: Thresh=  0.10000D-02 Tol=  0.10000D-05 Strict=F.
 Ernie:  4 primitive shells out of 54 were deleted.
 There are    68 symmetry adapted cartesian basis functions of A1  symmetry.
 There are    18 symmetry adapted cartesian basis functions of A2  symmetry.
 There are    37 symmetry adapted cartesian basis functions of B1  symmetry.
 There are    37 symmetry adapted cartesian basis functions of B2  symmetry.
 There are    50 symmetry adapted basis functions of A1  symmetry.
 There are    16 symmetry adapted basis functions of A2  symmetry.
 There are    30 symmetry adapted basis functions of B1  symmetry.
 There are    30 symmetry adapted basis functions of B2  symmetry.
   126 basis functions,   180 primitive gaussians,   160 cartesian basis functions
     3 alpha electrons        3 beta electrons
       nuclear repulsion energy         0.6013377397 Hartrees.
 IExCor=    0 DFT=F Ex=HF Corr=None ExCW=0 ScaHFX=  1.000000
 ScaDFX=  1.000000  1.000000  1.000000  1.000000 ScalE2=  1.000000  1.000000
 IRadAn=      5 IRanWt=     -1 IRanGd=            0 ICorTp=0 IEmpDi=  4
 NAtoms=    2 NActive=    2 NUniq=    2 SFac= 1.00D+00 NAtFMM=   60 NAOKFM=F Big=F
 Integral buffers will be    131072 words long.
 Raffenetti 2 integral format.
 Two-electron integral symmetry is turned on.
 Leave Link  301 at Sun May 22 21:12:22 2022, MaxMem=   104857600 cpu:               0.1 elap:               0.1
 (Enter /apps/software/g16/l302.exe)
 NPDir=0 NMtPBC=     1 NCelOv=     1 NCel=       1 NClECP=     1 NCelD=      1
         NCelK=      1 NCelE2=     1 NClLst=     1 CellRange=     0.0.
 One-electron integrals computed using PRISM.
 One-electron integral symmetry used in STVInt
 NBasis=   126 RedAO= T EigKep=  1.17D-02  NBF=    50    16    30    30
 NBsUse=   126 1.00D-06 EigRej= -1.00D+00 NBFU=    50    16    30    30
 Leave Link  302 at Sun May 22 21:12:22 2022, MaxMem=   104857600 cpu:               0.1 elap:               0.1
 (Enter /apps/software/g16/l303.exe)
 DipDrv:  MaxL=1.
 Leave Link  303 at Sun May 22 21:12:22 2022, MaxMem=   104857600 cpu:               0.0 elap:               0.0
 (Enter /apps/software/g16/l401.exe)
 ExpMin= 1.88D-02 ExpMax= 2.39D+04 ExpMxC= 2.30D+02 IAcc=3 IRadAn=         5 AccDes= 0.00D+00
 Harris functional with IExCor=  205 and IRadAn=       5 diagonalized for initial guess.
 HarFok:  IExCor=  205 AccDes= 0.00D+00 IRadAn=         5 IDoV= 1 UseB2=F ITyADJ=14
 ICtDFT=  3500011 ScaDFX=  1.000000  1.000000  1.000000  1.000000
 FoFCou: FMM=F IPFlag=           0 FMFlag=      100000 FMFlg1=           0
         NFxFlg=           0 DoJE=T BraDBF=F KetDBF=T FulRan=T
         wScrn=  0.000000 ICntrl=       500 IOpCl=  0 I1Cent=   200000004 NGrid=           0
         NMat0=    1 NMatS0=      1 NMatT0=    0 NMatD0=    1 NMtDS0=    0 NMtDT0=    0
 Petite list used in FoFCou.
 Harris En= -24.9888357487082    
 JPrj=0 DoOrth=F DoCkMO=T.
 Mixing orbitals, IMix= 1 IMixAn=  0 NRI=1 NE=    3 Coef=  7.07106781D-01  7.07106781D-01
 Mixing orbitals, IMix= 1 IMixAn=  0 NRI=1 NE=    3 Coef= -7.07106781D-01  7.07106781D-01
 Initial guess orbital symmetries:
 Alpha Orbitals:
       Occupied  (SG) (SG) (?A)
       Virtual   (?A) (?A) (SG) (SG) (PI) (PI) (SG) (SG) (PI) (PI)
                 (SG) (DLTA) (DLTA) (PI) (PI) (SG) (PI) (PI) (SG)
                 (SG) (SG) (SG) (PI) (PI) (DLTA) (DLTA) (DLTA)
                 (DLTA) (?B) (?B) (?B) (?B) (SG) (DLTA) (DLTA)
                 (PI) (PI) (SG) (PI) (PI) (SG) (PI) (PI) (SG) (SG)
                 (DLTA) (DLTA) (PI) (PI) (SG) (DLTA) (DLTA) (?C)
                 (PHI) (PHI) (?C) (PI) (PI) (SG) (DLTA) (DLTA)
                 (PHI) (PHI) (PI) (PI) (SG) (SG) (PHI) (PHI) (DLTA)
                 (DLTA) (PI) (PI) (SG) (DLTA) (DLTA) (PI) (PI)
                 (SG) (PI) (PI) (SG) (PI) (PI) (SG) (DLTA) (DLTA)
                 (PI) (PI) (SG) (?C) (DLTA) (?B) (?B) (?C) (DLTA)
                 (?B) (?B) (SG) (PHI) (PHI) (DLTA) (DLTA) (PI)
                 (PI) (SG) (PHI) (PHI) (DLTA) (DLTA) (PI) (PI)
                 (SG) (SG) (PI) (PI) (SG) (DLTA) (DLTA) (PI) (PI)
                 (SG) (SG)
 Beta  Orbitals:
       Occupied  (SG) (SG) (?A)
       Virtual   (?A) (?A) (SG) (SG) (PI) (PI) (SG) (SG) (PI) (PI)
                 (SG) (DLTA) (DLTA) (PI) (PI) (SG) (PI) (PI) (SG)
                 (SG) (SG) (SG) (PI) (PI) (DLTA) (DLTA) (DLTA)
                 (DLTA) (?B) (?B) (?B) (?B) (SG) (DLTA) (DLTA)
                 (PI) (PI) (SG) (PI) (PI) (SG) (PI) (PI) (SG) (SG)
                 (DLTA) (DLTA) (PI) (PI) (SG) (DLTA) (DLTA) (?C)
                 (PHI) (PHI) (?C) (PI) (PI) (SG) (DLTA) (DLTA)
                 (PHI) (PHI) (PI) (PI) (SG) (SG) (PHI) (PHI) (DLTA)
                 (DLTA) (PI) (PI) (SG) (DLTA) (DLTA) (PI) (PI)
                 (SG) (PI) (PI) (SG) (PI) (PI) (SG) (DLTA) (DLTA)
                 (PI) (PI) (SG) (?C) (DLTA) (?B) (?B) (?C) (DLTA)
                 (?B) (?B) (SG) (PHI) (PHI) (DLTA) (DLTA) (PI)
                 (PI) (SG) (PHI) (PHI) (DLTA) (DLTA) (PI) (PI)
                 (SG) (SG) (PI) (PI) (SG) (DLTA) (DLTA) (PI) (PI)
                 (SG) (SG)
 Initial guess <Sx>= 0.0000 <Sy>= 0.0000 <Sz>= 0.0000 <S**2>= 1.0000 S= 0.6180
 Leave Link  401 at Sun May 22 21:12:22 2022, MaxMem=   104857600 cpu:               0.2 elap:               0.2
 (Enter /apps/software/g16/l502.exe)
 Keep R1 and R2 ints in memory in symmetry-blocked form, NReq=40143665.
 FoFCou: FMM=F IPFlag=           0 FMFlag=           0 FMFlg1=           0
         NFxFlg=           0 DoJE=F BraDBF=F KetDBF=F FulRan=T
         wScrn=  0.000000 ICntrl=       600 IOpCl=  0 I1Cent=           0 NGrid=           0
         NMat0=    1 NMatS0=   8001 NMatT0=    0 NMatD0=    1 NMtDS0=    0 NMtDT0=    0
 Petite list used in FoFCou.
 UHF open shell SCF:
 Using DIIS extrapolation, IDIIS=  1040.
 NGot=   104857600 LenX=    88563632 LenY=    88537591
 Requested convergence on RMS density matrix=1.00D-08 within 128 cycles.
 Requested convergence on MAX density matrix=1.00D-06.
 Requested convergence on             energy=1.00D-06.
 No special actions if energy rises.
 An orbital has undefined symmetry, so N**3 symmetry is turned off.

 Cycle   1  Pass 1  IDiag  1:
 Density matrix breaks symmetry, PCut= 1.00D-07
 Density matrix has no symmetry -- integrals replicated.
 E= -24.8307335094671    
 DIIS: error= 3.06D-02 at cycle   1 NSaved=   1.
 NSaved= 1 IEnMin= 1 EnMin= -24.8307335094671     IErMin= 1 ErrMin= 3.06D-02
 ErrMax= 3.06D-02  0.00D+00 EMaxC= 1.00D-01 BMatC= 1.48D-01 BMatP= 1.48D-01
 IDIUse=3 WtCom= 6.94D-01 WtEn= 3.06D-01
 Coeff-Com:  0.100D+01
 Coeff-En:   0.100D+01
 Coeff:      0.100D+01
 Gap=     0.119 Goal=   None    Shift=    0.000
 Gap=     0.119 Goal=   None    Shift=    0.000
 GapD=    0.119 DampG=1.000 DampE=0.500 DampFc=0.5000 IDamp=-1.
 Damping current iteration by 5.00D-01
 RMSDP=1.81D-03 MaxDP=8.74D-02              OVMax= 3.82D-01

 Cycle   2  Pass 1  IDiag  1:
 Density matrix breaks symmetry, PCut= 1.00D-07
 Density matrix has no symmetry -- integrals replicated.
 E= -24.8491358364618     Delta-E=       -0.018402326995 Rises=F Damp=T
 DIIS: error= 1.86D-02 at cycle   2 NSaved=   2.
 NSaved= 2 IEnMin= 2 EnMin= -24.8491358364618     IErMin= 2 ErrMin= 1.86D-02
 ErrMax= 1.86D-02  0.00D+00 EMaxC= 1.00D-01 BMatC= 4.98D-02 BMatP= 1.48D-01
 IDIUse=3 WtCom= 8.14D-01 WtEn= 1.86D-01
 Coeff-Com: -0.569D+00 0.157D+01
 Coeff-En:   0.000D+00 0.100D+01
 Coeff:     -0.463D+00 0.146D+01
 Gap=     0.075 Goal=   None    Shift=    0.000
 Gap=     0.075 Goal=   None    Shift=    0.000
 RMSDP=1.31D-03 MaxDP=5.86D-02 DE=-1.84D-02 OVMax= 3.30D-01

 Cycle   3  Pass 1  IDiag  1:
 Density matrix breaks symmetry, PCut= 1.00D-07
 Density matrix has no symmetry -- integrals replicated.
 E= -24.8561639794628     Delta-E=       -0.007028143001 Rises=F Damp=F
 DIIS: error= 1.88D-02 at cycle   3 NSaved=   3.
 NSaved= 3 IEnMin= 3 EnMin= -24.8561639794628     IErMin= 2 ErrMin= 1.86D-02
 ErrMax= 1.88D-02  0.00D+00 EMaxC= 1.00D-01 BMatC= 1.82D-02 BMatP= 4.98D-02
 IDIUse=3 WtCom= 8.12D-01 WtEn= 1.88D-01
 Coeff-Com: -0.453D+00 0.797D+00 0.656D+00
 Coeff-En:   0.000D+00 0.731D-01 0.927D+00
 Coeff:     -0.368D+00 0.661D+00 0.707D+00
 Gap=     0.121 Goal=   None    Shift=    0.000
 Gap=     0.121 Goal=   None    Shift=    0.000
 RMSDP=1.10D-03 MaxDP=4.48D-02 DE=-7.03D-03 OVMax= 2.48D-01

 Cycle   4  Pass 1  IDiag  1:
 Density matrix breaks symmetry, PCut= 1.00D-07
 Density matrix has no symmetry -- integrals replicated.
 E= -24.8748284674638     Delta-E=       -0.018664488001 Rises=F Damp=F
 DIIS: error= 5.46D-03 at cycle   4 NSaved=   4.
 NSaved= 4 IEnMin= 4 EnMin= -24.8748284674638     IErMin= 4 ErrMin= 5.46D-03
 ErrMax= 5.46D-03  0.00D+00 EMaxC= 1.00D-01 BMatC= 5.15D-03 BMatP= 1.82D-02
 IDIUse=3 WtCom= 9.45D-01 WtEn= 5.46D-02
 Coeff-Com:  0.190D+00-0.393D+00 0.190D+00 0.101D+01
 Coeff-En:   0.000D+00 0.000D+00 0.592D-01 0.941D+00
 Coeff:      0.180D+00-0.371D+00 0.183D+00 0.101D+01
 Gap=     0.122 Goal=   None    Shift=    0.000
 Gap=     0.122 Goal=   None    Shift=    0.000
 RMSDP=5.03D-04 MaxDP=1.58D-02 DE=-1.87D-02 OVMax= 8.76D-02

 Cycle   5  Pass 1  IDiag  1:
 Density matrix breaks symmetry, PCut= 1.00D-07
 Density matrix has no symmetry -- integrals replicated.
 E= -24.8810176993298     Delta-E=       -0.006189231866 Rises=F Damp=F
 DIIS: error= 2.37D-03 at cycle   5 NSaved=   5.
 NSaved= 5 IEnMin= 5 EnMin= -24.8810176993298     IErMin= 5 ErrMin= 2.37D-03
 ErrMax= 2.37D-03  0.00D+00 EMaxC= 1.00D-01 BMatC= 5.78D-04 BMatP= 5.15D-03
 IDIUse=3 WtCom= 9.76D-01 WtEn= 2.37D-02
 Coeff-Com: -0.221D+00 0.424D+00-0.300D-01-0.658D+00 0.149D+01
 Coeff-En:   0.000D+00 0.000D+00 0.000D+00 0.000D+00 0.100D+01
 Coeff:     -0.216D+00 0.414D+00-0.293D-01-0.643D+00 0.147D+01
 Gap=     0.130 Goal=   None    Shift=    0.000
 Gap=     0.130 Goal=   None    Shift=    0.000
 RMSDP=3.23D-04 MaxDP=1.03D-02 DE=-6.19D-03 OVMax= 7.06D-02

 Cycle   6  Pass 1  IDiag  1:
 Density matrix breaks symmetry, PCut= 1.00D-07
 Density matrix has no symmetry -- integrals replicated.
 E= -24.8840433517855     Delta-E=       -0.003025652456 Rises=F Damp=F
 DIIS: error= 2.13D-03 at cycle   6 NSaved=   6.
 NSaved= 6 IEnMin= 6 EnMin= -24.8840433517855     IErMin= 6 ErrMin= 2.13D-03
 ErrMax= 2.13D-03  0.00D+00 EMaxC= 1.00D-01 BMatC= 5.02D-04 BMatP= 5.78D-04
 IDIUse=3 WtCom= 9.79D-01 WtEn= 2.13D-02
 Coeff-Com: -0.207D+00 0.381D+00 0.722D-01-0.515D+00-0.170D+01 0.297D+01
 Coeff-En:   0.000D+00 0.000D+00 0.000D+00 0.000D+00 0.000D+00 0.100D+01
 Coeff:     -0.202D+00 0.373D+00 0.707D-01-0.504D+00-0.167D+01 0.293D+01
 Gap=     0.134 Goal=   None    Shift=    0.000
 Gap=     0.134 Goal=   None    Shift=    0.000
 RMSDP=7.49D-04 MaxDP=2.27D-02 DE=-3.03D-03 OVMax= 1.63D-01

 Cycle   7  Pass 1  IDiag  1:
 Density matrix breaks symmetry, PCut= 1.00D-07
 Density matrix has no symmetry -- integrals replicated.
 E= -24.8883469646052     Delta-E=       -0.004303612820 Rises=F Damp=F
 DIIS: error= 4.10D-03 at cycle   7 NSaved=   7.
 NSaved= 7 IEnMin= 7 EnMin= -24.8883469646052     IErMin= 6 ErrMin= 2.13D-03
 ErrMax= 4.10D-03  0.00D+00 EMaxC= 1.00D-01 BMatC= 8.52D-04 BMatP= 5.02D-04
 IDIUse=3 WtCom= 9.79D-01 WtEn= 2.13D-02
 Coeff-Com:  0.116D+00-0.219D+00-0.161D+00 0.437D+00-0.177D+00 0.244D-01
 Coeff-Com:  0.979D+00
 Coeff-En:   0.000D+00 0.000D+00 0.000D+00 0.000D+00 0.000D+00 0.000D+00
 Coeff-En:   0.100D+01
 Coeff:      0.114D+00-0.214D+00-0.157D+00 0.428D+00-0.173D+00 0.239D-01
 Coeff:      0.979D+00
 Gap=     0.137 Goal=   None    Shift=    0.000
 Gap=     0.137 Goal=   None    Shift=    0.000
 RMSDP=1.90D-04 MaxDP=5.53D-03 DE=-4.30D-03 OVMax= 4.34D-02

 Cycle   8  Pass 1  IDiag  1:
 Density matrix breaks symmetry, PCut= 1.00D-07
 Density matrix has no symmetry -- integrals replicated.
 E= -24.8896676498212     Delta-E=       -0.001320685216 Rises=F Damp=F
 DIIS: error= 2.60D-03 at cycle   8 NSaved=   8.
 NSaved= 8 IEnMin= 8 EnMin= -24.8896676498212     IErMin= 6 ErrMin= 2.13D-03
 ErrMax= 2.60D-03  0.00D+00 EMaxC= 1.00D-01 BMatC= 2.87D-04 BMatP= 5.02D-04
 IDIUse=3 WtCom= 9.79D-01 WtEn= 2.13D-02
 Coeff-Com: -0.398D-01 0.763D-01-0.237D-02-0.804D-01-0.556D-01 0.162D+00
 Coeff-Com: -0.955D+00 0.190D+01
 Coeff-En:   0.000D+00 0.000D+00 0.000D+00 0.000D+00 0.000D+00 0.000D+00
 Coeff-En:   0.000D+00 0.100D+01
 Coeff:     -0.390D-01 0.746D-01-0.232D-02-0.787D-01-0.544D-01 0.158D+00
 Coeff:     -0.935D+00 0.188D+01
 Gap=     0.139 Goal=   None    Shift=    0.000
 Gap=     0.139 Goal=   None    Shift=    0.000
 RMSDP=2.17D-04 MaxDP=6.67D-03 DE=-1.32D-03 OVMax= 4.95D-02

 Cycle   9  Pass 1  IDiag  1:
 Density matrix breaks symmetry, PCut= 1.00D-07
 Density matrix has no symmetry -- integrals replicated.
 E= -24.8904938356973     Delta-E=       -0.000826185876 Rises=F Damp=F
 DIIS: error= 1.30D-03 at cycle   9 NSaved=   9.
 NSaved= 9 IEnMin= 9 EnMin= -24.8904938356973     IErMin= 9 ErrMin= 1.30D-03
 ErrMax= 1.30D-03  0.00D+00 EMaxC= 1.00D-01 BMatC= 4.85D-05 BMatP= 2.87D-04
 IDIUse=3 WtCom= 9.87D-01 WtEn= 1.30D-02
 Coeff-Com: -0.137D-01 0.276D-01-0.552D-01-0.147D+00 0.509D+00-0.374D+00
 Coeff-Com:  0.102D+01-0.274D+01 0.278D+01
 Coeff-En:   0.000D+00 0.000D+00 0.000D+00 0.000D+00 0.000D+00 0.000D+00
 Coeff-En:   0.000D+00 0.000D+00 0.100D+01
 Coeff:     -0.136D-01 0.272D-01-0.545D-01-0.145D+00 0.502D+00-0.369D+00
 Coeff:      0.101D+01-0.271D+01 0.276D+01
 Gap=     0.141 Goal=   None    Shift=    0.000
 Gap=     0.141 Goal=   None    Shift=    0.000
 RMSDP=2.12D-04 MaxDP=6.80D-03 DE=-8.26D-04 OVMax= 4.82D-02

 Cycle  10  Pass 1  IDiag  1:
 Density matrix breaks symmetry, PCut= 1.00D-07
 Density matrix has no symmetry -- integrals replicated.
 E= -24.8908388114953     Delta-E=       -0.000344975798 Rises=F Damp=F
 DIIS: error= 4.61D-04 at cycle  10 NSaved=  10.
 NSaved=10 IEnMin=10 EnMin= -24.8908388114953     IErMin=10 ErrMin= 4.61D-04
 ErrMax= 4.61D-04  0.00D+00 EMaxC= 1.00D-01 BMatC= 7.29D-06 BMatP= 4.85D-05
 IDIUse=3 WtCom= 9.95D-01 WtEn= 4.61D-03
 Coeff-Com:  0.247D-02-0.427D-02 0.118D-01 0.322D-01-0.651D-01 0.295D-02
 Coeff-Com: -0.455D+00 0.136D+01-0.193D+01 0.205D+01
 Coeff-En:   0.000D+00 0.000D+00 0.000D+00 0.000D+00 0.000D+00 0.000D+00
 Coeff-En:   0.000D+00 0.000D+00 0.000D+00 0.100D+01
 Coeff:      0.246D-02-0.425D-02 0.117D-01 0.321D-01-0.648D-01 0.294D-02
 Coeff:     -0.453D+00 0.135D+01-0.192D+01 0.205D+01
 Gap=     0.142 Goal=   None    Shift=    0.000
 Gap=     0.142 Goal=   None    Shift=    0.000
 RMSDP=1.28D-04 MaxDP=4.04D-03 DE=-3.45D-04 OVMax= 2.83D-02

 Cycle  11  Pass 1  IDiag  1:
 Density matrix breaks symmetry, PCut= 1.00D-07
 Density matrix has no symmetry -- integrals replicated.
 E= -24.8908961940809     Delta-E=       -0.000057382586 Rises=F Damp=F
 DIIS: error= 2.02D-04 at cycle  11 NSaved=  11.
 NSaved=11 IEnMin=11 EnMin= -24.8908961940809     IErMin=11 ErrMin= 2.02D-04
 ErrMax= 2.02D-04  0.00D+00 EMaxC= 1.00D-01 BMatC= 4.28D-06 BMatP= 7.29D-06
 IDIUse=3 WtCom= 9.98D-01 WtEn= 2.02D-03
 Coeff-Com: -0.216D-02 0.274D-02 0.183D-01-0.106D-01-0.169D+00 0.281D+00
 Coeff-Com:  0.109D+00-0.884D+00 0.143D+01-0.195D+01 0.217D+01
 Coeff-En:   0.000D+00 0.000D+00 0.000D+00 0.000D+00 0.000D+00 0.000D+00
 Coeff-En:   0.000D+00 0.000D+00 0.000D+00 0.000D+00 0.100D+01
 Coeff:     -0.215D-02 0.273D-02 0.182D-01-0.106D-01-0.168D+00 0.280D+00
 Coeff:      0.109D+00-0.882D+00 0.143D+01-0.194D+01 0.217D+01
 Gap=     0.143 Goal=   None    Shift=    0.000
 Gap=     0.143 Goal=   None    Shift=    0.000
 RMSDP=5.64D-05 MaxDP=1.78D-03 DE=-5.74D-05 OVMax= 1.21D-02

 Cycle  12  Pass 1  IDiag  1:
 Density matrix breaks symmetry, PCut= 1.00D-07
 Density matrix has no symmetry -- integrals replicated.
 E= -24.8908920061785     Delta-E=        0.000004187902 Rises=F Damp=F
 DIIS: error= 2.87D-04 at cycle  12 NSaved=  12.
 NSaved=12 IEnMin=11 EnMin= -24.8908961940809     IErMin=11 ErrMin= 2.02D-04
 ErrMax= 2.87D-04  0.00D+00 EMaxC= 1.00D-01 BMatC= 9.10D-06 BMatP= 4.28D-06
 IDIUse=3 WtCom= 9.98D-01 WtEn= 2.02D-03
 Rare condition: small coef for last iteration:  0.000D+00
 Coeff-Com: -0.763D-02 0.147D-01-0.356D-02-0.245D-01 0.135D+00-0.206D+00
 Coeff-Com:  0.109D+00-0.522D-01 0.399D+00-0.848D+00-0.441D-01 0.153D+01
 Coeff-En:   0.000D+00 0.000D+00 0.000D+00 0.000D+00 0.000D+00 0.000D+00
 Coeff-En:   0.000D+00 0.000D+00 0.000D+00 0.000D+00 0.000D+00 0.100D+01
 Coeff:     -0.763D-02 0.147D-01-0.356D-02-0.245D-01 0.135D+00-0.206D+00
 Coeff:      0.109D+00-0.522D-01 0.399D+00-0.848D+00-0.441D-01 0.153D+01
 Gap=     0.143 Goal=   None    Shift=    0.000
 Gap=     0.143 Goal=   None    Shift=    0.000
 RMSDP=3.54D-05 MaxDP=1.03D-03 DE= 4.19D-06 OVMax= 6.28D-03

 Cycle  13  Pass 1  IDiag  1:
 Density matrix breaks symmetry, PCut= 1.00D-07
 Density matrix has no symmetry -- integrals replicated.
 E= -24.8909011371926     Delta-E=       -0.000009131014 Rises=F Damp=F
 DIIS: error= 1.56D-04 at cycle  13 NSaved=  13.
 NSaved=13 IEnMin=13 EnMin= -24.8909011371926     IErMin=13 ErrMin= 1.56D-04
 ErrMax= 1.56D-04  0.00D+00 EMaxC= 1.00D-01 BMatC= 1.00D-06 BMatP= 4.28D-06
 IDIUse=3 WtCom= 9.98D-01 WtEn= 1.56D-03
 Coeff-Com: -0.178D-02 0.360D-02 0.630D-02-0.628D-02-0.522D-01 0.850D-01
 Coeff-Com: -0.903D-01 0.275D+00-0.579D+00 0.140D+01-0.182D+01-0.957D+00
 Coeff-Com:  0.275D+01
 Coeff-En:   0.000D+00 0.000D+00 0.000D+00 0.000D+00 0.000D+00 0.000D+00
 Coeff-En:   0.000D+00 0.000D+00 0.000D+00 0.000D+00 0.000D+00 0.000D+00
 Coeff-En:   0.100D+01
 Coeff:     -0.178D-02 0.359D-02 0.629D-02-0.627D-02-0.521D-01 0.848D-01
 Coeff:     -0.901D-01 0.274D+00-0.578D+00 0.139D+01-0.182D+01-0.956D+00
 Coeff:      0.274D+01
 Gap=     0.143 Goal=   None    Shift=    0.000
 Gap=     0.143 Goal=   None    Shift=    0.000
 RMSDP=4.64D-05 MaxDP=1.45D-03 DE=-9.13D-06 OVMax= 8.28D-03

 Cycle  14  Pass 1  IDiag  1:
 Density matrix breaks symmetry, PCut= 1.00D-07
 Density matrix has no symmetry -- integrals replicated.
 E= -24.8909096469823     Delta-E=       -0.000008509790 Rises=F Damp=F
 DIIS: error= 1.90D-04 at cycle  14 NSaved=  14.
 NSaved=14 IEnMin=14 EnMin= -24.8909096469823     IErMin=13 ErrMin= 1.56D-04
 ErrMax= 1.90D-04  0.00D+00 EMaxC= 1.00D-01 BMatC= 3.87D-06 BMatP= 1.00D-06
 IDIUse=3 WtCom= 9.98D-01 WtEn= 1.56D-03
 Coeff-Com: -0.189D-03 0.178D-03-0.162D-02-0.154D-02 0.374D-01-0.447D-01
 Coeff-Com:  0.130D+00-0.428D+00 0.758D+00-0.127D+01 0.181D+01-0.580D+00
 Coeff-Com: -0.172D+01 0.230D+01
 Coeff-En:   0.000D+00 0.000D+00 0.000D+00 0.000D+00 0.000D+00 0.000D+00
 Coeff-En:   0.000D+00 0.000D+00 0.000D+00 0.000D+00 0.000D+00 0.000D+00
 Coeff-En:   0.000D+00 0.100D+01
 Coeff:     -0.188D-03 0.178D-03-0.161D-02-0.153D-02 0.374D-01-0.447D-01
 Coeff:      0.130D+00-0.427D+00 0.757D+00-0.127D+01 0.181D+01-0.579D+00
 Coeff:     -0.171D+01 0.230D+01
 Gap=     0.142 Goal=   None    Shift=    0.000
 Gap=     0.142 Goal=   None    Shift=    0.000
 RMSDP=5.18D-05 MaxDP=1.57D-03 DE=-8.51D-06 OVMax= 1.05D-02

 Cycle  15  Pass 1  IDiag  1:
 Density matrix breaks symmetry, PCut= 1.00D-07
 Density matrix has no symmetry -- integrals replicated.
 E= -24.8909194891869     Delta-E=       -0.000009842205 Rises=F Damp=F
 DIIS: error= 1.15D-05 at cycle  15 NSaved=  15.
 NSaved=15 IEnMin=15 EnMin= -24.8909194891869     IErMin=15 ErrMin= 1.15D-05
 ErrMax= 1.15D-05  0.00D+00 EMaxC= 1.00D-01 BMatC= 9.86D-09 BMatP= 1.00D-06
 IDIUse=1 WtCom= 1.00D+00 WtEn= 0.00D+00
 Coeff-Com: -0.253D-04 0.621D-04 0.258D-03 0.336D-03-0.705D-02 0.396D-02
 Coeff-Com: -0.155D-01 0.596D-01-0.119D+00 0.217D+00-0.316D+00 0.160D+00
 Coeff-Com:  0.288D+00-0.507D+00 0.124D+01
 Coeff:     -0.253D-04 0.621D-04 0.258D-03 0.336D-03-0.705D-02 0.396D-02
 Coeff:     -0.155D-01 0.596D-01-0.119D+00 0.217D+00-0.316D+00 0.160D+00
 Coeff:      0.288D+00-0.507D+00 0.124D+01
 Gap=     0.142 Goal=   None    Shift=    0.000
 Gap=     0.142 Goal=   None    Shift=    0.000
 RMSDP=3.67D-06 MaxDP=1.36D-04 DE=-9.84D-06 OVMax= 7.88D-04

 Cycle  16  Pass 1  IDiag  1:
 Density matrix breaks symmetry, PCut= 1.00D-07
 Density matrix has no symmetry -- integrals replicated.
 E= -24.8909193733975     Delta-E=        0.000000115789 Rises=F Damp=F
 DIIS: error= 3.64D-05 at cycle  16 NSaved=  16.
 NSaved=16 IEnMin=15 EnMin= -24.8909194891869     IErMin=15 ErrMin= 1.15D-05
 ErrMax= 3.64D-05  0.00D+00 EMaxC= 1.00D-01 BMatC= 1.01D-07 BMatP= 9.86D-09
 IDIUse=1 WtCom= 1.00D+00 WtEn= 0.00D+00
 Coeff-Com: -0.182D-04 0.218D-04-0.101D-03-0.416D-03 0.941D-03 0.712D-03
 Coeff-Com:  0.969D-04-0.407D-02 0.132D-01-0.377D-01 0.187D-01 0.711D-01
 Coeff-Com: -0.109D+00 0.719D-01-0.815D-01 0.106D+01
 Coeff:     -0.182D-04 0.218D-04-0.101D-03-0.416D-03 0.941D-03 0.712D-03
 Coeff:      0.969D-04-0.407D-02 0.132D-01-0.377D-01 0.187D-01 0.711D-01
 Coeff:     -0.109D+00 0.719D-01-0.815D-01 0.106D+01
 Gap=     0.142 Goal=   None    Shift=    0.000
 Gap=     0.142 Goal=   None    Shift=    0.000
 RMSDP=2.81D-06 MaxDP=1.23D-04 DE= 1.16D-07 OVMax= 6.17D-04

 Cycle  17  Pass 1  IDiag  1:
 Density matrix breaks symmetry, PCut= 1.00D-07
 Density matrix has no symmetry -- integrals replicated.
 E= -24.8909195060917     Delta-E=       -0.000000132694 Rises=F Damp=F
 DIIS: error= 6.56D-06 at cycle  17 NSaved=  17.
 NSaved=17 IEnMin=17 EnMin= -24.8909195060917     IErMin=17 ErrMin= 6.56D-06
 ErrMax= 6.56D-06  0.00D+00 EMaxC= 1.00D-01 BMatC= 3.66D-09 BMatP= 9.86D-09
 IDIUse=1 WtCom= 1.00D+00 WtEn= 0.00D+00
 Coeff-Com:  0.122D-04-0.154D-04-0.165D-04 0.375D-04 0.223D-03-0.520D-03
 Coeff-Com:  0.975D-03-0.102D-02-0.497D-03 0.776D-02-0.551D-02-0.260D-01
 Coeff-Com:  0.371D-01-0.199D-01-0.525D-01-0.161D+00 0.122D+01
 Coeff:      0.122D-04-0.154D-04-0.165D-04 0.375D-04 0.223D-03-0.520D-03
 Coeff:      0.975D-03-0.102D-02-0.497D-03 0.776D-02-0.551D-02-0.260D-01
 Coeff:      0.371D-01-0.199D-01-0.525D-01-0.161D+00 0.122D+01
 Gap=     0.142 Goal=   None    Shift=    0.000
 Gap=     0.142 Goal=   None    Shift=    0.000
 RMSDP=4.50D-07 MaxDP=1.74D-05 DE=-1.33D-07 OVMax= 9.38D-05

 Cycle  18  Pass 1  IDiag  1:
 Density matrix breaks symmetry, PCut= 1.00D-07
 Density matrix has no symmetry -- integrals replicated.
 E= -24.8909195109836     Delta-E=       -0.000000004892 Rises=F Damp=F
 DIIS: error= 3.94D-07 at cycle  18 NSaved=  18.
 NSaved=18 IEnMin=18 EnMin= -24.8909195109836     IErMin=18 ErrMin= 3.94D-07
 ErrMax= 3.94D-07  0.00D+00 EMaxC= 1.00D-01 BMatC= 1.66D-11 BMatP= 3.66D-09
 IDIUse=1 WtCom= 1.00D+00 WtEn= 0.00D+00
 Coeff-Com: -0.103D-04 0.154D-04 0.221D-04-0.286D-04-0.876D-04 0.345D-03
 Coeff-Com: -0.297D-03-0.253D-03 0.176D-02-0.580D-02 0.647D-02 0.799D-02
 Coeff-Com: -0.191D-01 0.161D-01 0.336D-02 0.597D-01-0.643D+00 0.157D+01
 Coeff:     -0.103D-04 0.154D-04 0.221D-04-0.286D-04-0.876D-04 0.345D-03
 Coeff:     -0.297D-03-0.253D-03 0.176D-02-0.580D-02 0.647D-02 0.799D-02
 Coeff:     -0.191D-01 0.161D-01 0.336D-02 0.597D-01-0.643D+00 0.157D+01
 Gap=     0.142 Goal=   None    Shift=    0.000
 Gap=     0.142 Goal=   None    Shift=    0.000
 RMSDP=1.40D-07 MaxDP=4.14D-06 DE=-4.89D-09 OVMax= 3.16D-05

 Cycle  19  Pass 1  IDiag  1:
 Density matrix breaks symmetry, PCut= 1.00D-07
 Density matrix has no symmetry -- integrals replicated.
 E= -24.8909195109185     Delta-E=        0.000000000065 Rises=F Damp=F
 DIIS: error= 1.15D-06 at cycle  19 NSaved=  19.
 NSaved=19 IEnMin=18 EnMin= -24.8909195109836     IErMin=18 ErrMin= 3.94D-07
 ErrMax= 1.15D-06  0.00D+00 EMaxC= 1.00D-01 BMatC= 1.03D-10 BMatP= 1.66D-11
 IDIUse=1 WtCom= 1.00D+00 WtEn= 0.00D+00
 Coeff-Com:  0.258D-05-0.438D-05-0.208D-05 0.443D-05 0.219D-05-0.195D-04
 Coeff-Com:  0.206D-04-0.465D-05-0.964D-04 0.403D-03-0.659D-03-0.152D-02
 Coeff-Com:  0.250D-02-0.143D-02-0.472D-02 0.301D-01 0.569D-01-0.568D+00
 Coeff-Com:  0.149D+01
 Coeff:      0.258D-05-0.438D-05-0.208D-05 0.443D-05 0.219D-05-0.195D-04
 Coeff:      0.206D-04-0.465D-05-0.964D-04 0.403D-03-0.659D-03-0.152D-02
 Coeff:      0.250D-02-0.143D-02-0.472D-02 0.301D-01 0.569D-01-0.568D+00
 Coeff:      0.149D+01
 Gap=     0.142 Goal=   None    Shift=    0.000
 Gap=     0.142 Goal=   None    Shift=    0.000
 RMSDP=8.61D-08 MaxDP=3.55D-06 DE= 6.51D-11 OVMax= 1.83D-05

 Cycle  20  Pass 1  IDiag  1:
 Density matrix breaks symmetry, PCut= 1.00D-07
 Density matrix has no symmetry -- integrals replicated.
 E= -24.8909195110572     Delta-E=       -0.000000000139 Rises=F Damp=F
 DIIS: error= 8.14D-08 at cycle  20 NSaved=  20.
 NSaved=20 IEnMin=20 EnMin= -24.8909195110572     IErMin=20 ErrMin= 8.14D-08
 ErrMax= 8.14D-08  0.00D+00 EMaxC= 1.00D-01 BMatC= 5.64D-13 BMatP= 1.66D-11
 IDIUse=1 WtCom= 1.00D+00 WtEn= 0.00D+00
 Coeff-Com: -0.811D-07 0.127D-06-0.348D-06-0.681D-06 0.112D-04-0.577D-05
 Coeff-Com:  0.404D-05-0.248D-04 0.589D-04-0.152D-03 0.257D-03 0.216D-03
 Coeff-Com: -0.549D-03 0.507D-03 0.570D-03-0.772D-02 0.206D-02 0.927D-01
 Coeff-Com: -0.331D+00 0.124D+01
 Coeff:     -0.811D-07 0.127D-06-0.348D-06-0.681D-06 0.112D-04-0.577D-05
 Coeff:      0.404D-05-0.248D-04 0.589D-04-0.152D-03 0.257D-03 0.216D-03
 Coeff:     -0.549D-03 0.507D-03 0.570D-03-0.772D-02 0.206D-02 0.927D-01
 Coeff:     -0.331D+00 0.124D+01
 Gap=     0.142 Goal=   None    Shift=    0.000
 Gap=     0.142 Goal=   None    Shift=    0.000
 RMSDP=1.05D-08 MaxDP=4.04D-07 DE=-1.39D-10 OVMax= 2.14D-06

 Cycle  21  Pass 1  IDiag  1:
 Density matrix breaks symmetry, PCut= 1.00D-07
 Density matrix has no symmetry -- integrals replicated.
 E= -24.8909195110577     Delta-E=       -0.000000000001 Rises=F Damp=F
 DIIS: error= 5.48D-08 at cycle  21 NSaved=  20.
 NSaved=20 IEnMin=20 EnMin= -24.8909195110577     IErMin=20 ErrMin= 5.48D-08
 ErrMax= 5.48D-08  0.00D+00 EMaxC= 1.00D-01 BMatC= 2.30D-13 BMatP= 5.64D-13
 IDIUse=1 WtCom= 1.00D+00 WtEn= 0.00D+00
 Large coefficients: NSaved= 20 BigCof=    0.00 CofMax=   10.00 Det=-7.64D-16
 Inversion failed.  Reducing to 19 matrices.
 Large coefficients: NSaved= 19 BigCof=    0.00 CofMax=   10.00 Det=-7.64D-16
 Inversion failed.  Reducing to 18 matrices.
 Large coefficients: NSaved= 18 BigCof=    0.00 CofMax=   10.00 Det=-8.08D-16
 Inversion failed.  Reducing to 17 matrices.
 Large coefficients: NSaved= 17 BigCof=    0.00 CofMax=   10.00 Det=-8.13D-16
 Inversion failed.  Reducing to 16 matrices.
 Large coefficients: NSaved= 16 BigCof=    0.00 CofMax=   10.00 Det=-9.44D-16
 Inversion failed.  Reducing to 15 matrices.
 Coeff-Com:  0.329D-05-0.135D-04 0.230D-04-0.352D-04 0.509D-04-0.299D-04
 Coeff-Com: -0.530D-04 0.613D-04-0.237D-03 0.110D-02-0.254D-02 0.295D-02
 Coeff-Com: -0.121D-01-0.137D+00 0.115D+01
 Coeff:      0.329D-05-0.135D-04 0.230D-04-0.352D-04 0.509D-04-0.299D-04
 Coeff:     -0.530D-04 0.613D-04-0.237D-03 0.110D-02-0.254D-02 0.295D-02
 Coeff:     -0.121D-01-0.137D+00 0.115D+01
 Gap=     0.142 Goal=   None    Shift=    0.000
 Gap=     0.142 Goal=   None    Shift=    0.000
 RMSDP=3.99D-09 MaxDP=1.68D-07 DE=-5.12D-13 OVMax= 8.34D-07

 Density matrix breaks symmetry, PCut= 1.00D-07
 Density matrix has no symmetry -- integrals replicated.
 SCF Done:  E(UHF) =  -24.8909195111     A.U. after   21 cycles
            NFock= 21  Conv=0.40D-08     -V/T= 2.0050
 <Sx>= 0.0000 <Sy>= 0.0000 <Sz>= 0.0000 <S**2>= 0.2668 S= 0.2189
 <L.S>=  0.00000000000    
 KE= 2.476676727894D+01 PE=-5.828879612624D+01 EE= 8.029771596565D+00
 Annihilation of the first spin contaminant:
 S**2 before annihilation     0.2668,   after     0.0045
 Leave Link  502 at Sun May 22 21:12:26 2022, MaxMem=   104857600 cpu:               4.0 elap:               4.0
 (Enter /apps/software/g16/l601.exe)
 Copying SCF densities to generalized density rwf, IOpCl= 1 IROHF=0.
 SCF density gives NOpUse=  1 NOpAll=  4.
 Marking SCF density as not fully symmetric.

 **********************************************************************

            Population analysis using the SCF density.

 **********************************************************************

 Orbital symmetries:
 Alpha Orbitals:
       Occupied  (SG) (?A) (?A)
       Virtual   (?A) (?A) (?A) (?A) (?A) (?A) (SG) (SG) (?B) (?B)
                 (?B) (?B) (SG) (?C) (?C) (?C) (?C) (?C) (?C) (SG)
                 (?D) (?D) (?D) (?D) (?D) (?D) (?D) (?D) (?D) (?D)
                 (?D) (?D) (SG) (DLTA) (DLTA) (PI) (PI) (SG) (PI)
                 (PI) (?E) (?E) (?E) (?E) (?F) (?F) (?F) (?F) (?F)
                 (?F) (?F) (?F) (?F) (?F) (?F) (?F) (?F) (?F) (?G)
                 (?G) (?G) (?G) (?G) (?G) (?G) (SG) (PHI) (PHI)
                 (DLTA) (DLTA) (PI) (PI) (SG) (SG) (DLTA) (DLTA)
                 (PI) (PI) (SG) (PI) (PI) (SG) (?H) (?H) (?H) (?I)
                 (?I) (?I) (?I) (?I) (?I) (?I) (?I) (?I) (?I) (?I)
                 (?I) (?I) (?I) (?J) (?J) (?J) (?J) (?J) (?J) (?J)
                 (PHI) (PHI) (DLTA) (DLTA) (PI) (PI) (SG) (SG)
                 (PI) (PI) (SG) (DLTA) (DLTA) (PI) (PI) (SG) (SG)
 Beta  Orbitals:
       Occupied  (SG) (?A) (?A)
       Virtual   (?A) (?A) (?A) (?A) (?A) (?A) (SG) (SG) (?B) (?B)
                 (?B) (?B) (SG) (?C) (?C) (?C) (?C) (?C) (?C) (SG)
                 (?D) (?D) (?D) (?D) (?D) (?D) (?D) (?D) (?D) (?D)
                 (?D) (?D) (SG) (DLTA) (DLTA) (PI) (PI) (SG) (PI)
                 (PI) (?E) (?E) (?E) (?E) (?F) (?F) (?F) (?F) (?F)
                 (?F) (?F) (?F) (?F) (?F) (?F) (?F) (?F) (?F) (?G)
                 (?G) (?G) (?G) (?G) (?G) (?G) (SG) (PHI) (PHI)
                 (DLTA) (DLTA) (PI) (PI) (SG) (SG) (DLTA) (DLTA)
                 (PI) (PI) (SG) (PI) (PI) (SG) (?H) (?H) (?H) (?I)
                 (?I) (?I) (?I) (?I) (?I) (?I) (?I) (?I) (?I) (?I)
                 (?I) (?I) (?I) (?J) (?J) (?J) (?J) (?J) (?J) (?J)
                 (PHI) (PHI) (DLTA) (DLTA) (PI) (PI) (SG) (SG)
                 (PI) (PI) (SG) (DLTA) (DLTA) (PI) (PI) (SG) (SG)
 Unable to determine electronic state:  an orbital has unidentified symmetry.
 Alpha  occ. eigenvalues --   -7.88071  -0.61756  -0.23298
 Alpha virt. eigenvalues --   -0.09051  -0.04308  -0.03225   0.02457   0.04316
 Alpha virt. eigenvalues --    0.04372   0.06173   0.09686   0.11977   0.11978
 Alpha virt. eigenvalues --    0.12655   0.12713   0.15302   0.23485   0.24150
 Alpha virt. eigenvalues --    0.24271   0.25073   0.25228   0.29275   0.32833
 Alpha virt. eigenvalues --    0.41851   0.41851   0.42477   0.42477   0.43178
 Alpha virt. eigenvalues --    0.43494   0.43573   0.43829   0.43910   0.44907
 Alpha virt. eigenvalues --    0.45026   0.46788   0.54520   0.68752   0.68752
 Alpha virt. eigenvalues --    0.71808   0.71825   0.76700   0.86340   0.86347
 Alpha virt. eigenvalues --    0.93108   0.94710   0.94842   1.00862   1.29598
 Alpha virt. eigenvalues --    1.30075   1.30075   1.30611   1.30643   1.30804
 Alpha virt. eigenvalues --    1.30820   1.31326   1.31337   1.31757   1.31984
 Alpha virt. eigenvalues --    1.32091   1.32305   1.32936   1.34688   1.35435
 Alpha virt. eigenvalues --    1.35436   1.36341   1.36344   1.37836   1.38123
 Alpha virt. eigenvalues --    1.43752   1.64264   1.64264   1.64426   1.64426
 Alpha virt. eigenvalues --    1.65907   1.65918   1.67569   1.77379   2.55089
 Alpha virt. eigenvalues --    2.55089   2.56873   2.56876   2.61050   2.67588
 Alpha virt. eigenvalues --    2.67591   2.75153   3.58828   3.59072   3.62674
 Alpha virt. eigenvalues --    3.81064   3.81064   3.81753   3.81755   3.81844
 Alpha virt. eigenvalues --    3.81855   3.82394   3.82429   3.82746   3.82857
 Alpha virt. eigenvalues --    3.83101   3.83180   3.83732   3.85413   3.96075
 Alpha virt. eigenvalues --    3.96076   3.97023   3.97027   3.98225   3.98609
 Alpha virt. eigenvalues --    4.02424   6.64794   6.64794   6.64859   6.64859
 Alpha virt. eigenvalues --    6.65204   6.65205   6.65935   7.52884   8.03637
 Alpha virt. eigenvalues --    8.03638   8.07953   8.48379   8.48379   8.49550
 Alpha virt. eigenvalues --    8.49551   8.53738  12.88426
  Beta  occ. eigenvalues --   -7.88071  -0.61756  -0.23298
  Beta virt. eigenvalues --   -0.09051  -0.04308  -0.03225   0.02457   0.04316
  Beta virt. eigenvalues --    0.04372   0.06173   0.09686   0.11977   0.11978
  Beta virt. eigenvalues --    0.12655   0.12713   0.15302   0.23485   0.24150
  Beta virt. eigenvalues --    0.24271   0.25073   0.25228   0.29275   0.32833
  Beta virt. eigenvalues --    0.41851   0.41851   0.42477   0.42477   0.43178
  Beta virt. eigenvalues --    0.43494   0.43573   0.43829   0.43910   0.44907
  Beta virt. eigenvalues --    0.45026   0.46788   0.54520   0.68752   0.68752
  Beta virt. eigenvalues --    0.71808   0.71825   0.76700   0.86340   0.86347
  Beta virt. eigenvalues --    0.93108   0.94710   0.94842   1.00862   1.29598
  Beta virt. eigenvalues --    1.30075   1.30075   1.30611   1.30643   1.30804
  Beta virt. eigenvalues --    1.30820   1.31326   1.31337   1.31757   1.31984
  Beta virt. eigenvalues --    1.32091   1.32305   1.32936   1.34688   1.35435
  Beta virt. eigenvalues --    1.35436   1.36341   1.36344   1.37836   1.38123
  Beta virt. eigenvalues --    1.43752   1.64264   1.64264   1.64426   1.64426
  Beta virt. eigenvalues --    1.65907   1.65918   1.67569   1.77379   2.55089
  Beta virt. eigenvalues --    2.55089   2.56873   2.56876   2.61050   2.67588
  Beta virt. eigenvalues --    2.67591   2.75153   3.58828   3.59072   3.62674
  Beta virt. eigenvalues --    3.81064   3.81064   3.81753   3.81755   3.81844
  Beta virt. eigenvalues --    3.81855   3.82394   3.82429   3.82746   3.82857
  Beta virt. eigenvalues --    3.83101   3.83180   3.83732   3.85413   3.96075
  Beta virt. eigenvalues --    3.96076   3.97023   3.97027   3.98225   3.98609
  Beta virt. eigenvalues --    4.02424   6.64794   6.64794   6.64859   6.64859
  Beta virt. eigenvalues --    6.65204   6.65205   6.65935   7.52884   8.03637
  Beta virt. eigenvalues --    8.03638   8.07953   8.48379   8.48379   8.49550
  Beta virt. eigenvalues --    8.49551   8.53738  12.88426
          Condensed to atoms (all electrons):
               1          2
     1  B    4.534571   0.093763
     2  H    0.093763   1.277903
          Atomic-Atomic Spin Densities.
               1          2
     1  B    0.000000   0.000000
     2  H    0.000000   0.000000
 Mulliken charges and spin densities:
               1          2
     1  B    0.371666   0.000000
     2  H   -0.371666   0.000000
 Sum of Mulliken charges =  -0.00000   0.00000
 Mulliken charges and spin densities with hydrogens summed into heavy atoms:
               1          2
     1  B   -0.000000   0.000000
 Electronic spatial extent (au):  <R**2>=             95.1168
 Charge=             -0.0000 electrons
 Dipole moment (field-independent basis, Debye):
    X=              0.0000    Y=              0.0000    Z=              8.4323  Tot=              8.4323
 Quadrupole moment (field-independent basis, Debye-Ang):
   XX=             -9.1141   YY=             -9.7019   ZZ=            -31.6276
   XY=              0.0000   XZ=             -0.0000   YZ=              0.0000
 Traceless Quadrupole moment (field-independent basis, Debye-Ang):
   XX=              7.7004   YY=              7.1126   ZZ=            -14.8131
   XY=              0.0000   XZ=             -0.0000   YZ=              0.0000
 Octapole moment (field-independent basis, Debye-Ang**2):
  XXX=              0.0000  YYY=              0.0000  ZZZ=             98.7377  XYY=             -0.0000
  XXY=              0.0000  XXZ=              9.9959  XZZ=              0.0000  YZZ=              0.0000
  YYZ=              9.5593  XYZ=              0.0000
 Hexadecapole moment (field-independent basis, Debye-Ang**3):
 XXXX=            -20.4774 YYYY=            -22.8954 ZZZZ=           -562.7293 XXXY=              0.0000
 XXXZ=             -0.0000 YYYX=              0.0000 YYYZ=              0.0000 ZZZX=              0.0000
 ZZZY=              0.0000 XXYY=             -7.2300 XXZZ=            -56.3895 YYZZ=            -57.1490
 XXYZ=              0.0000 YYXZ=              0.0000 ZZXY=              0.0000
 N-N= 6.013377396818D-01 E-N=-5.828879791081D+01  KE= 2.476676727894D+01
 Symmetry A1   KE= 2.467066562994D+01
 Symmetry A2   KE= 3.399675331391D-29
 Symmetry B1   KE= 6.907134808386D-30
 Symmetry B2   KE= 9.610164900046D-02
 Symmetry A1   SP= 0.000000000000D+00
 Symmetry A2   SP= 0.000000000000D+00
 Symmetry B1   SP= 0.000000000000D+00
 Symmetry B2   SP= 0.000000000000D+00
                          Isotropic Fermi Contact Couplings
        Atom                 a.u.       MegaHertz       Gauss      10(-4) cm-1
     1  B(11)              0.00000       0.00000       0.00000       0.00000
     2  H(1)               0.00000       0.00000       0.00000       0.00000
 --------------------------------------------------------
       Center         ----  Spin Dipole Couplings  ----
                      3XX-RR        3YY-RR        3ZZ-RR
 --------------------------------------------------------
     1   Atom        0.000000      0.000000      0.000000
     2   Atom        0.000000      0.000000      0.000000
 --------------------------------------------------------
                        XY            XZ            YZ
 --------------------------------------------------------
     1   Atom        0.000000      0.000000     -0.188268
     2   Atom        0.000000      0.000000      0.000831
 --------------------------------------------------------


 ---------------------------------------------------------------------------------
              Anisotropic Spin Dipole Couplings in Principal Axis System
 ---------------------------------------------------------------------------------

       Atom             a.u.   MegaHertz   Gauss  10(-4) cm-1        Axes

              Baa    -0.1883   -32.234   -11.502   -10.752 -0.0000  0.7071  0.7071
     1 B(11)  Bbb     0.0000     0.000     0.000     0.000  1.0000 -0.0000  0.0000
              Bcc     0.1883    32.234    11.502    10.752  0.0000  0.7071 -0.7071
 
              Baa    -0.0008    -0.443    -0.158    -0.148 -0.0000  0.7071 -0.7071
     2 H(1)   Bbb     0.0000     0.000     0.000     0.000  1.0000  0.0000 -0.0000
              Bcc     0.0008     0.443     0.158     0.148  0.0000  0.7071  0.7071
 

 ---------------------------------------------------------------------------------

 No NMR shielding tensors so no spin-rotation constants.
 Leave Link  601 at Sun May 22 21:12:26 2022, MaxMem=   104857600 cpu:               0.2 elap:               0.2
 (Enter /apps/software/g16/l801.exe)
 Range of M.O.s used for correlation:     1   126
 NBasis=   126 NAE=     3 NBE=     3 NFC=     0 NFV=     0
 NROrb=    126 NOA=     3 NOB=     3 NVA=   123 NVB=   123
 Leave Link  801 at Sun May 22 21:12:26 2022, MaxMem=   104857600 cpu:               0.0 elap:               0.0
 (Enter /apps/software/g16/l914.exe)
 UHF ground state
 Doing stability rather than CIS.
 Keep R1 and R2 ints in memory in symmetry-blocked form, NReq=40144005.
 FoFCou: FMM=F IPFlag=           0 FMFlag=           0 FMFlg1=           0
         NFxFlg=           0 DoJE=F BraDBF=F KetDBF=F FulRan=T
         wScrn=  0.000000 ICntrl=       600 IOpCl=  0 I1Cent=           0 NGrid=           0
         NMat0=    1 NMatS0=   8001 NMatT0=    0 NMatD0=    1 NMtDS0=    0 NMtDT0=    0
 Petite list used in FoFCou.
 MDV=   104857600 DFT=F DoStab=T Mixed=F DoRPA=F DoScal=F NonHer=F
 Making orbital integer symmetry assigments:
 Orbital symmetries:
 Alpha Orbitals:
       Occupied  (SG) (?A) (?A)
       Virtual   (?A) (?A) (?A) (?A) (?A) (?A) (SG) (SG) (?B) (?B)
                 (?B) (?B) (SG) (?C) (?C) (?C) (?C) (?C) (?C) (SG)
                 (?D) (?D) (?D) (?D) (?D) (?D) (?D) (?D) (?D) (?D)
                 (?D) (?D) (SG) (DLTA) (DLTA) (PI) (PI) (SG) (PI)
                 (PI) (?E) (?E) (?E) (?E) (?F) (?F) (?F) (?F) (?F)
                 (?F) (?F) (?F) (?F) (?F) (?F) (?F) (?F) (?F) (?G)
                 (?G) (?G) (?G) (?G) (?G) (?G) (SG) (PHI) (PHI)
                 (DLTA) (DLTA) (PI) (PI) (SG) (SG) (DLTA) (DLTA)
                 (PI) (PI) (SG) (PI) (PI) (SG) (?H) (?H) (?H) (?I)
                 (?I) (?I) (?I) (?I) (?I) (?I) (?I) (?I) (?I) (?I)
                 (?I) (?I) (?I) (?J) (?J) (?J) (?J) (?J) (?J) (?J)
                 (PHI) (PHI) (DLTA) (DLTA) (PI) (PI) (SG) (SG)
                 (PI) (PI) (SG) (DLTA) (DLTA) (PI) (PI) (SG) (SG)
 Beta  Orbitals:
       Occupied  (SG) (?A) (?A)
       Virtual   (?A) (?A) (?A) (?A) (?A) (?A) (SG) (SG) (?B) (?B)
                 (?B) (?B) (SG) (?C) (?C) (?C) (?C) (?C) (?C) (SG)
                 (?D) (?D) (?D) (?D) (?D) (?D) (?D) (?D) (?D) (?D)
                 (?D) (?D) (SG) (DLTA) (DLTA) (PI) (PI) (SG) (PI)
                 (PI) (?E) (?E) (?E) (?E) (?F) (?F) (?F) (?F) (?F)
                 (?F) (?F) (?F) (?F) (?F) (?F) (?F) (?F) (?F) (?G)
                 (?G) (?G) (?G) (?G) (?G) (?G) (SG) (PHI) (PHI)
                 (DLTA) (DLTA) (PI) (PI) (SG) (SG) (DLTA) (DLTA)
                 (PI) (PI) (SG) (PI) (PI) (SG) (?H) (?H) (?H) (?I)
                 (?I) (?I) (?I) (?I) (?I) (?I) (?I) (?I) (?I) (?I)
                 (?I) (?I) (?I) (?J) (?J) (?J) (?J) (?J) (?J) (?J)
                 (PHI) (PHI) (DLTA) (DLTA) (PI) (PI) (SG) (SG)
                 (PI) (PI) (SG) (DLTA) (DLTA) (PI) (PI) (SG) (SG)
    12 initial guesses have been made.
 Convergence on wavefunction:    0.001000000000000
 Davidson Disk Diagonalization:  ConvIn= 1.00D-03 SkipCon=T Conv= 1.00D-03.
 Max sub-space:  1476 roots to seek:    12 dimension of matrix:          738
 Iteration     1 Dimension    12 NMult     0 NNew     12
 CISAX will form    12 AO SS matrices at one time.
 NMat=    12 NSing=    12 JSym2X= 2.
 New state      1 was old state      5
 Excitation Energies [eV] at current iteration:
 Root      1 :    -5.302306179243690
 Root      2 :     0.568896893205288
 Root      3 :     0.877189658634863
 Root      4 :     0.983693580149744
 Root      5 :     1.218944333964717
 Root      6 :     4.172026429203013
 Root      7 :     4.284854713322212
 Root      8 :     5.072678542126002
 Root      9 :     5.078614854140673
 Root     10 :     5.143696493528913
 Root     11 :     5.185757453374016
 Root     12 :     7.891236755204147
 Iteration     2 Dimension    24 NMult    12 NNew     12
 CISAX will form    12 AO SS matrices at one time.
 NMat=    12 NSing=    12 JSym2X= 2.
 Root      1 not converged, maximum delta is    0.124116085159420
 Excitation Energies [eV] at current iteration:
 Root      1 :    -6.922189670336735   Change is   -1.619883491093046
 Root      2 :     0.070144026389916   Change is   -0.498752866815373
 Root      3 :     0.400534084306548   Change is   -0.583159495843196
 Root      4 :     0.471533728376427   Change is   -0.405655930258436
 Root      5 :     0.692571432468067   Change is   -0.526372901496650
 Root      6 :     3.532824663339411   Change is   -0.639201765863602
 Root      7 :     3.879970354847001   Change is   -0.404884358475211
 Root      8 :     4.571844686643107   Change is   -0.571851806885806
 Root      9 :     4.592025565477943   Change is   -0.480652976648059
 Root     10 :     4.614273564778292   Change is   -0.464341289362381
 Root     11 :     4.761197783479355   Change is   -0.424559669894661
 Root     12 :     5.100200243405713   Change is   -2.791036511798435
 Iteration     3 Dimension    27 NMult    24 NNew      3
 CISAX will form     3 AO SS matrices at one time.
 NMat=     3 NSing=     3 JSym2X= 2.
 Root      1 not converged, maximum delta is    0.016049791935228
 Excitation Energies [eV] at current iteration:
 Root      1 :    -6.984284739938804   Change is   -0.062095069602069
 Root      2 :     0.054058861579371   Change is   -0.016085164810545
 Root      3 :     0.365599179615337   Change is   -0.034934904691211
 Iteration     4 Dimension    30 NMult    27 NNew      3
 CISAX will form     3 AO SS matrices at one time.
 NMat=     3 NSing=     3 JSym2X= 2.
 Root      1 not converged, maximum delta is    0.001147565906298
 Excitation Energies [eV] at current iteration:
 Root      1 :    -6.984921923739257   Change is   -0.000637183800452
 Root      2 :     0.012554736962779   Change is   -0.041504124616591
 Root      3 :     0.338471842210840   Change is   -0.027127337404497
 Iteration     5 Dimension    33 NMult    30 NNew      3
 CISAX will form     3 AO SS matrices at one time.
 NMat=     3 NSing=     3 JSym2X= 2.
 Root      1 has converged.
 Excitation Energies [eV] at current iteration:
 Root      1 :    -6.984932694167361   Change is   -0.000010770428104
 Root      2 :     0.000248963310273   Change is   -0.012305773652507
 Root      3 :     0.332524405549958   Change is   -0.005947436660882
 Convergence achieved on expansion vectors.
 ***********************************************************************
 Stability analysis using <AA,BB:AA,BB> singles matrix:
 ***********************************************************************
 1PDM for each excited state written to RWF  633
 Ground to excited state transition densities written to RWF  633

 Eigenvectors of the stability matrix:
 
 Excited state symmetry could not be determined.
 Eigenvector   1:  2.731-?Sym  Eigenvalue=-0.2566916  <S**2>=1.615
      3A ->  4A       -0.66799
      3A ->  6A       -0.10581
      3A -> 11A        0.10226
      3B ->  4B        0.66799
      3B ->  6B       -0.10581
      3B -> 11B       -0.10226
 The wavefunction has an internal instability.
 Leave Link  914 at Sun May 22 21:12:31 2022, MaxMem=   104857600 cpu:               4.0 elap:               4.0
 (Enter /apps/software/g16/l508.exe)
 Keep R1 and R2 ints in memory in symmetry-blocked form, NReq=40144065.
 FoFCou: FMM=F IPFlag=           0 FMFlag=           0 FMFlg1=           0
         NFxFlg=           0 DoJE=F BraDBF=F KetDBF=F FulRan=T
         wScrn=  0.000000 ICntrl=       600 IOpCl=  0 I1Cent=           0 NGrid=           0
         NMat0=    1 NMatS0=   8001 NMatT0=    0 NMatD0=    1 NMtDS0=    0 NMtDT0=    0
 Petite list used in FoFCou.
 Tight linear equation convergence will be used.
 UHF wavefunction.
 Quadratic Convergence SCF Method.
 Line search only if initial step raises energy.
 Perform preliminary linear searches along instability eigenvector.
     ILin= 1 X=0.000D+00 Y=-2.489091951106D+01 DE= 0.00D+00
     ILin= 2 X=1.000D-01 Y=-2.489346600645D+01 DE=-2.55D-03
     ILin= 3 X=1.414D-01 Y=-2.489597190269D+01 DE=-5.05D-03
     ILin= 4 X=2.000D-01 Y=-2.490086324301D+01 DE=-9.94D-03
     ILin= 5 X=2.828D-01 Y=-2.491017341346D+01 DE=-1.93D-02
     ILin= 6 X=4.000D-01 Y=-2.492697651951D+01 DE=-3.61D-02
     ILin= 7 X=5.657D-01 Y=-2.495387140690D+01 DE=-6.30D-02
     ILin= 8 X=8.000D-01 Y=-2.498490080453D+01 DE=-9.40D-02
     ILin= 9 X=1.131D+00 Y=-2.498321827352D+01 DE=-9.23D-02
     No minimum found in polynomial.
     ILin=10 X=1.600D+00 Y=-2.487467428473D+01 DE= 1.62D-02
     An  expanding polynomial of degree 10 produced  0.9616
 Iteration F X= 9.616D-01 EE=-2.499250140972341D+01
     ILin= 1 X=0.000D+00 Y=-2.489091951106D+01 DE= 0.00D+00
     ILin= 2 X=1.000D-01 Y=-2.489346600636D+01 DE=-2.55D-03
     ILin= 3 X=1.414D-01 Y=-2.489597190243D+01 DE=-5.05D-03
 The two search directions are symmetric.
 Iteration B X= 9.616D-01 EE=-2.499250140972341D+01
 Take forward step, X= 9.616D-01 Step= 9.616D-01
 Iteration   1 EE= -24.9925013902770                                    Grad=1.124D-01 Max rot=    2.6867 deg.
 Gradient too large for Newton-Raphson -- use scaled steepest descent instead.
 Alpha Gap=     0.496 HL deriv= 8.41D-02
  Beta Gap=     0.288 HL deriv= 1.63D-01
     ILin= 1 X=0.000D+00 Y=-2.499250139028D+01 DE= 0.00D+00 F= -4.30D-02
     ILin= 2 X=3.000D-01 Y=-2.500441967547D+01 DE=-1.19D-02 F= -3.63D-02
     ILin= 3 X=4.000D-01 Y=-2.500792657348D+01 DE=-1.54D-02 F= -3.38D-02
     ILin= 4 X=6.000D-01 Y=-2.501417835454D+01 DE=-2.17D-02 F= -2.86D-02
     ILin= 5 X=9.000D-01 Y=-2.502150949653D+01 DE=-2.90D-02 F= -2.01D-02
     ILin= 6 X=1.400D+00 Y=-2.502774934682D+01 DE=-3.52D-02 F= -4.59D-03
     ILin= 7 X=2.000D+00 Y=-2.502458687629D+01 DE=-3.21D-02 F=  1.52D-02
     An  expanding polynomial of degree  7 produced  1.5410
     Minimum is close to point  6 DX=  1.41D-01 DF= -3.25D-04 DXR=  9.15D-02 DFR=  9.21D-03 which will be used.
 Iteration   2 EE= -25.0277493468170     Delta-E=       -0.035247956540 Grad=4.248D-02 Max rot=    0.9229 deg.
 Gradient too large for Newton-Raphson -- use scaled steepest descent instead.
 Alpha Gap=     0.559 HL deriv= 1.94D-02
  Beta Gap=     0.353 HL deriv= 4.57D-02
     ILin= 1 X=0.000D+00 Y=-2.502774934682D+01 DE= 0.00D+00 F= -5.32D-03
     ILin= 2 X=7.000D-01 Y=-2.503067237166D+01 DE=-2.92D-03 F= -3.02D-03
     ILin= 3 X=1.200D+00 Y=-2.503175747821D+01 DE=-4.01D-03 F= -1.31D-03
     ILin= 4 X=2.200D+00 Y=-2.503132141670D+01 DE=-3.57D-03 F=  2.21D-03
     An  expanding polynomial of degree  4 produced  1.5784
 Iteration   3 EE= -25.0320065034467     Delta-E=       -0.004257156630 Grad=2.071D-02 Max rot=    0.4352 deg.
 Gradient too large for Newton-Raphson -- use scaled steepest descent instead.
 Alpha Gap=     0.572 HL deriv= 8.88D-03
  Beta Gap=     0.367 HL deriv= 6.65D-03
     ILin= 1 X=0.000D+00 Y=-2.503200650345D+01 DE= 0.00D+00 F= -9.65D-04
     ILin= 2 X=1.600D+00 Y=-2.503255223679D+01 DE=-5.46D-04 F=  2.86D-04
     Accept linear search using points  1 and  2.
     An  expanding polynomial of degree  2 produced  1.4168
 Iteration   4 EE= -25.0325914756038     Delta-E=       -0.000584972157 Grad=9.744D-03 Max rot=    0.2021 deg.
 QCNR:  CnvC1=2.72D-09 CnvC2=2.72D-08
 LinEq1:  Iter=  0 NonCon=     1 RMS=4.17D-04 Max=3.86D-03 NDo=     1
 AX will form     1 AO Fock derivatives at one time.
 LinEq1:  Iter=  1 NonCon=     1 RMS=1.25D-04 Max=1.07D-03 NDo=     1
 LinEq1:  Iter=  2 NonCon=     1 RMS=3.13D-05 Max=3.19D-04 NDo=     1
 LinEq1:  Iter=  3 NonCon=     1 RMS=4.66D-06 Max=4.93D-05 NDo=     1
 LinEq1:  Iter=  4 NonCon=     1 RMS=8.76D-07 Max=1.05D-05 NDo=     1
 LinEq1:  Iter=  5 NonCon=     1 RMS=1.68D-07 Max=1.76D-06 NDo=     1
 LinEq1:  Iter=  6 NonCon=     1 RMS=2.63D-08 Max=2.06D-07 NDo=     1
 LinEq1:  Iter=  7 NonCon=     1 RMS=2.93D-09 Max=2.29D-08 NDo=     1
 LinEq1:  Iter=  8 NonCon=     0 RMS=8.98D-10 Max=1.17D-08 NDo=     1
 Linear equations converged to 2.717D-09 2.717D-08 after     8 iterations.
 Angle between quadratic step and gradient=  64.58 degrees.
     ILin= 1 X=0.000D+00 Y=-2.503259147560D+01 DE= 0.00D+00 F= -6.96D-04
     ILin= 2 X=1.000D+00 Y=-2.503294947521D+01 DE=-3.58D-04 F= -2.64D-05
     Reject lnstep minimum 1.041D+00 FVal=-2.503295001146D+01 Lims=  0.00D+00  1.00D+00
     ILin= 3 X=1.800D+00 Y=-2.503275620481D+01 DE=-1.65D-04 F=  5.16D-04
     An  expanding polynomial of degree  3 produced  1.0374
     Minimum is close to point  2 DX=  3.74D-02 DF= -4.65D-07 DXR=  3.60D-02 DFR=  1.30D-03 which will be used.
 Iteration   5 EE= -25.0329494752089     Delta-E=       -0.000357999605 Grad=7.152D-04 Max rot=    0.0193 deg.
 QCNR:  CnvC1=2.72D-09 CnvC2=2.72D-08
 LinEq1:  Iter=  0 NonCon=     1 RMS=2.42D-05 Max=2.42D-04 NDo=     1
 LinEq1:  Iter=  1 NonCon=     1 RMS=7.19D-06 Max=7.06D-05 NDo=     1
 LinEq1:  Iter=  2 NonCon=     1 RMS=1.29D-06 Max=1.39D-05 NDo=     1
 LinEq1:  Iter=  3 NonCon=     1 RMS=2.02D-07 Max=2.07D-06 NDo=     1
 LinEq1:  Iter=  4 NonCon=     1 RMS=3.99D-08 Max=4.67D-07 NDo=     1
 LinEq1:  Iter=  5 NonCon=     1 RMS=1.37D-08 Max=1.36D-07 NDo=     1
 LinEq1:  Iter=  6 NonCon=     0 RMS=2.52D-09 Max=2.59D-08 NDo=     1
 Linear equations converged to 2.717D-09 2.717D-08 after     6 iterations.
 Angle between quadratic step and gradient=  69.55 degrees.
     ILin= 1 X=0.000D+00 Y=-2.503294947521D+01 DE= 0.00D+00 F= -3.53D-06
     ILin= 2 X=1.000D+00 Y=-2.503295120665D+01 DE=-1.73D-06 F=  6.41D-08
     Accept linear search using points  1 and  2.
     An  expanding polynomial of degree  2 produced  0.9821
     Minimum is close to point  2 DX= -1.79D-02 DF= -5.73D-10 DXR=  1.82D-02 DFR=  3.31D-04 which will be used.
 Iteration   6 EE= -25.0329512066542     Delta-E=       -0.000001731445 Grad=5.167D-04 Max rot=    0.0140 deg.
 QCNR:  CnvC1=2.72D-09 CnvC2=2.72D-08
 LinEq1:  Iter=  0 NonCon=     1 RMS=7.47D-06 Max=7.77D-05 NDo=     1
 LinEq1:  Iter=  1 NonCon=     1 RMS=1.76D-06 Max=1.76D-05 NDo=     1
 LinEq1:  Iter=  2 NonCon=     1 RMS=6.20D-07 Max=8.28D-06 NDo=     1
 LinEq1:  Iter=  3 NonCon=     1 RMS=1.33D-07 Max=1.53D-06 NDo=     1
 LinEq1:  Iter=  4 NonCon=     1 RMS=2.79D-08 Max=2.58D-07 NDo=     1
 LinEq1:  Iter=  5 NonCon=     1 RMS=4.62D-09 Max=4.67D-08 NDo=     1
 LinEq1:  Iter=  6 NonCon=     0 RMS=9.11D-10 Max=6.57D-09 NDo=     1
 Linear equations converged to 2.717D-09 2.717D-08 after     6 iterations.
 Angle between quadratic step and gradient=  92.18 degrees.
 Incorrect curvature in search direction -- initial direction reversed.
     ILin= 1 X=0.000D+00 Y=-2.503295120665D+01 DE= 0.00D+00 F= -3.35D-05
     ILin= 2 X=1.000D+00 Y=-2.502783315642D+01 DE= 5.12D-03 F=  1.87D-02
     Reject lnstep minimum 4.943D-02 FVal=-2.503295214155D+01 Lims=  0.00D+00  1.00D+00
     ILin= 3 X=4.943D-02 Y=-2.503295252069D+01 DE=-1.31D-06 F= -1.84D-05
     A contracting polynomial of degree  3 produced  0.0272
 Iteration   7 EE= -25.0329520201041     Delta-E=       -0.000000813450 Grad=1.062D-03 Max rot=    0.0318 deg.
 QCNR:  CnvC1=2.72D-09 CnvC2=2.72D-08
 LinEq1:  Iter=  0 NonCon=     1 RMS=9.67D-06 Max=9.69D-05 NDo=     1
 LinEq1:  Iter=  1 NonCon=     1 RMS=2.33D-06 Max=2.13D-05 NDo=     1
 LinEq1:  Iter=  2 NonCon=     1 RMS=7.68D-07 Max=9.06D-06 NDo=     1
 LinEq1:  Iter=  3 NonCon=     1 RMS=2.02D-07 Max=1.87D-06 NDo=     1
 LinEq1:  Iter=  4 NonCon=     1 RMS=2.70D-08 Max=2.77D-07 NDo=     1
 LinEq1:  Iter=  5 NonCon=     1 RMS=8.48D-09 Max=8.93D-08 NDo=     1
 LinEq1:  Iter=  6 NonCon=     0 RMS=1.50D-09 Max=1.45D-08 NDo=     1
 Linear equations converged to 2.717D-09 2.717D-08 after     6 iterations.
 Angle between quadratic step and gradient=  88.19 degrees.
     ILin= 1 X=0.000D+00 Y=-2.503295202010D+01 DE= 0.00D+00 F= -1.09D-06
     ILin= 2 X=1.000D+00 Y=-2.503295175163D+01 DE= 2.68D-07 F=  1.61D-06
     Reject lnstep minimum 3.996D-01 FVal=-2.503295223658D+01 Lims=  0.00D+00  1.00D+00
     ILin= 3 X=4.000D-01 Y=-2.503295223652D+01 DE=-2.16D-07 F=  1.28D-09
     A contracting polynomial of degree  3 produced  0.4005
     Minimum is close to point  3 DX=  5.06D-04 DF= -3.52D-13 DXR=  1.26D-03 DFR=  1.63D-06 which will be used.
 Iteration   8 EE= -25.0329522365230     Delta-E=       -0.000000216419 Grad=9.631D-04 Max rot=    0.0207 deg.
 QCNR:  CnvC1=2.72D-09 CnvC2=2.72D-08
 LinEq1:  Iter=  0 NonCon=     1 RMS=1.18D-05 Max=1.18D-04 NDo=     1
 LinEq1:  Iter=  1 NonCon=     1 RMS=2.51D-06 Max=2.18D-05 NDo=     1
 LinEq1:  Iter=  2 NonCon=     1 RMS=7.83D-07 Max=7.22D-06 NDo=     1
 LinEq1:  Iter=  3 NonCon=     1 RMS=2.26D-07 Max=1.96D-06 NDo=     1
 LinEq1:  Iter=  4 NonCon=     1 RMS=4.31D-08 Max=4.34D-07 NDo=     1
 LinEq1:  Iter=  5 NonCon=     1 RMS=8.37D-09 Max=6.08D-08 NDo=     1
 LinEq1:  Iter=  6 NonCon=     0 RMS=2.27D-09 Max=2.05D-08 NDo=     1
 Linear equations converged to 2.717D-09 2.717D-08 after     6 iterations.
 Angle between quadratic step and gradient=  86.87 degrees.
     ILin= 1 X=0.000D+00 Y=-2.503295223652D+01 DE= 0.00D+00 F= -6.99D-07
     ILin= 2 X=1.000D+00 Y=-2.503295253371D+01 DE=-2.97D-07 F=  1.05D-07
     Accept linear search using points  1 and  2.
     An  expanding polynomial of degree  2 produced  0.8696
 Iteration   9 EE= -25.0329525405615     Delta-E=       -0.000000304038 Grad=5.008D-04 Max rot=    0.0142 deg.
 QCNR:  CnvC1=2.72D-09 CnvC2=2.72D-08
 LinEq1:  Iter=  0 NonCon=     1 RMS=5.26D-06 Max=4.73D-05 NDo=     1
 LinEq1:  Iter=  1 NonCon=     1 RMS=2.00D-06 Max=1.79D-05 NDo=     1
 LinEq1:  Iter=  2 NonCon=     1 RMS=3.90D-07 Max=3.69D-06 NDo=     1
 LinEq1:  Iter=  3 NonCon=     1 RMS=1.06D-07 Max=1.16D-06 NDo=     1
 LinEq1:  Iter=  4 NonCon=     1 RMS=1.97D-08 Max=1.66D-07 NDo=     1
 LinEq1:  Iter=  5 NonCon=     1 RMS=7.40D-09 Max=5.86D-08 NDo=     1
 LinEq1:  Iter=  6 NonCon=     0 RMS=1.39D-09 Max=1.56D-08 NDo=     1
 Linear equations converged to 2.717D-09 2.717D-08 after     6 iterations.
 Angle between quadratic step and gradient=  86.58 degrees.
     ILin= 1 X=0.000D+00 Y=-2.503295254056D+01 DE= 0.00D+00 F= -1.27D-06
     ILin= 2 X=1.000D+00 Y=-2.503294801277D+01 DE= 4.53D-06 F=  1.03D-05
     Reject lnstep minimum 1.099D-01 FVal=-2.503295261046D+01 Lims=  0.00D+00  1.00D+00
     ILin= 3 X=1.000D-01 Y=-2.503295260987D+01 DE=-6.93D-08 F= -1.14D-07
     A contracting polynomial of degree  3 produced  0.1097
     Minimum is close to point  3 DX=  9.74D-03 DF= -5.50D-10 DXR=  8.87D-02 DFR=  7.93D-03 which will be used.
 Iteration  10 EE= -25.0329526098657     Delta-E=       -0.000000069304 Grad=7.374D-04 Max rot=    0.0275 deg.
 QCNR:  CnvC1=2.72D-09 CnvC2=2.72D-08
 LinEq1:  Iter=  0 NonCon=     1 RMS=7.08D-06 Max=6.36D-05 NDo=     1
 LinEq1:  Iter=  1 NonCon=     1 RMS=2.11D-06 Max=1.64D-05 NDo=     1
 LinEq1:  Iter=  2 NonCon=     1 RMS=5.93D-07 Max=5.64D-06 NDo=     1
 LinEq1:  Iter=  3 NonCon=     1 RMS=1.63D-07 Max=1.80D-06 NDo=     1
 LinEq1:  Iter=  4 NonCon=     1 RMS=3.45D-08 Max=4.22D-07 NDo=     1
 LinEq1:  Iter=  5 NonCon=     1 RMS=7.02D-09 Max=5.35D-08 NDo=     1
 LinEq1:  Iter=  6 NonCon=     0 RMS=2.17D-09 Max=1.65D-08 NDo=     1
 Linear equations converged to 2.717D-09 2.717D-08 after     6 iterations.
 Angle between quadratic step and gradient=  86.27 degrees.
     ILin= 1 X=0.000D+00 Y=-2.503295260987D+01 DE= 0.00D+00 F= -4.17D-07
     ILin= 2 X=1.000D+00 Y=-2.503295279329D+01 DE=-1.83D-07 F=  4.96D-08
     Accept linear search using points  1 and  2.
     An  expanding polynomial of degree  2 produced  0.8935
 Iteration  11 EE= -25.0329527959266     Delta-E=       -0.000000186061 Grad=4.213D-04 Max rot=    0.0173 deg.
 QCNR:  CnvC1=2.72D-09 CnvC2=2.72D-08
 LinEq1:  Iter=  0 NonCon=     1 RMS=4.65D-06 Max=3.86D-05 NDo=     1
 LinEq1:  Iter=  1 NonCon=     1 RMS=1.64D-06 Max=1.49D-05 NDo=     1
 LinEq1:  Iter=  2 NonCon=     1 RMS=4.05D-07 Max=4.80D-06 NDo=     1
 LinEq1:  Iter=  3 NonCon=     1 RMS=1.02D-07 Max=1.05D-06 NDo=     1
 LinEq1:  Iter=  4 NonCon=     1 RMS=2.14D-08 Max=2.30D-07 NDo=     1
 LinEq1:  Iter=  5 NonCon=     1 RMS=6.12D-09 Max=5.68D-08 NDo=     1
 LinEq1:  Iter=  6 NonCon=     0 RMS=1.82D-09 Max=1.46D-08 NDo=     1
 Linear equations converged to 2.717D-09 2.717D-08 after     6 iterations.
 Angle between quadratic step and gradient=  86.00 degrees.
     ILin= 1 X=0.000D+00 Y=-2.503295279593D+01 DE= 0.00D+00 F= -4.74D-07
     ILin= 2 X=1.000D+00 Y=-2.503295264204D+01 DE= 1.54D-07 F=  7.80D-07
     Reject lnstep minimum 3.771D-01 FVal=-2.503295288527D+01 Lims=  0.00D+00  1.00D+00
     ILin= 3 X=4.000D-01 Y=-2.503295288493D+01 DE=-8.90D-08 F=  2.87D-08
     A contracting polynomial of degree  3 produced  0.3774
     Minimum is close to point  3 DX= -2.26D-02 DF= -3.22D-10 DXR=  6.00D-02 DFR=  3.62D-03 which will be used.
 Iteration  12 EE= -25.0329528849335     Delta-E=       -0.000000089007 Grad=8.072D-04 Max rot=    0.0406 deg.
 QCNR:  CnvC1=2.72D-09 CnvC2=2.72D-08
 LinEq1:  Iter=  0 NonCon=     1 RMS=5.57D-06 Max=5.22D-05 NDo=     1
 LinEq1:  Iter=  1 NonCon=     1 RMS=1.75D-06 Max=2.15D-05 NDo=     1
 LinEq1:  Iter=  2 NonCon=     1 RMS=4.81D-07 Max=6.11D-06 NDo=     1
 LinEq1:  Iter=  3 NonCon=     1 RMS=1.51D-07 Max=1.64D-06 NDo=     1
 LinEq1:  Iter=  4 NonCon=     1 RMS=1.87D-08 Max=1.86D-07 NDo=     1
 LinEq1:  Iter=  5 NonCon=     1 RMS=3.97D-09 Max=3.80D-08 NDo=     1
 LinEq1:  Iter=  6 NonCon=     0 RMS=1.41D-09 Max=1.21D-08 NDo=     1
 Linear equations converged to 2.717D-09 2.717D-08 after     6 iterations.
 Angle between quadratic step and gradient=  88.15 degrees.
     ILin= 1 X=0.000D+00 Y=-2.503295288493D+01 DE= 0.00D+00 F= -6.60D-07
     ILin= 2 X=1.000D+00 Y=-2.503295315048D+01 DE=-2.66D-07 F=  1.28D-07
     Accept linear search using points  1 and  2.
     An  expanding polynomial of degree  2 produced  0.8369
 Iteration  13 EE= -25.0329531609276     Delta-E=       -0.000000275994 Grad=6.831D-04 Max rot=    0.0238 deg.
 QCNR:  CnvC1=2.72D-09 CnvC2=2.72D-08
 LinEq1:  Iter=  0 NonCon=     1 RMS=6.29D-06 Max=5.04D-05 NDo=     1
 LinEq1:  Iter=  1 NonCon=     1 RMS=2.41D-06 Max=2.10D-05 NDo=     1
 LinEq1:  Iter=  2 NonCon=     1 RMS=5.66D-07 Max=6.25D-06 NDo=     1
 LinEq1:  Iter=  3 NonCon=     1 RMS=9.74D-08 Max=9.92D-07 NDo=     1
 LinEq1:  Iter=  4 NonCon=     1 RMS=2.59D-08 Max=2.98D-07 NDo=     1
 LinEq1:  Iter=  5 NonCon=     1 RMS=7.87D-09 Max=9.52D-08 NDo=     1
 LinEq1:  Iter=  6 NonCon=     0 RMS=2.40D-09 Max=2.47D-08 NDo=     1
 Linear equations converged to 2.717D-09 2.717D-08 after     6 iterations.
 Angle between quadratic step and gradient=  84.36 degrees.
     ILin= 1 X=0.000D+00 Y=-2.503295316093D+01 DE= 0.00D+00 F= -5.52D-07
     ILin= 2 X=1.000D+00 Y=-2.503295330974D+01 DE=-1.49D-07 F=  2.54D-07
     Accept linear search using points  1 and  2.
     An  expanding polynomial of degree  2 produced  0.6846
 Iteration  14 EE= -25.0329533498279     Delta-E=       -0.000000188900 Grad=8.757D-04 Max rot=    0.0455 deg.
 QCNR:  CnvC1=2.72D-09 CnvC2=2.72D-08
 LinEq1:  Iter=  0 NonCon=     1 RMS=5.15D-06 Max=5.85D-05 NDo=     1
 LinEq1:  Iter=  1 NonCon=     1 RMS=1.66D-06 Max=2.38D-05 NDo=     1
 LinEq1:  Iter=  2 NonCon=     1 RMS=4.60D-07 Max=6.39D-06 NDo=     1
 LinEq1:  Iter=  3 NonCon=     1 RMS=1.47D-07 Max=1.54D-06 NDo=     1
 LinEq1:  Iter=  4 NonCon=     1 RMS=1.17D-08 Max=1.06D-07 NDo=     1
 LinEq1:  Iter=  5 NonCon=     0 RMS=1.84D-09 Max=1.35D-08 NDo=     1
 Linear equations converged to 2.717D-09 2.717D-08 after     5 iterations.
 Angle between quadratic step and gradient=  88.72 degrees.
     ILin= 1 X=0.000D+00 Y=-2.503295334983D+01 DE= 0.00D+00 F= -5.01D-06
     ILin= 2 X=1.000D+00 Y=-2.503294594847D+01 DE= 7.40D-06 F=  2.59D-05
     Reject lnstep minimum 2.745D-01 FVal=-2.503295408612D+01 Lims=  0.00D+00  1.00D+00
     ILin= 3 X=3.000D-01 Y=-2.503295398173D+01 DE=-6.32D-07 F=  9.47D-07
     A contracting polynomial of degree  3 produced  0.2275
 Iteration  15 EE= -25.0329539940166     Delta-E=       -0.000000644189 Grad=1.637D-03 Max rot=    0.0437 deg.
 QCNR:  CnvC1=2.72D-09 CnvC2=2.72D-08
 LinEq1:  Iter=  0 NonCon=     1 RMS=1.06D-05 Max=7.82D-05 NDo=     1
 LinEq1:  Iter=  1 NonCon=     1 RMS=3.53D-06 Max=3.58D-05 NDo=     1
 LinEq1:  Iter=  2 NonCon=     1 RMS=8.32D-07 Max=7.62D-06 NDo=     1
 LinEq1:  Iter=  3 NonCon=     1 RMS=1.10D-07 Max=1.09D-06 NDo=     1
 LinEq1:  Iter=  4 NonCon=     1 RMS=3.12D-08 Max=3.52D-07 NDo=     1
 LinEq1:  Iter=  5 NonCon=     1 RMS=8.55D-09 Max=9.03D-08 NDo=     1
 LinEq1:  Iter=  6 NonCon=     0 RMS=2.52D-09 Max=2.66D-08 NDo=     1
 Linear equations converged to 2.717D-09 2.717D-08 after     6 iterations.
 Angle between quadratic step and gradient=  84.52 degrees.
     ILin= 1 X=0.000D+00 Y=-2.503295399402D+01 DE= 0.00D+00 F= -1.16D-06
     ILin= 2 X=1.000D+00 Y=-2.503295448990D+01 DE=-4.96D-07 F=  1.73D-07
     Accept linear search using points  1 and  2.
     An  expanding polynomial of degree  2 produced  0.8708
 Iteration  16 EE= -25.0329545010656     Delta-E=       -0.000000507049 Grad=6.496D-04 Max rot=    0.0338 deg.
 QCNR:  CnvC1=2.72D-09 CnvC2=2.72D-08
 LinEq1:  Iter=  0 NonCon=     1 RMS=4.58D-06 Max=4.95D-05 NDo=     1
 LinEq1:  Iter=  1 NonCon=     1 RMS=1.58D-06 Max=2.04D-05 NDo=     1
 LinEq1:  Iter=  2 NonCon=     1 RMS=4.06D-07 Max=4.90D-06 NDo=     1
 LinEq1:  Iter=  3 NonCon=     1 RMS=1.26D-07 Max=1.28D-06 NDo=     1
 LinEq1:  Iter=  4 NonCon=     1 RMS=1.15D-08 Max=8.90D-08 NDo=     1
 LinEq1:  Iter=  5 NonCon=     0 RMS=2.49D-09 Max=2.71D-08 NDo=     1
 Linear equations converged to 2.717D-09 2.717D-08 after     5 iterations.
 Angle between quadratic step and gradient=  88.13 degrees.
     ILin= 1 X=0.000D+00 Y=-2.503295450107D+01 DE= 0.00D+00 F= -1.30D-06
     ILin= 2 X=1.000D+00 Y=-2.503295472734D+01 DE=-2.26D-07 F=  8.76D-07
     Accept linear search using points  1 and  2.
     An  expanding polynomial of degree  2 produced  0.6073
 Iteration  17 EE= -25.0329548977263     Delta-E=       -0.000000396661 Grad=6.380D-04 Max rot=    0.0240 deg.
 QCNR:  CnvC1=2.72D-09 CnvC2=2.72D-08
 LinEq1:  Iter=  0 NonCon=     1 RMS=8.34D-06 Max=8.74D-05 NDo=     1
 LinEq1:  Iter=  1 NonCon=     1 RMS=3.29D-06 Max=3.32D-05 NDo=     1
 LinEq1:  Iter=  2 NonCon=     1 RMS=6.05D-07 Max=4.42D-06 NDo=     1
 LinEq1:  Iter=  3 NonCon=     1 RMS=1.15D-07 Max=1.05D-06 NDo=     1
 LinEq1:  Iter=  4 NonCon=     1 RMS=2.92D-08 Max=3.31D-07 NDo=     1
 LinEq1:  Iter=  5 NonCon=     1 RMS=7.56D-09 Max=6.20D-08 NDo=     1
 LinEq1:  Iter=  6 NonCon=     0 RMS=1.92D-09 Max=1.99D-08 NDo=     1
 Linear equations converged to 2.717D-09 2.717D-08 after     6 iterations.
 Angle between quadratic step and gradient=  82.87 degrees.
     ILin= 1 X=0.000D+00 Y=-2.503295489773D+01 DE= 0.00D+00 F= -7.06D-07
     ILin= 2 X=1.000D+00 Y=-2.503295518125D+01 DE=-2.84D-07 F=  1.39D-07
     Accept linear search using points  1 and  2.
     An  expanding polynomial of degree  2 produced  0.8354
 Iteration  18 EE= -25.0329551927150     Delta-E=       -0.000000294989 Grad=8.181D-04 Max rot=    0.0434 deg.
 QCNR:  CnvC1=2.72D-09 CnvC2=2.72D-08
 LinEq1:  Iter=  0 NonCon=     1 RMS=6.05D-06 Max=6.32D-05 NDo=     1
 LinEq1:  Iter=  1 NonCon=     1 RMS=1.94D-06 Max=2.55D-05 NDo=     1
 LinEq1:  Iter=  2 NonCon=     1 RMS=4.61D-07 Max=5.56D-06 NDo=     1
 LinEq1:  Iter=  3 NonCon=     1 RMS=1.41D-07 Max=1.32D-06 NDo=     1
 LinEq1:  Iter=  4 NonCon=     1 RMS=2.36D-08 Max=2.08D-07 NDo=     1
 LinEq1:  Iter=  5 NonCon=     1 RMS=4.06D-09 Max=4.05D-08 NDo=     1
 LinEq1:  Iter=  6 NonCon=     0 RMS=7.95D-10 Max=7.39D-09 NDo=     1
 Linear equations converged to 2.717D-09 2.717D-08 after     6 iterations.
 Angle between quadratic step and gradient=  88.74 degrees.
     ILin= 1 X=0.000D+00 Y=-2.503295519271D+01 DE= 0.00D+00 F= -2.47D-06
     ILin= 2 X=1.000D+00 Y=-2.503295577769D+01 DE=-5.85D-07 F=  1.92D-06
     Accept linear search using points  1 and  2.
     An  expanding polynomial of degree  2 produced  0.6597
 Iteration  19 EE= -25.0329560805237     Delta-E=       -0.000000887809 Grad=1.040D-03 Max rot=    0.0523 deg.
 QCNR:  CnvC1=2.72D-09 CnvC2=2.72D-08
 LinEq1:  Iter=  0 NonCon=     1 RMS=1.25D-05 Max=8.92D-05 NDo=     1
 LinEq1:  Iter=  1 NonCon=     1 RMS=4.11D-06 Max=4.18D-05 NDo=     1
 LinEq1:  Iter=  2 NonCon=     1 RMS=1.03D-06 Max=1.36D-05 NDo=     1
 LinEq1:  Iter=  3 NonCon=     1 RMS=1.90D-07 Max=2.11D-06 NDo=     1
 LinEq1:  Iter=  4 NonCon=     1 RMS=4.93D-08 Max=5.11D-07 NDo=     1
 LinEq1:  Iter=  5 NonCon=     1 RMS=1.07D-08 Max=1.14D-07 NDo=     1
 LinEq1:  Iter=  6 NonCon=     1 RMS=3.28D-09 Max=2.94D-08 NDo=     1
 LinEq1:  Iter=  7 NonCon=     0 RMS=7.19D-10 Max=6.03D-09 NDo=     1
 Linear equations converged to 2.717D-09 2.717D-08 after     7 iterations.
 Angle between quadratic step and gradient=  82.15 degrees.
     ILin= 1 X=0.000D+00 Y=-2.503295608052D+01 DE= 0.00D+00 F= -1.60D-06
     ILin= 2 X=1.000D+00 Y=-2.503295674513D+01 DE=-6.65D-07 F=  2.71D-07
     Accept linear search using points  1 and  2.
     An  expanding polynomial of degree  2 produced  0.8552
 Iteration  20 EE= -25.0329567647414     Delta-E=       -0.000000684218 Grad=5.785D-04 Max rot=    0.0253 deg.
 QCNR:  CnvC1=2.72D-09 CnvC2=2.72D-08
 LinEq1:  Iter=  0 NonCon=     1 RMS=7.27D-06 Max=6.60D-05 NDo=     1
 LinEq1:  Iter=  1 NonCon=     1 RMS=1.94D-06 Max=2.15D-05 NDo=     1
 LinEq1:  Iter=  2 NonCon=     1 RMS=5.56D-07 Max=5.78D-06 NDo=     1
 LinEq1:  Iter=  3 NonCon=     1 RMS=1.28D-07 Max=1.25D-06 NDo=     1
 LinEq1:  Iter=  4 NonCon=     1 RMS=2.69D-08 Max=3.27D-07 NDo=     1
 LinEq1:  Iter=  5 NonCon=     1 RMS=6.22D-09 Max=8.47D-08 NDo=     1
 LinEq1:  Iter=  6 NonCon=     0 RMS=1.45D-09 Max=1.67D-08 NDo=     1
 Linear equations converged to 2.717D-09 2.717D-08 after     6 iterations.
 Angle between quadratic step and gradient=  88.02 degrees.
     ILin= 1 X=0.000D+00 Y=-2.503295676474D+01 DE= 0.00D+00 F= -6.11D-07
     ILin= 2 X=1.000D+00 Y=-2.503295689604D+01 DE=-1.31D-07 F=  3.47D-07
     Accept linear search using points  1 and  2.
     An  expanding polynomial of degree  2 produced  0.6368
 Iteration  21 EE= -25.0329569590452     Delta-E=       -0.000000194304 Grad=9.414D-04 Max rot=    0.0508 deg.
 QCNR:  CnvC1=2.72D-09 CnvC2=2.72D-08
 LinEq1:  Iter=  0 NonCon=     1 RMS=5.98D-06 Max=6.54D-05 NDo=     1
 LinEq1:  Iter=  1 NonCon=     1 RMS=2.29D-06 Max=3.30D-05 NDo=     1
 LinEq1:  Iter=  2 NonCon=     1 RMS=5.11D-07 Max=7.52D-06 NDo=     1
 LinEq1:  Iter=  3 NonCon=     1 RMS=1.24D-07 Max=1.32D-06 NDo=     1
 LinEq1:  Iter=  4 NonCon=     1 RMS=2.19D-08 Max=2.72D-07 NDo=     1
 LinEq1:  Iter=  5 NonCon=     1 RMS=5.80D-09 Max=5.19D-08 NDo=     1
 LinEq1:  Iter=  6 NonCon=     0 RMS=1.29D-09 Max=1.46D-08 NDo=     1
 Linear equations converged to 2.717D-09 2.717D-08 after     6 iterations.
 Angle between quadratic step and gradient=  85.89 degrees.
     ILin= 1 X=0.000D+00 Y=-2.503295695905D+01 DE= 0.00D+00 F= -4.75D-07
     ILin= 2 X=1.000D+00 Y=-2.503295717424D+01 DE=-2.15D-07 F=  4.47D-08
     Accept linear search using points  1 and  2.
     An  expanding polynomial of degree  2 produced  0.9140
     Minimum is close to point  2 DX= -8.60D-02 DF= -1.92D-09 DXR=  9.41D-02 DFR=  8.94D-03 which will be used.
 Iteration  22 EE= -25.0329571742450     Delta-E=       -0.000000215200 Grad=2.572D-04 Max rot=    0.0069 deg.
 QCNR:  CnvC1=2.57D-09 CnvC2=2.57D-08
 LinEq1:  Iter=  0 NonCon=     1 RMS=5.24D-06 Max=5.87D-05 NDo=     1
 LinEq1:  Iter=  1 NonCon=     1 RMS=1.39D-06 Max=1.13D-05 NDo=     1
 LinEq1:  Iter=  2 NonCon=     1 RMS=3.80D-07 Max=3.98D-06 NDo=     1
 LinEq1:  Iter=  3 NonCon=     1 RMS=1.13D-07 Max=1.03D-06 NDo=     1
 LinEq1:  Iter=  4 NonCon=     1 RMS=2.05D-08 Max=1.74D-07 NDo=     1
 LinEq1:  Iter=  5 NonCon=     1 RMS=4.30D-09 Max=3.67D-08 NDo=     1
 LinEq1:  Iter=  6 NonCon=     0 RMS=1.27D-09 Max=1.31D-08 NDo=     1
 Linear equations converged to 2.572D-09 2.572D-08 after     6 iterations.
 Angle between quadratic step and gradient=  84.74 degrees.
     ILin= 1 X=0.000D+00 Y=-2.503295717424D+01 DE= 0.00D+00 F= -3.16D-07
     ILin= 2 X=1.000D+00 Y=-2.503295727641D+01 DE=-1.02D-07 F=  1.12D-07
     Accept linear search using points  1 and  2.
     An  expanding polynomial of degree  2 produced  0.7391
 Iteration  23 EE= -25.0329572910044     Delta-E=       -0.000000116759 Grad=3.870D-04 Max rot=    0.0154 deg.
 QCNR:  CnvC1=2.72D-09 CnvC2=2.72D-08
 LinEq1:  Iter=  0 NonCon=     1 RMS=4.09D-06 Max=3.79D-05 NDo=     1
 LinEq1:  Iter=  1 NonCon=     1 RMS=1.37D-06 Max=1.25D-05 NDo=     1
 LinEq1:  Iter=  2 NonCon=     1 RMS=3.37D-07 Max=3.64D-06 NDo=     1
 LinEq1:  Iter=  3 NonCon=     1 RMS=9.13D-08 Max=9.67D-07 NDo=     1
 LinEq1:  Iter=  4 NonCon=     1 RMS=1.68D-08 Max=1.71D-07 NDo=     1
 LinEq1:  Iter=  5 NonCon=     1 RMS=5.04D-09 Max=4.01D-08 NDo=     1
 LinEq1:  Iter=  6 NonCon=     0 RMS=1.41D-09 Max=1.37D-08 NDo=     1
 Linear equations converged to 2.717D-09 2.717D-08 after     6 iterations.
 Angle between quadratic step and gradient=  84.52 degrees.
     ILin= 1 X=0.000D+00 Y=-2.503295729100D+01 DE= 0.00D+00 F= -2.42D-07
     ILin= 2 X=1.000D+00 Y=-2.503295737785D+01 DE=-8.69D-08 F=  6.78D-08
     Accept linear search using points  1 and  2.
     An  expanding polynomial of degree  2 produced  0.7808
 Iteration  24 EE= -25.0329573852829     Delta-E=       -0.000000094279 Grad=4.403D-04 Max rot=    0.0155 deg.
 QCNR:  CnvC1=2.72D-09 CnvC2=2.72D-08
 LinEq1:  Iter=  0 NonCon=     1 RMS=4.06D-06 Max=4.11D-05 NDo=     1
 LinEq1:  Iter=  1 NonCon=     1 RMS=1.20D-06 Max=1.01D-05 NDo=     1
 LinEq1:  Iter=  2 NonCon=     1 RMS=3.68D-07 Max=4.06D-06 NDo=     1
 LinEq1:  Iter=  3 NonCon=     1 RMS=8.63D-08 Max=8.69D-07 NDo=     1
 LinEq1:  Iter=  4 NonCon=     1 RMS=1.85D-08 Max=2.00D-07 NDo=     1
 LinEq1:  Iter=  5 NonCon=     1 RMS=3.91D-09 Max=2.76D-08 NDo=     1
 LinEq1:  Iter=  6 NonCon=     0 RMS=1.02D-09 Max=1.38D-08 NDo=     1
 Linear equations converged to 2.717D-09 2.717D-08 after     6 iterations.
 Angle between quadratic step and gradient=  87.78 degrees.
     ILin= 1 X=0.000D+00 Y=-2.503295738528D+01 DE= 0.00D+00 F= -5.53D-07
     ILin= 2 X=1.000D+00 Y=-2.503295755834D+01 DE=-1.73D-07 F=  2.11D-07
     Accept linear search using points  1 and  2.
     An  expanding polynomial of degree  2 produced  0.7268
 Iteration  25 EE= -25.0329575870890     Delta-E=       -0.000000201806 Grad=4.834D-04 Max rot=    0.0169 deg.
 QCNR:  CnvC1=2.72D-09 CnvC2=2.72D-08
 LinEq1:  Iter=  0 NonCon=     1 RMS=5.25D-06 Max=6.79D-05 NDo=     1
 LinEq1:  Iter=  1 NonCon=     1 RMS=1.68D-06 Max=1.58D-05 NDo=     1
 LinEq1:  Iter=  2 NonCon=     1 RMS=3.56D-07 Max=3.67D-06 NDo=     1
 LinEq1:  Iter=  3 NonCon=     1 RMS=8.70D-08 Max=1.05D-06 NDo=     1
 LinEq1:  Iter=  4 NonCon=     1 RMS=1.76D-08 Max=1.82D-07 NDo=     1
 LinEq1:  Iter=  5 NonCon=     1 RMS=5.40D-09 Max=4.86D-08 NDo=     1
 LinEq1:  Iter=  6 NonCon=     0 RMS=1.54D-09 Max=1.01D-08 NDo=     1
 Linear equations converged to 2.717D-09 2.717D-08 after     6 iterations.
 Angle between quadratic step and gradient=  82.65 degrees.
     ILin= 1 X=0.000D+00 Y=-2.503295758709D+01 DE= 0.00D+00 F= -3.96D-07
     ILin= 2 X=1.000D+00 Y=-2.503295775170D+01 DE=-1.65D-07 F=  6.65D-08
     Accept linear search using points  1 and  2.
[...]
 (Enter /apps/software/g16/l801.exe)
 Range of M.O.s used for correlation:     1   126
 NBasis=   126 NAE=     3 NBE=     3 NFC=     0 NFV=     0
 NROrb=    126 NOA=     3 NOB=     3 NVA=   123 NVB=   123
 Leave Link  801 at Sun May 22 21:13:44 2022, MaxMem=   104857600 cpu:               0.0 elap:               0.0
 (Enter /apps/software/g16/l914.exe)
 UHF ground state
 Doing stability rather than CIS.
 Keep R1 and R2 ints in memory in symmetry-blocked form, NReq=40144005.
 FoFCou: FMM=F IPFlag=           0 FMFlag=           0 FMFlg1=           0
         NFxFlg=           0 DoJE=F BraDBF=F KetDBF=F FulRan=T
         wScrn=  0.000000 ICntrl=       600 IOpCl=  0 I1Cent=           0 NGrid=           0
         NMat0=    1 NMatS0=   8001 NMatT0=    0 NMatD0=    1 NMtDS0=    0 NMtDT0=    0
 Petite list used in FoFCou.
 MDV=   104857600 DFT=F DoStab=T Mixed=F DoRPA=F DoScal=F NonHer=F
 Making orbital integer symmetry assigments:
 Orbital symmetries:
 Alpha Orbitals:
       Occupied  (SG) (SG) (SG)
       Virtual   (PI) (PI) (SG) (SG) (SG) (PI) (PI) (SG) (PI) (PI)
                 (DLTA) (DLTA) (SG) (PI) (PI) (SG) (PI) (PI) (SG)
                 (SG) (SG) (PHI) (PHI) (DLTA) (DLTA) (PI) (PI)
                 (DLTA) (DLTA) (SG) (PI) (PI) (SG) (DLTA) (DLTA)
                 (PI) (PI) (SG) (PI) (PI) (SG) (PI) (PI) (SG) (?A)
                 (?A) (PHI) (PHI) (DLTA) (DLTA) (PI) (PI) (SG)
                 (DLTA) (DLTA) (SG) (PHI) (PHI) (PI) (PI) (DLTA)
                 (DLTA) (SG) (PI) (PI) (SG) (PHI) (PHI) (DLTA)
                 (DLTA) (SG) (PI) (PI) (SG) (DLTA) (DLTA) (PI)
                 (PI) (SG) (PI) (PI) (SG) (PI) (PI) (SG) (?A) (?A)
                 (PHI) (PHI) (DLTA) (DLTA) (DLTA) (DLTA) (PI) (PI)
                 (SG) (PI) (PI) (SG) (PHI) (PHI) (DLTA) (DLTA)
                 (PI) (PI) (SG) (PHI) (PHI) (DLTA) (DLTA) (PI)
                 (PI) (SG) (SG) (PI) (PI) (SG) (DLTA) (DLTA) (PI)
                 (PI) (SG) (SG)
 Beta  Orbitals:
       Occupied  (SG) (SG) (SG)
       Virtual   (SG) (PI) (PI) (SG) (SG) (PI) (PI) (SG) (PI) (PI)
                 (DLTA) (DLTA) (SG) (PI) (PI) (SG) (PI) (PI) (SG)
                 (SG) (SG) (PHI) (PHI) (DLTA) (DLTA) (PI) (PI)
                 (PI) (PI) (SG) (DLTA) (DLTA) (SG) (DLTA) (DLTA)
                 (PI) (PI) (SG) (PI) (PI) (SG) (PI) (PI) (SG) (?A)
                 (?A) (PHI) (PHI) (DLTA) (DLTA) (SG) (PI) (PI)
                 (SG) (PI) (PI) (DLTA) (DLTA) (SG) (PHI) (PHI)
                 (DLTA) (DLTA) (PI) (PI) (SG) (PHI) (PHI) (DLTA)
                 (DLTA) (PI) (PI) (SG) (SG) (DLTA) (DLTA) (PI)
                 (PI) (SG) (PI) (PI) (SG) (PI) (PI) (SG) (?A) (?A)
                 (PHI) (PHI) (DLTA) (DLTA) (PI) (PI) (DLTA) (DLTA)
                 (SG) (PI) (PI) (SG) (PHI) (PHI) (DLTA) (DLTA)
                 (PI) (PI) (SG) (PHI) (PHI) (DLTA) (DLTA) (PI)
                 (PI) (SG) (SG) (PI) (PI) (SG) (DLTA) (DLTA) (PI)
                 (PI) (SG) (SG)
    12 initial guesses have been made.
 Convergence on wavefunction:    0.001000000000000
 Davidson Disk Diagonalization:  ConvIn= 1.00D-03 SkipCon=T Conv= 1.00D-03.
 Max sub-space:  1476 roots to seek:    12 dimension of matrix:          738
 Iteration     1 Dimension    12 NMult     0 NNew     12
 CISAX will form    12 AO SS matrices at one time.
 NMat=    12 NSing=    12 JSym2X= 2.
 Excitation Energies [eV] at current iteration:
 Root      1 :     0.481047946968717
 Root      2 :     0.481047951865268
 Root      3 :     1.266600033769650
 Root      4 :     1.266600091389938
 Root      5 :     5.440044683266686
 Root      6 :     6.349852743904355
 Root      7 :     6.564328061157833
 Root      8 :     6.564328065612716
 Root      9 :    11.612392205771243
 Root     10 :    11.612392350920485
 Root     11 :    12.879512370494735
 Root     12 :    12.879512386949523
 Iteration     2 Dimension    24 NMult    12 NNew     12
 CISAX will form    12 AO SS matrices at one time.
 NMat=    12 NSing=    12 JSym2X= 2.
 New state      1 was old state      2
 Root      1 not converged, maximum delta is    0.067967477948584
 Excitation Energies [eV] at current iteration:
 Root      1 :     0.007284206126548   Change is   -0.473763745738720
 Root      2 :     0.007284206841932   Change is   -0.473763740126785
 Root      3 :     0.830046267034137   Change is   -0.436553766735513
 Root      4 :     0.830046309636314   Change is   -0.436553781753624
 Root      5 :     5.149608672950293   Change is   -0.290436010316394
 Root      6 :     5.921465338282098   Change is   -0.428387405622257
 Root      7 :     6.489258012387038   Change is   -0.075070053225679
 Root      8 :     6.489258014428030   Change is   -0.075070046729803
 Root      9 :     8.411274294944297   Change is   -3.201118055976188
 Root     10 :     8.411274372634118   Change is   -3.201117833137126
 Root     11 :    10.476682744288750   Change is   -2.402829642660773
 Root     12 :    10.476684428097148   Change is   -2.402827942397588
 Iteration     3 Dimension    27 NMult    24 NNew      3
 CISAX will form     3 AO SS matrices at one time.
 NMat=     3 NSing=     3 JSym2X= 2.
 Root      1 not converged, maximum delta is    0.006414140761319
 Excitation Energies [eV] at current iteration:
 Root      1 :     0.001463439573850   Change is   -0.005820766552699
 Root      2 :     0.001463440326888   Change is   -0.005820766515044
 Root      3 :     0.819015866811333   Change is   -0.011030400222804
 Iteration     4 Dimension    30 NMult    27 NNew      3
 CISAX will form     3 AO SS matrices at one time.
 NMat=     3 NSing=     3 JSym2X= 2.
 Root      1 has converged.
 Excitation Energies [eV] at current iteration:
 Root      1 :     0.001402113509307   Change is   -0.000061326064543
 Root      2 :     0.001402114026411   Change is   -0.000061326300476
 Root      3 :     0.818903047671739   Change is   -0.000112819139594
 Convergence achieved on expansion vectors.
 ***********************************************************************
 Stability analysis using <AA,BB:AA,BB> singles matrix:
 ***********************************************************************
 1PDM for each excited state written to RWF  633
 Ground to excited state transition densities written to RWF  633

 Eigenvectors of the stability matrix:
 
 Excited state symmetry could not be determined.
 Eigenvector   1:  2.272-?Sym  Eigenvalue= 0.0000515  <S**2>=1.041
      3B ->  5B       -0.68576
      3B ->  9B        0.65350
      3B -> 21B        0.28887
 The wavefunction is stable under the perturbations considered.
 Leave Link  914 at Sun May 22 21:13:47 2022, MaxMem=   104857600 cpu:               3.8 elap:               3.8
 (Enter /apps/software/g16/l508.exe)
 The wavefunction is already stable.
 Leave Link  508 at Sun May 22 21:13:47 2022, MaxMem=   104857600 cpu:               0.0 elap:               0.0
 (Enter /apps/software/g16/l601.exe)
 Copying SCF densities to generalized density rwf, IOpCl= 1 IROHF=0.

 **********************************************************************

            Population analysis using the SCF density.

 **********************************************************************

 Orbital symmetries:
 Alpha Orbitals:
       Occupied  (SG) (SG) (SG)
       Virtual   (PI) (PI) (SG) (SG) (SG) (PI) (PI) (SG) (PI) (PI)
                 (DLTA) (DLTA) (SG) (PI) (PI) (SG) (PI) (PI) (SG)
                 (SG) (SG) (PHI) (PHI) (DLTA) (DLTA) (PI) (PI)
                 (DLTA) (DLTA) (SG) (PI) (PI) (SG) (DLTA) (DLTA)
                 (PI) (PI) (SG) (PI) (PI) (SG) (PI) (PI) (SG) (?A)
                 (?A) (PHI) (PHI) (DLTA) (DLTA) (PI) (PI) (SG)
                 (DLTA) (DLTA) (SG) (PHI) (PHI) (PI) (PI) (DLTA)
                 (DLTA) (SG) (PI) (PI) (SG) (PHI) (PHI) (DLTA)
                 (DLTA) (SG) (PI) (PI) (SG) (DLTA) (DLTA) (PI)
                 (PI) (SG) (PI) (PI) (SG) (PI) (PI) (SG) (?A) (?A)
                 (PHI) (PHI) (DLTA) (DLTA) (DLTA) (DLTA) (PI) (PI)
                 (SG) (PI) (PI) (SG) (PHI) (PHI) (DLTA) (DLTA)
                 (PI) (PI) (SG) (PHI) (PHI) (DLTA) (DLTA) (PI)
                 (PI) (SG) (SG) (PI) (PI) (SG) (DLTA) (DLTA) (PI)
                 (PI) (SG) (SG)
 Beta  Orbitals:
       Occupied  (SG) (SG) (SG)
       Virtual   (SG) (PI) (PI) (SG) (SG) (PI) (PI) (SG) (PI) (PI)
                 (DLTA) (DLTA) (SG) (PI) (PI) (SG) (PI) (PI) (SG)
                 (SG) (SG) (PHI) (PHI) (DLTA) (DLTA) (PI) (PI)
                 (PI) (PI) (SG) (DLTA) (DLTA) (SG) (DLTA) (DLTA)
                 (PI) (PI) (SG) (PI) (PI) (SG) (PI) (PI) (SG) (?A)
                 (?A) (PHI) (PHI) (DLTA) (DLTA) (SG) (PI) (PI)
                 (SG) (PI) (PI) (DLTA) (DLTA) (SG) (PHI) (PHI)
                 (DLTA) (DLTA) (PI) (PI) (SG) (PHI) (PHI) (DLTA)
                 (DLTA) (PI) (PI) (SG) (SG) (DLTA) (DLTA) (PI)
                 (PI) (SG) (PI) (PI) (SG) (PI) (PI) (SG) (?A) (?A)
                 (PHI) (PHI) (DLTA) (DLTA) (PI) (PI) (DLTA) (DLTA)
                 (SG) (PI) (PI) (SG) (PHI) (PHI) (DLTA) (DLTA)
                 (PI) (PI) (SG) (PHI) (PHI) (DLTA) (DLTA) (PI)
                 (PI) (SG) (SG) (PI) (PI) (SG) (DLTA) (DLTA) (PI)
                 (PI) (SG) (SG)
 The electronic state is 1-SG.
 Alpha  occ. eigenvalues --   -7.68659  -0.49561  -0.44642
 Alpha virt. eigenvalues --    0.02724   0.02724   0.04345   0.05206   0.07616
 Alpha virt. eigenvalues --    0.08419   0.08419   0.11637   0.14208   0.14208
 Alpha virt. eigenvalues --    0.14566   0.14566   0.17269   0.20390   0.20390
 Alpha virt. eigenvalues --    0.25617   0.31965   0.31965   0.34417   0.36073
 Alpha virt. eigenvalues --    0.40296   0.46171   0.46171   0.46964   0.46964
 Alpha virt. eigenvalues --    0.47060   0.47060   0.50130   0.50130   0.50281
 Alpha virt. eigenvalues --    0.52786   0.52786   0.57437   0.62023   0.62023
 Alpha virt. eigenvalues --    0.66157   0.66157   0.72262   0.76742   0.76742
 Alpha virt. eigenvalues --    0.86793   1.06078   1.06078   1.13584   1.36962
 Alpha virt. eigenvalues --    1.36962   1.38432   1.38432   1.39472   1.39472
 Alpha virt. eigenvalues --    1.40156   1.40156   1.40790   1.41586   1.41586
 Alpha virt. eigenvalues --    1.42876   1.43963   1.43963   1.45416   1.45416
 Alpha virt. eigenvalues --    1.46255   1.46255   1.46608   1.48049   1.48049
 Alpha virt. eigenvalues --    1.53191   1.56248   1.56248   1.56574   1.56574
 Alpha virt. eigenvalues --    1.58482   1.59164   1.59164   1.70100   2.45302
 Alpha virt. eigenvalues --    2.45302   2.47127   2.47127   2.51259   2.56420
 Alpha virt. eigenvalues --    2.56420   2.64748   3.74467   3.74467   3.81172
 Alpha virt. eigenvalues --    3.92019   3.92019   3.94551   3.94551   3.96034
 Alpha virt. eigenvalues --    3.96034   3.96486   3.96486   3.97633   3.97633
 Alpha virt. eigenvalues --    3.99303   4.00307   4.00307   4.03137   4.08858
 Alpha virt. eigenvalues --    4.08858   4.12149   4.12149   4.15047   4.15047
 Alpha virt. eigenvalues --    4.19684   6.55528   6.55528   6.55582   6.55582
 Alpha virt. eigenvalues --    6.55926   6.55926   6.56664   7.42528   7.93988
 Alpha virt. eigenvalues --    7.93988   7.98284   8.39156   8.39156   8.40335
 Alpha virt. eigenvalues --    8.40335   8.44600  13.06481
  Beta  occ. eigenvalues --   -7.70171  -0.54545  -0.31887
  Beta virt. eigenvalues --    0.01949   0.02355   0.02355   0.05023   0.07540
  Beta virt. eigenvalues --    0.07720   0.07720   0.10853   0.14264   0.14264
  Beta virt. eigenvalues --    0.14559   0.14559   0.17729   0.21868   0.21868
  Beta virt. eigenvalues --    0.24215   0.31152   0.31152   0.32320   0.34210
  Beta virt. eigenvalues --    0.45617   0.46179   0.46179   0.46579   0.46579
  Beta virt. eigenvalues --    0.46604   0.46604   0.49779   0.49779   0.49827
  Beta virt. eigenvalues --    0.50024   0.50024   0.55927   0.63340   0.63340
  Beta virt. eigenvalues --    0.67491   0.67491   0.74317   0.83105   0.83105
  Beta virt. eigenvalues --    0.91104   1.05156   1.05156   1.06762   1.36990
  Beta virt. eigenvalues --    1.36990   1.37917   1.37917   1.38578   1.38578
  Beta virt. eigenvalues --    1.39073   1.39100   1.39100   1.39904   1.40592
  Beta virt. eigenvalues --    1.40592   1.41099   1.41099   1.42453   1.43899
  Beta virt. eigenvalues --    1.43899   1.44661   1.44661   1.45717   1.45717
  Beta virt. eigenvalues --    1.50621   1.57506   1.57506   1.57794   1.57794
  Beta virt. eigenvalues --    1.59999   1.59999   1.63458   1.75952   2.49247
  Beta virt. eigenvalues --    2.49247   2.51093   2.51093   2.55714   2.63806
  Beta virt. eigenvalues --    2.63806   2.71251   3.73759   3.73759   3.76396
  Beta virt. eigenvalues --    3.91950   3.91950   3.93462   3.93462   3.94546
  Beta virt. eigenvalues --    3.94546   3.95394   3.95394   3.95589   3.95589
  Beta virt. eigenvalues --    3.96553   3.96600   3.96600   3.98695   4.08590
  Beta virt. eigenvalues --    4.08590   4.10007   4.10007   4.11721   4.11721
  Beta virt. eigenvalues --    4.15862   6.58413   6.58413   6.58465   6.58465
  Beta virt. eigenvalues --    6.58805   6.58805   6.59540   7.50674   7.99778
  Beta virt. eigenvalues --    7.99778   8.04022   8.43379   8.43379   8.44549
  Beta virt. eigenvalues --    8.44549   8.48794  13.05310
          Condensed to atoms (all electrons):
               1          2
     1  B    5.000047  -0.000478
     2  H   -0.000478   1.000908
          Atomic-Atomic Spin Densities.
               1          2
     1  B   -1.000158  -0.000349
     2  H   -0.000349   1.000856
 Mulliken charges and spin densities:
               1          2
     1  B    0.000430  -1.000507
     2  H   -0.000430   1.000507
 Sum of Mulliken charges =   0.00000   0.00000
 Mulliken charges and spin densities with hydrogens summed into heavy atoms:
               1          2
     1  B    0.000000   0.000000
 Electronic spatial extent (au):  <R**2>=             76.4992
 Charge=              0.0000 electrons
 Dipole moment (field-independent basis, Debye):
    X=              0.0000    Y=              0.0000    Z=              0.0250  Tot=              0.0250
 Quadrupole moment (field-independent basis, Debye-Ang):
   XX=             -7.3074   YY=             -7.3074   ZZ=            -10.7874
   XY=              0.0000   XZ=              0.0000   YZ=              0.0000
 Traceless Quadrupole moment (field-independent basis, Debye-Ang):
   XX=              1.1600   YY=              1.1600   ZZ=             -2.3200
   XY=              0.0000   XZ=              0.0000   YZ=              0.0000
 Octapole moment (field-independent basis, Debye-Ang**2):
  XXX=              0.0000  YYY=              0.0000  ZZZ=             -4.9440  XYY=              0.0000
  XXY=              0.0000  XXZ=              0.5914  XZZ=              0.0000  YZZ=              0.0000
  YYZ=              0.5914  XYZ=              0.0000
 Hexadecapole moment (field-independent basis, Debye-Ang**3):
 XXXX=            -10.7365 YYYY=            -10.7365 ZZZZ=           -163.5969 XXXY=              0.0000
 XXXZ=              0.0000 YYYX=              0.0000 YYYZ=              0.0000 ZZZX=              0.0000
 ZZZY=              0.0000 XXYY=             -3.5788 XXZZ=            -26.7307 YYZZ=            -26.7307
 XXYZ=              0.0000 YYXZ=              0.0000 ZZXY=              0.0000
 N-N= 6.013377396818D-01 E-N=-5.910603659178D+01  KE= 2.503208299184D+01
 Symmetry A1   KE= 2.503208299184D+01
 Symmetry A2   KE= 0.000000000000D+00
 Symmetry B1   KE= 0.000000000000D+00
 Symmetry B2   KE= 0.000000000000D+00
 Symmetry A1   SP= 1.373182709034D-15
 Symmetry A2   SP= 0.000000000000D+00
 Symmetry B1   SP= 0.000000000000D+00
 Symmetry B2   SP= 0.000000000000D+00
                          Isotropic Fermi Contact Couplings
        Atom                 a.u.       MegaHertz       Gauss      10(-4) cm-1
     1  B(11)             -0.00181      -1.29547      -0.46226      -0.43212
     2  H(1)               0.29845     667.02463     238.01098     222.49547
 --------------------------------------------------------
       Center         ----  Spin Dipole Couplings  ----
                      3XX-RR        3YY-RR        3ZZ-RR
 --------------------------------------------------------
     1   Atom        0.329722      0.329722     -0.659445
     2   Atom        0.002300      0.002300     -0.004601
 --------------------------------------------------------
                        XY            XZ            YZ
 --------------------------------------------------------
     1   Atom        0.000000      0.000000      0.000000
     2   Atom        0.000000      0.000000      0.000000
 --------------------------------------------------------


 ---------------------------------------------------------------------------------
              Anisotropic Spin Dipole Couplings in Principal Axis System
 ---------------------------------------------------------------------------------

       Atom             a.u.   MegaHertz   Gauss  10(-4) cm-1        Axes

              Baa    -0.6594  -112.907   -40.288   -37.662  0.0000  0.0000  1.0000
     1 B(11)  Bbb     0.3297    56.453    20.144    18.831 -0.0000  1.0000  0.0000
              Bcc     0.3297    56.453    20.144    18.831  1.0000  0.0000  0.0000
 
              Baa    -0.0046    -2.455    -0.876    -0.819  0.0000  0.0000  1.0000
     2 H(1)   Bbb     0.0023     1.227     0.438     0.409 -0.0000  1.0000  0.0000
              Bcc     0.0023     1.227     0.438     0.409  1.0000  0.0000  0.0000
 

 ---------------------------------------------------------------------------------

 No NMR shielding tensors so no spin-rotation constants.
 Leave Link  601 at Sun May 22 21:13:48 2022, MaxMem=   104857600 cpu:               0.2 elap:               0.2
 (Enter /apps/software/g16/l9999.exe)
 1\1\GINC-CNODE16\Stability\UHF\Aug-CC-pVQZ\B1H1\LCZ\22-May-2022\0\\#p 
 UHF/aug-cc-pVQZ guess=mix stable=opt\\BH UHF at 4.4 Angstrom\\0,1\B,0,
 0.,0.,0.\H,0,4.4,0.,0.\\Version=ES64L-G16RevA.03\State=1-SG\HF=-25.032
 9622\S2=1.009972\S2-1=0.\S2A=0.089257\RMSD=8.410e-09\Dipole=-0.0098245
 ,0.,0.\Quadrupole=-1.7248544,0.8624272,0.8624272,0.,0.,0.\PG=C*V [C*(H
 1B1)]\\@


 BREAD HAS TO MOLD IN ORDER TO GET PENICILLIN.
          -- JERRY BOATZ
 Job cpu time:       0 days  0 hours  1 minutes 25.5 seconds.
 Elapsed time:       0 days  0 hours  1 minutes 25.9 seconds.
 File lengths (MBytes):  RWF=     33 Int=      0 D2E=      0 Chk=      4 Scr=      1
 Normal termination of Gaussian 16 at Sun May 22 21:13:48 2022.

Sender: Unischeduler System <lcz@mgt01>
Subject: Job 134361: <#!/bin/bash
#BSUB -J intel
#BSUB -o BH-4.4-UHF-G.out
#BSUB -n 8
#BSUB -q cqueue
#BSUB -R span[hosts=1]
export g16root=/apps/software
source /apps/software/g16/bsd/g16.profile
export GAUSS_SCRDIR=/scratch
/apps/software/g16/g16 < BH-4.4-UHF-G.inp > BH-4.4-UHF-G.out> Done

Job <#!/bin/bash
#BSUB -J intel
#BSUB -o BH-4.4-UHF-G.out
#BSUB -n 8
#BSUB -q cqueue
#BSUB -R span[hosts=1]
export g16root=/apps/software
source /apps/software/g16/bsd/g16.profile
export GAUSS_SCRDIR=/scratch
/apps/software/g16/g16 < BH-4.4-UHF-G.inp > BH-4.4-UHF-G.out> was submitted from host <mgt01> by user <lcz>.
Job was executed on host(s) <8*cnode16>, in queue <cqueue>, as user <lcz>.
</apps/users/lcz> was used as the home directory.
</apps/users/lcz/exe13/UCCSD_T> was used as the working directory.
Started at 2022-05-22 21:12:22
Results reported at 2022-05-22 21:13:48

Your job looked like:

------------------------------------------------------------
# User input
#!/bin/bash
#BSUB -J intel
#BSUB -o BH-4.4-UHF-G.out
#BSUB -n 8
#BSUB -q cqueue
#BSUB -R span[hosts=1]
export g16root=/apps/software
source /apps/software/g16/bsd/g16.profile
export GAUSS_SCRDIR=/scratch
/apps/software/g16/g16 < BH-4.4-UHF-G.inp > BH-4.4-UHF-G.out
------------------------------------------------------------

Successfully completed.

Resource usage summary:

    CPU time   :           82.35 sec.
    Max Memory :               483 MB
    Max Processes  :               5


The output (if any) follows:

