 Entering Gaussian System, Link 0=/apps/software/g16/g16
 Initial command:
 /apps/software/g16/l1.exe "/scratch/Gau-147030.inp" -scrdir="/scratch/"
 Entering Link 1 = /apps/software/g16/l1.exe PID=    147031.
  
 Copyright (c) 1988,1990,1992,1993,1995,1998,2003,2009,2016,
            Gaussian, Inc.  All Rights Reserved.
  
 This is part of the Gaussian(R) 16 program.  It is based on
 the Gaussian(R) 09 system (copyright 2009, Gaussian, Inc.),
 the Gaussian(R) 03 system (copyright 2003, Gaussian, Inc.),
 the Gaussian(R) 98 system (copyright 1998, Gaussian, Inc.),
 the Gaussian(R) 94 system (copyright 1995, Gaussian, Inc.),
 the Gaussian 92(TM) system (copyright 1992, Gaussian, Inc.),
 the Gaussian 90(TM) system (copyright 1990, Gaussian, Inc.),
 the Gaussian 88(TM) system (copyright 1988, Gaussian, Inc.),
 the Gaussian 86(TM) system (copyright 1986, Carnegie Mellon
 University), and the Gaussian 82(TM) system (copyright 1983,
 Carnegie Mellon University). Gaussian is a federally registered
 trademark of Gaussian, Inc.
  
 This software contains proprietary and confidential information,
 including trade secrets, belonging to Gaussian, Inc.
  
 This software is provided under written license and may be
 used, copied, transmitted, or stored only in accord with that
 written license.
  
 The following legend is applicable only to US Government
 contracts under FAR:
  
                    RESTRICTED RIGHTS LEGEND
  
 Use, reproduction and disclosure by the US Government is
 subject to restrictions as set forth in subparagraphs (a)
 and (c) of the Commercial Computer Software - Restricted
 Rights clause in FAR 52.227-19.
  
 Gaussian, Inc.
 340 Quinnipiac St., Bldg. 40, Wallingford CT 06492
  
  
 ---------------------------------------------------------------
 Warning -- This program may not be used in any manner that
 competes with the business of Gaussian, Inc. or will provide
 assistance to any competitor of Gaussian, Inc.  The licensee
 of this program is prohibited from giving any competitor of
 Gaussian, Inc. access to this program.  By using this program,
 the user acknowledges that Gaussian, Inc. is engaged in the
 business of creating and licensing software in the field of
 computational chemistry and represents and warrants to the
 licensee that it is not a competitor of Gaussian, Inc. and that
 it will not use this program in any manner prohibited above.
 ---------------------------------------------------------------
  

 Cite this work as:
 Gaussian 16, Revision A.03,
 M. J. Frisch, G. W. Trucks, H. B. Schlegel, G. E. Scuseria, 
 M. A. Robb, J. R. Cheeseman, G. Scalmani, V. Barone, 
 G. A. Petersson, H. Nakatsuji, X. Li, M. Caricato, A. V. Marenich, 
 J. Bloino, B. G. Janesko, R. Gomperts, B. Mennucci, H. P. Hratchian, 
 J. V. Ortiz, A. F. Izmaylov, J. L. Sonnenberg, D. Williams-Young, 
 F. Ding, F. Lipparini, F. Egidi, J. Goings, B. Peng, A. Petrone, 
 T. Henderson, D. Ranasinghe, V. G. Zakrzewski, J. Gao, N. Rega, 
 G. Zheng, W. Liang, M. Hada, M. Ehara, K. Toyota, R. Fukuda, 
 J. Hasegawa, M. Ishida, T. Nakajima, Y. Honda, O. Kitao, H. Nakai, 
 T. Vreven, K. Throssell, J. A. Montgomery, Jr., J. E. Peralta, 
 F. Ogliaro, M. J. Bearpark, J. J. Heyd, E. N. Brothers, K. N. Kudin, 
 V. N. Staroverov, T. A. Keith, R. Kobayashi, J. Normand, 
 K. Raghavachari, A. P. Rendell, J. C. Burant, S. S. Iyengar, 
 J. Tomasi, M. Cossi, J. M. Millam, M. Klene, C. Adamo, R. Cammi, 
 J. W. Ochterski, R. L. Martin, K. Morokuma, O. Farkas, 
 J. B. Foresman, and D. J. Fox, Gaussian, Inc., Wallingford CT, 2016.
 
 ******************************************
 Gaussian 16:  ES64L-G16RevA.03 25-Dec-2016
                22-May-2022 
 ******************************************
 %oldchk=BH-4.4-UHF-G.chk
 %chk=BH-4.4-UCCSD_T-G.chk
 Copying data from "BH-4.4-UHF-G.chk" to current chk file "BH-4.4-UCCSD_T-G.chk"
 IOpt=  2 FromEx=T IUOpen= 4 IOptOp= 5 NList=   0 IFRang= 0 IUIn= 4 IUOut= 2.
 ----------------------------------------
 #p UHF/aug-cc-pVQZ guess=read CCSD(T,FC)
 ----------------------------------------
 1/38=1,172=1/1;
 2/12=2,17=6,18=5,40=1/2;
 3/5=16,6=2,7=10,11=2,25=1,30=1,116=2/1,2,3;
 4/5=1/1;
 5/5=2,38=6/2;
 8/6=4,9=120000,10=1/1,4;
 9/5=7,14=2/13;
 6/7=2,8=2,9=2,10=2/1;
 99/5=1,9=1/99;
 Leave Link    1 at Sun May 22 21:15:34 2022, MaxMem=   104857600 cpu:               0.0 elap:               0.0
 (Enter /apps/software/g16/l101.exe)
 ------------------------
 BH UCCSD at 4.4 Angstrom
 ------------------------
 Symbolic Z-matrix:
 Charge =  0 Multiplicity = 1
 B                     0.        0.        0. 
 H                     4.4       0.        0. 
 
 ITRead=  0  0
 MicOpt= -1 -1
 NAtoms=      2 NQM=        2 NQMF=       0 NMMI=      0 NMMIF=      0
                NMic=       0 NMicF=      0.
                    Isotopes and Nuclear Properties:
 (Nuclear quadrupole moments (NQMom) in fm**2, nuclear magnetic moments (NMagM)
  in nuclear magnetons)

  Atom         1           2
 IAtWgt=          11           1
 AtmWgt=  11.0093053   1.0078250
 NucSpn=           3           1
 AtZEff=  -0.0000000  -0.0000000
 NQMom=    4.0590000   0.0000000
 NMagM=    2.6886370   2.7928460
 AtZNuc=   5.0000000   1.0000000
 Leave Link  101 at Sun May 22 21:15:34 2022, MaxMem=   104857600 cpu:               0.1 elap:               0.1
 (Enter /apps/software/g16/l202.exe)
                          Input orientation:                          
 ---------------------------------------------------------------------
 Center     Atomic      Atomic             Coordinates (Angstroms)
 Number     Number       Type             X           Y           Z
 ---------------------------------------------------------------------
      1          5           0        0.000000    0.000000    0.000000
      2          1           0        4.400000    0.000000    0.000000
 ---------------------------------------------------------------------
 Stoichiometry    BH
 Framework group  C*V[C*(HB)]
 Deg. of freedom     1
 Full point group                 C*V     NOp   4
 Largest Abelian subgroup         C2V     NOp   4
 Largest concise Abelian subgroup C1      NOp   1
                         Standard orientation:                         
 ---------------------------------------------------------------------
 Center     Atomic      Atomic             Coordinates (Angstroms)
 Number     Number       Type             X           Y           Z
 ---------------------------------------------------------------------
      1          5           0        0.000000    0.000000    0.733333
      2          1           0        0.000000    0.000000   -3.666667
 ---------------------------------------------------------------------
 Rotational constants (GHZ):           0.0000000          28.2727179          28.2727179
 Leave Link  202 at Sun May 22 21:15:34 2022, MaxMem=   104857600 cpu:               0.0 elap:               0.0
 (Enter /apps/software/g16/l301.exe)
 Standard basis: Aug-CC-pVQZ (5D, 7F)
 Ernie: Thresh=  0.10000D-02 Tol=  0.10000D-05 Strict=F.
 Ernie:  4 primitive shells out of 54 were deleted.
 There are    68 symmetry adapted cartesian basis functions of A1  symmetry.
 There are    18 symmetry adapted cartesian basis functions of A2  symmetry.
 There are    37 symmetry adapted cartesian basis functions of B1  symmetry.
 There are    37 symmetry adapted cartesian basis functions of B2  symmetry.
 There are    50 symmetry adapted basis functions of A1  symmetry.
 There are    16 symmetry adapted basis functions of A2  symmetry.
 There are    30 symmetry adapted basis functions of B1  symmetry.
 There are    30 symmetry adapted basis functions of B2  symmetry.
   126 basis functions,   180 primitive gaussians,   160 cartesian basis functions
     3 alpha electrons        3 beta electrons
       nuclear repulsion energy         0.6013377397 Hartrees.
 IExCor=    0 DFT=F Ex=HF Corr=None ExCW=0 ScaHFX=  1.000000
 ScaDFX=  1.000000  1.000000  1.000000  1.000000 ScalE2=  1.000000  1.000000
 IRadAn=      5 IRanWt=     -1 IRanGd=            0 ICorTp=0 IEmpDi=  4
 NAtoms=    2 NActive=    2 NUniq=    2 SFac= 1.00D+00 NAtFMM=   60 NAOKFM=F Big=F
 Integral buffers will be    131072 words long.
 Raffenetti 2 integral format.
 Two-electron integral symmetry is turned on.
 Leave Link  301 at Sun May 22 21:15:34 2022, MaxMem=   104857600 cpu:               0.1 elap:               0.1
 (Enter /apps/software/g16/l302.exe)
 NPDir=0 NMtPBC=     1 NCelOv=     1 NCel=       1 NClECP=     1 NCelD=      1
         NCelK=      1 NCelE2=     1 NClLst=     1 CellRange=     0.0.
 One-electron integrals computed using PRISM.
 One-electron integral symmetry used in STVInt
 NBasis=   126 RedAO= T EigKep=  1.17D-02  NBF=    50    16    30    30
 NBsUse=   126 1.00D-06 EigRej= -1.00D+00 NBFU=    50    16    30    30
 Leave Link  302 at Sun May 22 21:15:34 2022, MaxMem=   104857600 cpu:               0.1 elap:               0.1
 (Enter /apps/software/g16/l303.exe)
 DipDrv:  MaxL=1.
 Leave Link  303 at Sun May 22 21:15:34 2022, MaxMem=   104857600 cpu:               0.0 elap:               0.0
 (Enter /apps/software/g16/l401.exe)
 Initial guess from the checkpoint file:  "BH-4.4-UCCSD_T-G.chk"
 B after Tr=     0.000000    0.000000    0.000000
         Rot=    1.000000    0.000000    0.000000    0.000000 Ang=   0.00 deg.
 Guess basis will be translated and rotated to current coordinates.
 JPrj=2 DoOrth=T DoCkMO=T.
 Initial guess orbital symmetries:
 Alpha Orbitals:
       Occupied  (SG) (SG) (SG)
       Virtual   (PI) (PI) (SG) (SG) (SG) (PI) (PI) (SG) (PI) (PI)
                 (DLTA) (DLTA) (SG) (PI) (PI) (SG) (PI) (PI) (SG)
                 (SG) (SG) (PHI) (PHI) (DLTA) (DLTA) (PI) (PI)
                 (DLTA) (DLTA) (SG) (PI) (PI) (SG) (DLTA) (DLTA)
                 (PI) (PI) (SG) (PI) (PI) (SG) (PI) (PI) (SG) (?A)
                 (?A) (PHI) (PHI) (DLTA) (DLTA) (PI) (PI) (SG)
                 (DLTA) (DLTA) (SG) (PHI) (PHI) (PI) (PI) (DLTA)
                 (DLTA) (SG) (PI) (PI) (SG) (PHI) (PHI) (DLTA)
                 (DLTA) (SG) (PI) (PI) (SG) (DLTA) (DLTA) (PI)
                 (PI) (SG) (PI) (PI) (SG) (PI) (PI) (SG) (?A) (?A)
                 (PHI) (PHI) (DLTA) (DLTA) (DLTA) (DLTA) (PI) (PI)
                 (SG) (PI) (PI) (SG) (PHI) (PHI) (DLTA) (DLTA)
                 (PI) (PI) (SG) (PHI) (PHI) (DLTA) (DLTA) (PI)
                 (PI) (SG) (SG) (PI) (PI) (SG) (DLTA) (DLTA) (PI)
                 (PI) (SG) (SG)
 Beta  Orbitals:
       Occupied  (SG) (SG) (SG)
       Virtual   (SG) (PI) (PI) (SG) (SG) (PI) (PI) (SG) (PI) (PI)
                 (DLTA) (DLTA) (SG) (PI) (PI) (SG) (PI) (PI) (SG)
                 (SG) (SG) (PHI) (PHI) (DLTA) (DLTA) (PI) (PI)
                 (PI) (PI) (SG) (DLTA) (DLTA) (SG) (DLTA) (DLTA)
                 (PI) (PI) (SG) (PI) (PI) (SG) (PI) (PI) (SG) (?A)
                 (?A) (PHI) (PHI) (DLTA) (DLTA) (SG) (PI) (PI)
                 (SG) (PI) (PI) (DLTA) (DLTA) (SG) (PHI) (PHI)
                 (DLTA) (DLTA) (PI) (PI) (SG) (PHI) (PHI) (DLTA)
                 (DLTA) (PI) (PI) (SG) (SG) (DLTA) (DLTA) (PI)
                 (PI) (SG) (PI) (PI) (SG) (PI) (PI) (SG) (?A) (?A)
                 (PHI) (PHI) (DLTA) (DLTA) (PI) (PI) (DLTA) (DLTA)
                 (SG) (PI) (PI) (SG) (PHI) (PHI) (DLTA) (DLTA)
                 (PI) (PI) (SG) (PHI) (PHI) (DLTA) (DLTA) (PI)
                 (PI) (SG) (SG) (PI) (PI) (SG) (DLTA) (DLTA) (PI)
                 (PI) (SG) (SG)
 The electronic state of the initial guess is 1-SG.
 Initial guess <Sx>= 0.0000 <Sy>= 0.0000 <Sz>= 0.0000 <S**2>= 1.0100 S= 0.6225
 Leave Link  401 at Sun May 22 21:15:34 2022, MaxMem=   104857600 cpu:               0.1 elap:               0.1
 (Enter /apps/software/g16/l502.exe)
 Keep R1 and R2 ints in memory in symmetry-blocked form, NReq=40143665.
 FoFCou: FMM=F IPFlag=           0 FMFlag=           0 FMFlg1=           0
         NFxFlg=           0 DoJE=F BraDBF=F KetDBF=F FulRan=T
         wScrn=  0.000000 ICntrl=       600 IOpCl=  0 I1Cent=           0 NGrid=           0
         NMat0=    1 NMatS0=   8001 NMatT0=    0 NMatD0=    1 NMtDS0=    0 NMtDT0=    0
 Petite list used in FoFCou.
 UHF open shell SCF:
 Using DIIS extrapolation, IDIIS=  1040.
 NGot=   104857600 LenX=    88563632 LenY=    88537591
 Requested convergence on RMS density matrix=1.00D-08 within 128 cycles.
 Requested convergence on MAX density matrix=1.00D-06.
 Requested convergence on             energy=1.00D-06.
 No special actions if energy rises.

 Cycle   1  Pass 1  IDiag  1:
 E= -25.0329622089484    
 DIIS: error= 3.60D-08 at cycle   1 NSaved=   1.
 NSaved= 1 IEnMin= 1 EnMin= -25.0329622089484     IErMin= 1 ErrMin= 3.60D-08
 ErrMax= 3.60D-08  0.00D+00 EMaxC= 1.00D-01 BMatC= 9.90D-14 BMatP= 9.90D-14
 IDIUse=1 WtCom= 1.00D+00 WtEn= 0.00D+00
 Coeff-Com:  0.100D+01
 Coeff:      0.100D+01
 Gap=     0.474 Goal=   None    Shift=    0.000
 Gap=     0.338 Goal=   None    Shift=    0.000
 RMSDP=4.20D-10 MaxDP=2.07D-08              OVMax= 3.32D-08

 SCF Done:  E(UHF) =  -25.0329622089     A.U. after    1 cycles
            NFock=  1  Conv=0.42D-09     -V/T= 2.0000
 <Sx>= 0.0000 <Sy>= 0.0000 <Sz>= 0.0000 <S**2>= 1.0100 S= 0.6225
 <L.S>=  0.00000000000    
 KE= 2.503208300619D+01 PE=-5.910603660614D+01 EE= 8.439653651317D+00
 Annihilation of the first spin contaminant:
 S**2 before annihilation     1.0100,   after     0.0893
 Leave Link  502 at Sun May 22 21:15:38 2022, MaxMem=   104857600 cpu:               3.5 elap:               3.6
 (Enter /apps/software/g16/l801.exe)
 Windowed orbitals will be sorted by symmetry type.
 ExpMin= 1.88D-02 ExpMax= 2.39D+04 ExpMxC= 2.30D+02 IAcc=3 IRadAn=         5 AccDes= 0.00D+00
 HarFok:  IExCor=  205 AccDes= 0.00D+00 IRadAn=         5 IDoV=-2 UseB2=F ITyADJ=14
 ICtDFT= 12500011 ScaDFX=  1.000000  1.000000  1.000000  1.000000
 DSYEVD-2 returned Info=        3401 IAlg= 4 N=    80 NDim=    80 NE2=     1309686 trying  DSYEV.
 Largest valence mixing into a core orbital is  4.07D-04
 Largest core mixing into a valence orbital is  1.57D-04
 Largest valence mixing into a core orbital is  3.10D-04
 Largest core mixing into a valence orbital is  1.07D-04
 Range of M.O.s used for correlation:     2   126
 NBasis=   126 NAE=     3 NBE=     3 NFC=     1 NFV=     0
 NROrb=    125 NOA=     2 NOB=     2 NVA=   123 NVB=   123
 Leave Link  801 at Sun May 22 21:15:38 2022, MaxMem=   104857600 cpu:               0.1 elap:               0.1
 (Enter /apps/software/g16/l804.exe)
 Open-shell transformation, MDV=   104857600 ITran=4 ISComp=2.
 Unit  1 TFree=        991730 TCopy=        422292.
 Semi-Direct transformation.
 ModeAB=           4 MOrb=             2 LenV=     104172433
 LASXX=       493564 LTotXX=      493564 LenRXX=     1003679
 LTotAB=      510115 MaxLAS=     3211250 LenRXY=           0
 NonZer=     1497243 LenScr=     2994176 LnRSAI=     3211250
 LnScr1=     5505024 LExtra=           0 Total=     12714129
 MaxDsk=          -1 SrtSym=           T ITran=            4
 DoSDTr:  NPSUse=  1
 JobTyp=1 Pass  1:  I=   1 to   2.
 (rs|ai) integrals will be sorted in core.
 Complete sort for first half transformation.
 First half transformation complete.
 Complete sort for second half transformation.
 Second half transformation complete.
 ModeAB=           4 MOrb=             2 LenV=     104172433
 LASXX=       493564 LTotXX=      493564 LenRXX=      986046
 LTotAB=      492482 MaxLAS=     3211250 LenRXY=           0
 NonZer=     1479610 LenScr=     2957312 LnRSAI=     3211250
 LnScr1=     5505024 LExtra=           0 Total=     12659632
 MaxDsk=          -1 SrtSym=           T ITran=            4
 DoSDTr:  NPSUse=  1
 JobTyp=2 Pass  1:  I=   1 to   2.
 (rs|ai) integrals will be sorted in core.
 Complete sort for first half transformation.
 First half transformation complete.
 Complete sort for second half transformation.
 Second half transformation complete.
 Spin components of T(2) and E(2):
     alpha-alpha T2 =       0.1909269212D-04 E2=     -0.2715713715D-04
     alpha-beta  T2 =       0.2508987194D-01 E2=     -0.4391260198D-01
     beta-beta   T2 =       0.1673242986D-02 E2=     -0.3428105447D-02
 ANorm=    0.1013302624D+01
 E2 =    -0.4736786456D-01 EUMP2 =    -0.25080330073513D+02
 (S**2,0)=  0.10100D+01           (S**2,1)=  0.10006D+01
 E(PUHF)=      -0.25040699061D+02        E(PMP2)=      -0.25088032589D+02
 Leave Link  804 at Sun May 22 21:15:48 2022, MaxMem=   104857600 cpu:              10.1 elap:              10.1
 (Enter /apps/software/g16/l913.exe)
 CIDS:  MDV=   104857600.
 Frozen-core window:  NFC=   1 NFV=   0.
 IFCWin=0 IBDFC=1 NFBD=     0     0 NFCmp=     0     0 NFFFC=     0     0
 Using original routines for 1st iteration.
 Using DD4UQ or CC4UQ for 2nd and later iterations.
 Keep R2 and R3 ints in memory in symmetry-blocked form, NReq=40147367.
 FoFCou: FMM=F IPFlag=           0 FMFlag=           0 FMFlg1=           0
         NFxFlg=           0 DoJE=F BraDBF=F KetDBF=F FulRan=T
         wScrn=  0.000000 ICntrl=       600 IOpCl=  0 I1Cent=           0 NGrid=           0
         NMat0=    1 NMatS0=   8001 NMatT0=    0 NMatD0=    1 NMtDS0=    0 NMtDT0=    0
 Petite list used in FoFCou.
 CIDS: In Core Option IDoMem=           1.
 CCSD(T)
 =======
 Iterations=  50 Convergence= 0.100D-06
 Produce multiple copies of IABC intergrals
 Iteration Nr.   1
 **********************
 DD1Dir will call FoFMem   1 times, MxPair=        10
 NAB=     4 NAA=     1 NBB=     1.
 E(PMP3)=      -0.25099766028D+02
 MP4(R+Q)=  0.12657873D-02
 Maximum subspace dimension=  5
 A-vector RMS=  1.9058154D-03 Max=  1.5311255D-02 conv= 1.00D-05.
 RLE energy=       -0.0608404288
 E3=       -0.11759845D-01        EUMP3=      -0.25092089918D+02
 E4(DQ)=   -0.40551213D-02        UMP4(DQ)=   -0.25096145039D+02
 E4(SDQ)=  -0.43554663D-02        UMP4(SDQ)=  -0.25096445384D+02
 VARIATIONAL ENERGIES WITH THE FIRST-ORDER WAVEFUNCTION:
 DE(Corr)= -0.57857052E-01 E(Corr)=     -25.090819261    
 NORM(A)=   0.10261615D+01
 Iteration Nr.   2
 **********************
 DD1Dir will call FoFMem   1 times, MxPair=        10
 NAB=     4 NAA=     1 NBB=     1.
 A-vector RMS=  7.1009555D-04 Max=  6.1836301D-03 conv= 1.00D-05.
 RLE energy=       -0.0662362764
 DE(Corr)= -0.63539963E-01 E(CORR)=     -25.096502172     Delta=-5.68D-03
 NORM(A)=   0.10342805D+01
 Iteration Nr.   3
 **********************
 DD1Dir will call FoFMem   1 times, MxPair=        10
 NAB=     4 NAA=     1 NBB=     1.
 A-vector RMS=  2.2631671D-04 Max=  1.0891793D-03 conv= 1.00D-05.
 RLE energy=       -0.0665845161
 DE(Corr)= -0.66223248E-01 E(CORR)=     -25.099185457     Delta=-2.68D-03
 NORM(A)=   0.10356323D+01
 Iteration Nr.   4
 **********************
 DD1Dir will call FoFMem   1 times, MxPair=        10
 NAB=     4 NAA=     1 NBB=     1.
 A-vector RMS=  5.1312156D-05 Max=  2.0888554D-04 conv= 1.00D-05.
 RLE energy=       -0.0666847718
 DE(Corr)= -0.66619836E-01 E(CORR)=     -25.099582045     Delta=-3.97D-04
 NORM(A)=   0.10358737D+01
 Iteration Nr.   5
 **********************
 DD1Dir will call FoFMem   1 times, MxPair=        10
 NAB=     4 NAA=     1 NBB=     1.
 A-vector RMS=  2.1216759D-05 Max=  1.7170031D-04 conv= 1.00D-05.
 RLE energy=       -0.0666644527
 DE(Corr)= -0.66672939E-01 E(CORR)=     -25.099635148     Delta=-5.31D-05
 NORM(A)=   0.10358555D+01
 Iteration Nr.   6
 **********************
 DD1Dir will call FoFMem   1 times, MxPair=        10
 NAB=     4 NAA=     1 NBB=     1.
 A-vector RMS=  7.1485027D-06 Max=  7.0260885D-05 conv= 1.00D-05.
 RLE energy=       -0.0666686350
 DE(Corr)= -0.66666358E-01 E(CORR)=     -25.099628567     Delta= 6.58D-06
 NORM(A)=   0.10358624D+01
 Iteration Nr.   7
 **********************
 DD1Dir will call FoFMem   1 times, MxPair=        10
 NAB=     4 NAA=     1 NBB=     1.
 A-vector RMS=  6.3117460D-06 Max=  6.3514291D-05 conv= 1.00D-05.
 RLE energy=       -0.0666710073
 DE(Corr)= -0.66667749E-01 E(CORR)=     -25.099629958     Delta=-1.39D-06
 NORM(A)=   0.10358685D+01
 Iteration Nr.   8
 **********************
 DD1Dir will call FoFMem   1 times, MxPair=        10
 NAB=     4 NAA=     1 NBB=     1.
 A-vector RMS=  3.4276739D-06 Max=  5.7162402D-05 conv= 1.00D-05.
 RLE energy=       -0.0666709751
 DE(Corr)= -0.66669138E-01 E(CORR)=     -25.099631347     Delta=-1.39D-06
 NORM(A)=   0.10358747D+01
 Iteration Nr.   9
 **********************
 DD1Dir will call FoFMem   1 times, MxPair=        10
 NAB=     4 NAA=     1 NBB=     1.
 A-vector RMS=  5.0350662D-06 Max=  4.7446575D-05 conv= 1.00D-05.
 RLE energy=       -0.0666716063
 DE(Corr)= -0.66670357E-01 E(CORR)=     -25.099632566     Delta=-1.22D-06
 NORM(A)=   0.10358804D+01
 Iteration Nr.  10
 **********************
 DD1Dir will call FoFMem   1 times, MxPair=        10
 NAB=     4 NAA=     1 NBB=     1.
 A-vector RMS=  4.4541541D-06 Max=  3.5603851D-05 conv= 1.00D-05.
 RLE energy=       -0.0666689845
 DE(Corr)= -0.66670555E-01 E(CORR)=     -25.099632764     Delta=-1.98D-07
 NORM(A)=   0.10358793D+01
 Iteration Nr.  11
 **********************
 DD1Dir will call FoFMem   1 times, MxPair=        10
 NAB=     4 NAA=     1 NBB=     1.
 A-vector RMS=  5.5963520D-06 Max=  3.9519664D-05 conv= 1.00D-05.
 RLE energy=       -0.0666680626
 DE(Corr)= -0.66669248E-01 E(CORR)=     -25.099631457     Delta= 1.31D-06
 NORM(A)=   0.10358779D+01
 Iteration Nr.  12
 **********************
 DD1Dir will call FoFMem   1 times, MxPair=        10
 NAB=     4 NAA=     1 NBB=     1.
 A-vector RMS=  2.6801964D-06 Max=  1.3740418D-05 conv= 1.00D-05.
 RLE energy=       -0.0666681258
 DE(Corr)= -0.66668243E-01 E(CORR)=     -25.099630452     Delta= 1.01D-06
 NORM(A)=   0.10358783D+01
 Iteration Nr.  13
 **********************
 DD1Dir will call FoFMem   1 times, MxPair=        10
 NAB=     4 NAA=     1 NBB=     1.
 A-vector RMS=  8.0282945D-07 Max=  8.7262507D-06 conv= 1.00D-05.
 RLE energy=       -0.0666682383
 DE(Corr)= -0.66668187E-01 E(CORR)=     -25.099630396     Delta= 5.63D-08
 NORM(A)=   0.10358787D+01
 CI/CC converged in   13 iterations to DelEn= 5.63D-08 Conv= 1.00D-07 ErrA1= 8.03D-07 Conv= 1.00D-05
 Wavefunction amplitudes converged. E(Corr)=     -25.099630396    
 Largest amplitude= 7.08D-02
 Time for triples=        2.56 seconds.
 T4(CCSD)= -0.15100914D-02
 T5(CCSD)=  0.31838592D-04
 CCSD(T)= -0.25101108648D+02

 S**2, projected HF & approx projected MPn energies after annihilation of
 unwanted spin states (see manual for definitions):

 spins       (S**2,0) (S**2,1)    PUHF        PMP2        PMP3        PMP4
 annihilated
 s+1        -0.04565 -0.00890  -25.040699  -25.088033  -25.099766
 s+1,s+2     0.00000 -0.00000  -25.035635  -25.082998  -25.094755

 Discarding MO integrals.
 Leave Link  913 at Sun May 22 21:15:55 2022, MaxMem=   104857600 cpu:               7.2 elap:               7.2
 (Enter /apps/software/g16/l601.exe)
 Copying SCF densities to generalized density rwf, IOpCl= 1 IROHF=0.

 **********************************************************************

            Population analysis using the SCF density.

 **********************************************************************

 Orbital symmetries:
 Alpha Orbitals:
       Occupied  (SG) (SG) (SG)
       Virtual   (PI) (PI) (SG) (SG) (SG) (PI) (PI) (SG) (PI) (PI)
                 (DLTA) (DLTA) (SG) (PI) (PI) (SG) (PI) (PI) (SG)
                 (SG) (SG) (PHI) (PHI) (DLTA) (DLTA) (PI) (PI)
                 (DLTA) (DLTA) (SG) (PI) (PI) (SG) (DLTA) (DLTA)
                 (PI) (PI) (SG) (PI) (PI) (SG) (PI) (PI) (SG) (?A)
                 (?A) (PHI) (PHI) (DLTA) (DLTA) (PI) (PI) (SG)
                 (DLTA) (DLTA) (SG) (PHI) (PHI) (PI) (PI) (DLTA)
                 (DLTA) (SG) (PI) (PI) (SG) (PHI) (PHI) (DLTA)
                 (DLTA) (SG) (PI) (PI) (SG) (DLTA) (DLTA) (PI)
                 (PI) (SG) (PI) (PI) (SG) (PI) (PI) (SG) (?A) (?A)
                 (PHI) (PHI) (DLTA) (DLTA) (DLTA) (DLTA) (PI) (PI)
                 (SG) (PI) (PI) (SG) (PHI) (PHI) (DLTA) (DLTA)
                 (PI) (PI) (SG) (PHI) (PHI) (DLTA) (DLTA) (PI)
                 (PI) (SG) (SG) (PI) (PI) (SG) (DLTA) (DLTA) (PI)
                 (PI) (SG) (SG)
 Beta  Orbitals:
       Occupied  (SG) (SG) (SG)
       Virtual   (SG) (PI) (PI) (SG) (SG) (PI) (PI) (SG) (PI) (PI)
                 (DLTA) (DLTA) (SG) (PI) (PI) (SG) (PI) (PI) (SG)
                 (SG) (SG) (PHI) (PHI) (DLTA) (DLTA) (PI) (PI)
                 (PI) (PI) (SG) (DLTA) (DLTA) (SG) (DLTA) (DLTA)
                 (PI) (PI) (SG) (PI) (PI) (SG) (PI) (PI) (SG) (?A)
                 (?A) (PHI) (PHI) (DLTA) (DLTA) (SG) (PI) (PI)
                 (SG) (PI) (PI) (DLTA) (DLTA) (SG) (PHI) (PHI)
                 (DLTA) (DLTA) (PI) (PI) (SG) (PHI) (PHI) (DLTA)
                 (DLTA) (PI) (PI) (SG) (SG) (DLTA) (DLTA) (PI)
                 (PI) (SG) (PI) (PI) (SG) (PI) (PI) (SG) (?A) (?A)
                 (PHI) (PHI) (DLTA) (DLTA) (PI) (PI) (DLTA) (DLTA)
                 (SG) (PI) (PI) (SG) (PHI) (PHI) (DLTA) (DLTA)
                 (PI) (PI) (SG) (PHI) (PHI) (DLTA) (DLTA) (PI)
                 (PI) (SG) (SG) (PI) (PI) (SG) (DLTA) (DLTA) (PI)
                 (PI) (SG) (SG)
 The electronic state is 1-SG.
 Alpha  occ. eigenvalues --   -7.68659  -0.49561  -0.44642
 Alpha virt. eigenvalues --    0.02724   0.02724   0.04345   0.05206   0.07616
 Alpha virt. eigenvalues --    0.08419   0.08419   0.11637   0.14208   0.14208
 Alpha virt. eigenvalues --    0.14566   0.14566   0.17269   0.20390   0.20390
 Alpha virt. eigenvalues --    0.25617   0.31965   0.31965   0.34417   0.36073
 Alpha virt. eigenvalues --    0.40296   0.46171   0.46171   0.46964   0.46964
 Alpha virt. eigenvalues --    0.47060   0.47060   0.50130   0.50130   0.50281
 Alpha virt. eigenvalues --    0.52786   0.52786   0.57437   0.62023   0.62023
 Alpha virt. eigenvalues --    0.66157   0.66157   0.72262   0.76742   0.76742
 Alpha virt. eigenvalues --    0.86793   1.06078   1.06078   1.13584   1.36962
 Alpha virt. eigenvalues --    1.36962   1.38432   1.38432   1.39472   1.39472
 Alpha virt. eigenvalues --    1.40156   1.40156   1.40790   1.41586   1.41586
 Alpha virt. eigenvalues --    1.42876   1.43963   1.43963   1.45416   1.45416
 Alpha virt. eigenvalues --    1.46255   1.46255   1.46608   1.48049   1.48049
 Alpha virt. eigenvalues --    1.53191   1.56248   1.56248   1.56574   1.56574
 Alpha virt. eigenvalues --    1.58482   1.59164   1.59164   1.70100   2.45302
 Alpha virt. eigenvalues --    2.45302   2.47127   2.47127   2.51259   2.56420
 Alpha virt. eigenvalues --    2.56420   2.64748   3.74467   3.74467   3.81172
 Alpha virt. eigenvalues --    3.92019   3.92019   3.94551   3.94551   3.96034
 Alpha virt. eigenvalues --    3.96034   3.96486   3.96486   3.97633   3.97633
 Alpha virt. eigenvalues --    3.99303   4.00307   4.00307   4.03137   4.08858
 Alpha virt. eigenvalues --    4.08858   4.12149   4.12149   4.15047   4.15047
 Alpha virt. eigenvalues --    4.19684   6.55528   6.55528   6.55582   6.55582
 Alpha virt. eigenvalues --    6.55926   6.55926   6.56664   7.42528   7.93988
 Alpha virt. eigenvalues --    7.93988   7.98284   8.39156   8.39156   8.40335
 Alpha virt. eigenvalues --    8.40335   8.44600  13.06481
  Beta  occ. eigenvalues --   -7.70171  -0.54545  -0.31887
  Beta virt. eigenvalues --    0.01949   0.02355   0.02355   0.05023   0.07540
  Beta virt. eigenvalues --    0.07720   0.07720   0.10853   0.14264   0.14264
  Beta virt. eigenvalues --    0.14559   0.14559   0.17729   0.21868   0.21868
  Beta virt. eigenvalues --    0.24215   0.31152   0.31152   0.32320   0.34210
  Beta virt. eigenvalues --    0.45617   0.46179   0.46179   0.46579   0.46579
  Beta virt. eigenvalues --    0.46604   0.46604   0.49779   0.49779   0.49827
  Beta virt. eigenvalues --    0.50024   0.50024   0.55927   0.63340   0.63340
  Beta virt. eigenvalues --    0.67491   0.67491   0.74317   0.83105   0.83105
  Beta virt. eigenvalues --    0.91104   1.05156   1.05156   1.06762   1.36990
  Beta virt. eigenvalues --    1.36990   1.37917   1.37917   1.38578   1.38578
  Beta virt. eigenvalues --    1.39073   1.39100   1.39100   1.39904   1.40592
  Beta virt. eigenvalues --    1.40592   1.41099   1.41099   1.42453   1.43899
  Beta virt. eigenvalues --    1.43899   1.44661   1.44661   1.45717   1.45717
  Beta virt. eigenvalues --    1.50621   1.57506   1.57506   1.57794   1.57794
  Beta virt. eigenvalues --    1.59999   1.59999   1.63458   1.75952   2.49247
  Beta virt. eigenvalues --    2.49247   2.51093   2.51093   2.55714   2.63806
  Beta virt. eigenvalues --    2.63806   2.71251   3.73759   3.73759   3.76396
  Beta virt. eigenvalues --    3.91950   3.91950   3.93462   3.93462   3.94546
  Beta virt. eigenvalues --    3.94546   3.95394   3.95394   3.95589   3.95589
  Beta virt. eigenvalues --    3.96553   3.96600   3.96600   3.98695   4.08590
  Beta virt. eigenvalues --    4.08590   4.10007   4.10007   4.11721   4.11721
  Beta virt. eigenvalues --    4.15862   6.58413   6.58413   6.58465   6.58465
  Beta virt. eigenvalues --    6.58805   6.58805   6.59540   7.50674   7.99778
  Beta virt. eigenvalues --    7.99778   8.04022   8.43379   8.43379   8.44549
  Beta virt. eigenvalues --    8.44549   8.48794  13.05310
          Condensed to atoms (all electrons):
               1          2
     1  B    5.000047  -0.000478
     2  H   -0.000478   1.000908
          Atomic-Atomic Spin Densities.
               1          2
     1  B   -1.000158  -0.000349
     2  H   -0.000349   1.000856
 Mulliken charges and spin densities:
               1          2
     1  B    0.000430  -1.000507
     2  H   -0.000430   1.000507
 Sum of Mulliken charges =  -0.00000  -0.00000
 Mulliken charges and spin densities with hydrogens summed into heavy atoms:
               1          2
     1  B   -0.000000  -0.000000
 Electronic spatial extent (au):  <R**2>=             76.4992
 Charge=              0.0000 electrons
 Dipole moment (field-independent basis, Debye):
    X=              0.0000    Y=              0.0000    Z=              0.0250  Tot=              0.0250
 Quadrupole moment (field-independent basis, Debye-Ang):
   XX=             -7.3074   YY=             -7.3074   ZZ=            -10.7874
   XY=              0.0000   XZ=              0.0000   YZ=              0.0000
 Traceless Quadrupole moment (field-independent basis, Debye-Ang):
   XX=              1.1600   YY=              1.1600   ZZ=             -2.3200
   XY=              0.0000   XZ=              0.0000   YZ=              0.0000
 Octapole moment (field-independent basis, Debye-Ang**2):
  XXX=              0.0000  YYY=              0.0000  ZZZ=             -4.9440  XYY=              0.0000
  XXY=              0.0000  XXZ=              0.5914  XZZ=              0.0000  YZZ=              0.0000
  YYZ=              0.5914  XYZ=              0.0000
 Hexadecapole moment (field-independent basis, Debye-Ang**3):
 XXXX=            -10.7365 YYYY=            -10.7365 ZZZZ=           -163.5969 XXXY=              0.0000
 XXXZ=              0.0000 YYYX=              0.0000 YYYZ=              0.0000 ZZZX=              0.0000
 ZZZY=              0.0000 XXYY=             -3.5788 XXZZ=            -26.7307 YYZZ=            -26.7307
 XXYZ=              0.0000 YYXZ=              0.0000 ZZXY=              0.0000
 N-N= 6.013377396818D-01 E-N=-5.910603658822D+01  KE= 2.503208300619D+01
 Symmetry A1   KE= 2.503208300619D+01
 Symmetry A2   KE= 1.571538302865D-48
 Symmetry B1   KE= 0.000000000000D+00
 Symmetry B2   KE= 0.000000000000D+00
 Symmetry A1   SP= 2.105141148206D-15
 Symmetry A2   SP=-1.411054012849D-48
 Symmetry B1   SP= 0.000000000000D+00
 Symmetry B2   SP= 0.000000000000D+00
 Leave Link  601 at Sun May 22 21:15:55 2022, MaxMem=   104857600 cpu:               0.1 elap:               0.1
 (Enter /apps/software/g16/l9999.exe)
 1\1\GINC-CNODE07\SP\UCCSD(T)-FC\Aug-CC-pVQZ\B1H1\LCZ\22-May-2022\0\\#p
  UHF/aug-cc-pVQZ guess=read CCSD(T,FC)\\BH UCCSD at 4.4 Angstrom\\0,1\
 B,0,0.,0.,0.\H,0,4.4,0.,0.\\Version=ES64L-G16RevA.03\State=1-SG\HF=-25
 .0329622\MP2=-25.0803301\MP3=-25.0920899\MP4D=-25.0974108\MP4DQ=-25.09
 6145\PUHF=-25.0406991\PMP2-0=-25.0880326\PMP3-0=-25.099766\MP4SDQ=-25.
 0964454\CCSD=-25.0996304\CCSD(T)=-25.1011086\S2=1.009972\S2-1=1.000602
 \S2A=0.089257\RMSD=4.197e-10\PG=C*V [C*(H1B1)]\\@


 THE PROGRESS OF RIVERS TO THE SEA IS NOT AS RAPID
 AS THAT OF MAN TO ERROR.
                                              -- VOLTAIRE
 Job cpu time:       0 days  0 hours  0 minutes 21.5 seconds.
 Elapsed time:       0 days  0 hours  0 minutes 21.6 seconds.
 File lengths (MBytes):  RWF=    114 Int=      0 D2E=      0 Chk=     67 Scr=      1
 Normal termination of Gaussian 16 at Sun May 22 21:15:55 2022.

Sender: Unischeduler System <lcz@mgt01>
Subject: Job 134394: <#!/bin/bash
#BSUB -J intel
#BSUB -o BH-4.4-UCCSD_T-G.out
#BSUB -n 8
#BSUB -q cqueue
#BSUB -R span[hosts=1]
export g16root=/apps/software
source /apps/software/g16/bsd/g16.profile
export GAUSS_SCRDIR=/scratch
/apps/software/g16/g16 < BH-4.4-UCCSD_T-G.inp > BH-4.4-UCCSD_T-G.out> Done

Job <#!/bin/bash
#BSUB -J intel
#BSUB -o BH-4.4-UCCSD_T-G.out
#BSUB -n 8
#BSUB -q cqueue
#BSUB -R span[hosts=1]
export g16root=/apps/software
source /apps/software/g16/bsd/g16.profile
export GAUSS_SCRDIR=/scratch
/apps/software/g16/g16 < BH-4.4-UCCSD_T-G.inp > BH-4.4-UCCSD_T-G.out> was submitted from host <mgt01> by user <lcz>.
Job was executed on host(s) <8*cnode07>, in queue <cqueue>, as user <lcz>.
</apps/users/lcz> was used as the home directory.
</apps/users/lcz/exe13/UCCSD_T> was used as the working directory.
Started at 2022-05-22 21:15:33
Results reported at 2022-05-22 21:15:55

Your job looked like:

------------------------------------------------------------
# User input
#!/bin/bash
#BSUB -J intel
#BSUB -o BH-4.4-UCCSD_T-G.out
#BSUB -n 8
#BSUB -q cqueue
#BSUB -R span[hosts=1]
export g16root=/apps/software
source /apps/software/g16/bsd/g16.profile
export GAUSS_SCRDIR=/scratch
/apps/software/g16/g16 < BH-4.4-UCCSD_T-G.inp > BH-4.4-UCCSD_T-G.out
------------------------------------------------------------

Successfully completed.

Resource usage summary:

    CPU time   :           17.02 sec.
    Max Memory :               477 MB
    Max Processes  :               5


The output (if any) follows:

