 Entering Gaussian System, Link 0=/apps/software/g16/g16
 Initial command:
 /apps/software/g16/l1.exe "/scratch/Gau-371187.inp" -scrdir="/scratch/"
 Entering Link 1 = /apps/software/g16/l1.exe PID=    371188.
  
 Copyright (c) 1988,1990,1992,1993,1995,1998,2003,2009,2016,
            Gaussian, Inc.  All Rights Reserved.
  
 This is part of the Gaussian(R) 16 program.  It is based on
 the Gaussian(R) 09 system (copyright 2009, Gaussian, Inc.),
 the Gaussian(R) 03 system (copyright 2003, Gaussian, Inc.),
 the Gaussian(R) 98 system (copyright 1998, Gaussian, Inc.),
 the Gaussian(R) 94 system (copyright 1995, Gaussian, Inc.),
 the Gaussian 92(TM) system (copyright 1992, Gaussian, Inc.),
 the Gaussian 90(TM) system (copyright 1990, Gaussian, Inc.),
 the Gaussian 88(TM) system (copyright 1988, Gaussian, Inc.),
 the Gaussian 86(TM) system (copyright 1986, Carnegie Mellon
 University), and the Gaussian 82(TM) system (copyright 1983,
 Carnegie Mellon University). Gaussian is a federally registered
 trademark of Gaussian, Inc.
  
 This software contains proprietary and confidential information,
 including trade secrets, belonging to Gaussian, Inc.
  
 This software is provided under written license and may be
 used, copied, transmitted, or stored only in accord with that
 written license.
  
 The following legend is applicable only to US Government
 contracts under FAR:
  
                    RESTRICTED RIGHTS LEGEND
  
 Use, reproduction and disclosure by the US Government is
 subject to restrictions as set forth in subparagraphs (a)
 and (c) of the Commercial Computer Software - Restricted
 Rights clause in FAR 52.227-19.
  
 Gaussian, Inc.
 340 Quinnipiac St., Bldg. 40, Wallingford CT 06492
  
  
 ---------------------------------------------------------------
 Warning -- This program may not be used in any manner that
 competes with the business of Gaussian, Inc. or will provide
 assistance to any competitor of Gaussian, Inc.  The licensee
 of this program is prohibited from giving any competitor of
 Gaussian, Inc. access to this program.  By using this program,
 the user acknowledges that Gaussian, Inc. is engaged in the
 business of creating and licensing software in the field of
 computational chemistry and represents and warrants to the
 licensee that it is not a competitor of Gaussian, Inc. and that
 it will not use this program in any manner prohibited above.
 ---------------------------------------------------------------
  

 Cite this work as:
 Gaussian 16, Revision A.03,
 M. J. Frisch, G. W. Trucks, H. B. Schlegel, G. E. Scuseria, 
 M. A. Robb, J. R. Cheeseman, G. Scalmani, V. Barone, 
 G. A. Petersson, H. Nakatsuji, X. Li, M. Caricato, A. V. Marenich, 
 J. Bloino, B. G. Janesko, R. Gomperts, B. Mennucci, H. P. Hratchian, 
 J. V. Ortiz, A. F. Izmaylov, J. L. Sonnenberg, D. Williams-Young, 
 F. Ding, F. Lipparini, F. Egidi, J. Goings, B. Peng, A. Petrone, 
 T. Henderson, D. Ranasinghe, V. G. Zakrzewski, J. Gao, N. Rega, 
 G. Zheng, W. Liang, M. Hada, M. Ehara, K. Toyota, R. Fukuda, 
 J. Hasegawa, M. Ishida, T. Nakajima, Y. Honda, O. Kitao, H. Nakai, 
 T. Vreven, K. Throssell, J. A. Montgomery, Jr., J. E. Peralta, 
 F. Ogliaro, M. J. Bearpark, J. J. Heyd, E. N. Brothers, K. N. Kudin, 
 V. N. Staroverov, T. A. Keith, R. Kobayashi, J. Normand, 
 K. Raghavachari, A. P. Rendell, J. C. Burant, S. S. Iyengar, 
 J. Tomasi, M. Cossi, J. M. Millam, M. Klene, C. Adamo, R. Cammi, 
 J. W. Ochterski, R. L. Martin, K. Morokuma, O. Farkas, 
 J. B. Foresman, and D. J. Fox, Gaussian, Inc., Wallingford CT, 2016.
 
 ******************************************
 Gaussian 16:  ES64L-G16RevA.03 25-Dec-2016
                22-May-2022 
 ******************************************
 %oldchk=BH-5.0-UHF-G.chk
 %chk=BH-5.0-UCCSD_T-G.chk
 Copying data from "BH-5.0-UHF-G.chk" to current chk file "BH-5.0-UCCSD_T-G.chk"
 IOpt=  2 FromEx=T IUOpen= 4 IOptOp= 5 NList=   0 IFRang= 0 IUIn= 4 IUOut= 2.
 ----------------------------------------
 #p UHF/aug-cc-pVQZ guess=read CCSD(T,FC)
 ----------------------------------------
 1/38=1,172=1/1;
 2/12=2,17=6,18=5,40=1/2;
 3/5=16,6=2,7=10,11=2,25=1,30=1,116=2/1,2,3;
 4/5=1/1;
 5/5=2,38=6/2;
 8/6=4,9=120000,10=1/1,4;
 9/5=7,14=2/13;
 6/7=2,8=2,9=2,10=2/1;
 99/5=1,9=1/99;
 Leave Link    1 at Sun May 22 21:11:16 2022, MaxMem=   104857600 cpu:               0.0 elap:               0.0
 (Enter /apps/software/g16/l101.exe)
 ------------------------
 BH UCCSD at 5.0 Angstrom
 ------------------------
 Symbolic Z-matrix:
 Charge =  0 Multiplicity = 1
 B                     0.        0.        0. 
 H                     5.        0.        0. 
 
 ITRead=  0  0
 MicOpt= -1 -1
 NAtoms=      2 NQM=        2 NQMF=       0 NMMI=      0 NMMIF=      0
                NMic=       0 NMicF=      0.
                    Isotopes and Nuclear Properties:
 (Nuclear quadrupole moments (NQMom) in fm**2, nuclear magnetic moments (NMagM)
  in nuclear magnetons)

  Atom         1           2
 IAtWgt=          11           1
 AtmWgt=  11.0093053   1.0078250
 NucSpn=           3           1
 AtZEff=  -0.0000000  -0.0000000
 NQMom=    4.0590000   0.0000000
 NMagM=    2.6886370   2.7928460
 AtZNuc=   5.0000000   1.0000000
 Leave Link  101 at Sun May 22 21:11:16 2022, MaxMem=   104857600 cpu:               0.1 elap:               0.1
 (Enter /apps/software/g16/l202.exe)
                          Input orientation:                          
 ---------------------------------------------------------------------
 Center     Atomic      Atomic             Coordinates (Angstroms)
 Number     Number       Type             X           Y           Z
 ---------------------------------------------------------------------
      1          5           0        0.000000    0.000000    0.000000
      2          1           0        5.000000    0.000000    0.000000
 ---------------------------------------------------------------------
 Stoichiometry    BH
 Framework group  C*V[C*(HB)]
 Deg. of freedom     1
 Full point group                 C*V     NOp   4
 Largest Abelian subgroup         C2V     NOp   4
 Largest concise Abelian subgroup C1      NOp   1
                         Standard orientation:                         
 ---------------------------------------------------------------------
 Center     Atomic      Atomic             Coordinates (Angstroms)
 Number     Number       Type             X           Y           Z
 ---------------------------------------------------------------------
      1          5           0        0.000000    0.000000    0.833333
      2          1           0        0.000000    0.000000   -4.166667
 ---------------------------------------------------------------------
 Rotational constants (GHZ):           0.0000000          21.8943927          21.8943927
 Leave Link  202 at Sun May 22 21:11:16 2022, MaxMem=   104857600 cpu:               0.0 elap:               0.0
 (Enter /apps/software/g16/l301.exe)
 Standard basis: Aug-CC-pVQZ (5D, 7F)
 Ernie: Thresh=  0.10000D-02 Tol=  0.10000D-05 Strict=F.
 Ernie:  4 primitive shells out of 54 were deleted.
 There are    68 symmetry adapted cartesian basis functions of A1  symmetry.
 There are    18 symmetry adapted cartesian basis functions of A2  symmetry.
 There are    37 symmetry adapted cartesian basis functions of B1  symmetry.
 There are    37 symmetry adapted cartesian basis functions of B2  symmetry.
 There are    50 symmetry adapted basis functions of A1  symmetry.
 There are    16 symmetry adapted basis functions of A2  symmetry.
 There are    30 symmetry adapted basis functions of B1  symmetry.
 There are    30 symmetry adapted basis functions of B2  symmetry.
   126 basis functions,   180 primitive gaussians,   160 cartesian basis functions
     3 alpha electrons        3 beta electrons
       nuclear repulsion energy         0.5291772109 Hartrees.
 IExCor=    0 DFT=F Ex=HF Corr=None ExCW=0 ScaHFX=  1.000000
 ScaDFX=  1.000000  1.000000  1.000000  1.000000 ScalE2=  1.000000  1.000000
 IRadAn=      5 IRanWt=     -1 IRanGd=            0 ICorTp=0 IEmpDi=  4
 NAtoms=    2 NActive=    2 NUniq=    2 SFac= 1.00D+00 NAtFMM=   60 NAOKFM=F Big=F
 Integral buffers will be    131072 words long.
 Raffenetti 2 integral format.
 Two-electron integral symmetry is turned on.
 Leave Link  301 at Sun May 22 21:11:16 2022, MaxMem=   104857600 cpu:               0.1 elap:               0.1
 (Enter /apps/software/g16/l302.exe)
 NPDir=0 NMtPBC=     1 NCelOv=     1 NCel=       1 NClECP=     1 NCelD=      1
         NCelK=      1 NCelE2=     1 NClLst=     1 CellRange=     0.0.
 One-electron integrals computed using PRISM.
 One-electron integral symmetry used in STVInt
 NBasis=   126 RedAO= T EigKep=  1.21D-02  NBF=    50    16    30    30
 NBsUse=   126 1.00D-06 EigRej= -1.00D+00 NBFU=    50    16    30    30
 Leave Link  302 at Sun May 22 21:11:16 2022, MaxMem=   104857600 cpu:               0.1 elap:               0.1
 (Enter /apps/software/g16/l303.exe)
 DipDrv:  MaxL=1.
 Leave Link  303 at Sun May 22 21:11:16 2022, MaxMem=   104857600 cpu:               0.0 elap:               0.0
 (Enter /apps/software/g16/l401.exe)
 Initial guess from the checkpoint file:  "BH-5.0-UCCSD_T-G.chk"
 B after Tr=     0.000000    0.000000    0.000000
         Rot=    1.000000    0.000000    0.000000    0.000000 Ang=   0.00 deg.
 Guess basis will be translated and rotated to current coordinates.
 JPrj=2 DoOrth=T DoCkMO=T.
 Initial guess orbital symmetries:
 Alpha Orbitals:
       Occupied  (SG) (SG) (SG)
       Virtual   (PI) (PI) (SG) (SG) (SG) (PI) (PI) (SG) (PI) (PI)
                 (DLTA) (DLTA) (SG) (PI) (PI) (SG) (PI) (PI) (SG)
                 (SG) (SG) (PHI) (PHI) (DLTA) (DLTA) (PI) (PI)
                 (SG) (DLTA) (DLTA) (PI) (PI) (SG) (DLTA) (DLTA)
                 (PI) (PI) (SG) (PI) (PI) (SG) (PI) (PI) (SG) (?A)
                 (?A) (PHI) (PHI) (DLTA) (DLTA) (PI) (PI) (SG)
                 (DLTA) (DLTA) (SG) (PHI) (PHI) (PI) (PI) (DLTA)
                 (DLTA) (SG) (PI) (PI) (SG) (PHI) (PHI) (DLTA)
                 (DLTA) (PI) (PI) (SG) (SG) (DLTA) (DLTA) (PI)
                 (PI) (SG) (PI) (PI) (SG) (PI) (PI) (SG) (?A) (?A)
                 (PHI) (PHI) (DLTA) (DLTA) (DLTA) (DLTA) (PI) (PI)
                 (SG) (PI) (PI) (SG) (PHI) (PHI) (DLTA) (DLTA)
                 (PI) (PI) (SG) (PHI) (PHI) (DLTA) (DLTA) (PI)
                 (PI) (SG) (SG) (PI) (PI) (SG) (DLTA) (DLTA) (PI)
                 (PI) (SG) (SG)
 Beta  Orbitals:
       Occupied  (SG) (SG) (SG)
       Virtual   (SG) (PI) (PI) (SG) (SG) (PI) (PI) (SG) (PI) (PI)
                 (DLTA) (DLTA) (SG) (PI) (PI) (SG) (SG) (PI) (PI)
                 (SG) (SG) (PHI) (PHI) (DLTA) (DLTA) (PI) (PI)
                 (SG) (PI) (PI) (DLTA) (DLTA) (SG) (DLTA) (DLTA)
                 (PI) (PI) (SG) (PI) (PI) (SG) (SG) (PI) (PI) (?A)
                 (?A) (PHI) (PHI) (DLTA) (DLTA) (PI) (PI) (SG)
                 (SG) (PI) (PI) (DLTA) (DLTA) (SG) (PHI) (PHI)
                 (DLTA) (DLTA) (PI) (PI) (SG) (PHI) (PHI) (DLTA)
                 (DLTA) (PI) (PI) (SG) (SG) (DLTA) (DLTA) (PI)
                 (PI) (SG) (PI) (PI) (SG) (PI) (PI) (SG) (?A) (?A)
                 (PHI) (PHI) (DLTA) (DLTA) (PI) (PI) (DLTA) (DLTA)
                 (SG) (PI) (PI) (SG) (PHI) (PHI) (DLTA) (DLTA)
                 (PI) (PI) (SG) (PHI) (PHI) (DLTA) (DLTA) (PI)
                 (PI) (SG) (SG) (PI) (PI) (SG) (DLTA) (DLTA) (PI)
                 (PI) (SG) (SG)
 The electronic state of the initial guess is 1-SG.
 Initial guess <Sx>= 0.0000 <Sy>= 0.0000 <Sz>= 0.0000 <S**2>= 1.0110 S= 0.6230
 Leave Link  401 at Sun May 22 21:11:16 2022, MaxMem=   104857600 cpu:               0.1 elap:               0.1
 (Enter /apps/software/g16/l502.exe)
 Keep R1 and R2 ints in memory in symmetry-blocked form, NReq=40143665.
 FoFCou: FMM=F IPFlag=           0 FMFlag=           0 FMFlg1=           0
         NFxFlg=           0 DoJE=F BraDBF=F KetDBF=F FulRan=T
         wScrn=  0.000000 ICntrl=       600 IOpCl=  0 I1Cent=           0 NGrid=           0
         NMat0=    1 NMatS0=   8001 NMatT0=    0 NMatD0=    1 NMtDS0=    0 NMtDT0=    0
 Petite list used in FoFCou.
 UHF open shell SCF:
 Using DIIS extrapolation, IDIIS=  1040.
 NGot=   104857600 LenX=    88563632 LenY=    88537591
 Requested convergence on RMS density matrix=1.00D-08 within 128 cycles.
 Requested convergence on MAX density matrix=1.00D-06.
 Requested convergence on             energy=1.00D-06.
 No special actions if energy rises.
 An orbital has undefined symmetry, so N**3 symmetry is turned off.

 Cycle   1  Pass 1  IDiag  1:
 E= -25.0329401820686    
 DIIS: error= 2.87D-09 at cycle   1 NSaved=   1.
 NSaved= 1 IEnMin= 1 EnMin= -25.0329401820686     IErMin= 1 ErrMin= 2.87D-09
 ErrMax= 2.87D-09  0.00D+00 EMaxC= 1.00D-01 BMatC= 7.45D-16 BMatP= 7.45D-16
 IDIUse=1 WtCom= 1.00D+00 WtEn= 0.00D+00
 Coeff-Com:  0.100D+01
 Coeff:      0.100D+01
 Gap=     0.474 Goal=   None    Shift=    0.000
 Gap=     0.337 Goal=   None    Shift=    0.000
 RMSDP=2.30D-10 MaxDP=1.89D-08              OVMax= 1.70D-08

 SCF Done:  E(UHF) =  -25.0329401821     A.U. after    1 cycles
            NFock=  1  Conv=0.23D-09     -V/T= 2.0000
 <Sx>= 0.0000 <Sy>= 0.0000 <Sz>= 0.0000 <S**2>= 1.0110 S= 0.6230
 <L.S>=  0.00000000000    
 KE= 2.503228877925D+01 PE=-5.896117891150D+01 EE= 8.366772739269D+00
 Annihilation of the first spin contaminant:
 S**2 before annihilation     1.0110,   after     0.0895
 Leave Link  502 at Sun May 22 21:11:20 2022, MaxMem=   104857600 cpu:               3.6 elap:               3.6
 (Enter /apps/software/g16/l801.exe)
 Windowed orbitals will be sorted by symmetry type.
 ExpMin= 1.88D-02 ExpMax= 2.39D+04 ExpMxC= 2.30D+02 IAcc=3 IRadAn=         5 AccDes= 0.00D+00
 HarFok:  IExCor=  205 AccDes= 0.00D+00 IRadAn=         5 IDoV=-2 UseB2=F ITyADJ=14
 ICtDFT= 12500011 ScaDFX=  1.000000  1.000000  1.000000  1.000000
 DSYEVD-2 returned Info=        3401 IAlg= 4 N=    80 NDim=    80 NE2=     1309686 trying  DSYEV.
 Largest valence mixing into a core orbital is  4.07D-04
 Largest core mixing into a valence orbital is  1.57D-04
 Largest valence mixing into a core orbital is  3.10D-04
 Largest core mixing into a valence orbital is  1.07D-04
 Range of M.O.s used for correlation:     2   126
 NBasis=   126 NAE=     3 NBE=     3 NFC=     1 NFV=     0
 NROrb=    125 NOA=     2 NOB=     2 NVA=   123 NVB=   123
 Leave Link  801 at Sun May 22 21:11:20 2022, MaxMem=   104857600 cpu:               0.1 elap:               0.1
 (Enter /apps/software/g16/l804.exe)
 Open-shell transformation, MDV=   104857600 ITran=4 ISComp=1.
 Unit  1 TFree=        991730 TCopy=        422292.
 Semi-Direct transformation.
 ModeAB=           4 MOrb=             2 LenV=     104175788
 LASXX=      1914004 LTotXX=     1914004 LenRXX=     3874879
 LTotAB=     1960875 MaxLAS=     3124500 LenRXY=           0
 NonZer=     5788883 LenScr=     9431040 LnRSAI=     3124500
 LnScr1=     5465600 LExtra=           0 Total=     21896019
 MaxDsk=          -1 SrtSym=           T ITran=            4
 DoSDTr:  NPSUse=  1
 JobTyp=1 Pass  1:  I=   1 to   2.
 (rs|ai) integrals will be sorted in core.
 Complete sort for first half transformation.
 First half transformation complete.
 Complete sort for second half transformation.
 Second half transformation complete.
 ModeAB=           4 MOrb=             2 LenV=     104175788
 LASXX=      1914004 LTotXX=     1914004 LenRXX=     3812878
 LTotAB=     1898874 MaxLAS=     3124500 LenRXY=           0
 NonZer=     5726882 LenScr=     9369600 LnRSAI=     3124500
 LnScr1=     5465600 LExtra=           0 Total=     21772578
 MaxDsk=          -1 SrtSym=           T ITran=            4
 DoSDTr:  NPSUse=  1
 JobTyp=2 Pass  1:  I=   1 to   2.
 (rs|ai) integrals will be sorted in core.
 Complete sort for first half transformation.
 First half transformation complete.
 Complete sort for second half transformation.
 Second half transformation complete.
 SymMOI:  orbitals are not symmetric.
 Spin components of T(2) and E(2):
     alpha-alpha T2 =       0.8715334932D-05 E2=     -0.1203944485D-04
     alpha-beta  T2 =       0.2505326810D-01 E2=     -0.4385323463D-01
     beta-beta   T2 =       0.1671788345D-02 E2=     -0.3426936113D-02
 ANorm=    0.1013278724D+01
 E2 =    -0.4729221019D-01 EUMP2 =    -0.25080232392258D+02
 (S**2,0)=  0.10110D+01           (S**2,1)=  0.10019D+01
 E(PUHF)=      -0.25040560597D+02        E(PMP2)=      -0.25087819946D+02
 Leave Link  804 at Sun May 22 21:11:31 2022, MaxMem=   104857600 cpu:              10.9 elap:              10.9
 (Enter /apps/software/g16/l913.exe)
 CIDS:  MDV=   104857600.
 Frozen-core window:  NFC=   1 NFV=   0.
 IFCWin=0 IBDFC=1 NFBD=     0     0 NFCmp=     0     0 NFFFC=     0     0
 Using original routines for 1st iteration.
 Using DD4UQ or CC4UQ for 2nd and later iterations.
 Keep R2 and R3 ints in memory in symmetry-blocked form, NReq=40147367.
 FoFCou: FMM=F IPFlag=           0 FMFlag=           0 FMFlg1=           0
         NFxFlg=           0 DoJE=F BraDBF=F KetDBF=F FulRan=T
         wScrn=  0.000000 ICntrl=       600 IOpCl=  0 I1Cent=           0 NGrid=           0
         NMat0=    1 NMatS0=   8001 NMatT0=    0 NMatD0=    1 NMtDS0=    0 NMtDT0=    0
 Petite list used in FoFCou.
 CIDS: In Core Option IDoMem=           1.
 CCSD(T)
 =======
 Iterations=  50 Convergence= 0.100D-06
 Produce multiple copies of IABC intergrals
 Iteration Nr.   1
 **********************
 DD1Dir will call FoFMem   1 times, MxPair=        10
 NAB=     4 NAA=     1 NBB=     1.
 E(PMP3)=      -0.25099536490D+02
 MP4(R+Q)=  0.12632258D-02
 Maximum subspace dimension=  5
 A-vector RMS=  1.8967251D-03 Max=  1.3628567D-02 conv= 1.00D-05.
 RLE energy=       -0.0607440988
 E3=       -0.11741244D-01        EUMP3=      -0.25091973636D+02
 E4(DQ)=   -0.40503637D-02        UMP4(DQ)=   -0.25096024000D+02
 E4(SDQ)=  -0.43500541D-02        UMP4(SDQ)=  -0.25096323691D+02
 VARIATIONAL ENERGIES WITH THE FIRST-ORDER WAVEFUNCTION:
 DE(Corr)= -0.57765155E-01 E(Corr)=     -25.090705337    
 NORM(A)=   0.10261180D+01
 Iteration Nr.   2
 **********************
 DD1Dir will call FoFMem   1 times, MxPair=        10
 NAB=     4 NAA=     1 NBB=     1.
 A-vector RMS=  7.0294765D-04 Max=  5.5680486D-03 conv= 1.00D-05.
 RLE energy=       -0.0661340991
 DE(Corr)= -0.63440200E-01 E(CORR)=     -25.096380382     Delta=-5.68D-03
 NORM(A)=   0.10342258D+01
 Iteration Nr.   3
 **********************
 DD1Dir will call FoFMem   1 times, MxPair=        10
 NAB=     4 NAA=     1 NBB=     1.
 A-vector RMS=  2.1272579D-04 Max=  1.0882318D-03 conv= 1.00D-05.
 RLE energy=       -0.0664799118
 DE(Corr)= -0.66120882E-01 E(CORR)=     -25.099061064     Delta=-2.68D-03
 NORM(A)=   0.10355664D+01
 Iteration Nr.   4
 **********************
 DD1Dir will call FoFMem   1 times, MxPair=        10
 NAB=     4 NAA=     1 NBB=     1.
 A-vector RMS=  4.5452643D-05 Max=  2.0923365D-04 conv= 1.00D-05.
 RLE energy=       -0.0665792526
 DE(Corr)= -0.66515025E-01 E(CORR)=     -25.099455207     Delta=-3.94D-04
 NORM(A)=   0.10358029D+01
 Iteration Nr.   5
 **********************
 DD1Dir will call FoFMem   1 times, MxPair=        10
 NAB=     4 NAA=     1 NBB=     1.
 A-vector RMS=  1.2632789D-05 Max=  6.9055640D-05 conv= 1.00D-05.
 RLE energy=       -0.0665582209
 DE(Corr)= -0.66567360E-01 E(CORR)=     -25.099507542     Delta=-5.23D-05
 NORM(A)=   0.10357810D+01
 Iteration Nr.   6
 **********************
 DD1Dir will call FoFMem   1 times, MxPair=        10
 NAB=     4 NAA=     1 NBB=     1.
 A-vector RMS=  3.8429195D-06 Max=  2.1418808D-05 conv= 1.00D-05.
 RLE energy=       -0.0665623426
 DE(Corr)= -0.66560269E-01 E(CORR)=     -25.099500452     Delta= 7.09D-06
 NORM(A)=   0.10357867D+01
 Iteration Nr.   7
 **********************
 DD1Dir will call FoFMem   1 times, MxPair=        10
 NAB=     4 NAA=     1 NBB=     1.
 A-vector RMS=  2.8092149D-06 Max=  1.9120865D-05 conv= 1.00D-05.
 RLE energy=       -0.0665621686
 DE(Corr)= -0.66561692E-01 E(CORR)=     -25.099501874     Delta=-1.42D-06
 NORM(A)=   0.10357868D+01
 Iteration Nr.   8
 **********************
 DD1Dir will call FoFMem   1 times, MxPair=        10
 NAB=     4 NAA=     1 NBB=     1.
 A-vector RMS=  6.8446393D-07 Max=  1.2069885D-05 conv= 1.00D-05.
 RLE energy=       -0.0665619035
 DE(Corr)= -0.66561749E-01 E(CORR)=     -25.099501931     Delta=-5.72D-08
 NORM(A)=   0.10357871D+01
 Iteration Nr.   9
 **********************
 DD1Dir will call FoFMem   1 times, MxPair=        10
 NAB=     4 NAA=     1 NBB=     1.
 A-vector RMS=  5.5751369D-07 Max=  1.1287416D-05 conv= 1.00D-05.
 RLE energy=       -0.0665619254
 DE(Corr)= -0.66561825E-01 E(CORR)=     -25.099502007     Delta=-7.54D-08
 NORM(A)=   0.10357872D+01
 Iteration Nr.  10
 **********************
 DD1Dir will call FoFMem   1 times, MxPair=        10
 NAB=     4 NAA=     1 NBB=     1.
 A-vector RMS=  5.5673631D-07 Max=  9.5018387D-06 conv= 1.00D-05.
 RLE energy=       -0.0665614669
 DE(Corr)= -0.66561764E-01 E(CORR)=     -25.099501946     Delta= 6.11D-08
 NORM(A)=   0.10357866D+01
 CI/CC converged in   10 iterations to DelEn= 6.11D-08 Conv= 1.00D-07 ErrA1= 5.57D-07 Conv= 1.00D-05
 Wavefunction amplitudes converged. E(Corr)=     -25.099501946    
 Largest amplitude= 6.31D-02
 Time for triples=        3.66 seconds.
 T4(CCSD)= -0.15026887D-02
 T5(CCSD)=  0.32170818D-04
 CCSD(T)= -0.25100972463D+02

 S**2, projected HF & approx projected MPn energies after annihilation of
 unwanted spin states (see manual for definitions):

 spins       (S**2,0) (S**2,1)    PUHF        PMP2        PMP3        PMP4
 annihilated
 s+1        -0.04579 -0.00894  -25.040561  -25.087820  -25.099536
 s+1,s+2     0.00000  0.00000  -25.035483  -25.082772  -25.094510

 Discarding MO integrals.
 Leave Link  913 at Sun May 22 21:11:40 2022, MaxMem=   104857600 cpu:               9.7 elap:               9.8
 (Enter /apps/software/g16/l601.exe)
 Copying SCF densities to generalized density rwf, IOpCl= 1 IROHF=0.

 **********************************************************************

            Population analysis using the SCF density.

 **********************************************************************

 Orbital symmetries:
 Alpha Orbitals:
       Occupied  (SG) (SG) (SG)
       Virtual   (PI) (PI) (SG) (SG) (SG) (PI) (PI) (SG) (PI) (PI)
                 (DLTA) (DLTA) (SG) (PI) (PI) (SG) (PI) (PI) (SG)
                 (SG) (SG) (PHI) (PHI) (DLTA) (DLTA) (PI) (PI)
                 (SG) (DLTA) (DLTA) (PI) (PI) (SG) (DLTA) (DLTA)
                 (PI) (PI) (SG) (PI) (PI) (SG) (PI) (PI) (SG) (?A)
                 (?A) (PHI) (PHI) (DLTA) (DLTA) (PI) (PI) (SG)
                 (DLTA) (DLTA) (SG) (PHI) (PHI) (PI) (PI) (DLTA)
                 (DLTA) (SG) (PI) (PI) (SG) (PHI) (PHI) (DLTA)
                 (DLTA) (PI) (PI) (SG) (SG) (DLTA) (DLTA) (PI)
                 (PI) (SG) (PI) (PI) (SG) (PI) (PI) (SG) (?A) (?A)
                 (PHI) (PHI) (DLTA) (DLTA) (DLTA) (DLTA) (PI) (PI)
                 (SG) (PI) (PI) (SG) (PHI) (PHI) (DLTA) (DLTA)
                 (PI) (PI) (SG) (PHI) (PHI) (DLTA) (DLTA) (PI)
                 (PI) (SG) (SG) (PI) (PI) (SG) (DLTA) (DLTA) (PI)
                 (PI) (SG) (SG)
 Beta  Orbitals:
       Occupied  (SG) (SG) (SG)
       Virtual   (SG) (PI) (PI) (SG) (SG) (PI) (PI) (SG) (PI) (PI)
                 (DLTA) (DLTA) (SG) (PI) (PI) (SG) (SG) (PI) (PI)
                 (SG) (SG) (PHI) (PHI) (DLTA) (DLTA) (PI) (PI)
                 (SG) (PI) (PI) (DLTA) (DLTA) (SG) (DLTA) (DLTA)
                 (PI) (PI) (SG) (PI) (PI) (SG) (SG) (PI) (PI) (?A)
                 (?A) (PHI) (PHI) (DLTA) (DLTA) (PI) (PI) (SG)
                 (SG) (PI) (PI) (DLTA) (DLTA) (SG) (PHI) (PHI)
                 (DLTA) (DLTA) (PI) (PI) (SG) (PHI) (PHI) (DLTA)
                 (DLTA) (PI) (PI) (SG) (SG) (DLTA) (DLTA) (PI)
                 (PI) (SG) (PI) (PI) (SG) (PI) (PI) (SG) (?A) (?A)
                 (PHI) (PHI) (DLTA) (DLTA) (PI) (PI) (DLTA) (DLTA)
                 (SG) (PI) (PI) (SG) (PHI) (PHI) (DLTA) (DLTA)
                 (PI) (PI) (SG) (PHI) (PHI) (DLTA) (DLTA) (PI)
                 (PI) (SG) (SG) (PI) (PI) (SG) (DLTA) (DLTA) (PI)
                 (PI) (SG) (SG)
 The electronic state is 1-SG.
 Alpha  occ. eigenvalues --   -7.68638  -0.49698  -0.44630
 Alpha virt. eigenvalues --    0.02737   0.02737   0.04353   0.05098   0.07403
 Alpha virt. eigenvalues --    0.08426   0.08426   0.11787   0.14262   0.14262
 Alpha virt. eigenvalues --    0.14572   0.14572   0.16045   0.19370   0.19370
 Alpha virt. eigenvalues --    0.24842   0.32016   0.32016   0.34492   0.35994
 Alpha virt. eigenvalues --    0.38388   0.46178   0.46178   0.47091   0.47091
 Alpha virt. eigenvalues --    0.47396   0.47396   0.49206   0.50152   0.50152
 Alpha virt. eigenvalues --    0.52442   0.52442   0.56350   0.61653   0.61653
 Alpha virt. eigenvalues --    0.63528   0.63528   0.66980   0.75605   0.75605
 Alpha virt. eigenvalues --    0.83244   1.06028   1.06028   1.12275   1.36971
 Alpha virt. eigenvalues --    1.36971   1.38442   1.38442   1.39486   1.39486
 Alpha virt. eigenvalues --    1.40166   1.40166   1.40521   1.41592   1.41592
 Alpha virt. eigenvalues --    1.42499   1.43975   1.43975   1.45569   1.45569
 Alpha virt. eigenvalues --    1.46359   1.46359   1.47110   1.47963   1.47963
 Alpha virt. eigenvalues --    1.51106   1.56137   1.56137   1.56207   1.56207
 Alpha virt. eigenvalues --    1.56811   1.56811   1.57119   1.62420   2.45086
 Alpha virt. eigenvalues --    2.45086   2.45768   2.45768   2.47454   2.55556
 Alpha virt. eigenvalues --    2.55556   2.61585   3.74435   3.74435   3.80006
 Alpha virt. eigenvalues --    3.92032   3.92032   3.94565   3.94565   3.96048
 Alpha virt. eigenvalues --    3.96048   3.96493   3.96493   3.97507   3.97507
 Alpha virt. eigenvalues --    3.98072   4.00287   4.00287   4.02582   4.08872
 Alpha virt. eigenvalues --    4.08872   4.12140   4.12140   4.14396   4.14396
 Alpha virt. eigenvalues --    4.17129   6.55394   6.55394   6.55410   6.55410
 Alpha virt. eigenvalues --    6.55493   6.55493   6.55686   7.40318   7.93411
 Alpha virt. eigenvalues --    7.93411   7.97250   8.38970   8.38970   8.39377
 Alpha virt. eigenvalues --    8.39377   8.41103  13.05418
  Beta  occ. eigenvalues --   -7.70152  -0.54535  -0.31881
  Beta virt. eigenvalues --    0.01790   0.02363   0.02363   0.05121   0.07185
  Beta virt. eigenvalues --    0.07729   0.07729   0.11026   0.14251   0.14251
  Beta virt. eigenvalues --    0.14564   0.14564   0.16406   0.20884   0.20884
  Beta virt. eigenvalues --    0.24409   0.29895   0.31198   0.31198   0.34393
  Beta virt. eigenvalues --    0.45091   0.46185   0.46185   0.46689   0.46689
  Beta virt. eigenvalues --    0.46859   0.46859   0.49397   0.49445   0.49445
  Beta virt. eigenvalues --    0.50043   0.50043   0.54050   0.62989   0.62989
  Beta virt. eigenvalues --    0.64762   0.64762   0.68534   0.82178   0.82178
  Beta virt. eigenvalues --    0.88320   1.05077   1.05091   1.05091   1.36999
  Beta virt. eigenvalues --    1.36999   1.37926   1.37926   1.38590   1.38590
  Beta virt. eigenvalues --    1.39029   1.39029   1.39108   1.39412   1.40677
  Beta virt. eigenvalues --    1.40677   1.41104   1.41104   1.42282   1.43910
  Beta virt. eigenvalues --    1.43910   1.44734   1.44734   1.45440   1.45440
  Beta virt. eigenvalues --    1.48511   1.57395   1.57395   1.57460   1.57460
  Beta virt. eigenvalues --    1.57954   1.57954   1.59192   1.71777   2.49034
  Beta virt. eigenvalues --    2.49034   2.49712   2.49712   2.51577   2.63020
  Beta virt. eigenvalues --    2.63020   2.68597   3.73717   3.73717   3.75089
  Beta virt. eigenvalues --    3.91963   3.91963   3.93475   3.93475   3.94556
  Beta virt. eigenvalues --    3.94556   3.95234   3.95234   3.95600   3.95600
  Beta virt. eigenvalues --    3.95680   3.96606   3.96606   3.97787   4.08604
  Beta virt. eigenvalues --    4.08604   4.09995   4.09995   4.11063   4.11063
  Beta virt. eigenvalues --    4.13339   6.58279   6.58279   6.58294   6.58294
  Beta virt. eigenvalues --    6.58376   6.58376   6.58568   7.48505   7.99207
  Beta virt. eigenvalues --    7.99207   8.03002   8.43194   8.43194   8.43597
  Beta virt. eigenvalues --    8.43597   8.45315  13.04241
          Condensed to atoms (all electrons):
               1          2
     1  B    4.999891  -0.000067
     2  H   -0.000067   1.000242
          Atomic-Atomic Spin Densities.
               1          2
     1  B   -1.000111  -0.000058
     2  H   -0.000058   1.000228
 Mulliken charges and spin densities:
               1          2
     1  B    0.000176  -1.000169
     2  H   -0.000176   1.000169
 Sum of Mulliken charges =   0.00000  -0.00000
 Mulliken charges and spin densities with hydrogens summed into heavy atoms:
               1          2
     1  B    0.000000  -0.000000
 Electronic spatial extent (au):  <R**2>=             93.2491
 Charge=             -0.0000 electrons
 Dipole moment (field-independent basis, Debye):
    X=              0.0000    Y=              0.0000    Z=              0.0127  Tot=              0.0127
 Quadrupole moment (field-independent basis, Debye-Ang):
   XX=             -7.3058   YY=             -7.3058   ZZ=            -10.7449
   XY=             -0.0000   XZ=              0.0000   YZ=             -0.0000
 Traceless Quadrupole moment (field-independent basis, Debye-Ang):
   XX=              1.1463   YY=              1.1463   ZZ=             -2.2927
   XY=             -0.0000   XZ=              0.0000   YZ=             -0.0000
 Octapole moment (field-independent basis, Debye-Ang**2):
  XXX=              0.0000  YYY=             -0.0000  ZZZ=             -5.8937  XYY=              0.0000
  XXY=              0.0000  XXZ=              0.6575  XZZ=              0.0000  YZZ=              0.0000
  YYZ=              0.6575  XYZ=              0.0000
 Hexadecapole moment (field-independent basis, Debye-Ang**3):
 XXXX=            -10.7304 YYYY=            -10.7304 ZZZZ=           -203.5678 XXXY=             -0.0000
 XXXZ=              0.0000 YYYX=             -0.0000 YYYZ=              0.0000 ZZZX=              0.0000
 ZZZY=             -0.0000 XXYY=             -3.5768 XXZZ=            -32.9057 YYZZ=            -32.9057
 XXYZ=             -0.0000 YYXZ=              0.0000 ZZXY=             -0.0000
 N-N= 5.291772109200D-01 E-N=-5.896117890967D+01  KE= 2.503228877925D+01
 Leave Link  601 at Sun May 22 21:11:41 2022, MaxMem=   104857600 cpu:               0.1 elap:               0.1
 (Enter /apps/software/g16/l9999.exe)
 1\1\GINC-CNODE01\SP\UCCSD(T)-FC\Aug-CC-pVQZ\B1H1\LCZ\22-May-2022\0\\#p
  UHF/aug-cc-pVQZ guess=read CCSD(T,FC)\\BH UCCSD at 5.0 Angstrom\\0,1\
 B,0,0.,0.,0.\H,0,5.,0.,0.\\Version=ES64L-G16RevA.03\State=1-SG\HF=-25.
 0329402\MP2=-25.0802324\MP3=-25.0919736\MP4D=-25.0972872\MP4DQ=-25.096
 024\PUHF=-25.0405606\PMP2-0=-25.0878199\PMP3-0=-25.0995365\MP4SDQ=-25.
 0963237\CCSD=-25.0995019\CCSD(T)=-25.1009725\S2=1.01104\S2-1=1.001926\
 S2A=0.089537\RMSD=2.297e-10\PG=C*V [C*(H1B1)]\\@


 The most important thing in communication is to hear what isn't being said.
 -- Peter F. Drucker
 Job cpu time:       0 days  0 hours  0 minutes 25.0 seconds.
 Elapsed time:       0 days  0 hours  0 minutes 25.0 seconds.
 File lengths (MBytes):  RWF=    357 Int=      0 D2E=      0 Chk=     67 Scr=      1
 Normal termination of Gaussian 16 at Sun May 22 21:11:42 2022.

Sender: Unischeduler System <lcz@mgt01>
Subject: Job 134397: <#!/bin/bash
#BSUB -J intel
#BSUB -o BH-5.0-UCCSD_T-G.out
#BSUB -n 8
#BSUB -q cqueue
#BSUB -R span[hosts=1]
export g16root=/apps/software
source /apps/software/g16/bsd/g16.profile
export GAUSS_SCRDIR=/scratch
/apps/software/g16/g16 < BH-5.0-UCCSD_T-G.inp > BH-5.0-UCCSD_T-G.out> Done

Job <#!/bin/bash
#BSUB -J intel
#BSUB -o BH-5.0-UCCSD_T-G.out
#BSUB -n 8
#BSUB -q cqueue
#BSUB -R span[hosts=1]
export g16root=/apps/software
source /apps/software/g16/bsd/g16.profile
export GAUSS_SCRDIR=/scratch
/apps/software/g16/g16 < BH-5.0-UCCSD_T-G.inp > BH-5.0-UCCSD_T-G.out> was submitted from host <mgt01> by user <lcz>.
Job was executed on host(s) <8*cnode01>, in queue <cqueue>, as user <lcz>.
</apps/users/lcz> was used as the home directory.
</apps/users/lcz/exe13/UCCSD_T> was used as the working directory.
Started at 2022-05-22 21:11:15
Results reported at 2022-05-22 21:11:42

Your job looked like:

------------------------------------------------------------
# User input
#!/bin/bash
#BSUB -J intel
#BSUB -o BH-5.0-UCCSD_T-G.out
#BSUB -n 8
#BSUB -q cqueue
#BSUB -R span[hosts=1]
export g16root=/apps/software
source /apps/software/g16/bsd/g16.profile
export GAUSS_SCRDIR=/scratch
/apps/software/g16/g16 < BH-5.0-UCCSD_T-G.inp > BH-5.0-UCCSD_T-G.out
------------------------------------------------------------

Successfully completed.

Resource usage summary:

    CPU time   :           17.04 sec.
    Max Memory :               480 MB
    Max Processes  :               5


The output (if any) follows:

