 Entering Gaussian System, Link 0=/apps/software/g16/g16
 Initial command:
 /apps/software/g16/l1.exe "/scratch/Gau-403142.inp" -scrdir="/scratch/"
 Entering Link 1 = /apps/software/g16/l1.exe PID=    403143.
  
 Copyright (c) 1988,1990,1992,1993,1995,1998,2003,2009,2016,
            Gaussian, Inc.  All Rights Reserved.
  
 This is part of the Gaussian(R) 16 program.  It is based on
 the Gaussian(R) 09 system (copyright 2009, Gaussian, Inc.),
 the Gaussian(R) 03 system (copyright 2003, Gaussian, Inc.),
 the Gaussian(R) 98 system (copyright 1998, Gaussian, Inc.),
 the Gaussian(R) 94 system (copyright 1995, Gaussian, Inc.),
 the Gaussian 92(TM) system (copyright 1992, Gaussian, Inc.),
 the Gaussian 90(TM) system (copyright 1990, Gaussian, Inc.),
 the Gaussian 88(TM) system (copyright 1988, Gaussian, Inc.),
 the Gaussian 86(TM) system (copyright 1986, Carnegie Mellon
 University), and the Gaussian 82(TM) system (copyright 1983,
 Carnegie Mellon University). Gaussian is a federally registered
 trademark of Gaussian, Inc.
  
 This software contains proprietary and confidential information,
 including trade secrets, belonging to Gaussian, Inc.
  
 This software is provided under written license and may be
 used, copied, transmitted, or stored only in accord with that
 written license.
  
 The following legend is applicable only to US Government
 contracts under FAR:
  
                    RESTRICTED RIGHTS LEGEND
  
 Use, reproduction and disclosure by the US Government is
 subject to restrictions as set forth in subparagraphs (a)
 and (c) of the Commercial Computer Software - Restricted
 Rights clause in FAR 52.227-19.
  
 Gaussian, Inc.
 340 Quinnipiac St., Bldg. 40, Wallingford CT 06492
  
  
 ---------------------------------------------------------------
 Warning -- This program may not be used in any manner that
 competes with the business of Gaussian, Inc. or will provide
 assistance to any competitor of Gaussian, Inc.  The licensee
 of this program is prohibited from giving any competitor of
 Gaussian, Inc. access to this program.  By using this program,
 the user acknowledges that Gaussian, Inc. is engaged in the
 business of creating and licensing software in the field of
 computational chemistry and represents and warrants to the
 licensee that it is not a competitor of Gaussian, Inc. and that
 it will not use this program in any manner prohibited above.
 ---------------------------------------------------------------
  

 Cite this work as:
 Gaussian 16, Revision A.03,
 M. J. Frisch, G. W. Trucks, H. B. Schlegel, G. E. Scuseria, 
 M. A. Robb, J. R. Cheeseman, G. Scalmani, V. Barone, 
 G. A. Petersson, H. Nakatsuji, X. Li, M. Caricato, A. V. Marenich, 
 J. Bloino, B. G. Janesko, R. Gomperts, B. Mennucci, H. P. Hratchian, 
 J. V. Ortiz, A. F. Izmaylov, J. L. Sonnenberg, D. Williams-Young, 
 F. Ding, F. Lipparini, F. Egidi, J. Goings, B. Peng, A. Petrone, 
 T. Henderson, D. Ranasinghe, V. G. Zakrzewski, J. Gao, N. Rega, 
 G. Zheng, W. Liang, M. Hada, M. Ehara, K. Toyota, R. Fukuda, 
 J. Hasegawa, M. Ishida, T. Nakajima, Y. Honda, O. Kitao, H. Nakai, 
 T. Vreven, K. Throssell, J. A. Montgomery, Jr., J. E. Peralta, 
 F. Ogliaro, M. J. Bearpark, J. J. Heyd, E. N. Brothers, K. N. Kudin, 
 V. N. Staroverov, T. A. Keith, R. Kobayashi, J. Normand, 
 K. Raghavachari, A. P. Rendell, J. C. Burant, S. S. Iyengar, 
 J. Tomasi, M. Cossi, J. M. Millam, M. Klene, C. Adamo, R. Cammi, 
 J. W. Ochterski, R. L. Martin, K. Morokuma, O. Farkas, 
 J. B. Foresman, and D. J. Fox, Gaussian, Inc., Wallingford CT, 2016.
 
 ******************************************
 Gaussian 16:  ES64L-G16RevA.03 25-Dec-2016
                22-May-2022 
 ******************************************
 %oldchk=BH-5.8-UHF-G.chk
 %chk=BH-5.8-UCCSD_T-G.chk
 Copying data from "BH-5.8-UHF-G.chk" to current chk file "BH-5.8-UCCSD_T-G.chk"
 IOpt=  2 FromEx=T IUOpen= 4 IOptOp= 5 NList=   0 IFRang= 0 IUIn= 4 IUOut= 2.
 ----------------------------------------
 #p UHF/aug-cc-pVQZ guess=read CCSD(T,FC)
 ----------------------------------------
 1/38=1,172=1/1;
 2/12=2,17=6,18=5,40=1/2;
 3/5=16,6=2,7=10,11=2,25=1,30=1,116=2/1,2,3;
 4/5=1/1;
 5/5=2,38=6/2;
 8/6=4,9=120000,10=1/1,4;
 9/5=7,14=2/13;
 6/7=2,8=2,9=2,10=2/1;
 99/5=1,9=1/99;
 Leave Link    1 at Sun May 22 21:14:23 2022, MaxMem=   104857600 cpu:               0.0 elap:               0.0
 (Enter /apps/software/g16/l101.exe)
 ------------------------
 BH UCCSD at 5.8 Angstrom
 ------------------------
 Symbolic Z-matrix:
 Charge =  0 Multiplicity = 1
 B                     0.        0.        0. 
 H                     5.8       0.        0. 
 
 ITRead=  0  0
 MicOpt= -1 -1
 NAtoms=      2 NQM=        2 NQMF=       0 NMMI=      0 NMMIF=      0
                NMic=       0 NMicF=      0.
                    Isotopes and Nuclear Properties:
 (Nuclear quadrupole moments (NQMom) in fm**2, nuclear magnetic moments (NMagM)
  in nuclear magnetons)

  Atom         1           2
 IAtWgt=          11           1
 AtmWgt=  11.0093053   1.0078250
 NucSpn=           3           1
 AtZEff=  -0.0000000  -0.0000000
 NQMom=    4.0590000   0.0000000
 NMagM=    2.6886370   2.7928460
 AtZNuc=   5.0000000   1.0000000
 Leave Link  101 at Sun May 22 21:14:23 2022, MaxMem=   104857600 cpu:               0.1 elap:               0.1
 (Enter /apps/software/g16/l202.exe)
                          Input orientation:                          
 ---------------------------------------------------------------------
 Center     Atomic      Atomic             Coordinates (Angstroms)
 Number     Number       Type             X           Y           Z
 ---------------------------------------------------------------------
      1          5           0        0.000000    0.000000    0.000000
      2          1           0        5.800000    0.000000    0.000000
 ---------------------------------------------------------------------
 Stoichiometry    BH
 Framework group  C*V[C*(HB)]
 Deg. of freedom     1
 Full point group                 C*V     NOp   4
 Largest Abelian subgroup         C2V     NOp   4
 Largest concise Abelian subgroup C1      NOp   1
                         Standard orientation:                         
 ---------------------------------------------------------------------
 Center     Atomic      Atomic             Coordinates (Angstroms)
 Number     Number       Type             X           Y           Z
 ---------------------------------------------------------------------
      1          5           0        0.000000    0.000000    0.966667
      2          1           0        0.000000    0.000000   -4.833333
 ---------------------------------------------------------------------
 Rotational constants (GHZ):           0.0000000          16.2711004          16.2711004
 Leave Link  202 at Sun May 22 21:14:23 2022, MaxMem=   104857600 cpu:               0.0 elap:               0.0
 (Enter /apps/software/g16/l301.exe)
 Standard basis: Aug-CC-pVQZ (5D, 7F)
 Ernie: Thresh=  0.10000D-02 Tol=  0.10000D-05 Strict=F.
 Ernie:  4 primitive shells out of 54 were deleted.
 There are    68 symmetry adapted cartesian basis functions of A1  symmetry.
 There are    18 symmetry adapted cartesian basis functions of A2  symmetry.
 There are    37 symmetry adapted cartesian basis functions of B1  symmetry.
 There are    37 symmetry adapted cartesian basis functions of B2  symmetry.
 There are    50 symmetry adapted basis functions of A1  symmetry.
 There are    16 symmetry adapted basis functions of A2  symmetry.
 There are    30 symmetry adapted basis functions of B1  symmetry.
 There are    30 symmetry adapted basis functions of B2  symmetry.
   126 basis functions,   180 primitive gaussians,   160 cartesian basis functions
     3 alpha electrons        3 beta electrons
       nuclear repulsion energy         0.4561872508 Hartrees.
 IExCor=    0 DFT=F Ex=HF Corr=None ExCW=0 ScaHFX=  1.000000
 ScaDFX=  1.000000  1.000000  1.000000  1.000000 ScalE2=  1.000000  1.000000
 IRadAn=      5 IRanWt=     -1 IRanGd=            0 ICorTp=0 IEmpDi=  4
 NAtoms=    2 NActive=    2 NUniq=    2 SFac= 1.00D+00 NAtFMM=   60 NAOKFM=F Big=F
 Integral buffers will be    131072 words long.
 Raffenetti 2 integral format.
 Two-electron integral symmetry is turned on.
 Leave Link  301 at Sun May 22 21:14:23 2022, MaxMem=   104857600 cpu:               0.1 elap:               0.1
 (Enter /apps/software/g16/l302.exe)
 NPDir=0 NMtPBC=     1 NCelOv=     1 NCel=       1 NClECP=     1 NCelD=      1
         NCelK=      1 NCelE2=     1 NClLst=     1 CellRange=     0.0.
 One-electron integrals computed using PRISM.
 One-electron integral symmetry used in STVInt
 NBasis=   126 RedAO= T EigKep=  1.27D-02  NBF=    50    16    30    30
 NBsUse=   126 1.00D-06 EigRej= -1.00D+00 NBFU=    50    16    30    30
 Leave Link  302 at Sun May 22 21:14:23 2022, MaxMem=   104857600 cpu:               0.1 elap:               0.1
 (Enter /apps/software/g16/l303.exe)
 DipDrv:  MaxL=1.
 Leave Link  303 at Sun May 22 21:14:23 2022, MaxMem=   104857600 cpu:               0.0 elap:               0.0
 (Enter /apps/software/g16/l401.exe)
 Initial guess from the checkpoint file:  "BH-5.8-UCCSD_T-G.chk"
 B after Tr=     0.000000    0.000000    0.000000
         Rot=    1.000000    0.000000    0.000000    0.000000 Ang=   0.00 deg.
 Guess basis will be translated and rotated to current coordinates.
 JPrj=2 DoOrth=T DoCkMO=T.
 Initial guess orbital symmetries:
 Alpha Orbitals:
       Occupied  (SG) (SG) (SG)
       Virtual   (PI) (PI) (SG) (SG) (SG) (PI) (PI) (SG) (DLTA)
                 (DLTA) (PI) (PI) (SG) (PI) (PI) (SG) (PI) (PI)
                 (SG) (SG) (SG) (PHI) (PHI) (DLTA) (DLTA) (PI)
                 (PI) (SG) (DLTA) (DLTA) (PI) (PI) (SG) (DLTA)
                 (DLTA) (PI) (PI) (SG) (PI) (PI) (SG) (PI) (PI)
                 (SG) (?A) (?A) (PHI) (PHI) (DLTA) (DLTA) (PI)
                 (PI) (SG) (DLTA) (DLTA) (SG) (PHI) (PHI) (PI)
                 (PI) (DLTA) (DLTA) (SG) (PI) (PI) (SG) (PHI) (PHI)
                 (DLTA) (DLTA) (PI) (PI) (SG) (SG) (DLTA) (DLTA)
                 (PI) (PI) (SG) (PI) (PI) (SG) (PI) (PI) (SG) (?A)
                 (?A) (PHI) (PHI) (DLTA) (DLTA) (DLTA) (DLTA) (PI)
                 (PI) (SG) (PI) (PI) (SG) (PHI) (PHI) (DLTA) (DLTA)
                 (PI) (PI) (SG) (PHI) (PHI) (DLTA) (DLTA) (PI)
                 (PI) (SG) (SG) (PI) (PI) (SG) (DLTA) (DLTA) (PI)
                 (PI) (SG) (SG)
 Beta  Orbitals:
       Occupied  (SG) (SG) (SG)
       Virtual   (SG) (PI) (PI) (SG) (SG) (PI) (PI) (SG) (PI) (PI)
                 (DLTA) (DLTA) (SG) (PI) (PI) (SG) (SG) (PI) (PI)
                 (SG) (SG) (PHI) (PHI) (DLTA) (DLTA) (PI) (PI)
                 (SG) (PI) (PI) (DLTA) (DLTA) (SG) (DLTA) (DLTA)
                 (PI) (PI) (SG) (PI) (PI) (SG) (SG) (PI) (PI) (?A)
                 (?A) (PHI) (PHI) (DLTA) (DLTA) (SG) (PI) (PI)
                 (SG) (PI) (PI) (DLTA) (DLTA) (SG) (PHI) (PHI)
                 (DLTA) (DLTA) (PI) (PI) (SG) (PHI) (PHI) (DLTA)
                 (DLTA) (PI) (PI) (SG) (SG) (DLTA) (DLTA) (PI)
                 (PI) (SG) (PI) (PI) (SG) (PI) (PI) (SG) (?A) (?A)
                 (PHI) (PHI) (DLTA) (DLTA) (PI) (PI) (SG) (DLTA)
                 (DLTA) (PI) (PI) (SG) (PHI) (PHI) (DLTA) (DLTA)
                 (PI) (PI) (SG) (PHI) (PHI) (DLTA) (DLTA) (PI)
                 (PI) (SG) (SG) (PI) (PI) (SG) (DLTA) (DLTA) (PI)
                 (PI) (SG) (SG)
 The electronic state of the initial guess is 1-SG.
 Initial guess <Sx>= 0.0000 <Sy>= 0.0000 <Sz>= 0.0000 <S**2>= 1.0113 S= 0.6231
 Leave Link  401 at Sun May 22 21:14:24 2022, MaxMem=   104857600 cpu:               0.1 elap:               0.1
 (Enter /apps/software/g16/l502.exe)
 Keep R1 and R2 ints in memory in symmetry-blocked form, NReq=40143665.
 FoFCou: FMM=F IPFlag=           0 FMFlag=           0 FMFlg1=           0
         NFxFlg=           0 DoJE=F BraDBF=F KetDBF=F FulRan=T
         wScrn=  0.000000 ICntrl=       600 IOpCl=  0 I1Cent=           0 NGrid=           0
         NMat0=    1 NMatS0=   8001 NMatT0=    0 NMatD0=    1 NMtDS0=    0 NMtDT0=    0
 Petite list used in FoFCou.
 UHF open shell SCF:
 Using DIIS extrapolation, IDIIS=  1040.
 NGot=   104857600 LenX=    88563632 LenY=    88537591
 Requested convergence on RMS density matrix=1.00D-08 within 128 cycles.
 Requested convergence on MAX density matrix=1.00D-06.
 Requested convergence on             energy=1.00D-06.
 No special actions if energy rises.
 An orbital has undefined symmetry, so N**3 symmetry is turned off.

 Cycle   1  Pass 1  IDiag  1:
 E= -25.0329337635143    
 DIIS: error= 7.50D-09 at cycle   1 NSaved=   1.
 NSaved= 1 IEnMin= 1 EnMin= -25.0329337635143     IErMin= 1 ErrMin= 7.50D-09
 ErrMax= 7.50D-09  0.00D+00 EMaxC= 1.00D-01 BMatC= 2.07D-15 BMatP= 2.07D-15
 IDIUse=1 WtCom= 1.00D+00 WtEn= 0.00D+00
 Coeff-Com:  0.100D+01
 Coeff:      0.100D+01
 Gap=     0.474 Goal=   None    Shift=    0.000
 Gap=     0.335 Goal=   None    Shift=    0.000
 RMSDP=3.43D-10 MaxDP=1.92D-08              OVMax= 4.85D-08

 SCF Done:  E(UHF) =  -25.0329337635     A.U. after    1 cycles
            NFock=  1  Conv=0.34D-09     -V/T= 2.0000
 <Sx>= 0.0000 <Sy>= 0.0000 <Sz>= 0.0000 <S**2>= 1.0113 S= 0.6231
 <L.S>=  0.00000000000    
 KE= 2.503233912322D+01 PE=-5.881441641987D+01 EE= 8.292956282341D+00
 Annihilation of the first spin contaminant:
 S**2 before annihilation     1.0113,   after     0.0896
 Leave Link  502 at Sun May 22 21:14:27 2022, MaxMem=   104857600 cpu:               3.5 elap:               3.5
 (Enter /apps/software/g16/l801.exe)
 Windowed orbitals will be sorted by symmetry type.
 ExpMin= 1.88D-02 ExpMax= 2.39D+04 ExpMxC= 2.30D+02 IAcc=3 IRadAn=         5 AccDes= 0.00D+00
 HarFok:  IExCor=  205 AccDes= 0.00D+00 IRadAn=         5 IDoV=-2 UseB2=F ITyADJ=14
 ICtDFT= 12500011 ScaDFX=  1.000000  1.000000  1.000000  1.000000
 DSYEVD-2 returned Info=        3401 IAlg= 4 N=    80 NDim=    80 NE2=     1309686 trying  DSYEV.
 Largest valence mixing into a core orbital is  4.07D-04
 Largest core mixing into a valence orbital is  1.57D-04
 Largest valence mixing into a core orbital is  3.10D-04
 Largest core mixing into a valence orbital is  1.07D-04
 Range of M.O.s used for correlation:     2   126
 NBasis=   126 NAE=     3 NBE=     3 NFC=     1 NFV=     0
 NROrb=    125 NOA=     2 NOB=     2 NVA=   123 NVB=   123
 Leave Link  801 at Sun May 22 21:14:27 2022, MaxMem=   104857600 cpu:               0.1 elap:               0.1
 (Enter /apps/software/g16/l804.exe)
 Open-shell transformation, MDV=   104857600 ITran=4 ISComp=1.
 Unit  1 TFree=        991730 TCopy=        422292.
 Semi-Direct transformation.
 ModeAB=           4 MOrb=             2 LenV=     104177614
 LASXX=      1914004 LTotXX=     1914004 LenRXX=     3874879
 LTotAB=     1960875 MaxLAS=     3010000 LenRXY=           0
 NonZer=     5788883 LenScr=     9431040 LnRSAI=     3010000
 LnScr1=     5264896 LExtra=           0 Total=     21580815
 MaxDsk=          -1 SrtSym=           T ITran=            4
 DoSDTr:  NPSUse=  1
 JobTyp=1 Pass  1:  I=   1 to   2.
 (rs|ai) integrals will be sorted in core.
 Complete sort for first half transformation.
 First half transformation complete.
 Complete sort for second half transformation.
 Second half transformation complete.
 ModeAB=           4 MOrb=             2 LenV=     104177614
 LASXX=      1914004 LTotXX=     1914004 LenRXX=     3812878
 LTotAB=     1898874 MaxLAS=     3010000 LenRXY=           0
 NonZer=     5726882 LenScr=     9369600 LnRSAI=     3010000
 LnScr1=     5264896 LExtra=           0 Total=     21457374
 MaxDsk=          -1 SrtSym=           T ITran=            4
 DoSDTr:  NPSUse=  1
 JobTyp=2 Pass  1:  I=   1 to   2.
 (rs|ai) integrals will be sorted in core.
 Complete sort for first half transformation.
 First half transformation complete.
 Complete sort for second half transformation.
 Second half transformation complete.
 SymMOI:  orbitals are not symmetric.
 Spin components of T(2) and E(2):
     alpha-alpha T2 =       0.3445298947D-05 E2=     -0.4662657177D-05
     alpha-beta  T2 =       0.2503857435D-01 E2=     -0.4383001684D-01
     beta-beta   T2 =       0.1671467259D-02 E2=     -0.3426648887D-02
 ANorm=    0.1013268714D+01
 E2 =    -0.4726132838D-01 EUMP2 =    -0.25080195091895D+02
 (S**2,0)=  0.10113D+01           (S**2,1)=  0.10022D+01
 E(PUHF)=      -0.25040529332D+02        E(PMP2)=      -0.25087758113D+02
 Leave Link  804 at Sun May 22 21:14:37 2022, MaxMem=   104857600 cpu:               9.9 elap:               9.9
 (Enter /apps/software/g16/l913.exe)
 CIDS:  MDV=   104857600.
 Frozen-core window:  NFC=   1 NFV=   0.
 IFCWin=0 IBDFC=1 NFBD=     0     0 NFCmp=     0     0 NFFFC=     0     0
 Using original routines for 1st iteration.
 Using DD4UQ or CC4UQ for 2nd and later iterations.
 Keep R2 and R3 ints in memory in symmetry-blocked form, NReq=40147367.
 FoFCou: FMM=F IPFlag=           0 FMFlag=           0 FMFlg1=           0
         NFxFlg=           0 DoJE=F BraDBF=F KetDBF=F FulRan=T
         wScrn=  0.000000 ICntrl=       600 IOpCl=  0 I1Cent=           0 NGrid=           0
         NMat0=    1 NMatS0=   8001 NMatT0=    0 NMatD0=    1 NMtDS0=    0 NMtDT0=    0
 Petite list used in FoFCou.
 CIDS: In Core Option IDoMem=           1.
 CCSD(T)
 =======
 Iterations=  50 Convergence= 0.100D-06
 Produce multiple copies of IABC intergrals
 Iteration Nr.   1
 **********************
 DD1Dir will call FoFMem   1 times, MxPair=        10
 NAB=     4 NAA=     1 NBB=     1.
 E(PMP3)=      -0.25099466978D+02
 MP4(R+Q)=  0.12621553D-02
 Maximum subspace dimension=  5
 A-vector RMS=  1.8923129D-03 Max=  1.3614159D-02 conv= 1.00D-05.
 RLE energy=       -0.0607040695
 E3=       -0.11733194D-01        EUMP3=      -0.25091928285D+02
 E4(DQ)=   -0.40482865D-02        UMP4(DQ)=   -0.25095976572D+02
 E4(SDQ)=  -0.43479464D-02        UMP4(SDQ)=  -0.25096276232D+02
 VARIATIONAL ENERGIES WITH THE FIRST-ORDER WAVEFUNCTION:
 DE(Corr)= -0.57727214E-01 E(Corr)=     -25.090660977    
 NORM(A)=   0.10260999D+01
 Iteration Nr.   2
 **********************
 DD1Dir will call FoFMem   1 times, MxPair=        10
 NAB=     4 NAA=     1 NBB=     1.
 A-vector RMS=  7.0050520D-04 Max=  5.5628911D-03 conv= 1.00D-05.
 RLE energy=       -0.0660927177
 DE(Corr)= -0.63399126E-01 E(CORR)=     -25.096332889     Delta=-5.67D-03
 NORM(A)=   0.10342056D+01
 Iteration Nr.   3
 **********************
 DD1Dir will call FoFMem   1 times, MxPair=        10
 NAB=     4 NAA=     1 NBB=     1.
 A-vector RMS=  2.0872656D-04 Max=  1.0866368D-03 conv= 1.00D-05.
 RLE energy=       -0.0664378944
 DE(Corr)= -0.66079440E-01 E(CORR)=     -25.099013203     Delta=-2.68D-03
 NORM(A)=   0.10355433D+01
 Iteration Nr.   4
 **********************
 DD1Dir will call FoFMem   1 times, MxPair=        10
 NAB=     4 NAA=     1 NBB=     1.
 A-vector RMS=  4.4139225D-05 Max=  2.0928483D-04 conv= 1.00D-05.
 RLE energy=       -0.0665371245
 DE(Corr)= -0.66472956E-01 E(CORR)=     -25.099406720     Delta=-3.94D-04
 NORM(A)=   0.10357790D+01
 Iteration Nr.   5
 **********************
 DD1Dir will call FoFMem   1 times, MxPair=        10
 NAB=     4 NAA=     1 NBB=     1.
 A-vector RMS=  9.9937428D-06 Max=  4.7079103D-05 conv= 1.00D-05.
 RLE energy=       -0.0665156367
 DE(Corr)= -0.66525176E-01 E(CORR)=     -25.099458940     Delta=-5.22D-05
 NORM(A)=   0.10357559D+01
 Iteration Nr.   6
 **********************
 DD1Dir will call FoFMem   1 times, MxPair=        10
 NAB=     4 NAA=     1 NBB=     1.
 A-vector RMS=  3.4825198D-06 Max=  1.7329392D-05 conv= 1.00D-05.
 RLE energy=       -0.0665204923
 DE(Corr)= -0.66517873E-01 E(CORR)=     -25.099451637     Delta= 7.30D-06
 NORM(A)=   0.10357626D+01
 Iteration Nr.   7
 **********************
 DD1Dir will call FoFMem   1 times, MxPair=        10
 NAB=     4 NAA=     1 NBB=     1.
 A-vector RMS=  1.5541138D-06 Max=  6.2607789D-06 conv= 1.00D-05.
 RLE energy=       -0.0665193990
 DE(Corr)= -0.66519572E-01 E(CORR)=     -25.099453335     Delta=-1.70D-06
 NORM(A)=   0.10357613D+01
 Iteration Nr.   8
 **********************
 DD1Dir will call FoFMem   1 times, MxPair=        10
 NAB=     4 NAA=     1 NBB=     1.
 A-vector RMS=  3.9238581D-07 Max=  2.0313592D-06 conv= 1.00D-05.
 RLE energy=       -0.0665192791
 DE(Corr)= -0.66519272E-01 E(CORR)=     -25.099453035     Delta= 3.00D-07
 NORM(A)=   0.10357612D+01
 Iteration Nr.   9
 **********************
 DD1Dir will call FoFMem   1 times, MxPair=        10
 NAB=     4 NAA=     1 NBB=     1.
 A-vector RMS=  1.7021492D-07 Max=  1.5304311D-06 conv= 1.00D-05.
 RLE energy=       -0.0665192170
 DE(Corr)= -0.66519254E-01 E(CORR)=     -25.099453018     Delta= 1.75D-08
 NORM(A)=   0.10357611D+01
 CI/CC converged in    9 iterations to DelEn= 1.75D-08 Conv= 1.00D-07 ErrA1= 1.70D-07 Conv= 1.00D-05
 Wavefunction amplitudes converged. E(Corr)=     -25.099453018    
 Largest amplitude= 6.30D-02
 Time for triples=        3.87 seconds.
 T4(CCSD)= -0.14999743D-02
 T5(CCSD)=  0.32287928D-04
 CCSD(T)= -0.25100920704D+02

 S**2, projected HF & approx projected MPn energies after annihilation of
 unwanted spin states (see manual for definitions):

 spins       (S**2,0) (S**2,1)    PUHF        PMP2        PMP3        PMP4
 annihilated
 s+1        -0.04583 -0.00895  -25.040529  -25.087758  -25.099467
 s+1,s+2     0.00000  0.00000  -25.035449  -25.082706  -25.094437

 Discarding MO integrals.
 Leave Link  913 at Sun May 22 21:14:47 2022, MaxMem=   104857600 cpu:               9.9 elap:              10.0
 (Enter /apps/software/g16/l601.exe)
 Copying SCF densities to generalized density rwf, IOpCl= 1 IROHF=0.

 **********************************************************************

            Population analysis using the SCF density.

 **********************************************************************

 Orbital symmetries:
 Alpha Orbitals:
       Occupied  (SG) (SG) (SG)
       Virtual   (PI) (PI) (SG) (SG) (SG) (PI) (PI) (SG) (DLTA)
                 (DLTA) (PI) (PI) (SG) (PI) (PI) (SG) (PI) (PI)
                 (SG) (SG) (SG) (PHI) (PHI) (DLTA) (DLTA) (PI)
                 (PI) (SG) (DLTA) (DLTA) (PI) (PI) (SG) (DLTA)
                 (DLTA) (PI) (PI) (SG) (PI) (PI) (SG) (PI) (PI)
                 (SG) (?A) (?A) (PHI) (PHI) (DLTA) (DLTA) (PI)
                 (PI) (SG) (DLTA) (DLTA) (SG) (PHI) (PHI) (PI)
                 (PI) (DLTA) (DLTA) (SG) (PI) (PI) (SG) (PHI) (PHI)
                 (DLTA) (DLTA) (PI) (PI) (SG) (SG) (DLTA) (DLTA)
                 (PI) (PI) (SG) (PI) (PI) (SG) (PI) (PI) (SG) (?A)
                 (?A) (PHI) (PHI) (DLTA) (DLTA) (DLTA) (DLTA) (PI)
                 (PI) (SG) (PI) (PI) (SG) (PHI) (PHI) (DLTA) (DLTA)
                 (PI) (PI) (SG) (PHI) (PHI) (DLTA) (DLTA) (PI)
                 (PI) (SG) (SG) (PI) (PI) (SG) (DLTA) (DLTA) (PI)
                 (PI) (SG) (SG)
 Beta  Orbitals:
       Occupied  (SG) (SG) (SG)
       Virtual   (SG) (PI) (PI) (SG) (SG) (PI) (PI) (SG) (PI) (PI)
                 (DLTA) (DLTA) (SG) (PI) (PI) (SG) (SG) (PI) (PI)
                 (SG) (SG) (PHI) (PHI) (DLTA) (DLTA) (PI) (PI)
                 (SG) (PI) (PI) (DLTA) (DLTA) (SG) (DLTA) (DLTA)
                 (PI) (PI) (SG) (PI) (PI) (SG) (SG) (PI) (PI) (?A)
                 (?A) (PHI) (PHI) (DLTA) (DLTA) (SG) (PI) (PI)
                 (SG) (PI) (PI) (DLTA) (DLTA) (SG) (PHI) (PHI)
                 (DLTA) (DLTA) (PI) (PI) (SG) (PHI) (PHI) (DLTA)
                 (DLTA) (PI) (PI) (SG) (SG) (DLTA) (DLTA) (PI)
                 (PI) (SG) (PI) (PI) (SG) (PI) (PI) (SG) (?A) (?A)
                 (PHI) (PHI) (DLTA) (DLTA) (PI) (PI) (SG) (DLTA)
                 (DLTA) (PI) (PI) (SG) (PHI) (PHI) (DLTA) (DLTA)
                 (PI) (PI) (SG) (PHI) (PHI) (DLTA) (DLTA) (PI)
                 (PI) (SG) (SG) (PI) (PI) (SG) (DLTA) (DLTA) (PI)
                 (PI) (SG) (SG)
 The electronic state is 1-SG.
 Alpha  occ. eigenvalues --   -7.68632  -0.49805  -0.44625
 Alpha virt. eigenvalues --    0.02744   0.02744   0.04234   0.05073   0.07189
 Alpha virt. eigenvalues --    0.08427   0.08427   0.12013   0.14575   0.14575
 Alpha virt. eigenvalues --    0.14583   0.14583   0.14631   0.18301   0.18301
 Alpha virt. eigenvalues --    0.23287   0.32055   0.32055   0.35400   0.35994
 Alpha virt. eigenvalues --    0.37036   0.46181   0.46181   0.47115   0.47115
 Alpha virt. eigenvalues --    0.47682   0.47682   0.48254   0.50168   0.50168
 Alpha virt. eigenvalues --    0.52315   0.52315   0.54558   0.61505   0.61505
 Alpha virt. eigenvalues --    0.62032   0.62032   0.63779   0.74761   0.74761
 Alpha virt. eigenvalues --    0.79549   1.06038   1.06038   1.10850   1.36974
 Alpha virt. eigenvalues --    1.36974   1.38446   1.38446   1.39490   1.39490
 Alpha virt. eigenvalues --    1.40152   1.40152   1.40380   1.41596   1.41596
 Alpha virt. eigenvalues --    1.42496   1.43979   1.43979   1.45411   1.45411
 Alpha virt. eigenvalues --    1.46372   1.46372   1.47644   1.47906   1.47906
 Alpha virt. eigenvalues --    1.49474   1.56050   1.56050   1.56070   1.56070
 Alpha virt. eigenvalues --    1.56158   1.56158   1.56377   1.58738   2.44968
 Alpha virt. eigenvalues --    2.44968   2.45142   2.45142   2.45764   2.54939
 Alpha virt. eigenvalues --    2.54939   2.58343   3.74441   3.74441   3.78980
 Alpha virt. eigenvalues --    3.92036   3.92036   3.94570   3.94570   3.96051
 Alpha virt. eigenvalues --    3.96051   3.96497   3.96497   3.97505   3.97505
 Alpha virt. eigenvalues --    3.97888   4.00147   4.00147   4.02494   4.08877
 Alpha virt. eigenvalues --    4.08877   4.12142   4.12142   4.14198   4.14198
 Alpha virt. eigenvalues --    4.15312   6.55293   6.55293   6.55298   6.55298
 Alpha virt. eigenvalues --    6.55315   6.55315   6.55351   7.39112   7.92940
 Alpha virt. eigenvalues --    7.92940   7.95361   8.38855   8.38855   8.38952
 Alpha virt. eigenvalues --    8.38952   8.39471  13.05177
  Beta  occ. eigenvalues --   -7.70146  -0.54531  -0.31878
  Beta virt. eigenvalues --    0.01655   0.02366   0.02366   0.05228   0.06707
  Beta virt. eigenvalues --    0.07728   0.07728   0.11360   0.14428   0.14428
  Beta virt. eigenvalues --    0.14567   0.14567   0.14842   0.19942   0.19942
  Beta virt. eigenvalues --    0.24364   0.27699   0.31239   0.31239   0.34548
  Beta virt. eigenvalues --    0.46046   0.46188   0.46188   0.46710   0.46710
  Beta virt. eigenvalues --    0.47035   0.47035   0.48221   0.49286   0.49286
  Beta virt. eigenvalues --    0.50058   0.50058   0.51629   0.62845   0.62845
  Beta virt. eigenvalues --    0.63312   0.63312   0.65029   0.81448   0.81448
  Beta virt. eigenvalues --    0.85505   1.02932   1.05100   1.05100   1.37002
  Beta virt. eigenvalues --    1.37002   1.37930   1.37930   1.38594   1.38594
  Beta virt. eigenvalues --    1.38934   1.38987   1.38987   1.39207   1.40524
  Beta virt. eigenvalues --    1.40524   1.41107   1.41107   1.42645   1.43914
  Beta virt. eigenvalues --    1.43914   1.44744   1.44744   1.45276   1.45276
  Beta virt. eigenvalues --    1.46445   1.57308   1.57308   1.57327   1.57327
  Beta virt. eigenvalues --    1.57403   1.57403   1.57607   1.69894   2.48916
  Beta virt. eigenvalues --    2.48916   2.49087   2.49087   2.49752   2.62434
  Beta virt. eigenvalues --    2.62434   2.65648   3.73722   3.73722   3.73950
  Beta virt. eigenvalues --    3.91967   3.91967   3.93480   3.93480   3.94560
  Beta virt. eigenvalues --    3.94560   3.95211   3.95211   3.95459   3.95602
  Beta virt. eigenvalues --    3.95602   3.96483   3.96483   3.97725   4.08609
  Beta virt. eigenvalues --    4.08609   4.09997   4.09997   4.10862   4.10862
  Beta virt. eigenvalues --    4.11564   6.58177   6.58177   6.58183   6.58183
  Beta virt. eigenvalues --    6.58199   6.58199   6.58235   7.47317   7.98740
  Beta virt. eigenvalues --    7.98740   8.01134   8.43079   8.43079   8.43175
  Beta virt. eigenvalues --    8.43175   8.43691  13.03999
          Condensed to atoms (all electrons):
               1          2
     1  B    4.999799   0.000118
     2  H    0.000118   0.999964
          Atomic-Atomic Spin Densities.
               1          2
     1  B   -0.999923  -0.000018
     2  H   -0.000018   0.999960
 Mulliken charges and spin densities:
               1          2
     1  B    0.000083  -0.999942
     2  H   -0.000083   0.999942
 Sum of Mulliken charges =  -0.00000   0.00000
 Mulliken charges and spin densities with hydrogens summed into heavy atoms:
               1          2
     1  B   -0.000000   0.000000
 Electronic spatial extent (au):  <R**2>=            118.9374
 Charge=              0.0000 electrons
 Dipole moment (field-independent basis, Debye):
    X=              0.0000    Y=              0.0000    Z=              0.0063  Tot=              0.0063
 Quadrupole moment (field-independent basis, Debye-Ang):
   XX=             -7.3044   YY=             -7.3044   ZZ=            -10.7161
   XY=              0.0000   XZ=              0.0000   YZ=              0.0000
 Traceless Quadrupole moment (field-independent basis, Debye-Ang):
   XX=              1.1372   YY=              1.1372   ZZ=             -2.2745
   XY=              0.0000   XZ=              0.0000   YZ=              0.0000
 Octapole moment (field-independent basis, Debye-Ang**2):
  XXX=              0.0000  YYY=              0.0000  ZZZ=             -7.0675  XYY=              0.0000
  XXY=             -0.0000  XXZ=              0.7534  XZZ=              0.0000  YZZ=              0.0000
  YYZ=              0.7534  XYZ=             -0.0000
 Hexadecapole moment (field-independent basis, Debye-Ang**3):
 XXXX=            -10.7224 YYYY=            -10.7224 ZZZZ=           -265.0929 XXXY=              0.0000
 XXXZ=              0.0000 YYYX=              0.0000 YYYZ=             -0.0000 ZZZX=              0.0000
 ZZZY=             -0.0000 XXYY=             -3.5741 XXZZ=            -42.3886 YYZZ=            -42.3886
 XXYZ=              0.0000 YYXZ=              0.0000 ZZXY=              0.0000
 N-N= 4.561872507931D-01 E-N=-5.881441641738D+01  KE= 2.503233912322D+01
 Leave Link  601 at Sun May 22 21:14:47 2022, MaxMem=   104857600 cpu:               0.1 elap:               0.1
 (Enter /apps/software/g16/l9999.exe)
 1\1\GINC-CNODE04\SP\UCCSD(T)-FC\Aug-CC-pVQZ\B1H1\LCZ\22-May-2022\0\\#p
  UHF/aug-cc-pVQZ guess=read CCSD(T,FC)\\BH UCCSD at 5.8 Angstrom\\0,1\
 B,0,0.,0.,0.\H,0,5.8,0.,0.\\Version=ES64L-G16RevA.03\State=1-SG\HF=-25
 .0329338\MP2=-25.0801951\MP3=-25.0919283\MP4D=-25.0972387\MP4DQ=-25.09
 59766\PUHF=-25.0405293\PMP2-0=-25.0877581\PMP3-0=-25.099467\MP4SDQ=-25
 .0962762\CCSD=-25.099453\CCSD(T)=-25.1009207\S2=1.011294\S2-1=1.002234
 \S2A=0.089606\RMSD=3.428e-10\PG=C*V [C*(H1B1)]\\@


 A SLIP OF THE FOOT YOU MAY SOON RECOVER, BUT A SLIP OF THE TONGUE
 YOU MAY NEVER GET OVER. -- BEN FRANKLIN
 Job cpu time:       0 days  0 hours  0 minutes 24.1 seconds.
 Elapsed time:       0 days  0 hours  0 minutes 24.2 seconds.
 File lengths (MBytes):  RWF=    357 Int=      0 D2E=      0 Chk=     67 Scr=      1
 Normal termination of Gaussian 16 at Sun May 22 21:14:47 2022.

Sender: Unischeduler System <lcz@mgt01>
Subject: Job 134401: <#!/bin/bash
#BSUB -J intel
#BSUB -o BH-5.8-UCCSD_T-G.out
#BSUB -n 8
#BSUB -q cqueue
#BSUB -R span[hosts=1]
export g16root=/apps/software
source /apps/software/g16/bsd/g16.profile
export GAUSS_SCRDIR=/scratch
/apps/software/g16/g16 < BH-5.8-UCCSD_T-G.inp > BH-5.8-UCCSD_T-G.out> Done

Job <#!/bin/bash
#BSUB -J intel
#BSUB -o BH-5.8-UCCSD_T-G.out
#BSUB -n 8
#BSUB -q cqueue
#BSUB -R span[hosts=1]
export g16root=/apps/software
source /apps/software/g16/bsd/g16.profile
export GAUSS_SCRDIR=/scratch
/apps/software/g16/g16 < BH-5.8-UCCSD_T-G.inp > BH-5.8-UCCSD_T-G.out> was submitted from host <mgt01> by user <lcz>.
Job was executed on host(s) <8*cnode04>, in queue <cqueue>, as user <lcz>.
</apps/users/lcz> was used as the home directory.
</apps/users/lcz/exe13/UCCSD_T> was used as the working directory.
Started at 2022-05-22 21:14:23
Results reported at 2022-05-22 21:14:47

Your job looked like:

------------------------------------------------------------
# User input
#!/bin/bash
#BSUB -J intel
#BSUB -o BH-5.8-UCCSD_T-G.out
#BSUB -n 8
#BSUB -q cqueue
#BSUB -R span[hosts=1]
export g16root=/apps/software
source /apps/software/g16/bsd/g16.profile
export GAUSS_SCRDIR=/scratch
/apps/software/g16/g16 < BH-5.8-UCCSD_T-G.inp > BH-5.8-UCCSD_T-G.out
------------------------------------------------------------

Successfully completed.

Resource usage summary:

    CPU time   :           17.78 sec.
    Max Memory :               494 MB
    Max Processes  :               5


The output (if any) follows:

