 Entering Gaussian System, Link 0=/apps/software/g16/g16
 Initial command:
 /apps/software/g16/l1.exe "/scratch/Gau-370632.inp" -scrdir="/scratch/"
 Entering Link 1 = /apps/software/g16/l1.exe PID=    370633.
  
 Copyright (c) 1988,1990,1992,1993,1995,1998,2003,2009,2016,
            Gaussian, Inc.  All Rights Reserved.
  
 This is part of the Gaussian(R) 16 program.  It is based on
 the Gaussian(R) 09 system (copyright 2009, Gaussian, Inc.),
 the Gaussian(R) 03 system (copyright 2003, Gaussian, Inc.),
 the Gaussian(R) 98 system (copyright 1998, Gaussian, Inc.),
 the Gaussian(R) 94 system (copyright 1995, Gaussian, Inc.),
 the Gaussian 92(TM) system (copyright 1992, Gaussian, Inc.),
 the Gaussian 90(TM) system (copyright 1990, Gaussian, Inc.),
 the Gaussian 88(TM) system (copyright 1988, Gaussian, Inc.),
 the Gaussian 86(TM) system (copyright 1986, Carnegie Mellon
 University), and the Gaussian 82(TM) system (copyright 1983,
 Carnegie Mellon University). Gaussian is a federally registered
 trademark of Gaussian, Inc.
  
 This software contains proprietary and confidential information,
 including trade secrets, belonging to Gaussian, Inc.
  
 This software is provided under written license and may be
 used, copied, transmitted, or stored only in accord with that
 written license.
  
 The following legend is applicable only to US Government
 contracts under FAR:
  
                    RESTRICTED RIGHTS LEGEND
  
 Use, reproduction and disclosure by the US Government is
 subject to restrictions as set forth in subparagraphs (a)
 and (c) of the Commercial Computer Software - Restricted
 Rights clause in FAR 52.227-19.
  
 Gaussian, Inc.
 340 Quinnipiac St., Bldg. 40, Wallingford CT 06492
  
  
 ---------------------------------------------------------------
 Warning -- This program may not be used in any manner that
 competes with the business of Gaussian, Inc. or will provide
 assistance to any competitor of Gaussian, Inc.  The licensee
 of this program is prohibited from giving any competitor of
 Gaussian, Inc. access to this program.  By using this program,
 the user acknowledges that Gaussian, Inc. is engaged in the
 business of creating and licensing software in the field of
 computational chemistry and represents and warrants to the
 licensee that it is not a competitor of Gaussian, Inc. and that
 it will not use this program in any manner prohibited above.
 ---------------------------------------------------------------
  

 Cite this work as:
 Gaussian 16, Revision A.03,
 M. J. Frisch, G. W. Trucks, H. B. Schlegel, G. E. Scuseria, 
 M. A. Robb, J. R. Cheeseman, G. Scalmani, V. Barone, 
 G. A. Petersson, H. Nakatsuji, X. Li, M. Caricato, A. V. Marenich, 
 J. Bloino, B. G. Janesko, R. Gomperts, B. Mennucci, H. P. Hratchian, 
 J. V. Ortiz, A. F. Izmaylov, J. L. Sonnenberg, D. Williams-Young, 
 F. Ding, F. Lipparini, F. Egidi, J. Goings, B. Peng, A. Petrone, 
 T. Henderson, D. Ranasinghe, V. G. Zakrzewski, J. Gao, N. Rega, 
 G. Zheng, W. Liang, M. Hada, M. Ehara, K. Toyota, R. Fukuda, 
 J. Hasegawa, M. Ishida, T. Nakajima, Y. Honda, O. Kitao, H. Nakai, 
 T. Vreven, K. Throssell, J. A. Montgomery, Jr., J. E. Peralta, 
 F. Ogliaro, M. J. Bearpark, J. J. Heyd, E. N. Brothers, K. N. Kudin, 
 V. N. Staroverov, T. A. Keith, R. Kobayashi, J. Normand, 
 K. Raghavachari, A. P. Rendell, J. C. Burant, S. S. Iyengar, 
 J. Tomasi, M. Cossi, J. M. Millam, M. Klene, C. Adamo, R. Cammi, 
 J. W. Ochterski, R. L. Martin, K. Morokuma, O. Farkas, 
 J. B. Foresman, and D. J. Fox, Gaussian, Inc., Wallingford CT, 2016.
 
 ******************************************
 Gaussian 16:  ES64L-G16RevA.03 25-Dec-2016
                22-May-2022 
 ******************************************
 %chk=BH-5.8-UHF-G.chk
 ---------------------------------------
 #p UHF/aug-cc-pVQZ guess=mix stable=opt
 ---------------------------------------
 1/38=1,172=1/1;
 2/12=2,17=6,18=5,40=1/2;
 3/5=16,6=2,7=10,11=2,25=1,30=1,116=2/1,2,3;
 4/13=-1/1;
 5/5=2,38=5/2;
 6/7=2,8=2,9=2,10=2,28=1/1;
 8/6=1,10=90,11=11/1;
 9/8=-3,42=1,46=1/14;
 5/5=2,8=3,17=40,38=5/8(-2);
 6/7=2,8=2,9=2,10=2,28=1/1;
 99/5=1,9=1/99;
 Leave Link    1 at Sun May 22 21:08:02 2022, MaxMem=           0 cpu:               0.0 elap:               0.0
 (Enter /apps/software/g16/l101.exe)
 ----------------------
 BH UHF at 5.8 Angstrom
 ----------------------
 Symbolic Z-matrix:
 Charge =  0 Multiplicity = 1
 B                     0.        0.        0. 
 H                     5.8       0.        0. 
 
 ITRead=  0  0
 MicOpt= -1 -1
 NAtoms=      2 NQM=        2 NQMF=       0 NMMI=      0 NMMIF=      0
                NMic=       0 NMicF=      0.
                    Isotopes and Nuclear Properties:
 (Nuclear quadrupole moments (NQMom) in fm**2, nuclear magnetic moments (NMagM)
  in nuclear magnetons)

  Atom         1           2
 IAtWgt=          11           1
 AtmWgt=  11.0093053   1.0078250
 NucSpn=           3           1
 AtZEff=  -0.0000000  -0.0000000
 NQMom=    4.0590000   0.0000000
 NMagM=    2.6886370   2.7928460
 AtZNuc=   5.0000000   1.0000000
 Leave Link  101 at Sun May 22 21:08:02 2022, MaxMem=   104857600 cpu:               0.1 elap:               0.1
 (Enter /apps/software/g16/l202.exe)
                          Input orientation:                          
 ---------------------------------------------------------------------
 Center     Atomic      Atomic             Coordinates (Angstroms)
 Number     Number       Type             X           Y           Z
 ---------------------------------------------------------------------
      1          5           0        0.000000    0.000000    0.000000
      2          1           0        5.800000    0.000000    0.000000
 ---------------------------------------------------------------------
 Stoichiometry    BH
 Framework group  C*V[C*(HB)]
 Deg. of freedom     1
 Full point group                 C*V     NOp   4
 Largest Abelian subgroup         C2V     NOp   4
 Largest concise Abelian subgroup C1      NOp   1
                         Standard orientation:                         
 ---------------------------------------------------------------------
 Center     Atomic      Atomic             Coordinates (Angstroms)
 Number     Number       Type             X           Y           Z
 ---------------------------------------------------------------------
      1          5           0        0.000000    0.000000    0.966667
      2          1           0        0.000000    0.000000   -4.833333
 ---------------------------------------------------------------------
 Rotational constants (GHZ):           0.0000000          16.2711004          16.2711004
 Leave Link  202 at Sun May 22 21:08:02 2022, MaxMem=   104857600 cpu:               0.0 elap:               0.0
 (Enter /apps/software/g16/l301.exe)
 Standard basis: Aug-CC-pVQZ (5D, 7F)
 Ernie: Thresh=  0.10000D-02 Tol=  0.10000D-05 Strict=F.
 Ernie:  4 primitive shells out of 54 were deleted.
 There are    68 symmetry adapted cartesian basis functions of A1  symmetry.
 There are    18 symmetry adapted cartesian basis functions of A2  symmetry.
 There are    37 symmetry adapted cartesian basis functions of B1  symmetry.
 There are    37 symmetry adapted cartesian basis functions of B2  symmetry.
 There are    50 symmetry adapted basis functions of A1  symmetry.
 There are    16 symmetry adapted basis functions of A2  symmetry.
 There are    30 symmetry adapted basis functions of B1  symmetry.
 There are    30 symmetry adapted basis functions of B2  symmetry.
   126 basis functions,   180 primitive gaussians,   160 cartesian basis functions
     3 alpha electrons        3 beta electrons
       nuclear repulsion energy         0.4561872508 Hartrees.
 IExCor=    0 DFT=F Ex=HF Corr=None ExCW=0 ScaHFX=  1.000000
 ScaDFX=  1.000000  1.000000  1.000000  1.000000 ScalE2=  1.000000  1.000000
 IRadAn=      5 IRanWt=     -1 IRanGd=            0 ICorTp=0 IEmpDi=  4
 NAtoms=    2 NActive=    2 NUniq=    2 SFac= 1.00D+00 NAtFMM=   60 NAOKFM=F Big=F
 Integral buffers will be    131072 words long.
 Raffenetti 2 integral format.
 Two-electron integral symmetry is turned on.
 Leave Link  301 at Sun May 22 21:08:02 2022, MaxMem=   104857600 cpu:               0.1 elap:               0.1
 (Enter /apps/software/g16/l302.exe)
 NPDir=0 NMtPBC=     1 NCelOv=     1 NCel=       1 NClECP=     1 NCelD=      1
         NCelK=      1 NCelE2=     1 NClLst=     1 CellRange=     0.0.
 One-electron integrals computed using PRISM.
 One-electron integral symmetry used in STVInt
 NBasis=   126 RedAO= T EigKep=  1.27D-02  NBF=    50    16    30    30
 NBsUse=   126 1.00D-06 EigRej= -1.00D+00 NBFU=    50    16    30    30
 Leave Link  302 at Sun May 22 21:08:02 2022, MaxMem=   104857600 cpu:               0.1 elap:               0.1
 (Enter /apps/software/g16/l303.exe)
 DipDrv:  MaxL=1.
 Leave Link  303 at Sun May 22 21:08:02 2022, MaxMem=   104857600 cpu:               0.0 elap:               0.0
 (Enter /apps/software/g16/l401.exe)
 ExpMin= 1.88D-02 ExpMax= 2.39D+04 ExpMxC= 2.30D+02 IAcc=3 IRadAn=         5 AccDes= 0.00D+00
 Harris functional with IExCor=  205 and IRadAn=       5 diagonalized for initial guess.
 HarFok:  IExCor=  205 AccDes= 0.00D+00 IRadAn=         5 IDoV= 1 UseB2=F ITyADJ=14
 ICtDFT=  3500011 ScaDFX=  1.000000  1.000000  1.000000  1.000000
 FoFCou: FMM=F IPFlag=           0 FMFlag=      100000 FMFlg1=           0
         NFxFlg=           0 DoJE=T BraDBF=F KetDBF=T FulRan=T
         wScrn=  0.000000 ICntrl=       500 IOpCl=  0 I1Cent=   200000004 NGrid=           0
         NMat0=    1 NMatS0=      1 NMatT0=    0 NMatD0=    1 NMtDS0=    0 NMtDT0=    0
 Petite list used in FoFCou.
 Harris En= -24.9880850670136    
 JPrj=0 DoOrth=F DoCkMO=T.
 Mixing orbitals, IMix= 1 IMixAn=  0 NRI=1 NE=    3 Coef=  7.07106781D-01  7.07106781D-01
 Mixing orbitals, IMix= 1 IMixAn=  0 NRI=1 NE=    3 Coef= -7.07106781D-01  7.07106781D-01
 Initial guess orbital symmetries:
 Alpha Orbitals:
       Occupied  (SG) (SG) (SG)
       Virtual   (SG) (PI) (PI) (SG) (SG) (PI) (PI) (SG) (SG) (PI)
                 (PI) (DLTA) (DLTA) (PI) (PI) (SG) (PI) (PI) (SG)
                 (SG) (SG) (PI) (PI) (DLTA) (DLTA) (SG) (PI) (PI)
                 (DLTA) (DLTA) (PHI) (PHI) (SG) (DLTA) (DLTA) (PI)
                 (PI) (SG) (PI) (PI) (SG) (PI) (PI) (SG) (SG) (DLTA)
                 (DLTA) (PI) (PI) (SG) (?A) (DLTA) (?B) (?B) (DLTA)
                 (?B) (?B) (?A) (SG) (DLTA) (PHI) (PHI) (DLTA)
                 (PI) (PI) (SG) (SG) (PHI) (PHI) (DLTA) (DLTA)
                 (PI) (PI) (SG) (DLTA) (DLTA) (PI) (PI) (SG) (PI)
                 (PI) (SG) (PI) (PI) (SG) (DLTA) (DLTA) (PI) (PI)
                 (SG) (DLTA) (?C) (DLTA) (?B) (?B) (?B) (?B) (?C)
                 (?C) (DLTA) (?B) (?B) (DLTA) (?B) (?B) (SG) (PHI)
                 (PHI) (DLTA) (DLTA) (PI) (PI) (SG) (SG) (PI) (PI)
                 (SG) (DLTA) (DLTA) (PI) (PI) (SG) (SG)
 Beta  Orbitals:
       Occupied  (SG) (SG) (SG)
       Virtual   (SG) (PI) (PI) (SG) (SG) (PI) (PI) (SG) (SG) (PI)
                 (PI) (DLTA) (DLTA) (PI) (PI) (SG) (PI) (PI) (SG)
                 (SG) (SG) (PI) (PI) (DLTA) (DLTA) (SG) (PI) (PI)
                 (DLTA) (DLTA) (PHI) (PHI) (SG) (DLTA) (DLTA) (PI)
                 (PI) (SG) (PI) (PI) (SG) (PI) (PI) (SG) (SG) (DLTA)
                 (DLTA) (PI) (PI) (SG) (?A) (DLTA) (?B) (?B) (DLTA)
                 (?B) (?B) (?A) (SG) (DLTA) (PHI) (PHI) (DLTA)
                 (PI) (PI) (SG) (SG) (PHI) (PHI) (DLTA) (DLTA)
                 (PI) (PI) (SG) (DLTA) (DLTA) (PI) (PI) (SG) (PI)
                 (PI) (SG) (PI) (PI) (SG) (DLTA) (DLTA) (PI) (PI)
                 (SG) (DLTA) (?C) (DLTA) (?B) (?B) (?B) (?B) (?C)
                 (?C) (DLTA) (?B) (?B) (DLTA) (?B) (?B) (SG) (PHI)
                 (PHI) (DLTA) (DLTA) (PI) (PI) (SG) (SG) (PI) (PI)
                 (SG) (DLTA) (DLTA) (PI) (PI) (SG) (SG)
 The electronic state of the initial guess is 1-SG.
 Initial guess <Sx>= 0.0000 <Sy>= 0.0000 <Sz>= 0.0000 <S**2>= 1.0000 S= 0.6180
 Leave Link  401 at Sun May 22 21:08:02 2022, MaxMem=   104857600 cpu:               0.2 elap:               0.2
 (Enter /apps/software/g16/l502.exe)
 Keep R1 and R2 ints in memory in symmetry-blocked form, NReq=40143665.
 FoFCou: FMM=F IPFlag=           0 FMFlag=           0 FMFlg1=           0
         NFxFlg=           0 DoJE=F BraDBF=F KetDBF=F FulRan=T
         wScrn=  0.000000 ICntrl=       600 IOpCl=  0 I1Cent=           0 NGrid=           0
         NMat0=    1 NMatS0=   8001 NMatT0=    0 NMatD0=    1 NMtDS0=    0 NMtDT0=    0
 Petite list used in FoFCou.
 UHF open shell SCF:
 Using DIIS extrapolation, IDIIS=  1040.
 NGot=   104857600 LenX=    88563632 LenY=    88537591
 Requested convergence on RMS density matrix=1.00D-08 within 128 cycles.
 Requested convergence on MAX density matrix=1.00D-06.
 Requested convergence on             energy=1.00D-06.
 No special actions if energy rises.
 An orbital has undefined symmetry, so N**3 symmetry is turned off.

 Cycle   1  Pass 1  IDiag  1:
 E= -24.8181221297706    
 DIIS: error= 3.70D-02 at cycle   1 NSaved=   1.
 NSaved= 1 IEnMin= 1 EnMin= -24.8181221297706     IErMin= 1 ErrMin= 3.70D-02
 ErrMax= 3.70D-02  0.00D+00 EMaxC= 1.00D-01 BMatC= 1.47D-01 BMatP= 1.47D-01
 IDIUse=3 WtCom= 6.30D-01 WtEn= 3.70D-01
 Coeff-Com:  0.100D+01
 Coeff-En:   0.100D+01
 Coeff:      0.100D+01
 Gap=     0.092 Goal=   None    Shift=    0.000
 Gap=     0.095 Goal=   None    Shift=    0.000
 GapD=    0.092 DampG=0.500 DampE=0.500 DampFc=0.2500 IDamp=-1.
 Damping current iteration by 2.50D-01
 RMSDP=2.00D-03 MaxDP=9.36D-02              OVMax= 4.43D-01

 Cycle   2  Pass 1  IDiag  1:
 E= -24.8295458780715     Delta-E=       -0.011423748301 Rises=F Damp=T
 DIIS: error= 2.97D-02 at cycle   2 NSaved=   2.
 NSaved= 2 IEnMin= 2 EnMin= -24.8295458780715     IErMin= 2 ErrMin= 2.97D-02
 ErrMax= 2.97D-02  0.00D+00 EMaxC= 1.00D-01 BMatC= 8.58D-02 BMatP= 1.47D-01
 IDIUse=3 WtCom= 7.03D-01 WtEn= 2.97D-01
 Coeff-Com: -0.174D+01 0.274D+01
 Coeff-En:   0.000D+00 0.100D+01
 Coeff:     -0.122D+01 0.222D+01
 Gap=     0.056 Goal=   None    Shift=    0.000
 Gap=     0.047 Goal=   None    Shift=    0.000
 RMSDP=1.27D-03 MaxDP=6.02D-02 DE=-1.14D-02 OVMax= 4.68D-01

 Cycle   3  Pass 1  IDiag  1:
 E= -24.8444366914939     Delta-E=       -0.014890813422 Rises=F Damp=F
 DIIS: error= 4.00D-02 at cycle   3 NSaved=   3.
 NSaved= 3 IEnMin= 3 EnMin= -24.8444366914939     IErMin= 2 ErrMin= 2.97D-02
 ErrMax= 4.00D-02  0.00D+00 EMaxC= 1.00D-01 BMatC= 2.63D-02 BMatP= 8.58D-02
 IDIUse=3 WtCom= 6.00D-01 WtEn= 4.00D-01
 Coeff-Com: -0.115D+01 0.150D+01 0.649D+00
 Coeff-En:   0.000D+00 0.000D+00 0.100D+01
 Coeff:     -0.690D+00 0.901D+00 0.789D+00
 Gap=     0.123 Goal=   None    Shift=    0.000
 Gap=     0.091 Goal=   None    Shift=    0.000
 RMSDP=1.35D-03 MaxDP=6.00D-02 DE=-1.49D-02 OVMax= 4.13D-01

 Cycle   4  Pass 1  IDiag  1:
 E= -24.9022566800740     Delta-E=       -0.057819988580 Rises=F Damp=F
 DIIS: error= 4.37D-02 at cycle   4 NSaved=   4.
 NSaved= 4 IEnMin= 4 EnMin= -24.9022566800740     IErMin= 2 ErrMin= 2.97D-02
 ErrMax= 4.37D-02  0.00D+00 EMaxC= 1.00D-01 BMatC= 2.60D-02 BMatP= 2.63D-02
 IDIUse=3 WtCom= 5.63D-01 WtEn= 4.37D-01
 Coeff-Com: -0.190D+01 0.244D+01 0.923D+00-0.462D+00
 Coeff-En:   0.000D+00 0.000D+00 0.000D+00 0.100D+01
 Coeff:     -0.107D+01 0.138D+01 0.520D+00 0.176D+00
 Gap=     0.154 Goal=   None    Shift=    0.000
 Gap=     0.092 Goal=   None    Shift=    0.000
 RMSDP=8.58D-04 MaxDP=5.30D-02 DE=-5.78D-02 OVMax= 2.66D-01

 Cycle   5  Pass 1  IDiag  1:
 E= -24.9486372381742     Delta-E=       -0.046380558100 Rises=F Damp=F
 DIIS: error= 3.26D-02 at cycle   5 NSaved=   5.
 NSaved= 5 IEnMin= 5 EnMin= -24.9486372381742     IErMin= 2 ErrMin= 2.97D-02
 ErrMax= 3.26D-02  0.00D+00 EMaxC= 1.00D-01 BMatC= 3.26D-02 BMatP= 2.60D-02
 IDIUse=2 WtCom= 0.00D+00 WtEn= 1.00D+00
 Coeff-En:   0.000D+00 0.000D+00 0.000D+00 0.000D+00 0.100D+01
 Coeff:      0.000D+00 0.000D+00 0.000D+00 0.000D+00 0.100D+01
 Gap=     0.403 Goal=   None    Shift=    0.000
 Gap=     0.199 Goal=   None    Shift=    0.000
 RMSDP=1.26D-03 MaxDP=5.15D-02 DE=-4.64D-02 OVMax= 3.10D-01

 Cycle   6  Pass 1  IDiag  1:
 E= -25.0172187081395     Delta-E=       -0.068581469965 Rises=F Damp=F
 DIIS: error= 1.62D-02 at cycle   6 NSaved=   6.
 NSaved= 6 IEnMin= 6 EnMin= -25.0172187081395     IErMin= 6 ErrMin= 1.62D-02
 ErrMax= 1.62D-02  0.00D+00 EMaxC= 1.00D-01 BMatC= 1.13D-02 BMatP= 2.60D-02
 IDIUse=3 WtCom= 8.38D-01 WtEn= 1.62D-01
 Coeff-Com: -0.734D-01 0.676D-01 0.565D+00 0.701D+00-0.137D+01 0.111D+01
 Coeff-En:   0.000D+00 0.000D+00 0.000D+00 0.000D+00 0.000D+00 0.100D+01
 Coeff:     -0.615D-01 0.567D-01 0.473D+00 0.587D+00-0.115D+01 0.109D+01
 Gap=     0.384 Goal=   None    Shift=    0.000
 Gap=     0.195 Goal=   None    Shift=    0.000
 RMSDP=3.26D-04 MaxDP=2.15D-02 DE=-6.86D-02 OVMax= 4.92D-02

 Cycle   7  Pass 1  IDiag  1:
 E= -25.0240425386294     Delta-E=       -0.006823830490 Rises=F Damp=F
 DIIS: error= 1.23D-02 at cycle   7 NSaved=   7.
 NSaved= 7 IEnMin= 7 EnMin= -25.0240425386294     IErMin= 7 ErrMin= 1.23D-02
 ErrMax= 1.23D-02  0.00D+00 EMaxC= 1.00D-01 BMatC= 6.96D-03 BMatP= 1.13D-02
 IDIUse=3 WtCom= 8.77D-01 WtEn= 1.23D-01
 Coeff-Com: -0.842D-01 0.814D-01 0.576D+00 0.709D+00-0.139D+01 0.120D+01
 Coeff-Com: -0.889D-01
 Coeff-En:   0.000D+00 0.000D+00 0.000D+00 0.000D+00 0.000D+00 0.000D+00
 Coeff-En:   0.100D+01
 Coeff:     -0.738D-01 0.714D-01 0.505D+00 0.622D+00-0.122D+01 0.105D+01
 Coeff:      0.449D-01
 Gap=     0.366 Goal=   None    Shift=    0.000
 Gap=     0.188 Goal=   None    Shift=    0.000
 RMSDP=2.88D-05 MaxDP=1.51D-03 DE=-6.82D-03 OVMax= 6.83D-03

 Cycle   8  Pass 1  IDiag  1:
 E= -25.0233154188992     Delta-E=        0.000727119730 Rises=F Damp=F
 DIIS: error= 1.30D-02 at cycle   8 NSaved=   8.
 NSaved= 8 IEnMin= 7 EnMin= -25.0240425386294     IErMin= 7 ErrMin= 1.23D-02
 ErrMax= 1.30D-02  0.00D+00 EMaxC= 1.00D-01 BMatC= 7.47D-03 BMatP= 6.96D-03
 IDIUse=3 WtCom= 8.77D-01 WtEn= 1.23D-01
 Large coefficients: NSaved=  8 BigCof=   24.35 CofMax=   10.00 Det=-1.70D-07
 Inversion failed.  Reducing to  7 matrices.
 Large coefficients: NSaved=  7 BigCof=   24.25 CofMax=   10.00 Det=-1.70D-07
 Inversion failed.  Reducing to  6 matrices.
 Large coefficients: NSaved=  6 BigCof=   27.31 CofMax=   10.00 Det=-1.89D-07
 Inversion failed.  Reducing to  5 matrices.
 Large coefficients: NSaved=  5 BigCof=   35.56 CofMax=   10.00 Det=-1.83D-06
 Inversion failed.  Reducing to  4 matrices.
 Large coefficients: NSaved=  4 BigCof=   35.12 CofMax=   10.00 Det=-1.84D-06
 Inversion failed.  Reducing to  3 matrices.
 Large coefficients: NSaved=  3 BigCof=   15.70 CofMax=   10.00 Det=-8.34D-06
 Inversion failed.  Reducing to  2 matrices.
 Large coefficients: NSaved=  2 BigCof=   21.18 CofMax=   10.00 Det=-1.23D-05
 Coeff-Com:  0.212D+02-0.202D+02
 Coeff-En:   0.000D+00 0.100D+01
 Coeff:      0.186D+02-0.176D+02
 Gap=     0.576 Goal=   None    Shift=    0.000
 Gap=     0.334 Goal=   None    Shift=    0.000
 RMSDP=7.08D-04 MaxDP=4.45D-02 DE= 7.27D-04 OVMax= 1.30D-01

 Cycle   9  Pass 1  IDiag  1:
 E= -25.0325736032755     Delta-E=       -0.009258184376 Rises=F Damp=F
 DIIS: error= 1.70D-03 at cycle   9 NSaved=   3.
 NSaved= 3 IEnMin= 3 EnMin= -25.0325736032755     IErMin= 3 ErrMin= 1.70D-03
 ErrMax= 1.70D-03  0.00D+00 EMaxC= 1.00D-01 BMatC= 2.68D-04 BMatP= 6.96D-03
 IDIUse=3 WtCom= 9.83D-01 WtEn= 1.70D-02
 Coeff-Com: -0.742D+01 0.698D+01 0.144D+01
 Coeff-En:   0.000D+00 0.000D+00 0.100D+01
 Coeff:     -0.729D+01 0.686D+01 0.143D+01
 Gap=     0.479 Goal=   None    Shift=    0.000
 Gap=     0.333 Goal=   None    Shift=    0.000
 RMSDP=1.67D-04 MaxDP=1.03D-02 DE=-9.26D-03 OVMax= 1.83D-02

 Cycle  10  Pass 1  IDiag  1:
 E= -25.0329011249548     Delta-E=       -0.000327521679 Rises=F Damp=F
 DIIS: error= 6.08D-04 at cycle  10 NSaved=   4.
 NSaved= 4 IEnMin= 4 EnMin= -25.0329011249548     IErMin= 4 ErrMin= 6.08D-04
 ErrMax= 6.08D-04  0.00D+00 EMaxC= 1.00D-01 BMatC= 2.26D-05 BMatP= 2.68D-04
 IDIUse=3 WtCom= 9.94D-01 WtEn= 6.08D-03
 Coeff-Com:  0.133D+01-0.126D+01-0.491D+00 0.142D+01
 Coeff-En:   0.000D+00 0.000D+00 0.000D+00 0.100D+01
 Coeff:      0.132D+01-0.125D+01-0.488D+00 0.141D+01
 Gap=     0.474 Goal=   None    Shift=    0.000
 Gap=     0.335 Goal=   None    Shift=    0.000
 RMSDP=6.06D-05 MaxDP=3.83D-03 DE=-3.28D-04 OVMax= 6.67D-03

 Cycle  11  Pass 1  IDiag  1:
 E= -25.0329310397318     Delta-E=       -0.000029914777 Rises=F Damp=F
 DIIS: error= 1.78D-04 at cycle  11 NSaved=   5.
 NSaved= 5 IEnMin= 5 EnMin= -25.0329310397318     IErMin= 5 ErrMin= 1.78D-04
 ErrMax= 1.78D-04  0.00D+00 EMaxC= 1.00D-01 BMatC= 2.11D-06 BMatP= 2.26D-05
 IDIUse=3 WtCom= 9.98D-01 WtEn= 1.78D-03
 Coeff-Com:  0.438D+00-0.407D+00 0.992D-02-0.535D+00 0.149D+01
 Coeff-En:   0.000D+00 0.000D+00 0.000D+00 0.000D+00 0.100D+01
 Coeff:      0.437D+00-0.406D+00 0.990D-02-0.534D+00 0.149D+01
 Gap=     0.474 Goal=   None    Shift=    0.000
 Gap=     0.335 Goal=   None    Shift=    0.000
 RMSDP=2.10D-05 MaxDP=1.33D-03 DE=-2.99D-05 OVMax= 1.76D-03

 Cycle  12  Pass 1  IDiag  1:
 E= -25.0329336845424     Delta-E=       -0.000002644811 Rises=F Damp=F
 DIIS: error= 2.52D-05 at cycle  12 NSaved=   6.
 NSaved= 6 IEnMin= 6 EnMin= -25.0329336845424     IErMin= 6 ErrMin= 2.52D-05
 ErrMax= 2.52D-05  0.00D+00 EMaxC= 1.00D-01 BMatC= 6.39D-08 BMatP= 2.11D-06
 IDIUse=1 WtCom= 1.00D+00 WtEn= 0.00D+00
 Coeff-Com: -0.840D-01 0.776D-01-0.393D-03 0.125D+00-0.471D+00 0.135D+01
 Coeff:     -0.840D-01 0.776D-01-0.393D-03 0.125D+00-0.471D+00 0.135D+01
 Gap=     0.474 Goal=   None    Shift=    0.000
 Gap=     0.335 Goal=   None    Shift=    0.000
 RMSDP=3.32D-06 MaxDP=2.38D-04 DE=-2.64D-06 OVMax= 2.54D-04

 Cycle  13  Pass 1  IDiag  1:
 E= -25.0329337567793     Delta-E=       -0.000000072237 Rises=F Damp=F
 DIIS: error= 7.97D-06 at cycle  13 NSaved=   7.
 NSaved= 7 IEnMin= 7 EnMin= -25.0329337567793     IErMin= 7 ErrMin= 7.97D-06
 ErrMax= 7.97D-06  0.00D+00 EMaxC= 1.00D-01 BMatC= 3.21D-09 BMatP= 6.39D-08
 IDIUse=1 WtCom= 1.00D+00 WtEn= 0.00D+00
 Coeff-Com:  0.157D-01-0.145D-01-0.561D-03-0.254D-01 0.111D+00-0.409D+00
 Coeff-Com:  0.132D+01
 Coeff:      0.157D-01-0.145D-01-0.561D-03-0.254D-01 0.111D+00-0.409D+00
 Coeff:      0.132D+01
 Gap=     0.474 Goal=   None    Shift=    0.000
 Gap=     0.335 Goal=   None    Shift=    0.000
 RMSDP=4.90D-07 MaxDP=1.99D-05 DE=-7.22D-08 OVMax= 6.36D-05

 Cycle  14  Pass 1  IDiag  1:
 E= -25.0329337612781     Delta-E=       -0.000000004499 Rises=F Damp=F
 DIIS: error= 4.97D-06 at cycle  14 NSaved=   8.
 NSaved= 8 IEnMin= 8 EnMin= -25.0329337612781     IErMin= 8 ErrMin= 4.97D-06
 ErrMax= 4.97D-06  0.00D+00 EMaxC= 1.00D-01 BMatC= 9.84D-10 BMatP= 3.21D-09
 IDIUse=1 WtCom= 1.00D+00 WtEn= 0.00D+00
 Coeff-Com: -0.103D-01 0.954D-02 0.236D-03 0.226D-01-0.101D+00 0.403D+00
 Coeff-Com: -0.185D+01 0.253D+01
 Coeff:     -0.103D-01 0.954D-02 0.236D-03 0.226D-01-0.101D+00 0.403D+00
 Coeff:     -0.185D+01 0.253D+01
 Gap=     0.474 Goal=   None    Shift=    0.000
 Gap=     0.335 Goal=   None    Shift=    0.000
 RMSDP=4.67D-07 MaxDP=2.00D-05 DE=-4.50D-09 OVMax= 7.37D-05

 Cycle  15  Pass 1  IDiag  1:
 E= -25.0329337634260     Delta-E=       -0.000000002148 Rises=F Damp=F
 DIIS: error= 9.53D-07 at cycle  15 NSaved=   9.
 NSaved= 9 IEnMin= 9 EnMin= -25.0329337634260     IErMin= 9 ErrMin= 9.53D-07
 ErrMax= 9.53D-07  0.00D+00 EMaxC= 1.00D-01 BMatC= 4.87D-11 BMatP= 9.84D-10
 IDIUse=1 WtCom= 1.00D+00 WtEn= 0.00D+00
 Coeff-Com:  0.117D-02-0.107D-02 0.245D-03-0.729D-02 0.306D-01-0.123D+00
 Coeff-Com:  0.640D+00-0.108D+01 0.154D+01
 Coeff:      0.117D-02-0.107D-02 0.245D-03-0.729D-02 0.306D-01-0.123D+00
 Coeff:      0.640D+00-0.108D+01 0.154D+01
 Gap=     0.474 Goal=   None    Shift=    0.000
 Gap=     0.335 Goal=   None    Shift=    0.000
 RMSDP=9.23D-08 MaxDP=4.26D-06 DE=-2.15D-09 OVMax= 1.59D-05

 Cycle  16  Pass 1  IDiag  1:
 E= -25.0329337635130     Delta-E=       -0.000000000087 Rises=F Damp=F
 DIIS: error= 1.10D-07 at cycle  16 NSaved=  10.
 NSaved=10 IEnMin=10 EnMin= -25.0329337635130     IErMin=10 ErrMin= 1.10D-07
 ErrMax= 1.10D-07  0.00D+00 EMaxC= 1.00D-01 BMatC= 1.15D-12 BMatP= 4.87D-11
 IDIUse=1 WtCom= 1.00D+00 WtEn= 0.00D+00
 Coeff-Com: -0.826D-04 0.743D-04-0.845D-04 0.192D-02-0.796D-02 0.324D-01
 Coeff-Com: -0.181D+00 0.328D+00-0.605D+00 0.143D+01
 Coeff:     -0.826D-04 0.743D-04-0.845D-04 0.192D-02-0.796D-02 0.324D-01
 Coeff:     -0.181D+00 0.328D+00-0.605D+00 0.143D+01
 Gap=     0.474 Goal=   None    Shift=    0.000
 Gap=     0.335 Goal=   None    Shift=    0.000
 RMSDP=1.27D-08 MaxDP=6.76D-07 DE=-8.71D-11 OVMax= 1.36D-06

 Cycle  17  Pass 1  IDiag  1:
 E= -25.0329337635142     Delta-E=       -0.000000000001 Rises=F Damp=F
 DIIS: error= 2.15D-08 at cycle  17 NSaved=  11.
 NSaved=11 IEnMin=11 EnMin= -25.0329337635142     IErMin=11 ErrMin= 2.15D-08
 ErrMax= 2.15D-08  0.00D+00 EMaxC= 1.00D-01 BMatC= 2.79D-14 BMatP= 1.15D-12
 IDIUse=1 WtCom= 1.00D+00 WtEn= 0.00D+00
 Coeff-Com:  0.155D-04-0.137D-04 0.247D-04-0.553D-03 0.229D-02-0.927D-02
 Coeff-Com:  0.523D-01-0.955D-01 0.182D+00-0.509D+00 0.138D+01
 Coeff:      0.155D-04-0.137D-04 0.247D-04-0.553D-03 0.229D-02-0.927D-02
 Coeff:      0.523D-01-0.955D-01 0.182D+00-0.509D+00 0.138D+01
 Gap=     0.474 Goal=   None    Shift=    0.000
 Gap=     0.335 Goal=   None    Shift=    0.000
 RMSDP=1.85D-09 MaxDP=1.08D-07 DE=-1.20D-12 OVMax= 2.06D-07

 SCF Done:  E(UHF) =  -25.0329337635     A.U. after   17 cycles
            NFock= 17  Conv=0.19D-08     -V/T= 2.0000
 <Sx>= 0.0000 <Sy>= 0.0000 <Sz>= 0.0000 <S**2>= 1.0113 S= 0.6231
 <L.S>=  0.00000000000    
 KE= 2.503233911999D+01 PE=-5.881441641770D+01 EE= 8.292956283407D+00
 Annihilation of the first spin contaminant:
 S**2 before annihilation     1.0113,   after     0.0896
 Leave Link  502 at Sun May 22 21:08:06 2022, MaxMem=   104857600 cpu:               3.5 elap:               3.6
 (Enter /apps/software/g16/l601.exe)
 Copying SCF densities to generalized density rwf, IOpCl= 1 IROHF=0.

 **********************************************************************

            Population analysis using the SCF density.

 **********************************************************************

 Orbital symmetries:
 Alpha Orbitals:
       Occupied  (SG) (SG) (SG)
       Virtual   (PI) (PI) (SG) (SG) (SG) (PI) (PI) (SG) (DLTA)
                 (DLTA) (PI) (PI) (SG) (PI) (PI) (SG) (PI) (PI)
                 (SG) (SG) (SG) (PHI) (PHI) (DLTA) (DLTA) (PI)
                 (PI) (SG) (DLTA) (DLTA) (PI) (PI) (SG) (DLTA)
                 (DLTA) (PI) (PI) (SG) (PI) (PI) (SG) (PI) (PI)
                 (SG) (?A) (?A) (PHI) (PHI) (DLTA) (DLTA) (PI)
                 (PI) (SG) (DLTA) (DLTA) (SG) (PHI) (PHI) (PI)
                 (PI) (DLTA) (DLTA) (SG) (PI) (PI) (SG) (PHI) (PHI)
                 (DLTA) (DLTA) (PI) (PI) (SG) (SG) (DLTA) (DLTA)
                 (PI) (PI) (SG) (PI) (PI) (SG) (PI) (PI) (SG) (?A)
                 (?A) (PHI) (PHI) (DLTA) (DLTA) (DLTA) (DLTA) (PI)
                 (PI) (SG) (PI) (PI) (SG) (PHI) (PHI) (DLTA) (DLTA)
                 (PI) (PI) (SG) (PHI) (PHI) (DLTA) (DLTA) (PI)
                 (PI) (SG) (SG) (PI) (PI) (SG) (DLTA) (DLTA) (PI)
                 (PI) (SG) (SG)
 Beta  Orbitals:
       Occupied  (SG) (SG) (SG)
       Virtual   (SG) (PI) (PI) (SG) (SG) (PI) (PI) (SG) (PI) (PI)
                 (DLTA) (DLTA) (SG) (PI) (PI) (SG) (SG) (PI) (PI)
                 (SG) (SG) (PHI) (PHI) (DLTA) (DLTA) (PI) (PI)
                 (SG) (PI) (PI) (DLTA) (DLTA) (SG) (DLTA) (DLTA)
                 (PI) (PI) (SG) (PI) (PI) (SG) (SG) (PI) (PI) (?A)
                 (?A) (PHI) (PHI) (DLTA) (DLTA) (SG) (PI) (PI)
                 (SG) (PI) (PI) (DLTA) (DLTA) (SG) (PHI) (PHI)
                 (DLTA) (DLTA) (PI) (PI) (SG) (PHI) (PHI) (DLTA)
                 (DLTA) (PI) (PI) (SG) (SG) (DLTA) (DLTA) (PI)
                 (PI) (SG) (PI) (PI) (SG) (PI) (PI) (SG) (?A) (?A)
                 (PHI) (PHI) (DLTA) (DLTA) (PI) (PI) (SG) (DLTA)
                 (DLTA) (PI) (PI) (SG) (PHI) (PHI) (DLTA) (DLTA)
                 (PI) (PI) (SG) (PHI) (PHI) (DLTA) (DLTA) (PI)
                 (PI) (SG) (SG) (PI) (PI) (SG) (DLTA) (DLTA) (PI)
                 (PI) (SG) (SG)
 The electronic state is 1-SG.
 Alpha  occ. eigenvalues --   -7.68632  -0.49805  -0.44625
 Alpha virt. eigenvalues --    0.02744   0.02744   0.04234   0.05073   0.07189
 Alpha virt. eigenvalues --    0.08427   0.08427   0.12013   0.14575   0.14575
 Alpha virt. eigenvalues --    0.14583   0.14583   0.14631   0.18301   0.18301
 Alpha virt. eigenvalues --    0.23287   0.32055   0.32055   0.35400   0.35994
 Alpha virt. eigenvalues --    0.37036   0.46181   0.46181   0.47115   0.47115
 Alpha virt. eigenvalues --    0.47682   0.47682   0.48254   0.50168   0.50168
 Alpha virt. eigenvalues --    0.52315   0.52315   0.54558   0.61505   0.61505
 Alpha virt. eigenvalues --    0.62032   0.62032   0.63779   0.74761   0.74761
 Alpha virt. eigenvalues --    0.79549   1.06038   1.06038   1.10850   1.36974
 Alpha virt. eigenvalues --    1.36974   1.38446   1.38446   1.39490   1.39490
 Alpha virt. eigenvalues --    1.40152   1.40152   1.40380   1.41596   1.41596
 Alpha virt. eigenvalues --    1.42496   1.43979   1.43979   1.45411   1.45411
 Alpha virt. eigenvalues --    1.46372   1.46372   1.47644   1.47906   1.47906
 Alpha virt. eigenvalues --    1.49474   1.56050   1.56050   1.56070   1.56070
 Alpha virt. eigenvalues --    1.56158   1.56158   1.56377   1.58738   2.44968
 Alpha virt. eigenvalues --    2.44968   2.45142   2.45142   2.45764   2.54939
 Alpha virt. eigenvalues --    2.54939   2.58343   3.74441   3.74441   3.78980
 Alpha virt. eigenvalues --    3.92036   3.92036   3.94570   3.94570   3.96051
 Alpha virt. eigenvalues --    3.96051   3.96497   3.96497   3.97505   3.97505
 Alpha virt. eigenvalues --    3.97888   4.00147   4.00147   4.02494   4.08877
 Alpha virt. eigenvalues --    4.08877   4.12142   4.12142   4.14198   4.14198
 Alpha virt. eigenvalues --    4.15312   6.55293   6.55293   6.55298   6.55298
 Alpha virt. eigenvalues --    6.55315   6.55315   6.55351   7.39112   7.92940
 Alpha virt. eigenvalues --    7.92940   7.95361   8.38855   8.38855   8.38952
 Alpha virt. eigenvalues --    8.38952   8.39471  13.05177
  Beta  occ. eigenvalues --   -7.70146  -0.54531  -0.31878
  Beta virt. eigenvalues --    0.01655   0.02366   0.02366   0.05228   0.06707
  Beta virt. eigenvalues --    0.07728   0.07728   0.11360   0.14428   0.14428
  Beta virt. eigenvalues --    0.14567   0.14567   0.14842   0.19942   0.19942
  Beta virt. eigenvalues --    0.24364   0.27699   0.31239   0.31239   0.34548
  Beta virt. eigenvalues --    0.46046   0.46188   0.46188   0.46710   0.46710
  Beta virt. eigenvalues --    0.47035   0.47035   0.48221   0.49286   0.49286
  Beta virt. eigenvalues --    0.50058   0.50058   0.51629   0.62845   0.62845
  Beta virt. eigenvalues --    0.63312   0.63312   0.65029   0.81448   0.81448
  Beta virt. eigenvalues --    0.85505   1.02932   1.05100   1.05100   1.37002
  Beta virt. eigenvalues --    1.37002   1.37930   1.37930   1.38594   1.38594
  Beta virt. eigenvalues --    1.38934   1.38987   1.38987   1.39207   1.40524
  Beta virt. eigenvalues --    1.40524   1.41107   1.41107   1.42645   1.43914
  Beta virt. eigenvalues --    1.43914   1.44744   1.44744   1.45276   1.45276
  Beta virt. eigenvalues --    1.46445   1.57308   1.57308   1.57327   1.57327
  Beta virt. eigenvalues --    1.57403   1.57403   1.57607   1.69894   2.48916
  Beta virt. eigenvalues --    2.48916   2.49087   2.49087   2.49752   2.62434
  Beta virt. eigenvalues --    2.62434   2.65648   3.73722   3.73722   3.73950
  Beta virt. eigenvalues --    3.91967   3.91967   3.93480   3.93480   3.94560
  Beta virt. eigenvalues --    3.94560   3.95211   3.95211   3.95459   3.95602
  Beta virt. eigenvalues --    3.95602   3.96483   3.96483   3.97725   4.08609
  Beta virt. eigenvalues --    4.08609   4.09997   4.09997   4.10862   4.10862
  Beta virt. eigenvalues --    4.11564   6.58177   6.58177   6.58183   6.58183
  Beta virt. eigenvalues --    6.58199   6.58199   6.58235   7.47317   7.98740
  Beta virt. eigenvalues --    7.98740   8.01134   8.43079   8.43079   8.43175
  Beta virt. eigenvalues --    8.43175   8.43691  13.03999
          Condensed to atoms (all electrons):
               1          2
     1  B    4.999799   0.000118
     2  H    0.000118   0.999964
          Atomic-Atomic Spin Densities.
               1          2
     1  B   -0.999923  -0.000018
     2  H   -0.000018   0.999960
 Mulliken charges and spin densities:
               1          2
     1  B    0.000083  -0.999942
     2  H   -0.000083   0.999942
 Sum of Mulliken charges =  -0.00000   0.00000
 Mulliken charges and spin densities with hydrogens summed into heavy atoms:
               1          2
     1  B   -0.000000   0.000000
 Electronic spatial extent (au):  <R**2>=            118.9374
 Charge=             -0.0000 electrons
 Dipole moment (field-independent basis, Debye):
    X=              0.0000    Y=             -0.0000    Z=              0.0063  Tot=              0.0063
 Quadrupole moment (field-independent basis, Debye-Ang):
   XX=             -7.3044   YY=             -7.3044   ZZ=            -10.7161
   XY=              0.0000   XZ=              0.0000   YZ=             -0.0000
 Traceless Quadrupole moment (field-independent basis, Debye-Ang):
   XX=              1.1372   YY=              1.1372   ZZ=             -2.2745
   XY=              0.0000   XZ=              0.0000   YZ=             -0.0000
 Octapole moment (field-independent basis, Debye-Ang**2):
  XXX=              0.0000  YYY=              0.0000  ZZZ=             -7.0675  XYY=              0.0000
  XXY=             -0.0000  XXZ=              0.7534  XZZ=              0.0000  YZZ=             -0.0000
  YYZ=              0.7534  XYZ=             -0.0000
 Hexadecapole moment (field-independent basis, Debye-Ang**3):
 XXXX=            -10.7224 YYYY=            -10.7224 ZZZZ=           -265.0929 XXXY=              0.0000
 XXXZ=              0.0000 YYYX=              0.0000 YYYZ=             -0.0000 ZZZX=              0.0000
 ZZZY=              0.0000 XXYY=             -3.5741 XXZZ=            -42.3886 YYZZ=            -42.3886
 XXYZ=              0.0000 YYXZ=              0.0000 ZZXY=              0.0000
 N-N= 4.561872507931D-01 E-N=-5.881441641664D+01  KE= 2.503233911999D+01
 Symmetry A1   KE= 2.503233911999D+01
 Symmetry A2   KE= 6.376217007255D-30
 Symmetry B1   KE= 2.153401841346D-29
 Symmetry B2   KE= 2.341633828581D-29
 Symmetry A1   SP= 1.196237664534D-14
 Symmetry A2   SP= 7.912323612009D-31
 Symmetry B1   SP=-1.195205039747D-30
 Symmetry B2   SP= 1.333680139228D-30
                          Isotropic Fermi Contact Couplings
        Atom                 a.u.       MegaHertz       Gauss      10(-4) cm-1
     1  B(11)             -0.00233      -1.66866      -0.59542      -0.55661
     2  H(1)               0.29855     667.24428     238.08935     222.56873
 --------------------------------------------------------
       Center         ----  Spin Dipole Couplings  ----
                      3XX-RR        3YY-RR        3ZZ-RR
 --------------------------------------------------------
     1   Atom        0.330950      0.330950     -0.661899
     2   Atom        0.000907      0.000907     -0.001813
 --------------------------------------------------------
                        XY            XZ            YZ
 --------------------------------------------------------
     1   Atom        0.000000      0.000000      0.000000
     2   Atom        0.000000      0.000000      0.000000
 --------------------------------------------------------


 ---------------------------------------------------------------------------------
              Anisotropic Spin Dipole Couplings in Principal Axis System
 ---------------------------------------------------------------------------------

       Atom             a.u.   MegaHertz   Gauss  10(-4) cm-1        Axes

              Baa    -0.6619  -113.327   -40.438   -37.802  0.0000  0.0000  1.0000
     1 B(11)  Bbb     0.3309    56.663    20.219    18.901 -0.0000  1.0000  0.0000
              Bcc     0.3309    56.663    20.219    18.901  1.0000  0.0000  0.0000
 
              Baa    -0.0018    -0.968    -0.345    -0.323  0.0000  0.0000  1.0000
     2 H(1)   Bbb     0.0009     0.484     0.173     0.161  1.0000  0.0000  0.0000
              Bcc     0.0009     0.484     0.173     0.161 -0.0000  1.0000  0.0000
 

 ---------------------------------------------------------------------------------

 No NMR shielding tensors so no spin-rotation constants.
 Leave Link  601 at Sun May 22 21:08:06 2022, MaxMem=   104857600 cpu:               0.2 elap:               0.2
 (Enter /apps/software/g16/l801.exe)
 Range of M.O.s used for correlation:     1   126
 NBasis=   126 NAE=     3 NBE=     3 NFC=     0 NFV=     0
 NROrb=    126 NOA=     3 NOB=     3 NVA=   123 NVB=   123
 Leave Link  801 at Sun May 22 21:08:06 2022, MaxMem=   104857600 cpu:               0.0 elap:               0.0
 (Enter /apps/software/g16/l914.exe)
 UHF ground state
 Doing stability rather than CIS.
 Keep R1 and R2 ints in memory in symmetry-blocked form, NReq=40144005.
 FoFCou: FMM=F IPFlag=           0 FMFlag=           0 FMFlg1=           0
         NFxFlg=           0 DoJE=F BraDBF=F KetDBF=F FulRan=T
         wScrn=  0.000000 ICntrl=       600 IOpCl=  0 I1Cent=           0 NGrid=           0
         NMat0=    1 NMatS0=   8001 NMatT0=    0 NMatD0=    1 NMtDS0=    0 NMtDT0=    0
 Petite list used in FoFCou.
 MDV=   104857600 DFT=F DoStab=T Mixed=F DoRPA=F DoScal=F NonHer=F
 Making orbital integer symmetry assigments:
 Orbital symmetries:
 Alpha Orbitals:
       Occupied  (SG) (SG) (SG)
       Virtual   (PI) (PI) (SG) (SG) (SG) (PI) (PI) (SG) (DLTA)
                 (DLTA) (PI) (PI) (SG) (PI) (PI) (SG) (PI) (PI)
                 (SG) (SG) (SG) (PHI) (PHI) (DLTA) (DLTA) (PI)
                 (PI) (SG) (DLTA) (DLTA) (PI) (PI) (SG) (DLTA)
                 (DLTA) (PI) (PI) (SG) (PI) (PI) (SG) (PI) (PI)
                 (SG) (?A) (?A) (PHI) (PHI) (DLTA) (DLTA) (PI)
                 (PI) (SG) (DLTA) (DLTA) (SG) (PHI) (PHI) (PI)
                 (PI) (DLTA) (DLTA) (SG) (PI) (PI) (SG) (PHI) (PHI)
                 (DLTA) (DLTA) (PI) (PI) (SG) (SG) (DLTA) (DLTA)
                 (PI) (PI) (SG) (PI) (PI) (SG) (PI) (PI) (SG) (?A)
                 (?A) (PHI) (PHI) (DLTA) (DLTA) (DLTA) (DLTA) (PI)
                 (PI) (SG) (PI) (PI) (SG) (PHI) (PHI) (DLTA) (DLTA)
                 (PI) (PI) (SG) (PHI) (PHI) (DLTA) (DLTA) (PI)
                 (PI) (SG) (SG) (PI) (PI) (SG) (DLTA) (DLTA) (PI)
                 (PI) (SG) (SG)
 Beta  Orbitals:
       Occupied  (SG) (SG) (SG)
       Virtual   (SG) (PI) (PI) (SG) (SG) (PI) (PI) (SG) (PI) (PI)
                 (DLTA) (DLTA) (SG) (PI) (PI) (SG) (SG) (PI) (PI)
                 (SG) (SG) (PHI) (PHI) (DLTA) (DLTA) (PI) (PI)
                 (SG) (PI) (PI) (DLTA) (DLTA) (SG) (DLTA) (DLTA)
                 (PI) (PI) (SG) (PI) (PI) (SG) (SG) (PI) (PI) (?A)
                 (?A) (PHI) (PHI) (DLTA) (DLTA) (SG) (PI) (PI)
                 (SG) (PI) (PI) (DLTA) (DLTA) (SG) (PHI) (PHI)
                 (DLTA) (DLTA) (PI) (PI) (SG) (PHI) (PHI) (DLTA)
                 (DLTA) (PI) (PI) (SG) (SG) (DLTA) (DLTA) (PI)
                 (PI) (SG) (PI) (PI) (SG) (PI) (PI) (SG) (?A) (?A)
                 (PHI) (PHI) (DLTA) (DLTA) (PI) (PI) (SG) (DLTA)
                 (DLTA) (PI) (PI) (SG) (PHI) (PHI) (DLTA) (DLTA)
                 (PI) (PI) (SG) (PHI) (PHI) (DLTA) (DLTA) (PI)
                 (PI) (SG) (SG) (PI) (PI) (SG) (DLTA) (DLTA) (PI)
                 (PI) (SG) (SG)
    12 initial guesses have been made.
 Convergence on wavefunction:    0.001000000000000
 Davidson Disk Diagonalization:  ConvIn= 1.00D-03 SkipCon=T Conv= 1.00D-03.
 Max sub-space:  1476 roots to seek:    12 dimension of matrix:          738
 Iteration     1 Dimension    12 NMult     0 NNew     12
 CISAX will form    12 AO SS matrices at one time.
 NMat=    12 NSing=    12 JSym2X= 2.
 Excitation Energies [eV] at current iteration:
 Root      1 :     0.479536828970590
 Root      2 :     0.479536828970596
 Root      3 :     1.267855633987395
 Root      4 :     1.267855633987443
 Root      5 :     5.528051810053942
 Root      6 :     6.563366852680248
 Root      7 :     6.563366852680279
 Root      8 :     6.584032453305069
 Root      9 :    11.609167871975444
 Root     10 :    11.609167871975451
 Root     11 :    13.701754677839615
 Root     12 :    13.701754677839665
 Iteration     2 Dimension    24 NMult    12 NNew     12
 CISAX will form    12 AO SS matrices at one time.
 NMat=    12 NSing=    12 JSym2X= 2.
 New state      1 was old state      2
 Root      1 not converged, maximum delta is    0.233528762981839
 Excitation Energies [eV] at current iteration:
 Root      1 :     0.005936849335753   Change is   -0.473599979634842
 Root      2 :     0.005936849335783   Change is   -0.473599979634806
 Root      3 :     0.832168751279053   Change is   -0.435686882708342
 Root      4 :     0.832168751279107   Change is   -0.435686882708336
 Root      5 :     5.224174768721384   Change is   -0.303877041332558
 Root      6 :     6.121714205586437   Change is   -0.462318247718632
 Root      7 :     6.488588539537791   Change is   -0.074778313142457
 Root      8 :     6.488588539537815   Change is   -0.074778313142463
 Root      9 :     8.496077316039505   Change is   -3.113090555935940
 Root     10 :     8.496077316039528   Change is   -3.113090555935922
 Root     11 :    12.027222437280788   Change is   -1.674532240558827
 Root     12 :    12.027222437280848   Change is   -1.674532240558815
 Iteration     3 Dimension    27 NMult    24 NNew      3
 CISAX will form     3 AO SS matrices at one time.
 NMat=     3 NSing=     3 JSym2X= 2.
 Root      1 not converged, maximum delta is    0.198624840516620
 Excitation Energies [eV] at current iteration:
 Root      1 :     0.000118836232604   Change is   -0.005818013103149
 Root      2 :     0.000118837284916   Change is   -0.005818012050868
 Root      3 :     0.819508703307446   Change is   -0.012660047971607
 Iteration     4 Dimension    30 NMult    27 NNew      3
 CISAX will form     3 AO SS matrices at one time.
 NMat=     3 NSing=     3 JSym2X= 2.
 Root      1 has converged.
 Excitation Energies [eV] at current iteration:
 Root      1 :     0.000057470776896   Change is   -0.000061365455709
 Root      2 :     0.000057471197870   Change is   -0.000061366087046
 Root      3 :     0.819354190018502   Change is   -0.000154513288944
 Convergence achieved on expansion vectors.
 ***********************************************************************
 Stability analysis using <AA,BB:AA,BB> singles matrix:
 ***********************************************************************
 1PDM for each excited state written to RWF  633
 Ground to excited state transition densities written to RWF  633

 Eigenvectors of the stability matrix:
 
 Excited state symmetry could not be determined.
 Eigenvector   1:  2.272-?Sym  Eigenvalue= 0.0000021  <S**2>=1.041
      3B ->  5B       -0.11446
      3B ->  6B        0.67562
      3B ->  9B        0.17436
      3B -> 10B       -0.63011
      3B -> 22B       -0.27689
 The wavefunction is stable under the perturbations considered.
 Leave Link  914 at Sun May 22 21:08:10 2022, MaxMem=   104857600 cpu:               3.6 elap:               3.6
 (Enter /apps/software/g16/l508.exe)
 The wavefunction is already stable.
 Leave Link  508 at Sun May 22 21:08:10 2022, MaxMem=   104857600 cpu:               0.0 elap:               0.0
 (Enter /apps/software/g16/l601.exe)
 Copying SCF densities to generalized density rwf, IOpCl= 1 IROHF=0.

 **********************************************************************

            Population analysis using the SCF density.

 **********************************************************************

 Orbital symmetries:
 Alpha Orbitals:
       Occupied  (SG) (SG) (SG)
       Virtual   (PI) (PI) (SG) (SG) (SG) (PI) (PI) (SG) (DLTA)
                 (DLTA) (PI) (PI) (SG) (PI) (PI) (SG) (PI) (PI)
                 (SG) (SG) (SG) (PHI) (PHI) (DLTA) (DLTA) (PI)
                 (PI) (SG) (DLTA) (DLTA) (PI) (PI) (SG) (DLTA)
                 (DLTA) (PI) (PI) (SG) (PI) (PI) (SG) (PI) (PI)
                 (SG) (?A) (?A) (PHI) (PHI) (DLTA) (DLTA) (PI)
                 (PI) (SG) (DLTA) (DLTA) (SG) (PHI) (PHI) (PI)
                 (PI) (DLTA) (DLTA) (SG) (PI) (PI) (SG) (PHI) (PHI)
                 (DLTA) (DLTA) (PI) (PI) (SG) (SG) (DLTA) (DLTA)
                 (PI) (PI) (SG) (PI) (PI) (SG) (PI) (PI) (SG) (?A)
                 (?A) (PHI) (PHI) (DLTA) (DLTA) (DLTA) (DLTA) (PI)
                 (PI) (SG) (PI) (PI) (SG) (PHI) (PHI) (DLTA) (DLTA)
                 (PI) (PI) (SG) (PHI) (PHI) (DLTA) (DLTA) (PI)
                 (PI) (SG) (SG) (PI) (PI) (SG) (DLTA) (DLTA) (PI)
                 (PI) (SG) (SG)
 Beta  Orbitals:
       Occupied  (SG) (SG) (SG)
       Virtual   (SG) (PI) (PI) (SG) (SG) (PI) (PI) (SG) (PI) (PI)
                 (DLTA) (DLTA) (SG) (PI) (PI) (SG) (SG) (PI) (PI)
                 (SG) (SG) (PHI) (PHI) (DLTA) (DLTA) (PI) (PI)
                 (SG) (PI) (PI) (DLTA) (DLTA) (SG) (DLTA) (DLTA)
                 (PI) (PI) (SG) (PI) (PI) (SG) (SG) (PI) (PI) (?A)
                 (?A) (PHI) (PHI) (DLTA) (DLTA) (SG) (PI) (PI)
                 (SG) (PI) (PI) (DLTA) (DLTA) (SG) (PHI) (PHI)
                 (DLTA) (DLTA) (PI) (PI) (SG) (PHI) (PHI) (DLTA)
                 (DLTA) (PI) (PI) (SG) (SG) (DLTA) (DLTA) (PI)
                 (PI) (SG) (PI) (PI) (SG) (PI) (PI) (SG) (?A) (?A)
                 (PHI) (PHI) (DLTA) (DLTA) (PI) (PI) (SG) (DLTA)
                 (DLTA) (PI) (PI) (SG) (PHI) (PHI) (DLTA) (DLTA)
                 (PI) (PI) (SG) (PHI) (PHI) (DLTA) (DLTA) (PI)
                 (PI) (SG) (SG) (PI) (PI) (SG) (DLTA) (DLTA) (PI)
                 (PI) (SG) (SG)
 The electronic state is 1-SG.
 Alpha  occ. eigenvalues --   -7.68632  -0.49805  -0.44625
 Alpha virt. eigenvalues --    0.02744   0.02744   0.04234   0.05073   0.07189
 Alpha virt. eigenvalues --    0.08427   0.08427   0.12013   0.14575   0.14575
 Alpha virt. eigenvalues --    0.14583   0.14583   0.14631   0.18301   0.18301
 Alpha virt. eigenvalues --    0.23287   0.32055   0.32055   0.35400   0.35994
 Alpha virt. eigenvalues --    0.37036   0.46181   0.46181   0.47115   0.47115
 Alpha virt. eigenvalues --    0.47682   0.47682   0.48254   0.50168   0.50168
 Alpha virt. eigenvalues --    0.52315   0.52315   0.54558   0.61505   0.61505
 Alpha virt. eigenvalues --    0.62032   0.62032   0.63779   0.74761   0.74761
 Alpha virt. eigenvalues --    0.79549   1.06038   1.06038   1.10850   1.36974
 Alpha virt. eigenvalues --    1.36974   1.38446   1.38446   1.39490   1.39490
 Alpha virt. eigenvalues --    1.40152   1.40152   1.40380   1.41596   1.41596
 Alpha virt. eigenvalues --    1.42496   1.43979   1.43979   1.45411   1.45411
 Alpha virt. eigenvalues --    1.46372   1.46372   1.47644   1.47906   1.47906
 Alpha virt. eigenvalues --    1.49474   1.56050   1.56050   1.56070   1.56070
 Alpha virt. eigenvalues --    1.56158   1.56158   1.56377   1.58738   2.44968
 Alpha virt. eigenvalues --    2.44968   2.45142   2.45142   2.45764   2.54939
 Alpha virt. eigenvalues --    2.54939   2.58343   3.74441   3.74441   3.78980
 Alpha virt. eigenvalues --    3.92036   3.92036   3.94570   3.94570   3.96051
 Alpha virt. eigenvalues --    3.96051   3.96497   3.96497   3.97505   3.97505
 Alpha virt. eigenvalues --    3.97888   4.00147   4.00147   4.02494   4.08877
 Alpha virt. eigenvalues --    4.08877   4.12142   4.12142   4.14198   4.14198
 Alpha virt. eigenvalues --    4.15312   6.55293   6.55293   6.55298   6.55298
 Alpha virt. eigenvalues --    6.55315   6.55315   6.55351   7.39112   7.92940
 Alpha virt. eigenvalues --    7.92940   7.95361   8.38855   8.38855   8.38952
 Alpha virt. eigenvalues --    8.38952   8.39471  13.05177
  Beta  occ. eigenvalues --   -7.70146  -0.54531  -0.31878
  Beta virt. eigenvalues --    0.01655   0.02366   0.02366   0.05228   0.06707
  Beta virt. eigenvalues --    0.07728   0.07728   0.11360   0.14428   0.14428
  Beta virt. eigenvalues --    0.14567   0.14567   0.14842   0.19942   0.19942
  Beta virt. eigenvalues --    0.24364   0.27699   0.31239   0.31239   0.34548
  Beta virt. eigenvalues --    0.46046   0.46188   0.46188   0.46710   0.46710
  Beta virt. eigenvalues --    0.47035   0.47035   0.48221   0.49286   0.49286
  Beta virt. eigenvalues --    0.50058   0.50058   0.51629   0.62845   0.62845
  Beta virt. eigenvalues --    0.63312   0.63312   0.65029   0.81448   0.81448
  Beta virt. eigenvalues --    0.85505   1.02932   1.05100   1.05100   1.37002
  Beta virt. eigenvalues --    1.37002   1.37930   1.37930   1.38594   1.38594
  Beta virt. eigenvalues --    1.38934   1.38987   1.38987   1.39207   1.40524
  Beta virt. eigenvalues --    1.40524   1.41107   1.41107   1.42645   1.43914
  Beta virt. eigenvalues --    1.43914   1.44744   1.44744   1.45276   1.45276
  Beta virt. eigenvalues --    1.46445   1.57308   1.57308   1.57327   1.57327
  Beta virt. eigenvalues --    1.57403   1.57403   1.57607   1.69894   2.48916
  Beta virt. eigenvalues --    2.48916   2.49087   2.49087   2.49752   2.62434
  Beta virt. eigenvalues --    2.62434   2.65648   3.73722   3.73722   3.73950
  Beta virt. eigenvalues --    3.91967   3.91967   3.93480   3.93480   3.94560
  Beta virt. eigenvalues --    3.94560   3.95211   3.95211   3.95459   3.95602
  Beta virt. eigenvalues --    3.95602   3.96483   3.96483   3.97725   4.08609
  Beta virt. eigenvalues --    4.08609   4.09997   4.09997   4.10862   4.10862
  Beta virt. eigenvalues --    4.11564   6.58177   6.58177   6.58183   6.58183
  Beta virt. eigenvalues --    6.58199   6.58199   6.58235   7.47317   7.98740
  Beta virt. eigenvalues --    7.98740   8.01134   8.43079   8.43079   8.43175
  Beta virt. eigenvalues --    8.43175   8.43691  13.03999
          Condensed to atoms (all electrons):
               1          2
     1  B    4.999799   0.000118
     2  H    0.000118   0.999964
          Atomic-Atomic Spin Densities.
               1          2
     1  B   -0.999923  -0.000018
     2  H   -0.000018   0.999960
 Mulliken charges and spin densities:
               1          2
     1  B    0.000083  -0.999942
     2  H   -0.000083   0.999942
 Sum of Mulliken charges =  -0.00000   0.00000
 Mulliken charges and spin densities with hydrogens summed into heavy atoms:
               1          2
     1  B   -0.000000   0.000000
 Electronic spatial extent (au):  <R**2>=            118.9374
 Charge=             -0.0000 electrons
 Dipole moment (field-independent basis, Debye):
    X=              0.0000    Y=             -0.0000    Z=              0.0063  Tot=              0.0063
 Quadrupole moment (field-independent basis, Debye-Ang):
   XX=             -7.3044   YY=             -7.3044   ZZ=            -10.7161
   XY=              0.0000   XZ=              0.0000   YZ=             -0.0000
 Traceless Quadrupole moment (field-independent basis, Debye-Ang):
   XX=              1.1372   YY=              1.1372   ZZ=             -2.2745
   XY=              0.0000   XZ=              0.0000   YZ=             -0.0000
 Octapole moment (field-independent basis, Debye-Ang**2):
  XXX=              0.0000  YYY=              0.0000  ZZZ=             -7.0675  XYY=              0.0000
  XXY=             -0.0000  XXZ=              0.7534  XZZ=              0.0000  YZZ=             -0.0000
  YYZ=              0.7534  XYZ=             -0.0000
 Hexadecapole moment (field-independent basis, Debye-Ang**3):
 XXXX=            -10.7224 YYYY=            -10.7224 ZZZZ=           -265.0929 XXXY=              0.0000
 XXXZ=              0.0000 YYYX=              0.0000 YYYZ=             -0.0000 ZZZX=              0.0000
 ZZZY=              0.0000 XXYY=             -3.5741 XXZZ=            -42.3886 YYZZ=            -42.3886
 XXYZ=              0.0000 YYXZ=              0.0000 ZZXY=              0.0000
 N-N= 4.561872507931D-01 E-N=-5.881441641664D+01  KE= 2.503233911999D+01
 Symmetry A1   KE= 2.503233911999D+01
 Symmetry A2   KE= 6.376217007255D-30
 Symmetry B1   KE= 2.153401841346D-29
 Symmetry B2   KE= 2.341633828581D-29
 Symmetry A1   SP= 1.196237664534D-14
 Symmetry A2   SP= 7.912323612009D-31
 Symmetry B1   SP=-1.195205039747D-30
 Symmetry B2   SP= 1.333680139228D-30
                          Isotropic Fermi Contact Couplings
        Atom                 a.u.       MegaHertz       Gauss      10(-4) cm-1
     1  B(11)             -0.00233      -1.66866      -0.59542      -0.55661
     2  H(1)               0.29855     667.24428     238.08935     222.56873
 --------------------------------------------------------
       Center         ----  Spin Dipole Couplings  ----
                      3XX-RR        3YY-RR        3ZZ-RR
 --------------------------------------------------------
     1   Atom        0.330950      0.330950     -0.661899
     2   Atom        0.000907      0.000907     -0.001813
 --------------------------------------------------------
                        XY            XZ            YZ
 --------------------------------------------------------
     1   Atom        0.000000      0.000000      0.000000
     2   Atom        0.000000      0.000000      0.000000
 --------------------------------------------------------


 ---------------------------------------------------------------------------------
              Anisotropic Spin Dipole Couplings in Principal Axis System
 ---------------------------------------------------------------------------------

       Atom             a.u.   MegaHertz   Gauss  10(-4) cm-1        Axes

              Baa    -0.6619  -113.327   -40.438   -37.802  0.0000  0.0000  1.0000
     1 B(11)  Bbb     0.3309    56.663    20.219    18.901 -0.0000  1.0000  0.0000
              Bcc     0.3309    56.663    20.219    18.901  1.0000  0.0000  0.0000
 
              Baa    -0.0018    -0.968    -0.345    -0.323  0.0000  0.0000  1.0000
     2 H(1)   Bbb     0.0009     0.484     0.173     0.161  1.0000  0.0000  0.0000
              Bcc     0.0009     0.484     0.173     0.161 -0.0000  1.0000  0.0000
 

 ---------------------------------------------------------------------------------

 No NMR shielding tensors so no spin-rotation constants.
 Leave Link  601 at Sun May 22 21:08:10 2022, MaxMem=   104857600 cpu:               0.2 elap:               0.2
 (Enter /apps/software/g16/l9999.exe)
 1\1\GINC-CNODE01\Stability\UHF\Aug-CC-pVQZ\B1H1\LCZ\22-May-2022\0\\#p 
 UHF/aug-cc-pVQZ guess=mix stable=opt\\BH UHF at 5.8 Angstrom\\0,1\B,0,
 0.,0.,0.\H,0,5.8,0.,0.\\Version=ES64L-G16RevA.03\State=1-SG\HF=-25.032
 9338\S2=1.011294\S2-1=0.\S2A=0.089606\RMSD=1.851e-09\Dipole=-0.0024763
 ,0.,0.\Quadrupole=-1.6910199,0.8455099,0.8455099,0.,0.,0.\PG=C*V [C*(H
 1B1)]\\@


 AND HERE I AM, FOR ALL MY LORE,
 THE WRETCHED FOOL I WAS BEFORE.
 CALLED MASTER OF ARTS, AND DOCTOR TO BOOT,
 FOR TEN YEARS ALMOST I CONFUTE
 AND UP AND DOWN, WHEREVER IT GOES
 I DRAG MY STUDENTS BY THE NOSE --
 AND SEE THAT FOR ALL OUR SCIENCE AND ART
 WE CAN KNOW NOTHING.  IT BURNS MY HEART.

                                       -- FAUST
 Job cpu time:       0 days  0 hours  0 minutes  8.3 seconds.
 Elapsed time:       0 days  0 hours  0 minutes  8.3 seconds.
 File lengths (MBytes):  RWF=     29 Int=      0 D2E=      0 Chk=      4 Scr=      1
 Normal termination of Gaussian 16 at Sun May 22 21:08:10 2022.

Sender: Unischeduler System <lcz@mgt01>
Subject: Job 134368: <#!/bin/bash
#BSUB -J intel
#BSUB -o BH-5.8-UHF-G.out
#BSUB -n 8
#BSUB -q cqueue
#BSUB -R span[hosts=1]
export g16root=/apps/software
source /apps/software/g16/bsd/g16.profile
export GAUSS_SCRDIR=/scratch
/apps/software/g16/g16 < BH-5.8-UHF-G.inp > BH-5.8-UHF-G.out> Done

Job <#!/bin/bash
#BSUB -J intel
#BSUB -o BH-5.8-UHF-G.out
#BSUB -n 8
#BSUB -q cqueue
#BSUB -R span[hosts=1]
export g16root=/apps/software
source /apps/software/g16/bsd/g16.profile
export GAUSS_SCRDIR=/scratch
/apps/software/g16/g16 < BH-5.8-UHF-G.inp > BH-5.8-UHF-G.out> was submitted from host <mgt01> by user <lcz>.
Job was executed on host(s) <8*cnode01>, in queue <cqueue>, as user <lcz>.
</apps/users/lcz> was used as the home directory.
</apps/users/lcz/exe13/UCCSD_T> was used as the working directory.
Started at 2022-05-22 21:08:02
Results reported at 2022-05-22 21:08:10

Your job looked like:

------------------------------------------------------------
# User input
#!/bin/bash
#BSUB -J intel
#BSUB -o BH-5.8-UHF-G.out
#BSUB -n 8
#BSUB -q cqueue
#BSUB -R span[hosts=1]
export g16root=/apps/software
source /apps/software/g16/bsd/g16.profile
export GAUSS_SCRDIR=/scratch
/apps/software/g16/g16 < BH-5.8-UHF-G.inp > BH-5.8-UHF-G.out
------------------------------------------------------------

Successfully completed.

Resource usage summary:

    CPU time   :             8.3 sec.
    Max Memory :               227 MB
    Max Processes  :               5


The output (if any) follows:

