 Entering Gaussian System, Link 0=/apps/software/g16/g16
 Initial command:
 /apps/software/g16/l1.exe "/scratch/Gau-370643.inp" -scrdir="/scratch/"
 Entering Link 1 = /apps/software/g16/l1.exe PID=    370644.
  
 Copyright (c) 1988,1990,1992,1993,1995,1998,2003,2009,2016,
            Gaussian, Inc.  All Rights Reserved.
  
 This is part of the Gaussian(R) 16 program.  It is based on
 the Gaussian(R) 09 system (copyright 2009, Gaussian, Inc.),
 the Gaussian(R) 03 system (copyright 2003, Gaussian, Inc.),
 the Gaussian(R) 98 system (copyright 1998, Gaussian, Inc.),
 the Gaussian(R) 94 system (copyright 1995, Gaussian, Inc.),
 the Gaussian 92(TM) system (copyright 1992, Gaussian, Inc.),
 the Gaussian 90(TM) system (copyright 1990, Gaussian, Inc.),
 the Gaussian 88(TM) system (copyright 1988, Gaussian, Inc.),
 the Gaussian 86(TM) system (copyright 1986, Carnegie Mellon
 University), and the Gaussian 82(TM) system (copyright 1983,
 Carnegie Mellon University). Gaussian is a federally registered
 trademark of Gaussian, Inc.
  
 This software contains proprietary and confidential information,
 including trade secrets, belonging to Gaussian, Inc.
  
 This software is provided under written license and may be
 used, copied, transmitted, or stored only in accord with that
 written license.
  
 The following legend is applicable only to US Government
 contracts under FAR:
  
                    RESTRICTED RIGHTS LEGEND
  
 Use, reproduction and disclosure by the US Government is
 subject to restrictions as set forth in subparagraphs (a)
 and (c) of the Commercial Computer Software - Restricted
 Rights clause in FAR 52.227-19.
  
 Gaussian, Inc.
 340 Quinnipiac St., Bldg. 40, Wallingford CT 06492
  
  
 ---------------------------------------------------------------
 Warning -- This program may not be used in any manner that
 competes with the business of Gaussian, Inc. or will provide
 assistance to any competitor of Gaussian, Inc.  The licensee
 of this program is prohibited from giving any competitor of
 Gaussian, Inc. access to this program.  By using this program,
 the user acknowledges that Gaussian, Inc. is engaged in the
 business of creating and licensing software in the field of
 computational chemistry and represents and warrants to the
 licensee that it is not a competitor of Gaussian, Inc. and that
 it will not use this program in any manner prohibited above.
 ---------------------------------------------------------------
  

 Cite this work as:
 Gaussian 16, Revision A.03,
 M. J. Frisch, G. W. Trucks, H. B. Schlegel, G. E. Scuseria, 
 M. A. Robb, J. R. Cheeseman, G. Scalmani, V. Barone, 
 G. A. Petersson, H. Nakatsuji, X. Li, M. Caricato, A. V. Marenich, 
 J. Bloino, B. G. Janesko, R. Gomperts, B. Mennucci, H. P. Hratchian, 
 J. V. Ortiz, A. F. Izmaylov, J. L. Sonnenberg, D. Williams-Young, 
 F. Ding, F. Lipparini, F. Egidi, J. Goings, B. Peng, A. Petrone, 
 T. Henderson, D. Ranasinghe, V. G. Zakrzewski, J. Gao, N. Rega, 
 G. Zheng, W. Liang, M. Hada, M. Ehara, K. Toyota, R. Fukuda, 
 J. Hasegawa, M. Ishida, T. Nakajima, Y. Honda, O. Kitao, H. Nakai, 
 T. Vreven, K. Throssell, J. A. Montgomery, Jr., J. E. Peralta, 
 F. Ogliaro, M. J. Bearpark, J. J. Heyd, E. N. Brothers, K. N. Kudin, 
 V. N. Staroverov, T. A. Keith, R. Kobayashi, J. Normand, 
 K. Raghavachari, A. P. Rendell, J. C. Burant, S. S. Iyengar, 
 J. Tomasi, M. Cossi, J. M. Millam, M. Klene, C. Adamo, R. Cammi, 
 J. W. Ochterski, R. L. Martin, K. Morokuma, O. Farkas, 
 J. B. Foresman, and D. J. Fox, Gaussian, Inc., Wallingford CT, 2016.
 
 ******************************************
 Gaussian 16:  ES64L-G16RevA.03 25-Dec-2016
                22-May-2022 
 ******************************************
 %chk=BH-6.0-UHF-G.chk
 ---------------------------------------
 #p UHF/aug-cc-pVQZ guess=mix stable=opt
 ---------------------------------------
 1/38=1,172=1/1;
 2/12=2,17=6,18=5,40=1/2;
 3/5=16,6=2,7=10,11=2,25=1,30=1,116=2/1,2,3;
 4/13=-1/1;
 5/5=2,38=5/2;
 6/7=2,8=2,9=2,10=2,28=1/1;
 8/6=1,10=90,11=11/1;
 9/8=-3,42=1,46=1/14;
 5/5=2,8=3,17=40,38=5/8(-2);
 6/7=2,8=2,9=2,10=2,28=1/1;
 99/5=1,9=1/99;
 Leave Link    1 at Sun May 22 21:08:06 2022, MaxMem=           0 cpu:               0.0 elap:               0.0
 (Enter /apps/software/g16/l101.exe)
 ----------------------
 BH UHF at 6.0 Angstrom
 ----------------------
 Symbolic Z-matrix:
 Charge =  0 Multiplicity = 1
 B                     0.        0.        0. 
 H                     6.        0.        0. 
 
 ITRead=  0  0
 MicOpt= -1 -1
 NAtoms=      2 NQM=        2 NQMF=       0 NMMI=      0 NMMIF=      0
                NMic=       0 NMicF=      0.
                    Isotopes and Nuclear Properties:
 (Nuclear quadrupole moments (NQMom) in fm**2, nuclear magnetic moments (NMagM)
  in nuclear magnetons)

  Atom         1           2
 IAtWgt=          11           1
 AtmWgt=  11.0093053   1.0078250
 NucSpn=           3           1
 AtZEff=  -0.0000000  -0.0000000
 NQMom=    4.0590000   0.0000000
 NMagM=    2.6886370   2.7928460
 AtZNuc=   5.0000000   1.0000000
 Leave Link  101 at Sun May 22 21:08:06 2022, MaxMem=   104857600 cpu:               0.1 elap:               0.1
 (Enter /apps/software/g16/l202.exe)
                          Input orientation:                          
 ---------------------------------------------------------------------
 Center     Atomic      Atomic             Coordinates (Angstroms)
 Number     Number       Type             X           Y           Z
 ---------------------------------------------------------------------
      1          5           0        0.000000    0.000000    0.000000
      2          1           0        6.000000    0.000000    0.000000
 ---------------------------------------------------------------------
 Stoichiometry    BH
 Framework group  C*V[C*(HB)]
 Deg. of freedom     1
 Full point group                 C*V     NOp   4
 Largest Abelian subgroup         C2V     NOp   4
 Largest concise Abelian subgroup C1      NOp   1
                         Standard orientation:                         
 ---------------------------------------------------------------------
 Center     Atomic      Atomic             Coordinates (Angstroms)
 Number     Number       Type             X           Y           Z
 ---------------------------------------------------------------------
      1          5           0        0.000000    0.000000    1.000000
      2          1           0        0.000000    0.000000   -5.000000
 ---------------------------------------------------------------------
 Rotational constants (GHZ):           0.0000000          15.2044394          15.2044394
 Leave Link  202 at Sun May 22 21:08:06 2022, MaxMem=   104857600 cpu:               0.0 elap:               0.0
 (Enter /apps/software/g16/l301.exe)
 Standard basis: Aug-CC-pVQZ (5D, 7F)
 Ernie: Thresh=  0.10000D-02 Tol=  0.10000D-05 Strict=F.
 Ernie:  4 primitive shells out of 54 were deleted.
 There are    68 symmetry adapted cartesian basis functions of A1  symmetry.
 There are    18 symmetry adapted cartesian basis functions of A2  symmetry.
 There are    37 symmetry adapted cartesian basis functions of B1  symmetry.
 There are    37 symmetry adapted cartesian basis functions of B2  symmetry.
 There are    50 symmetry adapted basis functions of A1  symmetry.
 There are    16 symmetry adapted basis functions of A2  symmetry.
 There are    30 symmetry adapted basis functions of B1  symmetry.
 There are    30 symmetry adapted basis functions of B2  symmetry.
   126 basis functions,   180 primitive gaussians,   160 cartesian basis functions
     3 alpha electrons        3 beta electrons
       nuclear repulsion energy         0.4409810091 Hartrees.
 IExCor=    0 DFT=F Ex=HF Corr=None ExCW=0 ScaHFX=  1.000000
 ScaDFX=  1.000000  1.000000  1.000000  1.000000 ScalE2=  1.000000  1.000000
 IRadAn=      5 IRanWt=     -1 IRanGd=            0 ICorTp=0 IEmpDi=  4
 NAtoms=    2 NActive=    2 NUniq=    2 SFac= 1.00D+00 NAtFMM=   60 NAOKFM=F Big=F
 Integral buffers will be    131072 words long.
 Raffenetti 2 integral format.
 Two-electron integral symmetry is turned on.
 Leave Link  301 at Sun May 22 21:08:06 2022, MaxMem=   104857600 cpu:               0.1 elap:               0.1
 (Enter /apps/software/g16/l302.exe)
 NPDir=0 NMtPBC=     1 NCelOv=     1 NCel=       1 NClECP=     1 NCelD=      1
         NCelK=      1 NCelE2=     1 NClLst=     1 CellRange=     0.0.
 One-electron integrals computed using PRISM.
 One-electron integral symmetry used in STVInt
 NBasis=   126 RedAO= T EigKep=  1.28D-02  NBF=    50    16    30    30
 NBsUse=   126 1.00D-06 EigRej= -1.00D+00 NBFU=    50    16    30    30
 Leave Link  302 at Sun May 22 21:08:06 2022, MaxMem=   104857600 cpu:               0.1 elap:               0.1
 (Enter /apps/software/g16/l303.exe)
 DipDrv:  MaxL=1.
 Leave Link  303 at Sun May 22 21:08:06 2022, MaxMem=   104857600 cpu:               0.0 elap:               0.0
 (Enter /apps/software/g16/l401.exe)
 ExpMin= 1.88D-02 ExpMax= 2.39D+04 ExpMxC= 2.30D+02 IAcc=3 IRadAn=         5 AccDes= 0.00D+00
 Harris functional with IExCor=  205 and IRadAn=       5 diagonalized for initial guess.
 HarFok:  IExCor=  205 AccDes= 0.00D+00 IRadAn=         5 IDoV= 1 UseB2=F ITyADJ=14
 ICtDFT=  3500011 ScaDFX=  1.000000  1.000000  1.000000  1.000000
 FoFCou: FMM=F IPFlag=           0 FMFlag=      100000 FMFlg1=           0
         NFxFlg=           0 DoJE=T BraDBF=F KetDBF=T FulRan=T
         wScrn=  0.000000 ICntrl=       500 IOpCl=  0 I1Cent=   200000004 NGrid=           0
         NMat0=    1 NMatS0=      1 NMatT0=    0 NMatD0=    1 NMtDS0=    0 NMtDT0=    0
 Petite list used in FoFCou.
 Harris En= -24.9880675387051    
 JPrj=0 DoOrth=F DoCkMO=T.
 Mixing orbitals, IMix= 1 IMixAn=  0 NRI=1 NE=    3 Coef=  7.07106781D-01  7.07106781D-01
 Mixing orbitals, IMix= 1 IMixAn=  0 NRI=1 NE=    3 Coef= -7.07106781D-01  7.07106781D-01
 Initial guess orbital symmetries:
 Alpha Orbitals:
       Occupied  (SG) (SG) (SG)
       Virtual   (SG) (PI) (PI) (SG) (SG) (PI) (PI) (SG) (SG) (PI)
                 (PI) (DLTA) (DLTA) (PI) (PI) (SG) (PI) (PI) (SG)
                 (SG) (SG) (PI) (PI) (DLTA) (DLTA) (SG) (?A) (?A)
                 (DLTA) (DLTA) (?A) (?A) (SG) (DLTA) (DLTA) (PI)
                 (PI) (SG) (PI) (PI) (SG) (PI) (PI) (SG) (SG) (DLTA)
                 (DLTA) (PI) (PI) (SG) (?B) (DLTA) (?A) (?A) (?A)
                 (?A) (DLTA) (?B) (?B) (DLTA) (?A) (?A) (DLTA)
                 (?A) (?A) (SG) (SG) (PHI) (PHI) (DLTA) (DLTA)
                 (PI) (PI) (SG) (DLTA) (DLTA) (PI) (PI) (SG) (PI)
                 (PI) (SG) (PI) (PI) (SG) (DLTA) (DLTA) (PI) (PI)
                 (SG) (DLTA) (?C) (?A) (?A) (DLTA) (?C) (?A) (?A)
                 (?C) (DLTA) (PHI) (PHI) (DLTA) (PI) (PI) (SG)
                 (PHI) (PHI) (DLTA) (DLTA) (PI) (PI) (SG) (SG)
                 (PI) (PI) (SG) (DLTA) (DLTA) (PI) (PI) (SG) (SG)
 Beta  Orbitals:
       Occupied  (SG) (SG) (SG)
       Virtual   (SG) (PI) (PI) (SG) (SG) (PI) (PI) (SG) (SG) (PI)
                 (PI) (DLTA) (DLTA) (PI) (PI) (SG) (PI) (PI) (SG)
                 (SG) (SG) (PI) (PI) (DLTA) (DLTA) (SG) (?A) (?A)
                 (DLTA) (DLTA) (?A) (?A) (SG) (DLTA) (DLTA) (PI)
                 (PI) (SG) (PI) (PI) (SG) (PI) (PI) (SG) (SG) (DLTA)
                 (DLTA) (PI) (PI) (SG) (?B) (DLTA) (?A) (?A) (?A)
                 (?A) (DLTA) (?B) (?B) (DLTA) (?A) (?A) (DLTA)
                 (?A) (?A) (SG) (SG) (PHI) (PHI) (DLTA) (DLTA)
                 (PI) (PI) (SG) (DLTA) (DLTA) (PI) (PI) (SG) (PI)
                 (PI) (SG) (PI) (PI) (SG) (DLTA) (DLTA) (PI) (PI)
                 (SG) (DLTA) (?C) (?A) (?A) (DLTA) (?C) (?A) (?A)
                 (?C) (DLTA) (PHI) (PHI) (DLTA) (PI) (PI) (SG)
                 (PHI) (PHI) (DLTA) (DLTA) (PI) (PI) (SG) (SG)
                 (PI) (PI) (SG) (DLTA) (DLTA) (PI) (PI) (SG) (SG)
 The electronic state of the initial guess is 1-SG.
 Initial guess <Sx>= 0.0000 <Sy>= 0.0000 <Sz>= 0.0000 <S**2>= 1.0000 S= 0.6180
 Leave Link  401 at Sun May 22 21:08:06 2022, MaxMem=   104857600 cpu:               0.2 elap:               0.2
 (Enter /apps/software/g16/l502.exe)
 Keep R1 and R2 ints in memory in symmetry-blocked form, NReq=40143665.
 FoFCou: FMM=F IPFlag=           0 FMFlag=           0 FMFlg1=           0
         NFxFlg=           0 DoJE=F BraDBF=F KetDBF=F FulRan=T
         wScrn=  0.000000 ICntrl=       600 IOpCl=  0 I1Cent=           0 NGrid=           0
         NMat0=    1 NMatS0=   8001 NMatT0=    0 NMatD0=    1 NMtDS0=    0 NMtDT0=    0
 Petite list used in FoFCou.
 UHF open shell SCF:
 Using DIIS extrapolation, IDIIS=  1040.
 NGot=   104857600 LenX=    88563632 LenY=    88537591
 Requested convergence on RMS density matrix=1.00D-08 within 128 cycles.
 Requested convergence on MAX density matrix=1.00D-06.
 Requested convergence on             energy=1.00D-06.
 No special actions if energy rises.
 An orbital has undefined symmetry, so N**3 symmetry is turned off.

 Cycle   1  Pass 1  IDiag  1:
 E= -24.8164294630788    
 DIIS: error= 3.94D-02 at cycle   1 NSaved=   1.
 NSaved= 1 IEnMin= 1 EnMin= -24.8164294630788     IErMin= 1 ErrMin= 3.94D-02
 ErrMax= 3.94D-02  0.00D+00 EMaxC= 1.00D-01 BMatC= 1.47D-01 BMatP= 1.47D-01
 IDIUse=3 WtCom= 6.06D-01 WtEn= 3.94D-01
 Coeff-Com:  0.100D+01
 Coeff-En:   0.100D+01
 Coeff:      0.100D+01
 Gap=     0.089 Goal=   None    Shift=    0.000
 Gap=     0.092 Goal=   None    Shift=    0.000
 GapD=    0.089 DampG=0.500 DampE=0.500 DampFc=0.2500 IDamp=-1.
 Damping current iteration by 2.50D-01
 RMSDP=2.03D-03 MaxDP=9.49D-02              OVMax= 4.48D-01

 Cycle   2  Pass 1  IDiag  1:
 E= -24.8278938872307     Delta-E=       -0.011464424152 Rises=F Damp=T
 DIIS: error= 3.17D-02 at cycle   2 NSaved=   2.
 NSaved= 2 IEnMin= 2 EnMin= -24.8278938872307     IErMin= 2 ErrMin= 3.17D-02
 ErrMax= 3.17D-02  0.00D+00 EMaxC= 1.00D-01 BMatC= 8.58D-02 BMatP= 1.47D-01
 IDIUse=3 WtCom= 6.83D-01 WtEn= 3.17D-01
 Coeff-Com: -0.169D+01 0.269D+01
 Coeff-En:   0.000D+00 0.100D+01
 Coeff:     -0.116D+01 0.216D+01
 Gap=     0.051 Goal=   None    Shift=    0.000
 Gap=     0.044 Goal=   None    Shift=    0.000
 RMSDP=1.25D-03 MaxDP=5.96D-02 DE=-1.15D-02 OVMax= 4.73D-01

 Cycle   3  Pass 1  IDiag  1:
 E= -24.8370459102533     Delta-E=       -0.009152023023 Rises=F Damp=F
 DIIS: error= 4.08D-02 at cycle   3 NSaved=   3.
 NSaved= 3 IEnMin= 3 EnMin= -24.8370459102533     IErMin= 2 ErrMin= 3.17D-02
 ErrMax= 4.08D-02  0.00D+00 EMaxC= 1.00D-01 BMatC= 2.64D-02 BMatP= 8.58D-02
 IDIUse=3 WtCom= 5.92D-01 WtEn= 4.08D-01
 Coeff-Com: -0.116D+01 0.150D+01 0.659D+00
 Coeff-En:   0.000D+00 0.000D+00 0.100D+01
 Coeff:     -0.688D+00 0.890D+00 0.798D+00
 Gap=     0.110 Goal=   None    Shift=    0.000
 Gap=     0.085 Goal=   None    Shift=    0.000
 RMSDP=1.46D-03 MaxDP=6.45D-02 DE=-9.15D-03 OVMax= 4.29D-01

 Cycle   4  Pass 1  IDiag  1:
 E= -24.8796476701212     Delta-E=       -0.042601759868 Rises=F Damp=F
 DIIS: error= 4.51D-02 at cycle   4 NSaved=   4.
 NSaved= 4 IEnMin= 4 EnMin= -24.8796476701212     IErMin= 2 ErrMin= 3.17D-02
 ErrMax= 4.51D-02  0.00D+00 EMaxC= 1.00D-01 BMatC= 2.52D-02 BMatP= 2.64D-02
 IDIUse=3 WtCom= 5.49D-01 WtEn= 4.51D-01
 Coeff-Com: -0.195D+01 0.250D+01 0.878D+00-0.431D+00
 Coeff-En:   0.000D+00 0.000D+00 0.000D+00 0.100D+01
 Coeff:     -0.107D+01 0.137D+01 0.482D+00 0.215D+00
 Gap=     0.129 Goal=   None    Shift=    0.000
 Gap=     0.076 Goal=   None    Shift=    0.000
 RMSDP=1.13D-03 MaxDP=7.14D-02 DE=-4.26D-02 OVMax= 3.50D-01

 Cycle   5  Pass 1  IDiag  1:
 E= -24.9386139929746     Delta-E=       -0.058966322853 Rises=F Damp=F
 DIIS: error= 3.36D-02 at cycle   5 NSaved=   5.
 NSaved= 5 IEnMin= 5 EnMin= -24.9386139929746     IErMin= 2 ErrMin= 3.17D-02
 ErrMax= 3.36D-02  0.00D+00 EMaxC= 1.00D-01 BMatC= 3.50D-02 BMatP= 2.52D-02
 IDIUse=2 WtCom= 0.00D+00 WtEn= 1.00D+00
 Coeff-En:   0.000D+00 0.000D+00 0.000D+00 0.000D+00 0.100D+01
 Coeff:      0.000D+00 0.000D+00 0.000D+00 0.000D+00 0.100D+01
 Gap=     0.385 Goal=   None    Shift=    0.000
 Gap=     0.185 Goal=   None    Shift=    0.000
 RMSDP=1.33D-03 MaxDP=5.47D-02 DE=-5.90D-02 OVMax= 3.16D-01

 Cycle   6  Pass 1  IDiag  1:
 E= -25.0154192416731     Delta-E=       -0.076805248698 Rises=F Damp=F
 DIIS: error= 1.79D-02 at cycle   6 NSaved=   6.
 NSaved= 6 IEnMin= 6 EnMin= -25.0154192416731     IErMin= 6 ErrMin= 1.79D-02
 ErrMax= 1.79D-02  0.00D+00 EMaxC= 1.00D-01 BMatC= 1.25D-02 BMatP= 2.52D-02
 IDIUse=3 WtCom= 8.21D-01 WtEn= 1.79D-01
 Coeff-Com: -0.684D-01 0.591D-01 0.580D+00 0.515D+00-0.105D+01 0.961D+00
 Coeff-En:   0.000D+00 0.000D+00 0.000D+00 0.000D+00 0.000D+00 0.100D+01
 Coeff:     -0.562D-01 0.485D-01 0.476D+00 0.423D+00-0.860D+00 0.968D+00
 Gap=     0.370 Goal=   None    Shift=    0.000
 Gap=     0.183 Goal=   None    Shift=    0.000
 RMSDP=2.92D-04 MaxDP=1.89D-02 DE=-7.68D-02 OVMax= 4.55D-02

 Cycle   7  Pass 1  IDiag  1:
 E= -25.0221340889015     Delta-E=       -0.006714847228 Rises=F Damp=F
 DIIS: error= 1.41D-02 at cycle   7 NSaved=   7.
 NSaved= 7 IEnMin= 7 EnMin= -25.0221340889015     IErMin= 7 ErrMin= 1.41D-02
 ErrMax= 1.41D-02  0.00D+00 EMaxC= 1.00D-01 BMatC= 8.41D-03 BMatP= 1.25D-02
 IDIUse=3 WtCom= 8.59D-01 WtEn= 1.41D-01
 Coeff-Com: -0.110D+00 0.112D+00 0.617D+00 0.530D+00-0.110D+01 0.131D+01
 Coeff-Com: -0.356D+00
 Coeff-En:   0.000D+00 0.000D+00 0.000D+00 0.000D+00 0.000D+00 0.000D+00
 Coeff-En:   0.100D+01
 Coeff:     -0.948D-01 0.964D-01 0.530D+00 0.455D+00-0.949D+00 0.113D+01
 Coeff:     -0.165D+00
 Gap=     0.337 Goal=   None    Shift=    0.000
 Gap=     0.167 Goal=   None    Shift=    0.000
 RMSDP=9.49D-05 MaxDP=5.16D-03 DE=-6.71D-03 OVMax= 2.22D-02

 Cycle   8  Pass 1  IDiag  1:
 E= -25.0194947843194     Delta-E=        0.002639304582 Rises=F Damp=F
 DIIS: error= 1.63D-02 at cycle   8 NSaved=   8.
 NSaved= 8 IEnMin= 7 EnMin= -25.0221340889015     IErMin= 7 ErrMin= 1.41D-02
 ErrMax= 1.63D-02  0.00D+00 EMaxC= 1.00D-01 BMatC= 1.00D-02 BMatP= 8.41D-03
 IDIUse=2 WtCom= 0.00D+00 WtEn= 1.00D+00
 Rare condition: small coef for last iteration:  0.000D+00
 Coeff-En:   0.000D+00 0.000D+00 0.000D+00 0.000D+00 0.000D+00 0.000D+00
 Coeff-En:   0.000D+00 0.100D+01
 Coeff:      0.000D+00 0.000D+00 0.000D+00 0.000D+00 0.000D+00 0.000D+00
 Coeff:      0.000D+00 0.100D+01
 Gap=     0.553 Goal=   None    Shift=    0.000
 Gap=     0.316 Goal=   None    Shift=    0.000
 RMSDP=5.74D-04 MaxDP=3.71D-02 DE= 2.64D-03 OVMax= 1.12D-01

 Cycle   9  Pass 1  IDiag  1:
 E= -25.0307645853793     Delta-E=       -0.011269801060 Rises=F Damp=F
 DIIS: error= 5.08D-03 at cycle   9 NSaved=   9.
 NSaved= 9 IEnMin= 9 EnMin= -25.0307645853793     IErMin= 9 ErrMin= 5.08D-03
 ErrMax= 5.08D-03  0.00D+00 EMaxC= 1.00D-01 BMatC= 1.78D-03 BMatP= 8.41D-03
 IDIUse=3 WtCom= 9.49D-01 WtEn= 5.08D-02
 Coeff-Com: -0.170D+00 0.216D+00 0.153D+00 0.192D-01-0.592D-01-0.654D-01
 Coeff-Com: -0.394D+01 0.294D+01 0.191D+01
 Coeff-En:   0.000D+00 0.000D+00 0.000D+00 0.000D+00 0.000D+00 0.000D+00
 Coeff-En:   0.000D+00 0.000D+00 0.100D+01
 Coeff:     -0.162D+00 0.205D+00 0.145D+00 0.183D-01-0.562D-01-0.620D-01
 Coeff:     -0.374D+01 0.279D+01 0.187D+01
 Gap=     0.495 Goal=   None    Shift=    0.000
 Gap=     0.284 Goal=   None    Shift=    0.000
 RMSDP=1.76D-04 MaxDP=1.05D-02 DE=-1.13D-02 OVMax= 2.66D-02

 Cycle  10  Pass 1  IDiag  1:
 E= -25.0319707910286     Delta-E=       -0.001206205649 Rises=F Damp=F
 DIIS: error= 3.61D-03 at cycle  10 NSaved=  10.
 NSaved=10 IEnMin=10 EnMin= -25.0319707910286     IErMin=10 ErrMin= 3.61D-03
 ErrMax= 3.61D-03  0.00D+00 EMaxC= 1.00D-01 BMatC= 8.99D-04 BMatP= 1.78D-03
 IDIUse=3 WtCom= 9.64D-01 WtEn= 3.61D-02
 Coeff-Com: -0.954D-02 0.103D-01 0.675D-01 0.445D-01-0.261D+00 0.236D+00
 Coeff-Com: -0.576D+01 0.487D+01-0.222D+00 0.202D+01
 Coeff-En:   0.000D+00 0.000D+00 0.000D+00 0.000D+00 0.000D+00 0.000D+00
 Coeff-En:   0.000D+00 0.000D+00 0.000D+00 0.100D+01
 Coeff:     -0.920D-02 0.991D-02 0.651D-01 0.429D-01-0.251D+00 0.227D+00
 Coeff:     -0.555D+01 0.470D+01-0.214D+00 0.198D+01
 Gap=     0.516 Goal=   None    Shift=    0.000
 Gap=     0.327 Goal=   None    Shift=    0.000
 RMSDP=2.63D-04 MaxDP=1.58D-02 DE=-1.21D-03 OVMax= 3.12D-02

 Cycle  11  Pass 1  IDiag  1:
 E= -25.0329012440740     Delta-E=       -0.000930453045 Rises=F Damp=F
 DIIS: error= 6.25D-04 at cycle  11 NSaved=  11.
 NSaved=11 IEnMin=11 EnMin= -25.0329012440740     IErMin=11 ErrMin= 6.25D-04
 ErrMax= 6.25D-04  0.00D+00 EMaxC= 1.00D-01 BMatC= 2.96D-05 BMatP= 8.99D-04
 IDIUse=3 WtCom= 9.94D-01 WtEn= 6.25D-03
 Coeff-Com: -0.814D-02 0.106D-01-0.998D-02-0.128D-01 0.671D-01 0.443D-01
 Coeff-Com:  0.196D+01-0.174D+01-0.174D-01-0.909D+00 0.162D+01
 Coeff-En:   0.000D+00 0.000D+00 0.000D+00 0.000D+00 0.000D+00 0.000D+00
 Coeff-En:   0.000D+00 0.000D+00 0.000D+00 0.000D+00 0.100D+01
 Coeff:     -0.809D-02 0.105D-01-0.992D-02-0.127D-01 0.667D-01 0.440D-01
 Coeff:      0.194D+01-0.173D+01-0.173D-01-0.903D+00 0.162D+01
 Gap=     0.474 Goal=   None    Shift=    0.000
 Gap=     0.336 Goal=   None    Shift=    0.000
 RMSDP=6.30D-05 MaxDP=4.01D-03 DE=-9.30D-04 OVMax= 7.76D-03

 Cycle  12  Pass 1  IDiag  1:
 E= -25.0329332197823     Delta-E=       -0.000031975708 Rises=F Damp=F
 DIIS: error= 4.57D-05 at cycle  12 NSaved=  12.
 NSaved=12 IEnMin=12 EnMin= -25.0329332197823     IErMin=12 ErrMin= 4.57D-05
 ErrMax= 4.57D-05  0.00D+00 EMaxC= 1.00D-01 BMatC= 1.67D-07 BMatP= 2.96D-05
 IDIUse=1 WtCom= 1.00D+00 WtEn= 0.00D+00
 Coeff-Com:  0.330D-02-0.402D-02-0.187D-02 0.129D-02-0.297D-02-0.450D-01
 Coeff-Com: -0.234D+00 0.239D+00 0.293D-01 0.148D+00-0.486D+00 0.135D+01
 Coeff:      0.330D-02-0.402D-02-0.187D-02 0.129D-02-0.297D-02-0.450D-01
 Coeff:     -0.234D+00 0.239D+00 0.293D-01 0.148D+00-0.486D+00 0.135D+01
 Gap=     0.474 Goal=   None    Shift=    0.000
 Gap=     0.336 Goal=   None    Shift=    0.000
 RMSDP=5.74D-06 MaxDP=4.32D-04 DE=-3.20D-05 OVMax= 4.75D-04

 Cycle  13  Pass 1  IDiag  1:
 E= -25.0329332954084     Delta-E=       -0.000000075626 Rises=F Damp=F
 DIIS: error= 3.69D-05 at cycle  13 NSaved=  13.
 NSaved=13 IEnMin=13 EnMin= -25.0329332954084     IErMin=13 ErrMin= 3.69D-05
 ErrMax= 3.69D-05  0.00D+00 EMaxC= 1.00D-01 BMatC= 1.05D-07 BMatP= 1.67D-07
 IDIUse=1 WtCom= 1.00D+00 WtEn= 0.00D+00
 Coeff-Com:  0.408D-03-0.585D-03-0.487D-03 0.137D-03 0.218D-02 0.105D-01
 Coeff-Com:  0.103D+00-0.981D-01-0.147D-01-0.262D-01 0.117D+00-0.437D+00
 Coeff-Com:  0.134D+01
 Coeff:      0.408D-03-0.585D-03-0.487D-03 0.137D-03 0.218D-02 0.105D-01
 Coeff:      0.103D+00-0.981D-01-0.147D-01-0.262D-01 0.117D+00-0.437D+00
 Coeff:      0.134D+01
 Gap=     0.474 Goal=   None    Shift=    0.000
 Gap=     0.335 Goal=   None    Shift=    0.000
 RMSDP=3.11D-06 MaxDP=1.60D-04 DE=-7.56D-08 OVMax= 4.17D-04

 Cycle  14  Pass 1  IDiag  1:
 E= -25.0329334044107     Delta-E=       -0.000000109002 Rises=F Damp=F
 DIIS: error= 5.61D-06 at cycle  14 NSaved=  14.
 NSaved=14 IEnMin=14 EnMin= -25.0329334044107     IErMin=14 ErrMin= 5.61D-06
 ErrMax= 5.61D-06  0.00D+00 EMaxC= 1.00D-01 BMatC= 2.02D-09 BMatP= 1.05D-07
 IDIUse=1 WtCom= 1.00D+00 WtEn= 0.00D+00
 Coeff-Com: -0.541D-03 0.733D-03 0.430D-03-0.299D-03-0.537D-03-0.718D-02
 Coeff-Com: -0.401D-01 0.412D-01 0.105D-01-0.219D-02-0.369D-01 0.213D+00
 Coeff-Com: -0.928D+00 0.175D+01
 Coeff:     -0.541D-03 0.733D-03 0.430D-03-0.299D-03-0.537D-03-0.718D-02
 Coeff:     -0.401D-01 0.412D-01 0.105D-01-0.219D-02-0.369D-01 0.213D+00
 Coeff:     -0.928D+00 0.175D+01
 Gap=     0.474 Goal=   None    Shift=    0.000
 Gap=     0.335 Goal=   None    Shift=    0.000
 RMSDP=5.93D-07 MaxDP=2.44D-05 DE=-1.09D-07 OVMax= 8.55D-05

 Cycle  15  Pass 1  IDiag  1:
 E= -25.0329334058275     Delta-E=       -0.000000001417 Rises=F Damp=F
 DIIS: error= 4.95D-06 at cycle  15 NSaved=  15.
 NSaved=15 IEnMin=15 EnMin= -25.0329334058275     IErMin=15 ErrMin= 4.95D-06
 ErrMax= 4.95D-06  0.00D+00 EMaxC= 1.00D-01 BMatC= 1.92D-09 BMatP= 2.02D-09
 IDIUse=1 WtCom= 1.00D+00 WtEn= 0.00D+00
 Coeff-Com: -0.492D-04 0.583D-04 0.158D-03 0.128D-03-0.113D-02 0.148D-02
 Coeff-Com: -0.305D-01 0.247D-01-0.588D-03 0.141D-01-0.245D-01 0.354D-01
 Coeff-Com: -0.271D-01-0.412D+00 0.142D+01
 Coeff:     -0.492D-04 0.583D-04 0.158D-03 0.128D-03-0.113D-02 0.148D-02
 Coeff:     -0.305D-01 0.247D-01-0.588D-03 0.141D-01-0.245D-01 0.354D-01
 Coeff:     -0.271D-01-0.412D+00 0.142D+01
 Gap=     0.474 Goal=   None    Shift=    0.000
 Gap=     0.335 Goal=   None    Shift=    0.000
 RMSDP=4.06D-07 MaxDP=1.76D-05 DE=-1.42D-09 OVMax= 6.25D-05

 Cycle  16  Pass 1  IDiag  1:
 E= -25.0329334079853     Delta-E=       -0.000000002158 Rises=F Damp=F
 DIIS: error= 1.10D-06 at cycle  16 NSaved=  16.
 NSaved=16 IEnMin=16 EnMin= -25.0329334079853     IErMin=16 ErrMin= 1.10D-06
 ErrMax= 1.10D-06  0.00D+00 EMaxC= 1.00D-01 BMatC= 5.35D-11 BMatP= 1.92D-09
 IDIUse=1 WtCom= 1.00D+00 WtEn= 0.00D+00
 Coeff-Com:  0.427D-04-0.510D-04-0.596D-04-0.114D-04 0.212D-03-0.523D-03
 Coeff-Com:  0.374D-02-0.278D-02 0.257D-03-0.130D-02 0.201D-02-0.276D-02
 Coeff-Com: -0.123D-01 0.350D-01-0.564D+00 0.154D+01
 Coeff:      0.427D-04-0.510D-04-0.596D-04-0.114D-04 0.212D-03-0.523D-03
 Coeff:      0.374D-02-0.278D-02 0.257D-03-0.130D-02 0.201D-02-0.276D-02
 Coeff:     -0.123D-01 0.350D-01-0.564D+00 0.154D+01
 Gap=     0.474 Goal=   None    Shift=    0.000
 Gap=     0.335 Goal=   None    Shift=    0.000
 RMSDP=1.07D-07 MaxDP=4.49D-06 DE=-2.16D-09 OVMax= 1.74D-05

 Cycle  17  Pass 1  IDiag  1:
 E= -25.0329334080764     Delta-E=       -0.000000000091 Rises=F Damp=F
 DIIS: error= 3.74D-07 at cycle  17 NSaved=  17.
 NSaved=17 IEnMin=17 EnMin= -25.0329334080764     IErMin=17 ErrMin= 3.74D-07
 ErrMax= 3.74D-07  0.00D+00 EMaxC= 1.00D-01 BMatC= 9.51D-12 BMatP= 5.35D-11
 IDIUse=1 WtCom= 1.00D+00 WtEn= 0.00D+00
 Coeff-Com: -0.239D-05 0.167D-05 0.723D-05 0.908D-05-0.298D-04 0.191D-03
 Coeff-Com:  0.263D-03-0.393D-03-0.208D-03 0.187D-03-0.288D-04-0.131D-02
 Coeff-Com:  0.161D-01-0.487D-01 0.226D+00-0.524D+00 0.133D+01
 Coeff:     -0.239D-05 0.167D-05 0.723D-05 0.908D-05-0.298D-04 0.191D-03
 Coeff:      0.263D-03-0.393D-03-0.208D-03 0.187D-03-0.288D-04-0.131D-02
 Coeff:      0.161D-01-0.487D-01 0.226D+00-0.524D+00 0.133D+01
 Gap=     0.474 Goal=   None    Shift=    0.000
 Gap=     0.335 Goal=   None    Shift=    0.000
 RMSDP=3.04D-08 MaxDP=1.55D-06 DE=-9.11D-11 OVMax= 4.45D-06

 Cycle  18  Pass 1  IDiag  1:
 E= -25.0329334080855     Delta-E=       -0.000000000009 Rises=F Damp=F
 DIIS: error= 7.64D-08 at cycle  18 NSaved=  18.
 NSaved=18 IEnMin=18 EnMin= -25.0329334080855     IErMin=18 ErrMin= 7.64D-08
 ErrMax= 7.64D-08  0.00D+00 EMaxC= 1.00D-01 BMatC= 3.75D-13 BMatP= 9.51D-12
 IDIUse=1 WtCom= 1.00D+00 WtEn= 0.00D+00
 Coeff-Com: -0.640D-06 0.107D-05 0.269D-08-0.248D-05 0.342D-06-0.326D-04
 Coeff-Com: -0.417D-03 0.380D-03 0.711D-04 0.196D-04 0.516D-04-0.407D-03
 Coeff-Com: -0.275D-02 0.152D-01-0.780D-01 0.178D+00-0.684D+00 0.157D+01
 Coeff:     -0.640D-06 0.107D-05 0.269D-08-0.248D-05 0.342D-06-0.326D-04
 Coeff:     -0.417D-03 0.380D-03 0.711D-04 0.196D-04 0.516D-04-0.407D-03
 Coeff:     -0.275D-02 0.152D-01-0.780D-01 0.178D+00-0.684D+00 0.157D+01
 Gap=     0.474 Goal=   None    Shift=    0.000
 Gap=     0.335 Goal=   None    Shift=    0.000
 RMSDP=6.54D-09 MaxDP=4.00D-07 DE=-9.17D-12 OVMax= 6.23D-07

 SCF Done:  E(UHF) =  -25.0329334081     A.U. after   18 cycles
            NFock= 18  Conv=0.65D-08     -V/T= 2.0000
 <Sx>= 0.0000 <Sy>= 0.0000 <Sz>= 0.0000 <S**2>= 1.0113 S= 0.6231
 <L.S>=  0.00000000000    
 KE= 2.503234097553D+01 PE=-5.878384545995D+01 EE= 8.277590067235D+00
 Annihilation of the first spin contaminant:
 S**2 before annihilation     1.0113,   after     0.0896
 Leave Link  502 at Sun May 22 21:08:10 2022, MaxMem=   104857600 cpu:               3.6 elap:               3.6
 (Enter /apps/software/g16/l601.exe)
 Copying SCF densities to generalized density rwf, IOpCl= 1 IROHF=0.

 **********************************************************************

            Population analysis using the SCF density.

 **********************************************************************

 Orbital symmetries:
 Alpha Orbitals:
       Occupied  (SG) (SG) (SG)
       Virtual   (PI) (PI) (SG) (SG) (SG) (PI) (PI) (SG) (SG) (DLTA)
                 (DLTA) (PI) (PI) (PI) (PI) (SG) (PI) (PI) (SG)
                 (SG) (SG) (PHI) (PHI) (DLTA) (DLTA) (PI) (PI)
                 (SG) (DLTA) (DLTA) (PI) (PI) (SG) (DLTA) (DLTA)
                 (PI) (PI) (SG) (PI) (PI) (SG) (PI) (PI) (SG) (?A)
                 (?A) (PHI) (PHI) (DLTA) (DLTA) (PI) (PI) (SG)
                 (DLTA) (DLTA) (SG) (PHI) (PHI) (PI) (PI) (DLTA)
                 (DLTA) (SG) (PI) (PI) (SG) (PHI) (PHI) (DLTA)
                 (DLTA) (PI) (PI) (SG) (SG) (DLTA) (DLTA) (PI)
                 (PI) (SG) (PI) (PI) (SG) (PI) (PI) (SG) (?A) (?A)
                 (PHI) (PHI) (DLTA) (DLTA) (DLTA) (DLTA) (PI) (PI)
                 (SG) (PI) (PI) (SG) (PHI) (PHI) (DLTA) (DLTA)
                 (PI) (PI) (SG) (PHI) (PHI) (DLTA) (DLTA) (PI)
                 (PI) (SG) (SG) (PI) (PI) (SG) (DLTA) (DLTA) (PI)
                 (PI) (SG) (SG)
 Beta  Orbitals:
       Occupied  (SG) (SG) (SG)
       Virtual   (SG) (PI) (PI) (SG) (SG) (PI) (PI) (SG) (PI) (PI)
                 (DLTA) (DLTA) (SG) (PI) (PI) (SG) (SG) (PI) (PI)
                 (SG) (PHI) (PHI) (SG) (DLTA) (DLTA) (PI) (PI)
                 (SG) (PI) (PI) (DLTA) (DLTA) (SG) (DLTA) (DLTA)
                 (PI) (PI) (SG) (PI) (PI) (SG) (SG) (PI) (PI) (?A)
                 (?A) (PHI) (PHI) (DLTA) (DLTA) (SG) (PI) (PI)
                 (SG) (PI) (PI) (DLTA) (DLTA) (SG) (PHI) (PHI)
                 (DLTA) (DLTA) (PI) (PI) (SG) (PHI) (PHI) (DLTA)
                 (DLTA) (PI) (PI) (SG) (SG) (DLTA) (DLTA) (PI)
                 (PI) (SG) (PI) (PI) (SG) (PI) (PI) (SG) (?A) (?A)
                 (PHI) (PHI) (DLTA) (DLTA) (PI) (PI) (SG) (DLTA)
                 (DLTA) (PI) (PI) (SG) (PHI) (PHI) (DLTA) (DLTA)
                 (PI) (PI) (SG) (PHI) (PHI) (DLTA) (DLTA) (PI)
                 (PI) (SG) (SG) (PI) (PI) (SG) (DLTA) (DLTA) (PI)
                 (PI) (SG) (SG)
 The electronic state is 1-SG.
 Alpha  occ. eigenvalues --   -7.68631  -0.49823  -0.44625
 Alpha virt. eigenvalues --    0.02745   0.02745   0.04192   0.05079   0.07144
 Alpha virt. eigenvalues --    0.08427   0.08427   0.12048   0.14435   0.14575
 Alpha virt. eigenvalues --    0.14575   0.14683   0.14683   0.18092   0.18092
 Alpha virt. eigenvalues --    0.22787   0.32055   0.32055   0.35393   0.36136
 Alpha virt. eigenvalues --    0.36924   0.46181   0.46181   0.47115   0.47115
 Alpha virt. eigenvalues --    0.47697   0.47697   0.48131   0.50170   0.50170
 Alpha virt. eigenvalues --    0.52325   0.52325   0.54239   0.61486   0.61486
 Alpha virt. eigenvalues --    0.61861   0.61861   0.63321   0.74638   0.74638
 Alpha virt. eigenvalues --    0.78778   1.06041   1.06041   1.10759   1.36975
 Alpha virt. eigenvalues --    1.36975   1.38446   1.38446   1.39491   1.39491
 Alpha virt. eigenvalues --    1.40153   1.40153   1.40377   1.41597   1.41597
 Alpha virt. eigenvalues --    1.42488   1.43979   1.43979   1.45382   1.45382
 Alpha virt. eigenvalues --    1.46372   1.46372   1.47650   1.47894   1.47894
 Alpha virt. eigenvalues --    1.49169   1.56035   1.56035   1.56051   1.56051
 Alpha virt. eigenvalues --    1.56109   1.56109   1.56276   1.58436   2.44950
 Alpha virt. eigenvalues --    2.44950   2.45074   2.45074   2.45571   2.54851
 Alpha virt. eigenvalues --    2.54851   2.57740   3.74442   3.74442   3.78932
 Alpha virt. eigenvalues --    3.92037   3.92037   3.94570   3.94570   3.96051
 Alpha virt. eigenvalues --    3.96051   3.96497   3.96497   3.97505   3.97505
 Alpha virt. eigenvalues --    3.97886   4.00120   4.00120   4.02361   4.08878
 Alpha virt. eigenvalues --    4.08878   4.12143   4.12143   4.14189   4.14189
 Alpha virt. eigenvalues --    4.15140   6.55275   6.55275   6.55280   6.55280
 Alpha virt. eigenvalues --    6.55291   6.55291   6.55317   7.39014   7.92870
 Alpha virt. eigenvalues --    7.92870   7.94949   8.38837   8.38837   8.38904
 Alpha virt. eigenvalues --    8.38904   8.39296  13.05075
  Beta  occ. eigenvalues --   -7.70146  -0.54530  -0.31877
  Beta virt. eigenvalues --    0.01630   0.02366   0.02366   0.05252   0.06588
  Beta virt. eigenvalues --    0.07728   0.07728   0.11447   0.14486   0.14486
  Beta virt. eigenvalues --    0.14567   0.14567   0.14597   0.19773   0.19773
  Beta virt. eigenvalues --    0.23948   0.27615   0.31240   0.31240   0.34516
  Beta virt. eigenvalues --    0.46188   0.46188   0.46402   0.46711   0.46711
  Beta virt. eigenvalues --    0.47039   0.47039   0.47932   0.49278   0.49278
  Beta virt. eigenvalues --    0.50059   0.50059   0.51120   0.62827   0.62827
  Beta virt. eigenvalues --    0.63156   0.63156   0.64552   0.81339   0.81339
  Beta virt. eigenvalues --    0.84881   1.02769   1.05103   1.05103   1.37002
  Beta virt. eigenvalues --    1.37002   1.37930   1.37930   1.38594   1.38594
  Beta virt. eigenvalues --    1.38912   1.38984   1.38984   1.39199   1.40492
  Beta virt. eigenvalues --    1.40492   1.41108   1.41108   1.42576   1.43914
  Beta virt. eigenvalues --    1.43914   1.44744   1.44744   1.45261   1.45261
  Beta virt. eigenvalues --    1.46095   1.57292   1.57292   1.57308   1.57308
  Beta virt. eigenvalues --    1.57359   1.57359   1.57497   1.69733   2.48898
  Beta virt. eigenvalues --    2.48898   2.49020   2.49020   2.49546   2.62350
  Beta virt. eigenvalues --    2.62350   2.65086   3.73724   3.73724   3.73894
  Beta virt. eigenvalues --    3.91967   3.91967   3.93480   3.93480   3.94561
  Beta virt. eigenvalues --    3.94561   3.95210   3.95210   3.95448   3.95602
  Beta virt. eigenvalues --    3.95602   3.96457   3.96457   3.97597   4.08609
  Beta virt. eigenvalues --    4.08609   4.09998   4.09998   4.10852   4.10852
  Beta virt. eigenvalues --    4.11395   6.58160   6.58160   6.58164   6.58164
  Beta virt. eigenvalues --    6.58175   6.58175   6.58201   7.47220   7.98670
  Beta virt. eigenvalues --    7.98670   8.00726   8.43061   8.43061   8.43128
  Beta virt. eigenvalues --    8.43128   8.43516  13.03896
          Condensed to atoms (all electrons):
               1          2
     1  B    4.999823   0.000118
     2  H    0.000118   0.999942
          Atomic-Atomic Spin Densities.
               1          2
     1  B   -0.999921  -0.000008
     2  H   -0.000008   0.999938
 Mulliken charges and spin densities:
               1          2
     1  B    0.000060  -0.999930
     2  H   -0.000060   0.999930
 Sum of Mulliken charges =  -0.00000   0.00000
 Mulliken charges and spin densities with hydrogens summed into heavy atoms:
               1          2
     1  B   -0.000000   0.000000
 Electronic spatial extent (au):  <R**2>=            125.9564
 Charge=             -0.0000 electrons
 Dipole moment (field-independent basis, Debye):
    X=              0.0000    Y=              0.0000    Z=              0.0054  Tot=              0.0054
 Quadrupole moment (field-independent basis, Debye-Ang):
   XX=             -7.3043   YY=             -7.3043   ZZ=            -10.7110
   XY=             -0.0000   XZ=              0.0000   YZ=             -0.0000
 Traceless Quadrupole moment (field-independent basis, Debye-Ang):
   XX=              1.1356   YY=              1.1356   ZZ=             -2.2711
   XY=             -0.0000   XZ=              0.0000   YZ=             -0.0000
 Octapole moment (field-independent basis, Debye-Ang**2):
  XXX=              0.0000  YYY=              0.0000  ZZZ=             -7.3530  XYY=              0.0000
  XXY=             -0.0000  XXZ=              0.7783  XZZ=              0.0000  YZZ=              0.0000
  YYZ=              0.7783  XYZ=             -0.0000
 Hexadecapole moment (field-independent basis, Debye-Ang**3):
 XXXX=            -10.7213 YYYY=            -10.7213 ZZZZ=           -281.9094 XXXY=             -0.0000
 XXXZ=              0.0000 YYYX=             -0.0000 YYYZ=             -0.0000 ZZZX=              0.0000
 ZZZY=             -0.0000 XXYY=             -3.5738 XXZZ=            -44.9810 YYZZ=            -44.9810
 XXYZ=              0.0000 YYXZ=              0.0000 ZZXY=             -0.0000
 N-N= 4.409810091000D-01 E-N=-5.878384520571D+01  KE= 2.503234097553D+01
 Symmetry A1   KE= 2.503234097553D+01
 Symmetry A2   KE= 8.113107265911D-30
 Symmetry B1   KE= 1.039513820965D-29
 Symmetry B2   KE= 8.865640142133D-30
 Symmetry A1   SP= 9.454138699122D-15
 Symmetry A2   SP=-1.480478066457D-30
 Symmetry B1   SP= 1.099392122185D-30
 Symmetry B2   SP=-3.334120560052D-31
                          Isotropic Fermi Contact Couplings
        Atom                 a.u.       MegaHertz       Gauss      10(-4) cm-1
     1  B(11)             -0.00233      -1.66894      -0.59552      -0.55670
     2  H(1)               0.29855     667.24608     238.08999     222.56934
 --------------------------------------------------------
       Center         ----  Spin Dipole Couplings  ----
                      3XX-RR        3YY-RR        3ZZ-RR
 --------------------------------------------------------
     1   Atom        0.331024      0.331024     -0.662049
     2   Atom        0.000811      0.000811     -0.001621
 --------------------------------------------------------
                        XY            XZ            YZ
 --------------------------------------------------------
     1   Atom        0.000000      0.000000      0.000000
     2   Atom        0.000000      0.000000      0.000000
 --------------------------------------------------------


 ---------------------------------------------------------------------------------
              Anisotropic Spin Dipole Couplings in Principal Axis System
 ---------------------------------------------------------------------------------

       Atom             a.u.   MegaHertz   Gauss  10(-4) cm-1        Axes

              Baa    -0.6620  -113.353   -40.447   -37.810  0.0000  0.0000  1.0000
     1 B(11)  Bbb     0.3310    56.676    20.223    18.905 -0.0000  1.0000  0.0000
              Bcc     0.3310    56.676    20.223    18.905  1.0000  0.0000  0.0000
 
              Baa    -0.0016    -0.865    -0.309    -0.289  0.0000  0.0000  1.0000
     2 H(1)   Bbb     0.0008     0.432     0.154     0.144 -0.0000  1.0000  0.0000
              Bcc     0.0008     0.432     0.154     0.144  1.0000  0.0000  0.0000
 

 ---------------------------------------------------------------------------------

 No NMR shielding tensors so no spin-rotation constants.
 Leave Link  601 at Sun May 22 21:08:10 2022, MaxMem=   104857600 cpu:               0.2 elap:               0.2
 (Enter /apps/software/g16/l801.exe)
 Range of M.O.s used for correlation:     1   126
 NBasis=   126 NAE=     3 NBE=     3 NFC=     0 NFV=     0
 NROrb=    126 NOA=     3 NOB=     3 NVA=   123 NVB=   123
 Leave Link  801 at Sun May 22 21:08:10 2022, MaxMem=   104857600 cpu:               0.0 elap:               0.0
 (Enter /apps/software/g16/l914.exe)
 UHF ground state
 Doing stability rather than CIS.
 Keep R1 and R2 ints in memory in symmetry-blocked form, NReq=40144005.
 FoFCou: FMM=F IPFlag=           0 FMFlag=           0 FMFlg1=           0
         NFxFlg=           0 DoJE=F BraDBF=F KetDBF=F FulRan=T
         wScrn=  0.000000 ICntrl=       600 IOpCl=  0 I1Cent=           0 NGrid=           0
         NMat0=    1 NMatS0=   8001 NMatT0=    0 NMatD0=    1 NMtDS0=    0 NMtDT0=    0
 Petite list used in FoFCou.
 MDV=   104857600 DFT=F DoStab=T Mixed=F DoRPA=F DoScal=F NonHer=F
 Making orbital integer symmetry assigments:
 Orbital symmetries:
 Alpha Orbitals:
       Occupied  (SG) (SG) (SG)
       Virtual   (PI) (PI) (SG) (SG) (SG) (PI) (PI) (SG) (SG) (DLTA)
                 (DLTA) (PI) (PI) (PI) (PI) (SG) (PI) (PI) (SG)
                 (SG) (SG) (PHI) (PHI) (DLTA) (DLTA) (PI) (PI)
                 (SG) (DLTA) (DLTA) (PI) (PI) (SG) (DLTA) (DLTA)
                 (PI) (PI) (SG) (PI) (PI) (SG) (PI) (PI) (SG) (?A)
                 (?A) (PHI) (PHI) (DLTA) (DLTA) (PI) (PI) (SG)
                 (DLTA) (DLTA) (SG) (PHI) (PHI) (PI) (PI) (DLTA)
                 (DLTA) (SG) (PI) (PI) (SG) (PHI) (PHI) (DLTA)
                 (DLTA) (PI) (PI) (SG) (SG) (DLTA) (DLTA) (PI)
                 (PI) (SG) (PI) (PI) (SG) (PI) (PI) (SG) (?A) (?A)
                 (PHI) (PHI) (DLTA) (DLTA) (DLTA) (DLTA) (PI) (PI)
                 (SG) (PI) (PI) (SG) (PHI) (PHI) (DLTA) (DLTA)
                 (PI) (PI) (SG) (PHI) (PHI) (DLTA) (DLTA) (PI)
                 (PI) (SG) (SG) (PI) (PI) (SG) (DLTA) (DLTA) (PI)
                 (PI) (SG) (SG)
 Beta  Orbitals:
       Occupied  (SG) (SG) (SG)
       Virtual   (SG) (PI) (PI) (SG) (SG) (PI) (PI) (SG) (PI) (PI)
                 (DLTA) (DLTA) (SG) (PI) (PI) (SG) (SG) (PI) (PI)
                 (SG) (PHI) (PHI) (SG) (DLTA) (DLTA) (PI) (PI)
                 (SG) (PI) (PI) (DLTA) (DLTA) (SG) (DLTA) (DLTA)
                 (PI) (PI) (SG) (PI) (PI) (SG) (SG) (PI) (PI) (?A)
                 (?A) (PHI) (PHI) (DLTA) (DLTA) (SG) (PI) (PI)
                 (SG) (PI) (PI) (DLTA) (DLTA) (SG) (PHI) (PHI)
                 (DLTA) (DLTA) (PI) (PI) (SG) (PHI) (PHI) (DLTA)
                 (DLTA) (PI) (PI) (SG) (SG) (DLTA) (DLTA) (PI)
                 (PI) (SG) (PI) (PI) (SG) (PI) (PI) (SG) (?A) (?A)
                 (PHI) (PHI) (DLTA) (DLTA) (PI) (PI) (SG) (DLTA)
                 (DLTA) (PI) (PI) (SG) (PHI) (PHI) (DLTA) (DLTA)
                 (PI) (PI) (SG) (PHI) (PHI) (DLTA) (DLTA) (PI)
                 (PI) (SG) (SG) (PI) (PI) (SG) (DLTA) (DLTA) (PI)
                 (PI) (SG) (SG)
    12 initial guesses have been made.
 Convergence on wavefunction:    0.001000000000000
 Davidson Disk Diagonalization:  ConvIn= 1.00D-03 SkipCon=T Conv= 1.00D-03.
 Max sub-space:  1476 roots to seek:    12 dimension of matrix:          738
 Iteration     1 Dimension    12 NMult     0 NNew     12
 CISAX will form    12 AO SS matrices at one time.
 NMat=    12 NSing=    12 JSym2X= 2.
 Excitation Energies [eV] at current iteration:
 Root      1 :     0.479522087815966
 Root      2 :     0.479522087816063
 Root      3 :     1.267921374966313
 Root      4 :     1.267921374966404
 Root      5 :     5.531940535161796
 Root      6 :     6.563352751874551
 Root      7 :     6.563352751874594
 Root      8 :     6.606236094313890
 Root      9 :    11.608901491191469
 Root     10 :    11.608901491191499
 Root     11 :    13.786665336037283
 Root     12 :    13.786665336037283
 Iteration     2 Dimension    24 NMult    12 NNew     12
 CISAX will form    12 AO SS matrices at one time.
 NMat=    12 NSing=    12 JSym2X= 2.
 Root      1 not converged, maximum delta is    0.080703344834402
 Excitation Energies [eV] at current iteration:
 Root      1 :     0.005922941896502   Change is   -0.473599145919464
 Root      2 :     0.005922941896593   Change is   -0.473599145919470
 Root      3 :     0.832174469871653   Change is   -0.435746905094661
 Root      4 :     0.832174469871731   Change is   -0.435746905094673
 Root      5 :     5.227005517330783   Change is   -0.304935017831014
 Root      6 :     6.137040004428679   Change is   -0.469196089885211
 Root      7 :     6.488584411141596   Change is   -0.074768340732955
 Root      8 :     6.488584411141621   Change is   -0.074768340732973
 Root      9 :     8.501529460634842   Change is   -3.107372030556657
 Root     10 :     8.501529460634885   Change is   -3.107372030556585
 Root     11 :    12.093739095846171   Change is   -1.692926240191111
 Root     12 :    12.093739095846226   Change is   -1.692926240191057
 Iteration     3 Dimension    27 NMult    24 NNew      3
 CISAX will form     3 AO SS matrices at one time.
 NMat=     3 NSing=     3 JSym2X= 2.
 Root      1 not converged, maximum delta is    0.014825458578280
 Excitation Energies [eV] at current iteration:
 Root      1 :     0.000105125681390   Change is   -0.005817816215113
 Root      2 :     0.000105126603414   Change is   -0.005817815293179
 Root      3 :     0.819509751155349   Change is   -0.012664718716303
 Iteration     4 Dimension    30 NMult    27 NNew      3
 CISAX will form     3 AO SS matrices at one time.
 NMat=     3 NSing=     3 JSym2X= 2.
 Root      1 has converged.
 Excitation Energies [eV] at current iteration:
 Root      1 :     0.000043760215730   Change is   -0.000061365465660
 Root      2 :     0.000043760605230   Change is   -0.000061365998184
 Root      3 :     0.819355115759582   Change is   -0.000154635395767
 Convergence achieved on expansion vectors.
 ***********************************************************************
 Stability analysis using <AA,BB:AA,BB> singles matrix:
 ***********************************************************************
 1PDM for each excited state written to RWF  633
 Ground to excited state transition densities written to RWF  633

 Eigenvectors of the stability matrix:
 
 Excited state symmetry could not be determined.
 Eigenvector   1:  2.272-?Sym  Eigenvalue= 0.0000016  <S**2>=1.041
      3B ->  5B       -0.34325
      3B ->  6B       -0.59305
      3B ->  9B        0.21245
      3B -> 10B        0.61831
      3B -> 21B        0.17224
      3B -> 22B        0.23099
 The wavefunction is stable under the perturbations considered.
 Leave Link  914 at Sun May 22 21:08:14 2022, MaxMem=   104857600 cpu:               3.6 elap:               3.6
 (Enter /apps/software/g16/l508.exe)
 The wavefunction is already stable.
 Leave Link  508 at Sun May 22 21:08:14 2022, MaxMem=   104857600 cpu:               0.0 elap:               0.0
 (Enter /apps/software/g16/l601.exe)
 Copying SCF densities to generalized density rwf, IOpCl= 1 IROHF=0.

 **********************************************************************

            Population analysis using the SCF density.

 **********************************************************************

 Orbital symmetries:
 Alpha Orbitals:
       Occupied  (SG) (SG) (SG)
       Virtual   (PI) (PI) (SG) (SG) (SG) (PI) (PI) (SG) (SG) (DLTA)
                 (DLTA) (PI) (PI) (PI) (PI) (SG) (PI) (PI) (SG)
                 (SG) (SG) (PHI) (PHI) (DLTA) (DLTA) (PI) (PI)
                 (SG) (DLTA) (DLTA) (PI) (PI) (SG) (DLTA) (DLTA)
                 (PI) (PI) (SG) (PI) (PI) (SG) (PI) (PI) (SG) (?A)
                 (?A) (PHI) (PHI) (DLTA) (DLTA) (PI) (PI) (SG)
                 (DLTA) (DLTA) (SG) (PHI) (PHI) (PI) (PI) (DLTA)
                 (DLTA) (SG) (PI) (PI) (SG) (PHI) (PHI) (DLTA)
                 (DLTA) (PI) (PI) (SG) (SG) (DLTA) (DLTA) (PI)
                 (PI) (SG) (PI) (PI) (SG) (PI) (PI) (SG) (?A) (?A)
                 (PHI) (PHI) (DLTA) (DLTA) (DLTA) (DLTA) (PI) (PI)
                 (SG) (PI) (PI) (SG) (PHI) (PHI) (DLTA) (DLTA)
                 (PI) (PI) (SG) (PHI) (PHI) (DLTA) (DLTA) (PI)
                 (PI) (SG) (SG) (PI) (PI) (SG) (DLTA) (DLTA) (PI)
                 (PI) (SG) (SG)
 Beta  Orbitals:
       Occupied  (SG) (SG) (SG)
       Virtual   (SG) (PI) (PI) (SG) (SG) (PI) (PI) (SG) (PI) (PI)
                 (DLTA) (DLTA) (SG) (PI) (PI) (SG) (SG) (PI) (PI)
                 (SG) (PHI) (PHI) (SG) (DLTA) (DLTA) (PI) (PI)
                 (SG) (PI) (PI) (DLTA) (DLTA) (SG) (DLTA) (DLTA)
                 (PI) (PI) (SG) (PI) (PI) (SG) (SG) (PI) (PI) (?A)
                 (?A) (PHI) (PHI) (DLTA) (DLTA) (SG) (PI) (PI)
                 (SG) (PI) (PI) (DLTA) (DLTA) (SG) (PHI) (PHI)
                 (DLTA) (DLTA) (PI) (PI) (SG) (PHI) (PHI) (DLTA)
                 (DLTA) (PI) (PI) (SG) (SG) (DLTA) (DLTA) (PI)
                 (PI) (SG) (PI) (PI) (SG) (PI) (PI) (SG) (?A) (?A)
                 (PHI) (PHI) (DLTA) (DLTA) (PI) (PI) (SG) (DLTA)
                 (DLTA) (PI) (PI) (SG) (PHI) (PHI) (DLTA) (DLTA)
                 (PI) (PI) (SG) (PHI) (PHI) (DLTA) (DLTA) (PI)
                 (PI) (SG) (SG) (PI) (PI) (SG) (DLTA) (DLTA) (PI)
                 (PI) (SG) (SG)
 The electronic state is 1-SG.
 Alpha  occ. eigenvalues --   -7.68631  -0.49823  -0.44625
 Alpha virt. eigenvalues --    0.02745   0.02745   0.04192   0.05079   0.07144
 Alpha virt. eigenvalues --    0.08427   0.08427   0.12048   0.14435   0.14575
 Alpha virt. eigenvalues --    0.14575   0.14683   0.14683   0.18092   0.18092
 Alpha virt. eigenvalues --    0.22787   0.32055   0.32055   0.35393   0.36136
 Alpha virt. eigenvalues --    0.36924   0.46181   0.46181   0.47115   0.47115
 Alpha virt. eigenvalues --    0.47697   0.47697   0.48131   0.50170   0.50170
 Alpha virt. eigenvalues --    0.52325   0.52325   0.54239   0.61486   0.61486
 Alpha virt. eigenvalues --    0.61861   0.61861   0.63321   0.74638   0.74638
 Alpha virt. eigenvalues --    0.78778   1.06041   1.06041   1.10759   1.36975
 Alpha virt. eigenvalues --    1.36975   1.38446   1.38446   1.39491   1.39491
 Alpha virt. eigenvalues --    1.40153   1.40153   1.40377   1.41597   1.41597
 Alpha virt. eigenvalues --    1.42488   1.43979   1.43979   1.45382   1.45382
 Alpha virt. eigenvalues --    1.46372   1.46372   1.47650   1.47894   1.47894
 Alpha virt. eigenvalues --    1.49169   1.56035   1.56035   1.56051   1.56051
 Alpha virt. eigenvalues --    1.56109   1.56109   1.56276   1.58436   2.44950
 Alpha virt. eigenvalues --    2.44950   2.45074   2.45074   2.45571   2.54851
 Alpha virt. eigenvalues --    2.54851   2.57740   3.74442   3.74442   3.78932
 Alpha virt. eigenvalues --    3.92037   3.92037   3.94570   3.94570   3.96051
 Alpha virt. eigenvalues --    3.96051   3.96497   3.96497   3.97505   3.97505
 Alpha virt. eigenvalues --    3.97886   4.00120   4.00120   4.02361   4.08878
 Alpha virt. eigenvalues --    4.08878   4.12143   4.12143   4.14189   4.14189
 Alpha virt. eigenvalues --    4.15140   6.55275   6.55275   6.55280   6.55280
 Alpha virt. eigenvalues --    6.55291   6.55291   6.55317   7.39014   7.92870
 Alpha virt. eigenvalues --    7.92870   7.94949   8.38837   8.38837   8.38904
 Alpha virt. eigenvalues --    8.38904   8.39296  13.05075
  Beta  occ. eigenvalues --   -7.70146  -0.54530  -0.31877
  Beta virt. eigenvalues --    0.01630   0.02366   0.02366   0.05252   0.06588
  Beta virt. eigenvalues --    0.07728   0.07728   0.11447   0.14486   0.14486
  Beta virt. eigenvalues --    0.14567   0.14567   0.14597   0.19773   0.19773
  Beta virt. eigenvalues --    0.23948   0.27615   0.31240   0.31240   0.34516
  Beta virt. eigenvalues --    0.46188   0.46188   0.46402   0.46711   0.46711
  Beta virt. eigenvalues --    0.47039   0.47039   0.47932   0.49278   0.49278
  Beta virt. eigenvalues --    0.50059   0.50059   0.51120   0.62827   0.62827
  Beta virt. eigenvalues --    0.63156   0.63156   0.64552   0.81339   0.81339
  Beta virt. eigenvalues --    0.84881   1.02769   1.05103   1.05103   1.37002
  Beta virt. eigenvalues --    1.37002   1.37930   1.37930   1.38594   1.38594
  Beta virt. eigenvalues --    1.38912   1.38984   1.38984   1.39199   1.40492
  Beta virt. eigenvalues --    1.40492   1.41108   1.41108   1.42576   1.43914
  Beta virt. eigenvalues --    1.43914   1.44744   1.44744   1.45261   1.45261
  Beta virt. eigenvalues --    1.46095   1.57292   1.57292   1.57308   1.57308
  Beta virt. eigenvalues --    1.57359   1.57359   1.57497   1.69733   2.48898
  Beta virt. eigenvalues --    2.48898   2.49020   2.49020   2.49546   2.62350
  Beta virt. eigenvalues --    2.62350   2.65086   3.73724   3.73724   3.73894
  Beta virt. eigenvalues --    3.91967   3.91967   3.93480   3.93480   3.94561
  Beta virt. eigenvalues --    3.94561   3.95210   3.95210   3.95448   3.95602
  Beta virt. eigenvalues --    3.95602   3.96457   3.96457   3.97597   4.08609
  Beta virt. eigenvalues --    4.08609   4.09998   4.09998   4.10852   4.10852
  Beta virt. eigenvalues --    4.11395   6.58160   6.58160   6.58164   6.58164
  Beta virt. eigenvalues --    6.58175   6.58175   6.58201   7.47220   7.98670
  Beta virt. eigenvalues --    7.98670   8.00726   8.43061   8.43061   8.43128
  Beta virt. eigenvalues --    8.43128   8.43516  13.03896
          Condensed to atoms (all electrons):
               1          2
     1  B    4.999823   0.000118
     2  H    0.000118   0.999942
          Atomic-Atomic Spin Densities.
               1          2
     1  B   -0.999921  -0.000008
     2  H   -0.000008   0.999938
 Mulliken charges and spin densities:
               1          2
     1  B    0.000060  -0.999930
     2  H   -0.000060   0.999930
 Sum of Mulliken charges =  -0.00000   0.00000
 Mulliken charges and spin densities with hydrogens summed into heavy atoms:
               1          2
     1  B   -0.000000   0.000000
 Electronic spatial extent (au):  <R**2>=            125.9564
 Charge=             -0.0000 electrons
 Dipole moment (field-independent basis, Debye):
    X=              0.0000    Y=              0.0000    Z=              0.0054  Tot=              0.0054
 Quadrupole moment (field-independent basis, Debye-Ang):
   XX=             -7.3043   YY=             -7.3043   ZZ=            -10.7110
   XY=             -0.0000   XZ=              0.0000   YZ=             -0.0000
 Traceless Quadrupole moment (field-independent basis, Debye-Ang):
   XX=              1.1356   YY=              1.1356   ZZ=             -2.2711
   XY=             -0.0000   XZ=              0.0000   YZ=             -0.0000
 Octapole moment (field-independent basis, Debye-Ang**2):
  XXX=              0.0000  YYY=              0.0000  ZZZ=             -7.3530  XYY=              0.0000
  XXY=             -0.0000  XXZ=              0.7783  XZZ=              0.0000  YZZ=              0.0000
  YYZ=              0.7783  XYZ=             -0.0000
 Hexadecapole moment (field-independent basis, Debye-Ang**3):
 XXXX=            -10.7213 YYYY=            -10.7213 ZZZZ=           -281.9094 XXXY=             -0.0000
 XXXZ=              0.0000 YYYX=             -0.0000 YYYZ=             -0.0000 ZZZX=              0.0000
 ZZZY=             -0.0000 XXYY=             -3.5738 XXZZ=            -44.9810 YYZZ=            -44.9810
 XXYZ=              0.0000 YYXZ=              0.0000 ZZXY=             -0.0000
 N-N= 4.409810091000D-01 E-N=-5.878384520571D+01  KE= 2.503234097553D+01
 Symmetry A1   KE= 2.503234097553D+01
 Symmetry A2   KE= 8.113107265911D-30
 Symmetry B1   KE= 1.039513820965D-29
 Symmetry B2   KE= 8.865640142133D-30
 Symmetry A1   SP= 9.454138699122D-15
 Symmetry A2   SP=-1.480478066457D-30
 Symmetry B1   SP= 1.099392122185D-30
 Symmetry B2   SP=-3.334120560052D-31
                          Isotropic Fermi Contact Couplings
        Atom                 a.u.       MegaHertz       Gauss      10(-4) cm-1
     1  B(11)             -0.00233      -1.66894      -0.59552      -0.55670
     2  H(1)               0.29855     667.24608     238.08999     222.56934
 --------------------------------------------------------
       Center         ----  Spin Dipole Couplings  ----
                      3XX-RR        3YY-RR        3ZZ-RR
 --------------------------------------------------------
     1   Atom        0.331024      0.331024     -0.662049
     2   Atom        0.000811      0.000811     -0.001621
 --------------------------------------------------------
                        XY            XZ            YZ
 --------------------------------------------------------
     1   Atom        0.000000      0.000000      0.000000
     2   Atom        0.000000      0.000000      0.000000
 --------------------------------------------------------


 ---------------------------------------------------------------------------------
              Anisotropic Spin Dipole Couplings in Principal Axis System
 ---------------------------------------------------------------------------------

       Atom             a.u.   MegaHertz   Gauss  10(-4) cm-1        Axes

              Baa    -0.6620  -113.353   -40.447   -37.810  0.0000  0.0000  1.0000
     1 B(11)  Bbb     0.3310    56.676    20.223    18.905 -0.0000  1.0000  0.0000
              Bcc     0.3310    56.676    20.223    18.905  1.0000  0.0000  0.0000
 
              Baa    -0.0016    -0.865    -0.309    -0.289  0.0000  0.0000  1.0000
     2 H(1)   Bbb     0.0008     0.432     0.154     0.144 -0.0000  1.0000  0.0000
              Bcc     0.0008     0.432     0.154     0.144  1.0000  0.0000  0.0000
 

 ---------------------------------------------------------------------------------

 No NMR shielding tensors so no spin-rotation constants.
 Leave Link  601 at Sun May 22 21:08:14 2022, MaxMem=   104857600 cpu:               0.2 elap:               0.2
 (Enter /apps/software/g16/l9999.exe)
 1\1\GINC-CNODE01\Stability\UHF\Aug-CC-pVQZ\B1H1\LCZ\22-May-2022\0\\#p 
 UHF/aug-cc-pVQZ guess=mix stable=opt\\BH UHF at 6.0 Angstrom\\0,1\B,0,
 0.,0.,0.\H,0,6.,0.,0.\\Version=ES64L-G16RevA.03\State=1-SG\HF=-25.0329
 334\S2=1.011308\S2-1=0.\S2A=0.08961\RMSD=6.535e-09\Dipole=-0.0021213,0
 .,0.\Quadrupole=-1.6885324,0.8442662,0.8442662,0.,0.,0.\PG=C*V [C*(H1B
 1)]\\@


 THE SCIENTIFIC THEORIST IS NOT TO BE ENVIED. FOR NATURE, OR MORE
 PRECISELY EXPERIMENT, IS AN INEXORABLE AND NOT VERY FRIENDLY JUDGE OF HIS
 WORK.  IT NEVER SAYS "YES" TO A THEORY. IN THE MOST FAVORABLE CASES
 IT SAYS "MAYBE", AND IN THE GREAT MAJORITY OF CASES SIMPLY "NO"...
 PROBABLY EVERY THEORY WILL SOME DAY EXPERIENCE ITS "NO" - MOST
 THEORIES, SOON AFTER CONCEPTION.  -- A.EINSTEIN, NOV 11, 1922.
 Job cpu time:       0 days  0 hours  0 minutes  8.4 seconds.
 Elapsed time:       0 days  0 hours  0 minutes  8.4 seconds.
 File lengths (MBytes):  RWF=     29 Int=      0 D2E=      0 Chk=      4 Scr=      1
 Normal termination of Gaussian 16 at Sun May 22 21:08:14 2022.

Sender: Unischeduler System <lcz@mgt01>
Subject: Job 134369: <#!/bin/bash
#BSUB -J intel
#BSUB -o BH-6.0-UHF-G.out
#BSUB -n 8
#BSUB -q cqueue
#BSUB -R span[hosts=1]
export g16root=/apps/software
source /apps/software/g16/bsd/g16.profile
export GAUSS_SCRDIR=/scratch
/apps/software/g16/g16 < BH-6.0-UHF-G.inp > BH-6.0-UHF-G.out> Done

Job <#!/bin/bash
#BSUB -J intel
#BSUB -o BH-6.0-UHF-G.out
#BSUB -n 8
#BSUB -q cqueue
#BSUB -R span[hosts=1]
export g16root=/apps/software
source /apps/software/g16/bsd/g16.profile
export GAUSS_SCRDIR=/scratch
/apps/software/g16/g16 < BH-6.0-UHF-G.inp > BH-6.0-UHF-G.out> was submitted from host <mgt01> by user <lcz>.
Job was executed on host(s) <8*cnode01>, in queue <cqueue>, as user <lcz>.
</apps/users/lcz> was used as the home directory.
</apps/users/lcz/exe13/UCCSD_T> was used as the working directory.
Started at 2022-05-22 21:08:06
Results reported at 2022-05-22 21:08:14

Your job looked like:

------------------------------------------------------------
# User input
#!/bin/bash
#BSUB -J intel
#BSUB -o BH-6.0-UHF-G.out
#BSUB -n 8
#BSUB -q cqueue
#BSUB -R span[hosts=1]
export g16root=/apps/software
source /apps/software/g16/bsd/g16.profile
export GAUSS_SCRDIR=/scratch
/apps/software/g16/g16 < BH-6.0-UHF-G.inp > BH-6.0-UHF-G.out
------------------------------------------------------------

Successfully completed.

Resource usage summary:

    CPU time   :            4.22 sec.
    Max Memory :               483 MB
    Max Processes  :               5


The output (if any) follows:

