
                                        *****************
                                        * O   R   C   A *
                                        *****************

                                            #,                                       
                                            ###                                      
                                            ####                                     
                                            #####                                    
                                            ######                                   
                                           ########,                                 
                                     ,,################,,,,,                         
                               ,,#################################,,                 
                          ,,##########################################,,             
                       ,#########################################, ''#####,          
                    ,#############################################,,   '####,        
                  ,##################################################,,,,####,       
                ,###########''''           ''''###############################       
              ,#####''   ,,,,##########,,,,          '''####'''          '####       
            ,##' ,,,,###########################,,,                        '##       
           ' ,,###''''                  '''############,,,                           
         ,,##''                                '''############,,,,        ,,,,,,###''
      ,#''                                            '''#######################'''  
     '                                                          ''''####''''         
             ,#######,   #######,   ,#######,      ##                                
            ,#'     '#,  ##    ##  ,#'     '#,    #''#        ######   ,####,        
            ##       ##  ##   ,#'  ##            #'  '#       #        #'  '#        
            ##       ##  #######   ##           ,######,      #####,   #    #        
            '#,     ,#'  ##    ##  '#,     ,#' ,#      #,         ##   #,  ,#        
             '#######'   ##     ##  '#######'  #'      '#     #####' # '####'        



                  #######################################################
                  #                        -***-                        #
                  #          Department of theory and spectroscopy      #
                  #    Directorship and core code : Frank Neese         #
                  #        Max Planck Institute fuer Kohlenforschung    #
                  #                Kaiser Wilhelm Platz 1               #
                  #                 D-45470 Muelheim/Ruhr               #
                  #                      Germany                        #
                  #                                                     #
                  #                  All rights reserved                #
                  #                        -***-                        #
                  #######################################################


                         Program Version 5.0.0 -  RELEASE  -
                                (SVN: $Rev: 19529$)
                ($Date: 2021-06-28 11:36:33 +0200 (Mo, 28 Jun 2021) $)


 With contributions from (in alphabetic order):
   Daniel Aravena         : Magnetic Suceptibility
   Michael Atanasov       : Ab Initio Ligand Field Theory (pilot matlab implementation)
   Alexander A. Auer      : GIAO ZORA, VPT2 properties, NMR spectrum
   Ute Becker             : Parallelization
   Giovanni Bistoni       : ED, misc. LED, open-shell LED, HFLD
   Martin Brehm           : Molecular dynamics
   Dmytro Bykov           : SCF Hessian
   Vijay G. Chilkuri      : MRCI spin determinant printing, contributions to CSF-ICE
   Dipayan Datta          : RHF DLPNO-CCSD density
   Achintya Kumar Dutta   : EOM-CC, STEOM-CC
   Dmitry Ganyushin       : Spin-Orbit,Spin-Spin,Magnetic field MRCI
   Miquel Garcia          : C-PCM Hessian, Gaussian charge scheme
   Yang Guo               : DLPNO-NEVPT2, F12-NEVPT2, CIM, IAO-localization
   Andreas Hansen         : Spin unrestricted coupled pair/coupled cluster methods
   Benjamin Helmich-Paris : MC-RPA, TRAH-SCF, COSX integrals
   Lee Huntington         : MR-EOM, pCC
   Robert Izsak           : Overlap fitted RIJCOSX, COSX-SCS-MP3, EOM
   Marcus Kettner         : VPT2
   Christian Kollmar      : KDIIS, OOCD, Brueckner-CCSD(T), CCSD density, CASPT2, CASPT2-K
   Simone Kossmann        : Meta GGA functionals, TD-DFT gradient, OOMP2, MP2 Hessian
   Martin Krupicka        : Initial AUTO-CI
   Lucas Lang             : DCDCAS
   Marvin Lechner         : AUTO-CI (C++ implementation), FIC-MRCC
   Dagmar Lenk            : GEPOL surface, SMD
   Dimitrios Liakos       : Extrapolation schemes; Compound Job, initial MDCI parallelization
   Dimitrios Manganas     : Further ROCIS development; embedding schemes
   Dimitrios Pantazis     : SARC Basis sets
   Anastasios Papadopoulos: AUTO-CI, single reference methods and gradients
   Taras Petrenko         : DFT Hessian,TD-DFT gradient, ASA, ECA, R-Raman, ABS, FL, XAS/XES, NRVS
   Peter Pinski           : DLPNO-MP2, DLPNO-MP2 Gradient
   Christoph Reimann      : Effective Core Potentials
   Marius Retegan         : Local ZFS, SOC
   Christoph Riplinger    : Optimizer, TS searches, QM/MM, DLPNO-CCSD(T), (RO)-DLPNO pert. Triples
   Tobias Risthaus        : Range-separated hybrids, TD-DFT gradient, RPA, STAB
   Michael Roemelt        : Original ROCIS implementation
   Masaaki Saitow         : Open-shell DLPNO-CCSD energy and density
   Barbara Sandhoefer     : DKH picture change effects
   Avijit Sen             : IP-ROCIS
   Kantharuban Sivalingam : CASSCF convergence, NEVPT2, FIC-MRCI
   Bernardo de Souza      : ESD, SOC TD-DFT
   Georgi Stoychev        : AutoAux, RI-MP2 NMR
   Willem Van den Heuvel  : Paramagnetic NMR
   Boris Wezisla          : Elementary symmetry handling
   Frank Wennmohs         : Technical directorship


 We gratefully acknowledge several colleagues who have allowed us to
 interface, adapt or use parts of their codes:
   Stefan Grimme, W. Hujo, H. Kruse, P. Pracht,  : VdW corrections, initial TS optimization,
                  C. Bannwarth, S. Ehlert          DFT functionals, gCP, sTDA/sTD-DF
   Ed Valeev, F. Pavosevic, A. Kumar             : LibInt (2-el integral package), F12 methods
   Garnet Chan, S. Sharma, J. Yang, R. Olivares  : DMRG
   Ulf Ekstrom                                   : XCFun DFT Library
   Mihaly Kallay                                 : mrcc  (arbitrary order and MRCC methods)
   Jiri Pittner, Ondrej Demel                    : Mk-CCSD
   Frank Weinhold                                : gennbo (NPA and NBO analysis)
   Christopher J. Cramer and Donald G. Truhlar   : smd solvation model
   Lars Goerigk                                  : TD-DFT with DH, B97 family of functionals
   V. Asgeirsson, H. Jonsson                     : NEB implementation
   FAccTs GmbH                                   : IRC, NEB, NEB-TS, DLPNO-Multilevel, CI-OPT
                                                   MM, QMMM, 2- and 3-layer-ONIOM, Crystal-QMMM,
                                                   LR-CPCM, SF, NACMEs, symmetry and pop. for TD-DFT,
                                                   nearIR, NL-DFT gradient (VV10), updates on ESD,
                                                   ML-optimized integration grids
   S Lehtola, MJT Oliveira, MAL Marques          : LibXC Library
   Liviu Ungur et al                             : ANISO software


 Your calculation uses the libint2 library for the computation of 2-el integrals
 For citations please refer to: http://libint.valeyev.net

 Your ORCA version has been built with support for libXC version: 5.1.0
 For citations please refer to: https://tddft.org/programs/libxc/

 This ORCA versions uses:
   CBLAS   interface :  Fast vector & matrix operations
   LAPACKE interface :  Fast linear algebra routines
   SCALAPACK package :  Parallel linear algebra routines
   Shared memory     :  Shared parallel matrices
   BLAS/LAPACK       :  OpenBLAS 0.3.15  USE64BITINT DYNAMIC_ARCH NO_AFFINITY SkylakeX SINGLE_THREADED
        Core in use  :  SkylakeX
   Copyright (c) 2011-2014, The OpenBLAS Project


================================================================================

----- Orbital basis set information -----
Your calculation utilizes the basis: def2-SVP
   F. Weigend and R. Ahlrichs, Phys. Chem. Chem. Phys. 7, 3297 (2005).

----- AuxJ basis set information -----
Your calculation utilizes the auxiliary basis: def2/J
   F. Weigend, Phys. Chem. Chem. Phys. 8, 1057 (2006).

================================================================================
                                        WARNINGS
                       Please study these warnings very carefully!
================================================================================

INFO   : Checking CIS options ...

WARNING: CIS/ROCIS methods need fully converged wavefunctions
  ===> : Setting SCFConvForced true
         You can overwrite this default with %scf ConvForced false 


INFO   : the flag for use of the SHARK integral package has been found!

================================================================================
                                       INPUT FILE
================================================================================
NAME = benzeneDimer-TDA.inp
|  1> ! RKS B3LYP/G def2-SVP miniprint pal8
|  2> 
|  3> %TDDFT
|  4>     NRoots      18
|  5>     TDA         True
|  6>     Printlevel  3
|  7> end
|  8> 
|  9> *xyz 0 1
| 10>  C    0.275339664905    -0.458399102833    2.743143403700
| 11>  C    1.279006847437    0.228940885018    2.053971964849
| 12>  C    0.939622874510    1.231612429254    1.139882080053
| 13>  C    -0.402424351875    1.548739845978    0.916642984919
| 14>  C    -1.406698760230    0.863818487970    1.607817662361
| 15>  C    -1.068977646094    -0.140122820687    2.520286918876
| 16>  H    0.539603706561    -1.241898862747    3.454437267994
| 17>  H    2.326588004763    -0.022157300550    2.223964486000
| 18>  H    1.720832792185    1.755051800886    0.589301977320
| 19>  H    -0.666403863041    2.316697890287    0.190217604195
| 20>  H    -2.454419062639    1.106539982179    1.427829033755
| 21>  H    -1.852402130973    -0.676071740128    3.057547529767
| 22>  C    0.408637071405    -1.547138908805    -0.917226197790
| 23>  C    1.408439887136    -0.859383018412    -1.612070091004
| 24>  C    1.064503595865    0.142964356786    -2.523961075999
| 25>  C    -0.281557623713    0.456819421173    -2.742536095802
| 26>  C    -1.280735610329    -0.233330090254    -2.049663508775
| 27>  C    -0.935147882928    -1.234436127477    -1.136182768651
| 28>  H    0.677439446996    -2.313917010173    -0.191321675612
| 29>  H    2.457518043610    -1.098728344182    -1.435489418777
| 30>  H    1.844432727521    0.681106942624    -3.064104221734
| 31>  H    -0.550678756658    1.239051458125    -3.453403954344
| 32>  H    -2.329668169039    0.014352845763    -2.216299435382
| 33>  H    -1.712850805428    -1.760113019904    -0.582784469921
| 34> *
| 35> 
| 36>                          ****END OF INPUT****
================================================================================

                       ****************************
                       * Single Point Calculation *
                       ****************************

---------------------------------
CARTESIAN COORDINATES (ANGSTROEM)
---------------------------------
  C      0.275340   -0.458399    2.743143
  C      1.279007    0.228941    2.053972
  C      0.939623    1.231612    1.139882
  C     -0.402424    1.548740    0.916643
  C     -1.406699    0.863818    1.607818
  C     -1.068978   -0.140123    2.520287
  H      0.539604   -1.241899    3.454437
  H      2.326588   -0.022157    2.223964
  H      1.720833    1.755052    0.589302
  H     -0.666404    2.316698    0.190218
  H     -2.454419    1.106540    1.427829
  H     -1.852402   -0.676072    3.057548
  C      0.408637   -1.547139   -0.917226
  C      1.408440   -0.859383   -1.612070
  C      1.064504    0.142964   -2.523961
  C     -0.281558    0.456819   -2.742536
  C     -1.280736   -0.233330   -2.049664
  C     -0.935148   -1.234436   -1.136183
  H      0.677439   -2.313917   -0.191322
  H      2.457518   -1.098728   -1.435489
  H      1.844433    0.681107   -3.064104
  H     -0.550679    1.239051   -3.453404
  H     -2.329668    0.014353   -2.216299
  H     -1.712851   -1.760113   -0.582784

----------------------------
CARTESIAN COORDINATES (A.U.)
----------------------------
  NO LB      ZA    FRAG     MASS         X           Y           Z
   0 C     6.0000    0    12.011    0.520317   -0.866249    5.183790
   1 C     6.0000    0    12.011    2.416973    0.432636    3.881445
   2 C     6.0000    0    12.011    1.775630    2.327410    2.154065
   3 C     6.0000    0    12.011   -0.760472    2.926694    1.732204
   4 C     6.0000    0    12.011   -2.658275    1.632380    3.038335
   5 C     6.0000    0    12.011   -2.020075   -0.264794    4.762652
   6 H     1.0000    0     1.008    1.019703   -2.346849    6.527940
   7 H     1.0000    0     1.008    4.396614   -0.041871    4.202684
   8 H     1.0000    0     1.008    3.251903    3.316567    1.113619
   9 H     1.0000    0     1.008   -1.259321    4.377925    0.359459
  10 H     1.0000    0     1.008   -4.638180    2.091058    2.698206
  11 H     1.0000    0     1.008   -3.500533   -1.277590    5.777927
  12 C     6.0000    0    12.011    0.772212   -2.923669   -1.733306
  13 C     6.0000    0    12.011    2.661566   -1.623999   -3.046371
  14 C     6.0000    0    12.011    2.011620    0.270163   -4.769595
  15 C     6.0000    0    12.011   -0.532067    0.863264   -5.182642
  16 C     6.0000    0    12.011   -2.420240   -0.440930   -3.873303
  17 C     6.0000    0    12.011   -1.767173   -2.332746   -2.147074
  18 H     1.0000    0     1.008    1.280175   -4.372669   -0.361546
  19 H     1.0000    0     1.008    4.644036   -2.076296   -2.712682
  20 H     1.0000    0     1.008    3.485473    1.287106   -5.790318
  21 H     1.0000    0     1.008   -1.040632    2.341468   -6.525988
  22 H     1.0000    0     1.008   -4.402435    0.027123   -4.188199
  23 H     1.0000    0     1.008   -3.236819   -3.326132   -1.101303

--------------------------------------------------------------------------
WARNING: There was an error initializing an OpenFabrics device.

  Local host:   cnode05
  Local device: mlx5_0
--------------------------------------------------------------------------


           ************************************************************
           *        Program running with 8 parallel MPI-processes     *
           *              working on a common directory               *
           ************************************************************
------------------------------------------------------------------------------
                   ___                                                        
                  /   \      - P O W E R E D   B Y -                         
                 /     \                                                     
                 |  |  |   _    _      __       _____    __    __             
                 |  |  |  | |  | |    /  \     |  _  \  |  |  /  |          
                  \  \/   | |  | |   /    \    | | | |  |  | /  /          
                 / \  \   | |__| |  /  /\  \   | |_| |  |  |/  /          
                |  |  |   |  __  | /  /__\  \  |    /   |      \           
                |  |  |   | |  | | |   __   |  |    \   |  |\   \          
                \     /   | |  | | |  |  |  |  | |\  \  |  | \   \       
                 \___/    |_|  |_| |__|  |__|  |_| \__\ |__|  \__/        
                                                                              
                      - O R C A' S   B I G   F R I E N D -                    
                                      &                                       
                       - I N T E G R A L  F E E D E R -                       
                                                                              
 v1 FN, 2020, v2 2021                                                         
------------------------------------------------------------------------------


Reading SHARK input file benzeneDimer-TDA.SHARKINP.tmp ... ok
----------------------
SHARK INTEGRAL PACKAGE
----------------------

Number of atoms                             ...     24
Number of basis functions                   ...    228
Number of shells                            ...    108
Maximum angular momentum                    ...      2
Integral batch strategy                     ... SHARK/LIBINT Hybrid
RI-J (if used) integral strategy            ... SPLIT-RIJ (Revised 2003 algorithm where possible)
Printlevel                                  ...      1
Contraction scheme used                     ... SEGMENTED contraction
Coulomb Range Separation                    ... NOT USED
Exchange Range Separation                   ... NOT USED
Finite Nucleus Model                        ... NOT USED
Auxiliary Coulomb fitting basis             ... AVAILABLE
   # of basis functions in Aux-J            ...    720
   # of shells in Aux-J                     ...    240
   Maximum angular momentum in Aux-J        ...      4
Auxiliary J/K fitting basis                 ... NOT available
Auxiliary Correlation fitting basis         ... NOT available
Auxiliary 'external' fitting basis          ... NOT available
Integral threshold                          ...     1.000000e-10
Primitive cut-off                           ...     1.000000e-11
Primitive pair pre-selection threshold      ...     1.000000e-11

Calculating pre-screening integrals         ... done (  0.0 sec) Dimension = 108
Organizing shell pair data                  ... done (  0.0 sec)
Shell pair information
Total number of shell pairs                 ...      5886
Shell pairs after pre-screening             ...      5315
Total number of primitive shell pairs       ...     21102
Primitive shell pairs kept                  ...     13068
          la=0 lb=0:   1680 shell pairs
          la=1 lb=0:   1940 shell pairs
          la=1 lb=1:    612 shell pairs
          la=2 lb=0:    624 shell pairs
          la=2 lb=1:    390 shell pairs
          la=2 lb=2:     69 shell pairs

Calculating one electron integrals          ... done (  0.0 sec)
Calculating RI/J V-Matrix + Cholesky decomp.... done (  0.0 sec)
Calculating Nuclear repulsion               ... done (  0.0 sec) ENN=    624.504271095385 Eh

SHARK setup successfully completed in   0.2 seconds

Maximum memory used throughout the entire GTOINT-calculation: 11.0 MB
[cnode05:352572] 7 more processes have sent help message help-mpi-btl-openib.txt / error in device init
[cnode05:352572] Set MCA parameter "orte_base_help_aggregate" to 0 to see all help / error messages
--------------------------------------------------------------------------
WARNING: There was an error initializing an OpenFabrics device.

  Local host:   cnode05
  Local device: mlx5_0
--------------------------------------------------------------------------


           ************************************************************
           *        Program running with 8 parallel MPI-processes     *
           *              working on a common directory               *
           ************************************************************

Diagonalization of the overlap matrix:
Smallest eigenvalue                        ... 2.905e-04
Time for diagonalization                   ...    0.006 sec
Threshold for overlap eigenvalues          ... 1.000e-08
Number of eigenvalues below threshold      ... 0
Time for construction of square roots      ...    0.021 sec
Total time needed                          ...    0.027 sec

Time for model grid setup =    0.094 sec

Loading Hartree-Fock densities                     ... done
Calculating cut-offs                               ... done
Initializing the effective Hamiltonian             ... done
Setting up the integral package (SHARK)            ... done
Starting the Coulomb interaction                   ... done (   0.0 sec)
Reading the grid                                   ... done
Mapping shells                                     ... done
Starting the XC term evaluation                    ... done (   0.0 sec)
  promolecular density results
     # of electrons  =     83.994060218
     EX              =    -65.189277675
     EC              =     -2.760122560
     EX+EC           =    -67.949400235
Transforming the Hamiltonian                       ... done (   0.0 sec)
Diagonalizing the Hamiltonian                      ... done (   0.0 sec)
Back transforming the eigenvectors                 ... done (   0.0 sec)
Now organizing SCF variables                       ... done
-------------------
DFT GRID GENERATION
-------------------

General Integration Accuracy     IntAcc      ... 4.388
Radial Grid Type                 RadialGrid  ... OptM3 with GC (2021)
Angular Grid (max. ang.)         AngularGrid ... 4 (Lebedev-302)
Angular grid pruning method      GridPruning ... 4 (adaptive)
Weight generation scheme         WeightScheme... Becke
Basis function cutoff            BFCut       ... 1.0000e-10
Integration weight cutoff        WCut        ... 1.0000e-14
Angular grids for H and He will be reduced by one unit
Partially contracted basis set               ... off
Rotationally invariant grid construction     ... off

Total number of grid points                  ...   110328
Total number of batches                      ...     1734
Average number of points per batch           ...       63
Average number of grid points per atom       ...     4597
Time for grid setup =    0.464 sec

--------------------
COSX GRID GENERATION
--------------------

GRIDX 1
-------
General Integration Accuracy     IntAcc      ... 3.816
Radial Grid Type                 RadialGrid  ... OptM3 with GC (2021)
Angular Grid (max. ang.)         AngularGrid ... 1 (Lebedev-50)
Angular grid pruning method      GridPruning ... 4 (adaptive)
Weight generation scheme         WeightScheme... Becke
Basis function cutoff            BFCut       ... 1.0000e-10
Integration weight cutoff        WCut        ... 1.0000e-14
Angular grids for H and He will be reduced by one unit
Partially contracted basis set               ... on
Rotationally invariant grid construction     ... off

Total number of grid points                  ...    14086
Total number of batches                      ...      228
Average number of points per batch           ...       61
Average number of grid points per atom       ...      587
UseSFitting                                  ... on

GRIDX 2
-------
General Integration Accuracy     IntAcc      ... 4.020
Radial Grid Type                 RadialGrid  ... OptM3 with GC (2021)
Angular Grid (max. ang.)         AngularGrid ... 2 (Lebedev-110)
Angular grid pruning method      GridPruning ... 4 (adaptive)
Weight generation scheme         WeightScheme... Becke
Basis function cutoff            BFCut       ... 1.0000e-10
Integration weight cutoff        WCut        ... 1.0000e-14
Angular grids for H and He will be reduced by one unit
Partially contracted basis set               ... on
Rotationally invariant grid construction     ... off

Total number of grid points                  ...    30227
Total number of batches                      ...      484
Average number of points per batch           ...       62
Average number of grid points per atom       ...     1259
UseSFitting                                  ... on

GRIDX 3
-------
General Integration Accuracy     IntAcc      ... 4.338
Radial Grid Type                 RadialGrid  ... OptM3 with GC (2021)
Angular Grid (max. ang.)         AngularGrid ... 3 (Lebedev-194)
Angular grid pruning method      GridPruning ... 4 (adaptive)
Weight generation scheme         WeightScheme... Becke
Basis function cutoff            BFCut       ... 1.0000e-10
Integration weight cutoff        WCut        ... 1.0000e-14
Angular grids for H and He will be reduced by one unit
Partially contracted basis set               ... on
Rotationally invariant grid construction     ... off

Total number of grid points                  ...    66120
Total number of batches                      ...     1046
Average number of points per batch           ...       63
Average number of grid points per atom       ...     2755
UseSFitting                                  ... on

Time for X-Grid setup             =    0.403 sec

--------------
SCF ITERATIONS
--------------
ITER       Energy         Delta-E        Max-DP      RMS-DP      [F,P]     Damp
               ***  Starting incremental Fock matrix formation  ***
  0   -463.8997681339   0.000000000000 0.04916837  0.00221502  0.1188068 0.7000
  1   -464.0187136659  -0.118945531941 0.03285021  0.00158603  0.0604115 0.7000
                               ***Turning on DIIS***
  2   -464.0712332362  -0.052519570364 0.05438679  0.00282723  0.0273458 0.0000
  3   -464.1458033363  -0.074570100110 0.01960358  0.00093615  0.0380027 0.0000
[cnode05:352632] 7 more processes have sent help message help-mpi-btl-openib.txt / error in device init
[cnode05:352632] Set MCA parameter "orte_base_help_aggregate" to 0 to see all help / error messages
  4   -464.1654354805  -0.019632144182 0.00557545  0.00022711  0.0077467 0.0000
                      *** Initiating the SOSCF procedure ***
                           *** Shutting down DIIS ***
                      *** Re-Reading the Fockian *** 
                      *** Removing any level shift *** 
ITER      Energy       Delta-E        Grad      Rot      Max-DP    RMS-DP
  5   -464.16635852  -0.0009230444  0.000875  0.000875  0.002032  0.000088
               *** Restarting incremental Fock matrix formation ***
  6   -464.16641109  -0.0000525687  0.000374  0.000944  0.001477  0.000059
  7   -464.16640820   0.0000028911  0.000471  0.000822  0.000656  0.000022
  8   -464.16641723  -0.0000090320  0.000088  0.000243  0.000268  0.000012
  9   -464.16641698   0.0000002496  0.000106  0.000104  0.000130  0.000006
                 **** Energy Check signals convergence ****
              ***Rediagonalizing the Fockian in SOSCF/NRSCF***

               *****************************************************
               *                     SUCCESS                       *
               *           SCF CONVERGED AFTER  10 CYCLES          *
               *****************************************************

Old exchange energy                            =    -13.260583015 Eh
New exchange energy                            =    -13.260649119 Eh
Exchange energy change after final integration =     -0.000066104 Eh
Total energy after final integration           =   -464.166483728 Eh
Final COS-X integration done in                =     1.877 sec
Total Energy       :         -464.16648373 Eh          -12630.61215 eV
  Last Energy change         ...   -6.3858e-07  Tolerance :   1.0000e-06
  Last MAX-Density change    ...    3.1086e-15  Tolerance :   1.0000e-05
             **** THE GBW FILE WAS UPDATED (benzeneDimer-TDA.gbw) ****
             **** DENSITY benzeneDimer-TDA.scfp WAS UPDATED ****
             **** ENERGY FILE WAS UPDATED (benzeneDimer-TDA.en.tmp) ****
             **** THE GBW FILE WAS UPDATED (benzeneDimer-TDA.gbw) ****
             **** DENSITY benzeneDimer-TDA.scfp WAS UPDATED ****
----------------
ORBITAL ENERGIES
----------------

  NO   OCC          E(Eh)            E(eV) 
   0   2.0000     -10.187908      -277.2271 
   1   2.0000     -10.187893      -277.2267 
   2   2.0000     -10.187547      -277.2172 
   3   2.0000     -10.187536      -277.2170 
   4   2.0000     -10.187137      -277.2061 
   5   2.0000     -10.187125      -277.2058 
   6   2.0000     -10.186997      -277.2023 
   7   2.0000     -10.186990      -277.2021 
   8   2.0000     -10.186088      -277.1776 
   9   2.0000     -10.186024      -277.1758 
  10   2.0000     -10.185523      -277.1622 
  11   2.0000     -10.185516      -277.1620 
  12   2.0000      -0.842906       -22.9366 
  13   2.0000      -0.839622       -22.8473 
  14   2.0000      -0.734894       -19.9975 
  15   2.0000      -0.733397       -19.9567 
  16   2.0000      -0.733251       -19.9528 
  17   2.0000      -0.732101       -19.9215 
  18   2.0000      -0.593461       -16.1489 
  19   2.0000      -0.593257       -16.1433 
  20   2.0000      -0.593226       -16.1425 
  21   2.0000      -0.592960       -16.1353 
  22   2.0000      -0.518747       -14.1158 
  23   2.0000      -0.517580       -14.0841 
  24   2.0000      -0.453763       -12.3475 
  25   2.0000      -0.453536       -12.3413 
  26   2.0000      -0.444506       -12.0956 
  27   2.0000      -0.444135       -12.0855 
  28   2.0000      -0.419224       -11.4077 
  29   2.0000      -0.418489       -11.3877 
  30   2.0000      -0.418357       -11.3841 
  31   2.0000      -0.417867       -11.3707 
  32   2.0000      -0.375901       -10.2288 
  33   2.0000      -0.352425        -9.5900 
  34   2.0000      -0.342773        -9.3273 
  35   2.0000      -0.342738        -9.3264 
  36   2.0000      -0.342601        -9.3227 
  37   2.0000      -0.342492        -9.3197 
  38   2.0000      -0.261519        -7.1163 
  39   2.0000      -0.250914        -6.8277 
  40   2.0000      -0.250890        -6.8271 
  41   2.0000      -0.242222        -6.5912 
  42   0.0000      -0.006836        -0.1860 
  43   0.0000      -0.005280        -0.1437 
  44   0.0000      -0.004690        -0.1276 
  45   0.0000      -0.003487        -0.0949 
  46   0.0000       0.051185         1.3928 
  47   0.0000       0.070608         1.9213 
  48   0.0000       0.087472         2.3802 
  49   0.0000       0.093799         2.5524 
  50   0.0000       0.110089         2.9957 
  51   0.0000       0.113984         3.1017 
  52   0.0000       0.132482         3.6050 
  53   0.0000       0.133596         3.6353 
  54   0.0000       0.143840         3.9141 
  55   0.0000       0.146966         3.9992 
  56   0.0000       0.150108         4.0846 
  57   0.0000       0.153658         4.1813 
  58   0.0000       0.161684         4.3996 
  59   0.0000       0.167493         4.5577 
  60   0.0000       0.285736         7.7753 
  61   0.0000       0.288335         7.8460 
  62   0.0000       0.291253         7.9254 
  63   0.0000       0.293138         7.9767 
  64   0.0000       0.299535         8.1507 
  65   0.0000       0.300809         8.1854 
  66   0.0000       0.303486         8.2583 
  67   0.0000       0.305264         8.3066 
  68   0.0000       0.308245         8.3878 
  69   0.0000       0.363641         9.8952 
  70   0.0000       0.370770        10.0892 
  71   0.0000       0.401064        10.9135 
  72   0.0000       0.409231        11.1357 
  73   0.0000       0.416469        11.3327 
  74   0.0000       0.425301        11.5730 
  75   0.0000       0.436585        11.8801 
  76   0.0000       0.441722        12.0199 
  77   0.0000       0.454932        12.3793 
  78   0.0000       0.461172        12.5491 
  79   0.0000       0.461502        12.5581 
  80   0.0000       0.480051        13.0629 
  81   0.0000       0.498816        13.5735 
  82   0.0000       0.504926        13.7397 
  83   0.0000       0.507093        13.7987 
  84   0.0000       0.512790        13.9537 
  85   0.0000       0.529968        14.4212 
  86   0.0000       0.533230        14.5099 
  87   0.0000       0.541167        14.7259 
  88   0.0000       0.544902        14.8275 
  89   0.0000       0.569793        15.5049 
  90   0.0000       0.573922        15.6172 
  91   0.0000       0.615809        16.7570 
  92   0.0000       0.628563        17.1041 
  93   0.0000       0.636793        17.3280 
  94   0.0000       0.642369        17.4798 
  95   0.0000       0.647251        17.6126 
  96   0.0000       0.657650        17.8956 
  97   0.0000       0.660797        17.9812 
  98   0.0000       0.667999        18.1772 
  99   0.0000       0.672956        18.3121 
 100   0.0000       0.673632        18.3305 
 101   0.0000       0.675566        18.3831 
 102   0.0000       0.700904        19.0726 
 103   0.0000       0.701003        19.0753 
 104   0.0000       0.708903        19.2902 
 105   0.0000       0.712150        19.3786 
 106   0.0000       0.732298        19.9268 
 107   0.0000       0.738312        20.0905 
 108   0.0000       0.741301        20.1718 
 109   0.0000       0.751278        20.4433 
 110   0.0000       0.765867        20.8403 
 111   0.0000       0.767508        20.8850 
 112   0.0000       0.769017        20.9260 
 113   0.0000       0.780727        21.2447 
 114   0.0000       0.791201        21.5297 
 115   0.0000       0.791767        21.5451 
 116   0.0000       0.812348        22.1051 
 117   0.0000       0.834993        22.7213 
 118   0.0000       0.878191        23.8968 
 119   0.0000       0.890476        24.2311 
 120   0.0000       0.898703        24.4550 
 121   0.0000       0.905033        24.6272 
 122   0.0000       1.000258        27.2184 
 123   0.0000       1.043976        28.4080 
 124   0.0000       1.055988        28.7349 
 125   0.0000       1.069335        29.0981 
 126   0.0000       1.164228        31.6803 
 127   0.0000       1.167911        31.7805 
 128   0.0000       1.220797        33.2196 
 129   0.0000       1.244707        33.8702 
 130   0.0000       1.248776        33.9809 
 131   0.0000       1.253987        34.1227 
 132   0.0000       1.258958        34.2580 
 133   0.0000       1.262413        34.3520 
 134   0.0000       1.266690        34.4684 
 135   0.0000       1.280326        34.8395 
 136   0.0000       1.288602        35.0646 
 137   0.0000       1.289619        35.0923 
 138   0.0000       1.308950        35.6183 
 139   0.0000       1.309235        35.6261 
 140   0.0000       1.326797        36.1040 
 141   0.0000       1.368130        37.2287 
 142   0.0000       1.526833        41.5472 
 143   0.0000       1.534322        41.7510 
 144   0.0000       1.640438        44.6386 
 145   0.0000       1.647204        44.8227 
 146   0.0000       1.658470        45.1293 
 147   0.0000       1.662098        45.2280 
 148   0.0000       1.677233        45.6398 
 149   0.0000       1.686818        45.9006 
 150   0.0000       1.736988        47.2659 
 151   0.0000       1.743197        47.4348 
 152   0.0000       1.746945        47.5368 
 153   0.0000       1.751606        47.6636 
 154   0.0000       1.753603        47.7180 
 155   0.0000       1.759756        47.8854 
 156   0.0000       1.766555        48.0704 
 157   0.0000       1.767289        48.0904 
 158   0.0000       1.769139        48.1407 
 159   0.0000       1.775791        48.3217 
 160   0.0000       1.780125        48.4397 
 161   0.0000       1.793656        48.8079 
 162   0.0000       1.794841        48.8401 
 163   0.0000       1.797621        48.9158 
 164   0.0000       1.824704        49.6527 
 165   0.0000       1.831943        49.8497 
 166   0.0000       1.844343        50.1871 
 167   0.0000       1.853485        50.4359 
 168   0.0000       1.933851        52.6228 
 169   0.0000       1.952585        53.1325 
 170   0.0000       1.981865        53.9293 
 171   0.0000       1.981971        53.9322 
 172   0.0000       1.983577        53.9759 
 173   0.0000       1.986891        54.0661 
 174   0.0000       1.988568        54.1117 
 175   0.0000       1.991457        54.1903 
 176   0.0000       1.999557        54.4107 
 177   0.0000       2.001225        54.4561 
 178   0.0000       2.009127        54.6711 
 179   0.0000       2.020886        54.9911 
 180   0.0000       2.107370        57.3444 
 181   0.0000       2.133385        58.0524 
 182   0.0000       2.139041        58.2063 
 183   0.0000       2.143852        58.3372 
 184   0.0000       2.152913        58.5837 
 185   0.0000       2.177583        59.2551 
 186   0.0000       2.185897        59.4813 
 187   0.0000       2.227586        60.6157 
 188   0.0000       2.305783        62.7435 
 189   0.0000       2.307490        62.7900 
 190   0.0000       2.309572        62.8466 
 191   0.0000       2.311828        62.9080 
 192   0.0000       2.312862        62.9362 
 193   0.0000       2.313365        62.9499 
 194   0.0000       2.317765        63.0696 
 195   0.0000       2.336330        63.5748 
 196   0.0000       2.353294        64.0364 
 197   0.0000       2.353754        64.0489 
 198   0.0000       2.356140        64.1138 
 199   0.0000       2.356973        64.1365 
 200   0.0000       2.562173        69.7203 
 201   0.0000       2.563095        69.7454 
 202   0.0000       2.598825        70.7176 
 203   0.0000       2.615326        71.1666 
 204   0.0000       2.617745        71.2325 
 205   0.0000       2.630764        71.5867 
 206   0.0000       2.649756        72.1035 
 207   0.0000       2.649800        72.1047 
 208   0.0000       2.723513        74.1106 
 209   0.0000       2.723548        74.1115 
 210   0.0000       2.726612        74.1949 
 211   0.0000       2.731000        74.3143 
 212   0.0000       2.734695        74.4148 
 213   0.0000       2.737386        74.4881 
 214   0.0000       2.866049        77.9892 
 215   0.0000       2.866758        78.0085 
 216   0.0000       2.867099        78.0177 
 217   0.0000       2.868533        78.0568 
 218   0.0000       2.899656        78.9036 
 219   0.0000       2.918975        79.4294 
 220   0.0000       3.124365        85.0183 
 221   0.0000       3.125946        85.0613 
 222   0.0000       3.126998        85.0899 
 223   0.0000       3.128469        85.1300 
 224   0.0000       3.250420        88.4484 
 225   0.0000       3.251930        88.4895 
 226   0.0000       3.662414        99.6594 
 227   0.0000       3.663631        99.6925 
Total SCF time: 0 days 0 hours 0 min 12 sec 

Maximum memory used throughout the entire SCF-calculation: 60.3 MB
--------------------------------------------------------------------------
WARNING: There was an error initializing an OpenFabrics device.

  Local host:   cnode05
  Local device: mlx5_0
--------------------------------------------------------------------------


           ************************************************************
           *        Program running with 8 parallel MPI-processes     *
           *              working on a common directory               *
           ************************************************************
------------------------------------------------------------------------------
                        ORCA TD-DFT/TDA CALCULATION
------------------------------------------------------------------------------

Input orbitals are from        ... benzeneDimer-TDA.gbw
CI-vector output               ... benzeneDimer-TDA.cis
Tamm-Dancoff approximation     ... operative
CIS-Integral strategy          ... AO-integrals
Integral handling              ... AO integral Direct
Max. core memory used          ... 512 MB
Reference state                ... RHF
Generation of triplets         ... off
Follow IRoot                   ... off
Number of operators            ... 1
Orbital ranges used for CIS calculation:
 Operator 0:  Orbitals  12... 41  to  42...227
XAS localization array:
 Operator 0:  Orbitals  -1... -1

-------------------
XC-INTEGRATION GRID
-------------------

General Integration Accuracy     IntAcc      ... 3.467
Radial Grid Type                 RadialGrid  ... OptM3 with GC (2021)
Angular Grid (max. ang.)         AngularGrid ... 1 (Lebedev-50)
Angular grid pruning method      GridPruning ... 4 (adaptive)
Weight generation scheme         WeightScheme... Becke
Basis function cutoff            BFCut       ... 1.0000e-10
Integration weight cutoff        WCut        ... 1.0000e-14
Angular grids for H and He will be reduced by one unit
Partially contracted basis set               ... off
Rotationally invariant grid construction     ... off

Total number of grid points                  ...    15913
Total number of batches                      ...      264
Average number of points per batch           ...       60
Average number of grid points per atom       ...      663

---------------------
COSX-INTEGRATION GRID
---------------------

General Integration Accuracy     IntAcc      ... 3.067
Radial Grid Type                 RadialGrid  ... OptM3 with GC (2021)
Angular Grid (max. ang.)         AngularGrid ... 1 (Lebedev-50)
Angular grid pruning method      GridPruning ... 4 (adaptive)
Weight generation scheme         WeightScheme... Becke
Basis function cutoff            BFCut       ... 1.0000e-10
Integration weight cutoff        WCut        ... 1.0000e-14
Angular grids for H and He will be reduced by one unit
Partially contracted basis set               ... on
Rotationally invariant grid construction     ... off

Total number of grid points                  ...     7397
Total number of batches                      ...      132
Average number of points per batch           ...       56
Average number of grid points per atom       ...      308

---------------
TD-DFT XC SETUP
---------------

DFT calculation                         ... on
Name of the grid file                   ... benzeneDimer-TDA.grid_cis.tmp
Exchange functional (TD-DFT)            ... B88
   X-Alpha parameter    XAlpha (TD-DFT) ...  0.666667
   Becke's b parameter  XBeta (TD-DFT)  ...  0.004200
Correlation functional (TD-DFT)         ... LYP
 LDA part of GGA corr.  LDAOpt (TD-DFT) ... VWN-3
Hybrid DFT                              ... on
   Exchange mixing (TD-DFT)             ...  0.200
   GGA exch. scaling (TD-DFT)           ...  0.720
   GGA corr. scaling (TD-DFT)           ...  0.810

Building densities             ... done
Calculating rho(r) on the grid ... done
Building xc-kernel on the grid ... done
                    *** TD-DFT CALCULATION INITIALIZED ***

Entering Solve()
   ... Initialized Buffers
------------------------
DAVIDSON-DIAGONALIZATION
------------------------

Dimension of the eigenvalue problem            ...   5580
Number of roots to be determined               ...     18
Maximum size of the expansion space            ...    180
Maximum number of iterations                   ...    100
Convergence tolerance for the residual         ...    1.000e-06
Convergence tolerance for the energies         ...    1.000e-06
Orthogonality tolerance                        ...    1.000e-14
Level Shift                                    ...    0.000e+00
Constructing the preconditioner                ... o.k.
Building the initial guess                     ... o.k.
Number of trial vectors determined             ...    180


                       ****Iteration    0****

Building the sigma vectors                     ... 
   Memory handling for direct AO based CIS:
   Memory per vector needed      ...     2 MB
   Memory needed                 ...   128 MB
   Memory available              ...   512 MB
   Number of vectors per batch   ...   215
   Number of batches             ...     1
   Time for densities:            0.023
   Time for RI-J (Direct):        0.408
Average shell size            =     7.964 au
Total number of shells        =       108    
Av no of R-interacting shells =       104 
Av no of P-interacting shells =       108 
Av no of primary shells       =        10 
Av no of secondary shells     =        14 
Av no of tertiary shells      =        14 
Integration Timings:
Total Time                    =     2.2 sec
Basis fcn evaluation          =     0.0 sec
Density evaluation            =     0.1 sec
Integral evaluation           =     1.9 sec
K(P) evaluation               =     0.1 sec
   Time for K (COSX):             2.262
   Time for XC-Integration:       1.130
   Time for Sigma-Completion:     0.076

--------------------------------------------------
SOLUTION IN THE SPACE OF THE INITIAL TRIAL VECTORS
--------------------------------------------------

Ordering of basis states:
Basis-state  0:  41->42 (op=0)
Basis-state  1:  41->43 (op=0)
Basis-state  2:  41->44 (op=0)
Basis-state  3:  41->45 (op=0)
Basis-state  4:  40->42 (op=0)
Basis-state  5:  39->42 (op=0)
Basis-state  6:  40->43 (op=0)
Basis-state  7:  39->43 (op=0)
Basis-state  8:  40->44 (op=0)
Basis-state  9:  39->44 (op=0)
Basis-state 10:  40->45 (op=0)
Basis-state 11:  39->45 (op=0)
Basis-state 12:  38->42 (op=0)
Basis-state 13:  38->43 (op=0)
Basis-state 14:  38->44 (op=0)
Basis-state 15:  38->45 (op=0)
Basis-state 16:  41->46 (op=0)
Basis-state 17:  40->46 (op=0)
Basis-state 18:  39->46 (op=0)
Basis-state 19:  38->46 (op=0)
Basis-state 20:  41->47 (op=0)
Basis-state 21:  40->47 (op=0)
Basis-state 22:  39->47 (op=0)
Basis-state 23:  41->48 (op=0)
Basis-state 24:  38->47 (op=0)
Basis-state 25:  37->42 (op=0)
Basis-state 26:  36->42 (op=0)
Basis-state 27:  35->42 (op=0)
Basis-state 28:  34->42 (op=0)
Basis-state 29:  41->49 (op=0)
Basis-state 30:  37->43 (op=0)
Basis-state 31:  36->43 (op=0)
Basis-state 32:  35->43 (op=0)
Basis-state 33:  34->43 (op=0)
Basis-state 34:  37->44 (op=0)
Basis-state 35:  36->44 (op=0)
Basis-state 36:  35->44 (op=0)
Basis-state 37:  34->44 (op=0)
Basis-state 38:  40->48 (op=0)
Basis-state 39:  39->48 (op=0)
Basis-state 40:  37->45 (op=0)
Basis-state 41:  36->45 (op=0)
Basis-state 42:  35->45 (op=0)
Basis-state 43:  34->45 (op=0)
Basis-state 44:  40->49 (op=0)
Basis-state 45:  39->49 (op=0)
Basis-state 46:  33->42 (op=0)
Basis-state 47:  33->43 (op=0)
Basis-state 48:  33->44 (op=0)
Basis-state 49:  33->45 (op=0)
Basis-state 50:  38->48 (op=0)
Basis-state 51:  41->50 (op=0)
Basis-state 52:  38->49 (op=0)
Basis-state 53:  41->51 (op=0)

The initial Hamiltonian (eV):
                  0          1          2          3          4          5    
      0       6.616236   0.003697   0.243105   0.002458   0.196767  -0.060376
      1       0.003697   6.938005  -0.003903  -0.196668   0.218948   0.748827
      2       0.243105  -0.003903   6.646535   0.004640  -0.645266   0.180812
      3       0.002458  -0.196668   0.004640   6.783355   0.112934   0.359729
      4       0.196767   0.218948  -0.645266   0.112934   6.771755   0.057344
      5      -0.060376   0.748827   0.180812   0.359729   0.057344   6.953901
      6      -0.188302  -0.177457   0.108821  -0.955025  -0.020274  -0.020159
      7      -0.667170   0.059399   0.365270   0.310435  -0.031683   0.013255
      8       0.639551  -0.012209  -0.199527   0.281486  -0.189343  -0.015961
      9      -0.184997  -0.049639   0.055524   0.860415  -0.016359  -0.251072
     10       0.013382   0.767541  -0.199300   0.179572   0.543833   0.908636
     11       0.049013  -0.243812  -0.594726  -0.054421   0.709355  -0.547885
     12       0.002238  -0.494529   0.012108   0.987446   0.051321   0.168452
     13      -0.406206  -0.038342  -0.906033   0.001103   0.570498  -0.188605
     14       0.009931  -1.036186   0.032965  -0.020186  -0.262716  -0.816959
     15       0.787837   0.001530  -0.018933   0.003084   0.382010  -0.113459
     16       0.069911   0.000596   0.038359   0.000044  -0.021752   0.006555
     17      -0.001551   0.003027   0.017629   0.004669  -0.015998   0.013309
     18       0.000495   0.008288  -0.005671   0.015180   0.013326   0.023634
     19       0.000117  -0.036728   0.000804   0.035482  -0.003010  -0.009627
     20      -0.000087   0.027947  -0.000580  -0.027273   0.000628   0.001895
     21      -0.000336   0.004148  -0.002211  -0.002144   0.001492  -0.009750
     22      -0.001148  -0.001452  -0.007248   0.000663   0.014054  -0.001366
     23      -0.000019   0.016932  -0.000250   0.015807   0.001478   0.004914
     24      -0.048679  -0.000469  -0.025454   0.000031   0.018222  -0.005525
     25      -0.000558  -0.022076   0.001125  -0.007203  -0.010943  -0.033855
     26      -0.014713   0.000409   0.026556   0.001158  -0.023831   0.008264
     27       0.001790  -0.013012  -0.000324   0.030190   0.002287   0.005838
     28      -0.014027  -0.000537  -0.004506   0.002344   0.006375  -0.000760
     29      -0.000171   0.033403  -0.000749  -0.032330   0.000851   0.002510
     30      -0.014952  -0.000560   0.010720   0.000212  -0.008492   0.002558
     31       0.000603  -0.029297  -0.001094   0.033761   0.000903  -0.002291
     32      -0.005012   0.000310  -0.021665  -0.000254   0.022237  -0.007198
     33       0.000145  -0.004991  -0.001416  -0.011662   0.001856   0.000195
     34       0.001192   0.011744  -0.000857  -0.025553   0.002567   0.006402
     35       0.022074  -0.001416  -0.029911   0.000064   0.024496  -0.008533
     36      -0.001086  -0.031307   0.000614   0.004876  -0.007997  -0.023416
     37       0.006790  -0.002133   0.013066   0.001078  -0.005642  -0.000344
     38      -0.000074   0.006198   0.000273  -0.009024   0.005943   0.005825
     39      -0.000387  -0.001893   0.001393   0.002869   0.012081  -0.006179
     40      -0.001086   0.000390  -0.009124  -0.000048   0.007196  -0.001759
     41       0.000594   0.019178  -0.000630  -0.018065   0.003820   0.010834
     42       0.020970  -0.000910  -0.015868  -0.000575   0.018689  -0.006542
     43       0.001448   0.003252  -0.001173   0.013380   0.003395   0.006387
     44       0.003373   0.024358  -0.009560   0.014032   0.011043  -0.005758
     45       0.011096  -0.007997  -0.030156  -0.004262   0.038453  -0.010961
     46       0.000023   0.033274  -0.000351  -0.053636   0.009980   0.031590
     47       0.170887  -0.002160  -0.072072   0.000196   0.001127  -0.000677
     48      -0.002820  -0.067685   0.003163   0.027540  -0.004995  -0.014846
     49       0.008668   0.002324   0.149812  -0.000934  -0.120393   0.037027
     50       0.008814  -0.000590  -0.023653   0.000064   0.019460  -0.005930
     51      -0.057893  -0.000492  -0.028071   0.000065   0.023657  -0.007178
     52      -0.045025  -0.000308  -0.021705   0.000098   0.028205  -0.008525
     53      -0.004059  -0.000022  -0.000556   0.000034   0.003484  -0.001023
                  6          7          8          9         10         11    
      0      -0.188302  -0.667170   0.639551  -0.184997   0.013382   0.049013
      1      -0.177457   0.059399  -0.012209  -0.049639   0.767541  -0.243812
      2       0.108821   0.365270  -0.199527   0.055524  -0.199300  -0.594726
      3      -0.955025   0.310435   0.281486   0.860415   0.179572  -0.054421
      4      -0.020274  -0.031683  -0.189343  -0.016359   0.543833   0.709355
      5      -0.020159   0.013255  -0.015961  -0.251072   0.908636  -0.547885
      6       6.978049  -0.108885  -0.501582  -0.864342   0.196371  -0.025566
      7      -0.108885   6.764279  -0.600811   0.500129  -0.028763   0.130227
      8      -0.501582  -0.600811   6.863701   0.108339  -0.248686  -0.296972
      9      -0.864342   0.500129   0.108339   7.068269  -0.430623   0.242159
     10       0.196371  -0.028763  -0.248686  -0.430623   7.235201  -0.073160
     11      -0.025566   0.130227  -0.296972   0.242159  -0.073160   7.016055
     12      -0.884815   0.291240   0.278541   0.862813  -0.045286   0.011476
     13      -0.065158  -0.238724   0.079651  -0.020353   0.161558   0.570897
     14       0.377813  -0.116186  -0.061021  -0.168095  -0.769053   0.222369
     15      -0.206170  -0.720342   0.639331  -0.182513   0.074572   0.237725
     16      -0.012636  -0.045021   0.053559  -0.015631  -0.010164  -0.032299
     17       0.002983   0.017072  -0.007518   0.005096  -0.002424  -0.019444
     18      -0.007262  -0.003208   0.005637   0.008412   0.012304   0.002309
     19      -0.027397   0.009095   0.009082   0.028447  -0.018474   0.005506
     20       0.014886  -0.004885  -0.003905  -0.012163   0.008628  -0.002567
     21       0.000285  -0.002345   0.002139  -0.001095  -0.002544   0.003683
     22      -0.002204  -0.006855   0.007776  -0.002126   0.003658   0.008124
     23      -0.013405   0.004274   0.001565   0.004296   0.011300  -0.003470
     24       0.011226   0.039884  -0.045694   0.013336   0.009292   0.029735
     25       0.004469  -0.000788  -0.000903  -0.000997  -0.021829   0.006226
     26       0.003647   0.016634  -0.009726   0.003691  -0.004443  -0.016646
     27      -0.027732   0.007553   0.009134   0.023778   0.004027  -0.000952
     28       0.000689   0.010480  -0.010605   0.005032   0.001957   0.003389
     29       0.018617  -0.006029  -0.004128  -0.012637   0.013809  -0.004093
     30       0.002963   0.010711  -0.012721   0.003320  -0.001853  -0.005307
     31      -0.023340   0.006609   0.007711   0.021685  -0.014466   0.005753
     32      -0.000895  -0.004485   0.000424   0.000123   0.006588   0.020904
     33       0.009130  -0.003582  -0.003384  -0.011766  -0.000090   0.001682
     34       0.020838  -0.008015  -0.011029  -0.037794   0.014960  -0.004025
     35      -0.006117  -0.022975   0.016131  -0.004059   0.005280   0.020783
     36       0.012756  -0.003359  -0.000538   0.001432  -0.024256   0.006661
     37       0.001179   0.002447   0.003738  -0.000014  -0.003427  -0.003668
     38       0.017546  -0.001303  -0.007754  -0.008434   0.021604  -0.000121
     39      -0.001330   0.014415  -0.013879   0.007355  -0.000101   0.021490
     40       0.000302   0.001329  -0.004595   0.001456   0.001153   0.003107
     41       0.010899  -0.004522  -0.001293  -0.006940   0.008268  -0.002065
     42      -0.007306  -0.027549   0.023234  -0.006901   0.004633   0.016045
     43      -0.009802   0.000937   0.003031   0.003217   0.002548   0.000533
     44      -0.009967  -0.002903   0.004246  -0.000567   0.016967   0.006021
     45      -0.002688  -0.019053   0.012875  -0.003789   0.005929   0.034556
     46      -0.007033   0.001696  -0.004488  -0.014599  -0.055680   0.017392
     47      -0.039343  -0.136214   0.118057  -0.031926  -0.011831  -0.038561
     48       0.023451  -0.002616   0.019710   0.074309   0.029032  -0.008840
     49      -0.010818  -0.038191   0.059893  -0.018369  -0.046069  -0.151088
     50      -0.006400  -0.022374   0.016897  -0.004787   0.005012   0.016250
     51       0.012888   0.045789  -0.054449   0.015895   0.010754   0.034424
     52       0.012913   0.045536  -0.053355   0.015536   0.013263   0.042468
     53       0.000341   0.001270  -0.001341   0.000394   0.000391   0.001231
                 12         13         14         15         16         17    
      0       0.002238  -0.406206   0.009931   0.787837   0.069911  -0.001551
      1      -0.494529  -0.038342  -1.036186   0.001530   0.000596   0.003027
      2       0.012108  -0.906033   0.032965  -0.018933   0.038359   0.017629
      3       0.987446   0.001103  -0.020186   0.003084   0.000044   0.004669
      4       0.051321   0.570498  -0.262716   0.382010  -0.021752  -0.015998
      5       0.168452  -0.188605  -0.816959  -0.113459   0.006555   0.013309
      6      -0.884815  -0.065158   0.377813  -0.206170  -0.012636   0.002983
      7       0.291240  -0.238724  -0.116186  -0.720342  -0.045021   0.017072
      8       0.278541   0.079651  -0.061021   0.639331   0.053559  -0.007518
      9       0.862813  -0.020353  -0.168095  -0.182513  -0.015631   0.005096
     10      -0.045286   0.161558  -0.769053   0.074572  -0.010164  -0.002424
     11       0.011476   0.570897   0.222369   0.237725  -0.032299  -0.019444
     12       7.309299   0.003626   0.212577   0.001583   0.000115   0.006118
     13       0.003626   7.238501   0.003776  -0.124104  -0.048058  -0.018487
     14       0.212577   0.003776   7.320803   0.001994   0.001085  -0.007857
     15       0.001583  -0.124104   0.001994   7.068051   0.051292  -0.006394
     16       0.000115  -0.048058   0.001085   0.051292   7.183913   0.000088
     17       0.006118  -0.018487  -0.007857  -0.006394   0.000088   7.417829
     18       0.019888   0.005303  -0.026387   0.002124  -0.000028  -0.000667
     19       0.049217   0.000520   0.030621   0.000033   0.000144  -0.000001
     20      -0.025015  -0.000311  -0.016195  -0.000018  -0.000108  -0.000235
     21      -0.011116   0.002487   0.012787   0.000562  -0.000219  -0.105466
     22       0.003410   0.007614  -0.004031   0.002062  -0.000731  -0.154178
     23      -0.001912   0.000071   0.007531  -0.000059   0.000019  -0.003353
     24      -0.000002   0.037184  -0.000809  -0.042113  -0.194850  -0.000066
     25      -0.005729  -0.000364   0.018267  -0.000494   0.000006  -0.000820
     26       0.001718  -0.027275   0.000532  -0.006520  -0.000164  -0.000780
     27       0.041548   0.000588   0.011387   0.001487  -0.000028  -0.000428
     28       0.003119   0.007698   0.000235  -0.013271   0.000429  -0.001305
     29      -0.032540  -0.000302  -0.020345  -0.000040   0.000006  -0.000022
     30       0.000426  -0.005168   0.000319  -0.013887  -0.001818   0.000540
     31       0.041453   0.001716  -0.001511   0.000843   0.000033   0.000285
     32      -0.000474   0.035433  -0.000808  -0.000802  -0.000104  -0.000001
     33      -0.009614   0.002531   0.010593   0.000295   0.000027  -0.000323
     34      -0.028240  -0.000197  -0.004149   0.001177   0.000014  -0.000731
     35       0.000332   0.008632   0.001249   0.025746  -0.000082   0.000339
     36       0.014850   0.001171   0.034323  -0.001025   0.000035   0.000531
     37       0.001824  -0.014993   0.002631   0.003568  -0.000474  -0.001187
     38      -0.009939  -0.000426  -0.004842  -0.000504  -0.002479  -0.000044
     39       0.003134  -0.001034   0.001492  -0.001878  -0.008037  -0.000039
     40       0.000236   0.008639  -0.001068  -0.005605  -0.001357  -0.000763
     41      -0.004431  -0.000551  -0.032340   0.001374   0.000025   0.000452
     42      -0.001187   0.008064   0.001099   0.035474   0.000078   0.000076
     43       0.013639   0.000518  -0.002830   0.002655   0.000027   0.000271
     44      -0.008805   0.009325   0.006211   0.006989  -0.000012   0.005085
     45       0.002627   0.030415  -0.002463   0.023161  -0.000073   0.010190
     46      -0.030109   0.000189   0.027708  -0.000094  -0.000043   0.005121
     47       0.000263   0.000980   0.001027   0.152794   0.012212  -0.004930
     48       0.021469   0.000072   0.030519  -0.002806  -0.000202   0.002508
     49      -0.000130  -0.123010   0.002197  -0.002535   0.010339   0.007432
     50       0.000009   0.024177  -0.000267   0.018019  -0.000731  -0.001495
     51       0.000032   0.036634  -0.000828  -0.044909   0.036700  -0.000782
     52       0.000035   0.032903  -0.000828  -0.039280   0.019076   0.000074
     53       0.000027   0.000721  -0.000014  -0.003330   0.001355   0.012412
                 18         19         20         21         22         23    
      0       0.000495   0.000117  -0.000087  -0.000336  -0.001148  -0.000019
      1       0.008288  -0.036728   0.027947   0.004148  -0.001452   0.016932
      2      -0.005671   0.000804  -0.000580  -0.002211  -0.007248  -0.000250
      3       0.015180   0.035482  -0.027273  -0.002144   0.000663   0.015807
      4       0.013326  -0.003010   0.000628   0.001492   0.014054   0.001478
      5       0.023634  -0.009627   0.001895  -0.009750  -0.001366   0.004914
      6      -0.007262  -0.027397   0.014886   0.000285  -0.002204  -0.013405
      7      -0.003208   0.009095  -0.004885  -0.002345  -0.006855   0.004274
      8       0.005637   0.009082  -0.003905   0.002139   0.007776   0.001565
      9       0.008412   0.028447  -0.012163  -0.001095  -0.002126   0.004296
     10       0.012304  -0.018474   0.008628  -0.002544   0.003658   0.011300
     11       0.002309   0.005506  -0.002567   0.003683   0.008124  -0.003470
     12       0.019888   0.049217  -0.025015  -0.011116   0.003410  -0.001912
     13       0.005303   0.000520  -0.000311   0.002487   0.007614   0.000071
     14      -0.026387   0.030621  -0.016195   0.012787  -0.004031   0.007531
     15       0.002124   0.000033  -0.000018   0.000562   0.002062  -0.000059
     16      -0.000028   0.000144  -0.000108  -0.000219  -0.000731   0.000019
     17      -0.000667  -0.000001  -0.000235  -0.105466  -0.154178  -0.003353
     18       7.416043   0.000017  -0.000787  -0.158373   0.105497  -0.010922
     19       0.000017   7.701343  -0.192249  -0.000004  -0.000008  -0.000526
     20      -0.000787  -0.192249   7.726380   0.000069  -0.000029   0.000173
     21      -0.158373  -0.000004   0.000069   7.957828   0.000138   0.013664
     22       0.105497  -0.000008  -0.000029   0.000138   7.959458  -0.004172
     23      -0.010922  -0.000526   0.000173   0.013664  -0.004172   8.164355
     24       0.000010   0.000068  -0.000161   0.000009   0.000046  -0.000070
     25      -0.002481   0.001896  -0.000208   0.001726  -0.000473   0.010840
     26       0.000239   0.000006   0.000025   0.000853   0.002757  -0.000028
     27      -0.001851   0.001740   0.000212   0.001381  -0.000480   0.007951
     28       0.000287   0.000063   0.000033  -0.000136  -0.000747   0.000458
     29      -0.000136   0.020106  -0.035772   0.000563  -0.000180  -0.000316
     30      -0.000212   0.000081  -0.000149  -0.000665  -0.002166  -0.000136
     31       0.000965   0.003749  -0.002252   0.000067   0.000093  -0.004036
     32       0.000088  -0.000130   0.000216   0.000764   0.002199   0.001454
     33      -0.000934  -0.000229  -0.001706  -0.001297   0.000629  -0.016796
     34      -0.002293  -0.001313  -0.001358   0.001408  -0.000463   0.013962
     35       0.000021  -0.000046   0.000093  -0.001135  -0.003389  -0.000292
     36       0.001397  -0.000340   0.000790  -0.001345   0.000484   0.001615
     37       0.000549  -0.000013   0.000116  -0.000072   0.000148   0.000085
     38      -0.000085  -0.000917   0.011643   0.000188  -0.000031  -0.000344
     39       0.000038   0.000278  -0.003544  -0.000028   0.000362   0.000119
     40       0.000310  -0.000025  -0.000048  -0.000047  -0.000262   0.000298
     41       0.001436  -0.002111   0.000696   0.001144  -0.000173  -0.000354
     42      -0.000152  -0.000035   0.000276   0.001265   0.004352  -0.000784
     43       0.000786   0.001066  -0.003663   0.000472   0.000240   0.010918
     44       0.004976   0.000032   0.000515  -0.020498  -0.009622  -0.004249
     45      -0.005091   0.000001  -0.000164  -0.009621  -0.049304   0.001324
     46       0.016885   0.006205  -0.006866  -0.013973   0.004347   0.022961
     47       0.001665  -0.000201   0.000253   0.001416   0.004957   0.000126
     48       0.007810  -0.013381   0.016023  -0.005940   0.001644   0.004390
     49      -0.002348   0.000037  -0.000015  -0.002089  -0.007103  -0.000163
     50       0.000456   0.000020  -0.000072  -0.000663  -0.002162   0.000078
     51       0.000242   0.000072   0.000040   0.000037   0.000136   0.000021
     52      -0.000004  -0.000008   0.000098   0.000017   0.000106  -0.000002
     53      -0.003790   0.000040   0.000012  -0.001573  -0.005157  -0.000101
                 24         25         26         27         28         29    
      0      -0.048679  -0.000558  -0.014713   0.001790  -0.014027  -0.000171
      1      -0.000469  -0.022076   0.000409  -0.013012  -0.000537   0.033403
      2      -0.025454   0.001125   0.026556  -0.000324  -0.004506  -0.000749
      3       0.000031  -0.007203   0.001158   0.030190   0.002344  -0.032330
      4       0.018222  -0.010943  -0.023831   0.002287   0.006375   0.000851
      5      -0.005525  -0.033855   0.008264   0.005838  -0.000760   0.002510
      6       0.011226   0.004469   0.003647  -0.027732   0.000689   0.018617
      7       0.039884  -0.000788   0.016634   0.007553   0.010480  -0.006029
      8      -0.045694  -0.000903  -0.009726   0.009134  -0.010605  -0.004128
      9       0.013336  -0.000997   0.003691   0.023778   0.005032  -0.012637
     10       0.009292  -0.021829  -0.004443   0.004027   0.001957   0.013809
     11       0.029735   0.006226  -0.016646  -0.000952   0.003389  -0.004093
     12      -0.000002  -0.005729   0.001718   0.041548   0.003119  -0.032540
     13       0.037184  -0.000364  -0.027275   0.000588   0.007698  -0.000302
     14      -0.000809   0.018267   0.000532   0.011387   0.000235  -0.020345
     15      -0.042113  -0.000494  -0.006520   0.001487  -0.013271  -0.000040
     16      -0.194850   0.000006  -0.000164  -0.000028   0.000429   0.000006
     17      -0.000066  -0.000820  -0.000780  -0.000428  -0.001305  -0.000022
     18       0.000010  -0.002481   0.000239  -0.001851   0.000287  -0.000136
     19       0.000068   0.001896   0.000006   0.001740   0.000063   0.020106
     20      -0.000161  -0.000208   0.000025   0.000212   0.000033  -0.035772
     21       0.000009   0.001726   0.000853   0.001381  -0.000136   0.000563
     22       0.000046  -0.000473   0.002757  -0.000480  -0.000747  -0.000180
     23      -0.000070   0.010840  -0.000028   0.007951   0.000458  -0.000316
     24       8.250199   0.000008   0.001795   0.000061  -0.001371   0.000098
     25       0.000008   8.150478  -0.001066  -0.009006  -0.000854   0.011368
     26       0.001795  -0.001066   8.129520   0.001151  -0.011927  -0.000541
     27       0.000061  -0.009006   0.001151   8.132953  -0.000361  -0.005445
     28      -0.001371  -0.000854  -0.011927  -0.000361   8.148322  -0.000689
     29       0.000098   0.011368  -0.000541  -0.005445  -0.000689   8.345768
     30      -0.001101   0.002102  -0.033014  -0.000847   0.062605   0.000233
     31      -0.000001  -0.005414   0.007060   0.096221   0.006311   0.008629
     32      -0.002433  -0.002624   0.088249  -0.008349   0.024561  -0.000688
     33      -0.000206   0.071153   0.005693  -0.002239  -0.000807   0.002346
     34       0.000082   0.011928   0.001441   0.023484  -0.000687  -0.006817
     35       0.002339  -0.000581  -0.012998  -0.002551  -0.009654  -0.000314
     36      -0.000097  -0.004795  -0.003807  -0.010708  -0.002001  -0.010408
     37       0.000559  -0.002219   0.018829  -0.003083   0.013739  -0.000731
     38      -0.000690   0.010369  -0.001907  -0.003717   0.001676  -0.017317
     39      -0.002239  -0.003175  -0.004663   0.000654   0.007374   0.005339
     40      -0.004379  -0.010603   0.040736   0.012221  -0.308429   0.000085
     41       0.000098   0.048198  -0.023989  -0.313930  -0.019220  -0.003374
     42      -0.001055   0.012284  -0.315279   0.032561  -0.069074  -0.000526
     43       0.000045  -0.310312  -0.019419  -0.075230   0.002102   0.008047
     44       0.000067   0.006573  -0.004179  -0.011097  -0.000706   0.000181
     45       0.000242  -0.002400  -0.012047   0.003859   0.001234  -0.000086
     46       0.000055  -0.079565   0.001423  -0.005709   0.000926  -0.018474
     47      -0.006435   0.000075   0.003208  -0.000806   0.008025   0.000415
     48       0.000152  -0.010751   0.000096  -0.003682  -0.000223   0.036617
     49      -0.005790  -0.000207   0.008034   0.000916  -0.017112   0.000003
     50       0.000396   0.000405   0.002500  -0.000983   0.012007  -0.000002
     51      -0.069942  -0.000000   0.008043   0.000605  -0.010440   0.000117
     52      -0.046272  -0.000040  -0.004618  -0.000419   0.006906   0.000252
     53      -0.002028   0.000507   0.004125  -0.001208   0.014432   0.000028
                 30         31         32         33         34         35    
      0      -0.014952   0.000603  -0.005012   0.000145   0.001192   0.022074
      1      -0.000560  -0.029297   0.000310  -0.004991   0.011744  -0.001416
      2       0.010720  -0.001094  -0.021665  -0.001416  -0.000857  -0.029911
      3       0.000212   0.033761  -0.000254  -0.011662  -0.025553   0.000064
      4      -0.008492   0.000903   0.022237   0.001856   0.002567   0.024496
      5       0.002558  -0.002291  -0.007198   0.000195   0.006402  -0.008533
      6       0.002963  -0.023340  -0.000895   0.009130   0.020838  -0.006117
      7       0.010711   0.006609  -0.004485  -0.003582  -0.008015  -0.022975
      8      -0.012721   0.007711   0.000424  -0.003384  -0.011029   0.016131
      9       0.003320   0.021685   0.000123  -0.011766  -0.037794  -0.004059
     10      -0.001853  -0.014466   0.006588  -0.000090   0.014960   0.005280
     11      -0.005307   0.005753   0.020904   0.001682  -0.004025   0.020783
     12       0.000426   0.041453  -0.000474  -0.009614  -0.028240   0.000332
     13      -0.005168   0.001716   0.035433   0.002531  -0.000197   0.008632
     14       0.000319  -0.001511  -0.000808   0.010593  -0.004149   0.001249
     15      -0.013887   0.000843  -0.000802   0.000295   0.001177   0.025746
     16      -0.001818   0.000033  -0.000104   0.000027   0.000014  -0.000082
     17       0.000540   0.000285  -0.000001  -0.000323  -0.000731   0.000339
     18      -0.000212   0.000965   0.000088  -0.000934  -0.002293   0.000021
     19       0.000081   0.003749  -0.000130  -0.000229  -0.001313  -0.000046
     20      -0.000149  -0.002252   0.000216  -0.001706  -0.001358   0.000093
     21      -0.000665   0.000067   0.000764  -0.001297   0.001408  -0.001135
     22      -0.002166   0.000093   0.002199   0.000629  -0.000463  -0.003389
     23      -0.000136  -0.004036   0.001454  -0.016796   0.013962  -0.000292
     24      -0.001101  -0.000001  -0.002433  -0.000206   0.000082   0.002339
     25       0.002102  -0.005414  -0.002624   0.071153   0.011928  -0.000581
     26      -0.033014   0.007060   0.088249   0.005693   0.001441  -0.012998
     27      -0.000847   0.096221  -0.008349  -0.002239   0.023484  -0.002551
     28       0.062605   0.006311   0.024561  -0.000807  -0.000687  -0.009654
     29       0.000233   0.008629  -0.000688   0.002346  -0.006817  -0.000314
     30       8.180397  -0.002109   0.013287   0.012881   0.009625  -0.069302
     31      -0.002109   8.175993   0.010327   0.013593  -0.075530   0.024780
     32       0.013287   0.010327   8.184018   0.000961  -0.012697   0.306924
     33       0.012881   0.013593   0.000961   8.184953   0.318344   0.018216
     34       0.009625  -0.075530  -0.012697   0.318344   8.189788   0.003251
     35      -0.069302   0.024780   0.306924   0.018216   0.003251   8.196327
     36      -0.012684   0.305815  -0.027841   0.049451   0.009648  -0.011723
     37       0.316433   0.018083   0.040069  -0.006438  -0.010220   0.012603
     38       0.001095   0.008381   0.001913   0.002810  -0.006952  -0.002490
     39       0.002783  -0.002496   0.008623  -0.000258   0.001708  -0.007207
     40      -0.011973   0.001052   0.011861   0.001250   0.003429  -0.025190
     41      -0.000107   0.014488   0.000821  -0.012209   0.002571   0.004745
     42      -0.017988  -0.000637   0.012696   0.003003  -0.004359   0.063048
     43      -0.000236   0.016485   0.000895  -0.012532   0.092532   0.002853
     44       0.000222  -0.012438  -0.001857   0.002088  -0.003585   0.004474
     45       0.001843   0.003644  -0.007287  -0.001324   0.001367   0.012054
     46      -0.000022   0.003091  -0.000304   0.001368  -0.007352   0.000033
     47      -0.071961   0.001560   0.002382   0.001849   0.000410   0.003484
     48       0.000169  -0.004474  -0.000712   0.011551  -0.073949   0.001581
     49      -0.009359   0.000147  -0.004494  -0.000106   0.000302   0.000354
     50      -0.014786   0.000293  -0.004091   0.000280   0.000511   0.001285
     51      -0.001382  -0.000179  -0.012995  -0.000945   0.000471   0.010682
     52       0.000775   0.000122   0.008324   0.000561  -0.000332  -0.006523
     53      -0.016888   0.000346  -0.004904   0.000314   0.000618   0.001163
                 36         37         38         39         40         41    
      0      -0.001086   0.006790  -0.000074  -0.000387  -0.001086   0.000594
      1      -0.031307  -0.002133   0.006198  -0.001893   0.000390   0.019178
      2       0.000614   0.013066   0.000273   0.001393  -0.009124  -0.000630
      3       0.004876   0.001078  -0.009024   0.002869  -0.000048  -0.018065
      4      -0.007997  -0.005642   0.005943   0.012081   0.007196   0.003820
      5      -0.023416  -0.000344   0.005825  -0.006179  -0.001759   0.010834
      6       0.012756   0.001179   0.017546  -0.001330   0.000302   0.010899
      7      -0.003359   0.002447  -0.001303   0.014415   0.001329  -0.004522
      8      -0.000538   0.003738  -0.007754  -0.013879  -0.004595  -0.001293
      9       0.001432  -0.000014  -0.008434   0.007355   0.001456  -0.006940
     10      -0.024256  -0.003427   0.021604  -0.000101   0.001153   0.008268
     11       0.006661  -0.003668  -0.000121   0.021490   0.003107  -0.002065
     12       0.014850   0.001824  -0.009939   0.003134   0.000236  -0.004431
     13       0.001171  -0.014993  -0.000426  -0.001034   0.008639  -0.000551
     14       0.034323   0.002631  -0.004842   0.001492  -0.001068  -0.032340
     15      -0.001025   0.003568  -0.000504  -0.001878  -0.005605   0.001374
     16       0.000035  -0.000474  -0.002479  -0.008037  -0.001357   0.000025
     17       0.000531  -0.001187  -0.000044  -0.000039  -0.000763   0.000452
     18       0.001397   0.000549  -0.000085   0.000038   0.000310   0.001436
     19      -0.000340  -0.000013  -0.000917   0.000278  -0.000025  -0.002111
     20       0.000790   0.000116   0.011643  -0.003544  -0.000048   0.000696
     21      -0.001345  -0.000072   0.000188  -0.000028  -0.000047   0.001144
     22       0.000484   0.000148  -0.000031   0.000362  -0.000262  -0.000173
     23       0.001615   0.000085  -0.000344   0.000119   0.000298  -0.000354
     24      -0.000097   0.000559  -0.000690  -0.002239  -0.004379   0.000098
     25      -0.004795  -0.002219   0.010369  -0.003175  -0.010603   0.048198
     26      -0.003807   0.018829  -0.001907  -0.004663   0.040736  -0.023989
     27      -0.010708  -0.003083  -0.003717   0.000654   0.012221  -0.313930
     28      -0.002001   0.013739   0.001676   0.007374  -0.308429  -0.019220
     29      -0.010408  -0.000731  -0.017317   0.005339   0.000085  -0.003374
     30      -0.012684   0.316433   0.001095   0.002783  -0.011973  -0.000107
     31       0.305815   0.018083   0.008381  -0.002496   0.001052   0.014488
     32      -0.027841   0.040069   0.001913   0.008623   0.011861   0.000821
     33       0.049451  -0.006438   0.002810  -0.000258   0.001250  -0.012209
     34       0.009648  -0.010220  -0.006952   0.001708   0.003429   0.002571
     35      -0.011723   0.012603  -0.002490  -0.007207  -0.025190   0.004745
     36       8.209428  -0.001374  -0.008560   0.003128  -0.004240   0.065564
     37      -0.001374   8.197710  -0.002012  -0.004429   0.089092   0.004056
     38      -0.008560  -0.002012   8.434075  -0.002264   0.003124  -0.002843
     39       0.003128  -0.004429  -0.002264   8.427637   0.009797   0.000511
     40      -0.004240   0.089092   0.003124   0.009797   8.233886  -0.000748
     41       0.065564   0.004056  -0.002843   0.000511  -0.000748   8.228481
     42      -0.007485   0.032785  -0.000908  -0.000964  -0.011119   0.000382
     43       0.004780  -0.000709   0.008060  -0.002790  -0.001945  -0.012928
     44       0.011282   0.000068   0.001056  -0.000062   0.001243  -0.019407
     45      -0.003502  -0.002978  -0.000072   0.000993   0.005880   0.005353
     46      -0.001195   0.000038  -0.019376   0.005898  -0.000270  -0.001172
     47      -0.001119   0.014125  -0.004224  -0.015501  -0.012288   0.000399
     48      -0.000252   0.000899   0.033755  -0.009915   0.000529   0.005720
     49      -0.000287   0.004774  -0.004773  -0.015001  -0.071033   0.001206
     50      -0.000871   0.011662   0.000049   0.000133   0.008647  -0.000067
     51      -0.000644   0.006471   0.005586   0.018250  -0.012920   0.000483
     52       0.000419  -0.004411  -0.006193  -0.020353   0.006906  -0.000301
     53      -0.001126   0.015104   0.000024   0.000050   0.008689   0.000015
                 42         43         44         45         46         47    
      0       0.020970   0.001448   0.003373   0.011096   0.000023   0.170887
      1      -0.000910   0.003252   0.024358  -0.007997   0.033274  -0.002160
      2      -0.015868  -0.001173  -0.009560  -0.030156  -0.000351  -0.072072
      3      -0.000575   0.013380   0.014032  -0.004262  -0.053636   0.000196
      4       0.018689   0.003395   0.011043   0.038453   0.009980   0.001127
      5      -0.006542   0.006387  -0.005758  -0.010961   0.031590  -0.000677
      6      -0.007306  -0.009802  -0.009967  -0.002688  -0.007033  -0.039343
      7      -0.027549   0.000937  -0.002903  -0.019053   0.001696  -0.136214
      8       0.023234   0.003031   0.004246   0.012875  -0.004488   0.118057
      9      -0.006901   0.003217  -0.000567  -0.003789  -0.014599  -0.031926
     10       0.004633   0.002548   0.016967   0.005929  -0.055680  -0.011831
     11       0.016045   0.000533   0.006021   0.034556   0.017392  -0.038561
     12      -0.001187   0.013639  -0.008805   0.002627  -0.030109   0.000263
     13       0.008064   0.000518   0.009325   0.030415   0.000189   0.000980
     14       0.001099  -0.002830   0.006211  -0.002463   0.027708   0.001027
     15       0.035474   0.002655   0.006989   0.023161  -0.000094   0.152794
     16       0.000078   0.000027  -0.000012  -0.000073  -0.000043   0.012212
     17       0.000076   0.000271   0.005085   0.010190   0.005121  -0.004930
     18      -0.000152   0.000786   0.004976  -0.005091   0.016885   0.001665
     19      -0.000035   0.001066   0.000032   0.000001   0.006205  -0.000201
     20       0.000276  -0.003663   0.000515  -0.000164  -0.006866   0.000253
     21       0.001265   0.000472  -0.020498  -0.009621  -0.013973   0.001416
     22       0.004352   0.000240  -0.009622  -0.049304   0.004347   0.004957
     23      -0.000784   0.010918  -0.004249   0.001324   0.022961   0.000126
     24      -0.001055   0.000045   0.000067   0.000242   0.000055  -0.006435
     25       0.012284  -0.310312   0.006573  -0.002400  -0.079565   0.000075
     26      -0.315279  -0.019419  -0.004179  -0.012047   0.001423   0.003208
     27       0.032561  -0.075230  -0.011097   0.003859  -0.005709  -0.000806
     28      -0.069074   0.002102  -0.000706   0.001234   0.000926   0.008025
     29      -0.000526   0.008047   0.000181  -0.000086  -0.018474   0.000415
     30      -0.017988  -0.000236   0.000222   0.001843  -0.000022  -0.071961
     31      -0.000637   0.016485  -0.012438   0.003644   0.003091   0.001560
     32       0.012696   0.000895  -0.001857  -0.007287  -0.000304   0.002382
     33       0.003003  -0.012532   0.002088  -0.001324   0.001368   0.001849
     34      -0.004359   0.092532  -0.003585   0.001367  -0.007352   0.000410
     35       0.063048   0.002853   0.004474   0.012054   0.000033   0.003484
     36      -0.007485   0.004780   0.011282  -0.003502  -0.001195  -0.001119
     37       0.032785  -0.000709   0.000068  -0.002978   0.000038   0.014125
     38      -0.000908   0.008060   0.001056  -0.000072  -0.019376  -0.004224
     39      -0.000964  -0.002790  -0.000062   0.000993   0.005898  -0.015501
     40      -0.011119  -0.001945   0.001243   0.005880  -0.000270  -0.012288
     41       0.000382  -0.012928  -0.019407   0.005353  -0.001172   0.000399
     42       8.227933   0.000333  -0.003140  -0.012167   0.000715  -0.001898
     43       0.000333   8.231519   0.001715  -0.001649  -0.009346   0.000210
     44      -0.003140   0.001715   8.560026  -0.007062  -0.030260   0.003529
     45      -0.012167  -0.001649  -0.007062   8.538896   0.009478   0.011811
     46       0.000715  -0.009346  -0.030260   0.009478   9.199647   0.000167
     47      -0.001898   0.000210   0.003529   0.011811   0.000167   9.313572
     48      -0.000794   0.009087  -0.009989   0.002559   0.011573  -0.001458
     49      -0.007625   0.000667  -0.004509  -0.015771   0.000186   0.001263
[...]
    39a ->  45a  :     0.041471 (c=  0.20364313)
    40a ->  42a  :     0.111720 (c=  0.33424488)
    40a ->  43a  :     0.011579 (c= -0.10760569)
    40a ->  44a  :     0.092751 (c=  0.30455055)
    41a ->  42a  :     0.270178 (c= -0.51978641)
    41a ->  44a  :     0.237647 (c=  0.48749011)

STATE  2:  E=   0.199795 au      5.437 eV    43850.0 cm**-1 <S**2> =   0.000000
    38a ->  42a  :     0.048180 (c=  0.21950040)
    38a ->  44a  :     0.042274 (c= -0.20560524)
    39a ->  42a  :     0.118311 (c= -0.34396371)
    39a ->  43a  :     0.015689 (c= -0.12525440)
    39a ->  44a  :     0.090601 (c= -0.30099956)
    40a ->  42a  :     0.011912 (c= -0.10913988)
    40a ->  43a  :     0.151152 (c=  0.38878223)
    40a ->  45a  :     0.050333 (c= -0.22434993)
    41a ->  43a  :     0.139070 (c=  0.37292145)
    41a ->  45a  :     0.315777 (c=  0.56194006)

STATE  3:  E=   0.217931 au      5.930 eV    47830.3 cm**-1 <S**2> =   0.000000
    38a ->  43a  :     0.130890 (c=  0.36178768)
    38a ->  45a  :     0.072893 (c= -0.26998674)
    40a ->  42a  :     0.054612 (c=  0.23369203)
    41a ->  42a  :     0.373467 (c=  0.61111938)
    41a ->  44a  :     0.345459 (c=  0.58775718)

STATE  4:  E=   0.218456 au      5.944 eV    47945.6 cm**-1 <S**2> =   0.000000
    38a ->  42a  :     0.156292 (c= -0.39533722)
    38a ->  44a  :     0.074794 (c= -0.27348576)
    39a ->  42a  :     0.020831 (c=  0.14432795)
    39a ->  44a  :     0.018817 (c= -0.13717505)
    41a ->  43a  :     0.454479 (c= -0.67415029)
    41a ->  45a  :     0.265985 (c=  0.51573709)

STATE  5:  E=   0.219353 au      5.969 eV    48142.5 cm**-1 <S**2> =   0.000000
    38a ->  43a  :     0.015478 (c= -0.12441207)
    39a ->  42a  :     0.033728 (c= -0.18365182)
    39a ->  43a  :     0.068643 (c=  0.26199769)
    39a ->  45a  :     0.323024 (c= -0.56835189)
    40a ->  42a  :     0.456829 (c=  0.67589091)
    40a ->  44a  :     0.017720 (c=  0.13311725)
    40a ->  45a  :     0.036830 (c= -0.19191235)
    41a ->  44a  :     0.034230 (c= -0.18501256)

STATE  6:  E=   0.219574 au      5.975 eV    48190.9 cm**-1 <S**2> =   0.000000
    38a ->  44a  :     0.025530 (c= -0.15978087)
    39a ->  42a  :     0.418972 (c= -0.64728036)
    39a ->  44a  :     0.079709 (c= -0.28232824)
    39a ->  45a  :     0.030222 (c= -0.17384519)
    40a ->  42a  :     0.028134 (c= -0.16773269)
    40a ->  43a  :     0.144543 (c= -0.38018781)
    40a ->  44a  :     0.010086 (c= -0.10042959)
    40a ->  45a  :     0.215408 (c=  0.46412046)
    41a ->  43a  :     0.020332 (c= -0.14259060)
    41a ->  45a  :     0.010620 (c= -0.10305441)

STATE  7:  E=   0.219715 au      5.979 eV    48221.8 cm**-1 <S**2> =   0.000000
    39a ->  43a  :     0.388961 (c= -0.62366706)
    39a ->  44a  :     0.039549 (c=  0.19886913)
    39a ->  45a  :     0.067871 (c= -0.26052031)
    40a ->  42a  :     0.016408 (c=  0.12809370)
    40a ->  43a  :     0.043277 (c= -0.20803113)
    40a ->  44a  :     0.420675 (c= -0.64859476)
    40a ->  45a  :     0.012907 (c= -0.11360938)

STATE  8:  E=   0.220168 au      5.991 eV    48321.4 cm**-1 <S**2> =   0.000000
    39a ->  42a  :     0.069078 (c=  0.26282770)
    39a ->  43a  :     0.029326 (c=  0.17124740)
    39a ->  44a  :     0.397866 (c= -0.63076604)
    39a ->  45a  :     0.018585 (c=  0.13632861)
    40a ->  43a  :     0.272222 (c= -0.52174851)
    40a ->  44a  :     0.025257 (c= -0.15892477)
    40a ->  45a  :     0.163620 (c= -0.40449912)

STATE  9:  E=   0.222563 au      6.056 eV    48846.8 cm**-1 <S**2> =   0.000000
    38a ->  43a  :     0.175500 (c=  0.41892729)
    38a ->  45a  :     0.388053 (c=  0.62293902)
    39a ->  43a  :     0.028370 (c=  0.16843467)
    39a ->  45a  :     0.049968 (c= -0.22353416)
    40a ->  44a  :     0.033509 (c= -0.18305490)
    41a ->  42a  :     0.145038 (c= -0.38083903)
    41a ->  44a  :     0.162595 (c=  0.40323028)

STATE 10:  E=   0.223852 au      6.091 eV    49129.9 cm**-1 <S**2> =   0.000000
    38a ->  42a  :     0.276998 (c=  0.52630588)
    38a ->  44a  :     0.286682 (c= -0.53542653)
    40a ->  43a  :     0.060643 (c=  0.24625764)
    40a ->  45a  :     0.034604 (c= -0.18602044)
    41a ->  43a  :     0.139438 (c= -0.37341367)
    41a ->  45a  :     0.176162 (c= -0.41971614)

STATE 11:  E=   0.238940 au      6.502 eV    52441.3 cm**-1 <S**2> =   0.000000
    38a ->  42a  :     0.207959 (c= -0.45602497)
    38a ->  44a  :     0.253050 (c= -0.50304075)
    39a ->  42a  :     0.081171 (c= -0.28490577)
    39a ->  44a  :     0.097562 (c=  0.31234939)
    39a ->  45a  :     0.019014 (c=  0.13789219)
    40a ->  43a  :     0.047189 (c= -0.21722949)
    40a ->  45a  :     0.185798 (c= -0.43104258)
    41a ->  43a  :     0.034581 (c=  0.18595879)
    41a ->  45a  :     0.024763 (c= -0.15736379)

STATE 12:  E=   0.239084 au      6.506 eV    52473.0 cm**-1 <S**2> =   0.000000
    38a ->  43a  :     0.288684 (c=  0.53729328)
    38a ->  45a  :     0.127534 (c= -0.35711907)
    39a ->  43a  :     0.064124 (c= -0.25322703)
    39a ->  44a  :     0.010277 (c= -0.10137713)
    39a ->  45a  :     0.192048 (c= -0.43823332)
    40a ->  42a  :     0.089858 (c= -0.29976253)
    40a ->  44a  :     0.131445 (c=  0.36255319)
    40a ->  45a  :     0.019207 (c= -0.13859013)
    41a ->  42a  :     0.013176 (c= -0.11478882)
    41a ->  44a  :     0.021132 (c= -0.14536968)

STATE 13:  E=   0.261395 au      7.113 eV    57369.7 cm**-1 <S**2> =   0.000000
    38a ->  47a  :     0.028763 (c= -0.16959681)
    41a ->  46a  :     0.935728 (c= -0.96733030)

STATE 14:  E=   0.269336 au      7.329 eV    59112.4 cm**-1 <S**2> =   0.000000
    39a ->  46a  :     0.795084 (c=  0.89167503)
    40a ->  46a  :     0.099098 (c=  0.31479871)
    40a ->  47a  :     0.093585 (c=  0.30591687)

STATE 15:  E=   0.269392 au      7.331 eV    59124.7 cm**-1 <S**2> =   0.000000
    39a ->  46a  :     0.098819 (c= -0.31435443)
    39a ->  47a  :     0.089990 (c=  0.29998330)
    40a ->  46a  :     0.791632 (c=  0.88973684)

STATE 16:  E=   0.275108 au      7.486 eV    60379.1 cm**-1 <S**2> =   0.000000
    38a ->  46a  :     0.523154 (c= -0.72329368)
    41a ->  47a  :     0.470769 (c= -0.68612634)

STATE 17:  E=   0.275512 au      7.497 eV    60467.9 cm**-1 <S**2> =   0.000000
    38a ->  43a  :     0.123977 (c=  0.35210303)
    38a ->  45a  :     0.197097 (c= -0.44395590)
    38a ->  47a  :     0.014504 (c= -0.12043449)
    39a ->  43a  :     0.101423 (c=  0.31846967)
    39a ->  44a  :     0.012640 (c=  0.11242816)
    39a ->  45a  :     0.065675 (c=  0.25627142)
    40a ->  42a  :     0.025201 (c=  0.15874692)
    40a ->  44a  :     0.148256 (c= -0.38504010)
    41a ->  42a  :     0.140918 (c= -0.37539077)
    41a ->  44a  :     0.035941 (c= -0.18958118)
    41a ->  46a  :     0.024809 (c= -0.15751018)

STATE 18:  E=   0.280662 au      7.637 eV    61598.2 cm**-1 <S**2> =   0.000000
    38a ->  43a  :     0.196101 (c=  0.44283347)
    38a ->  45a  :     0.131553 (c=  0.36270277)
    39a ->  42a  :     0.012846 (c= -0.11333836)
    39a ->  43a  :     0.078534 (c= -0.28023941)
    39a ->  45a  :     0.125843 (c=  0.35474408)
    40a ->  42a  :     0.137457 (c=  0.37075196)
    40a ->  44a  :     0.035302 (c=  0.18788890)
    40a ->  45a  :     0.011711 (c=  0.10821833)
    41a ->  42a  :     0.022064 (c=  0.14854022)
    41a ->  44a  :     0.124575 (c= -0.35295241)


-----------------------------
TD-DFT/TDA-EXCITATION SPECTRA
-----------------------------

Center of mass = (  0.0000,  0.0000,  0.0000)
Calculating the Dipole integrals                  ... done
Transforming integrals                            ... done
Calculating the Linear Momentum integrals         ... done
Transforming integrals                            ... done
Calculating angular momentum integrals            ... done
Transforming integrals                            ... done

-----------------------------------------------------------------------------
         ABSORPTION SPECTRUM VIA TRANSITION ELECTRIC DIPOLE MOMENTS
-----------------------------------------------------------------------------
State   Energy    Wavelength  fosc         T2        TX        TY        TZ  
        (cm-1)      (nm)                 (au**2)    (au)      (au)      (au) 
-----------------------------------------------------------------------------
   1   43701.3    228.8   0.000000009   0.00000   0.00024   0.00007   0.00010
   2   43850.0    228.1   0.003007431   0.02258   0.01729  -0.02641  -0.14691
   3   47830.3    209.1   0.000003046   0.00002  -0.00102   0.00037  -0.00445
   4   47945.6    208.6   0.009502135   0.06525   0.17375  -0.02152   0.18599
   5   48142.5    207.7   0.000003071   0.00002  -0.00118   0.00433   0.00092
   6   48190.9    207.5   0.002360668   0.01613   0.00908  -0.12361  -0.02767
   7   48221.8    207.4   0.000005537   0.00004  -0.00178   0.00581  -0.00092
   8   48321.4    206.9   0.000656272   0.00447  -0.03163   0.02242  -0.05448
   9   48846.8    204.7   0.000006595   0.00004   0.00233  -0.00117  -0.00614
  10   49129.9    203.5   0.071774076   0.48095  -0.07707   0.09256   0.68296
  11   52441.3    190.7   0.002956643   0.01856   0.01450   0.00755   0.13525
  12   52473.0    190.6   0.000000017   0.00000   0.00004  -0.00030  -0.00011
  13   57369.7    174.3   0.000000004   0.00000   0.00006  -0.00013  -0.00005
  14   59112.4    169.2   0.002479243   0.01381  -0.01473  -0.00332   0.11653
  15   59124.7    169.1   0.000004736   0.00003   0.00047  -0.00022  -0.00511
  16   60379.1    165.6   0.000045692   0.00025   0.01322  -0.00487   0.00711
  17   60467.9    165.4   0.000000016   0.00000   0.00021   0.00019   0.00008
  18   61598.2    162.3   0.000000643   0.00000  -0.00014  -0.00011  -0.00185

-----------------------------------------------------------------------------
         ABSORPTION SPECTRUM VIA TRANSITION VELOCITY DIPOLE MOMENTS
-----------------------------------------------------------------------------
State   Energy    Wavelength   fosc        P2         PX        PY        PZ  
        (cm-1)      (nm)                 (au**2)     (au)      (au)      (au) 
-----------------------------------------------------------------------------
   1   43701.3    228.8   0.000000003   0.00000   0.00001   0.00000  -0.00003
   2   43850.0    228.1   0.001047565   0.00031  -0.00072   0.00689   0.01631
   3   47830.3    209.1   0.000000761   0.00000  -0.00008   0.00024   0.00043
   4   47945.6    208.6   0.001483808   0.00049   0.00813  -0.01069  -0.01749
   5   48142.5    207.7   0.000000630   0.00000  -0.00006  -0.00012  -0.00044
   6   48190.9    207.5   0.000508526   0.00017   0.00089   0.00350   0.01243
   7   48221.8    207.4   0.000000478   0.00000  -0.00007  -0.00002  -0.00039
   8   48321.4    206.9   0.000063963   0.00002  -0.00040   0.00312   0.00335
   9   48846.8    204.7   0.000002180   0.00000   0.00010   0.00036   0.00077
  10   49129.9    203.5   0.024875834   0.00835  -0.00160  -0.04009  -0.08211
  11   52441.3    190.7   0.000960180   0.00034   0.00466  -0.00965  -0.01514
  12   52473.0    190.6   0.000000029   0.00000   0.00007  -0.00000   0.00008
  13   57369.7    174.3   0.000000002   0.00000  -0.00000   0.00001   0.00003
  14   59112.4    169.2   0.000735747   0.00030   0.00095  -0.00130  -0.01717
  15   59124.7    169.1   0.000001602   0.00000  -0.00005   0.00008   0.00080
  16   60379.1    165.6   0.000037627   0.00002   0.00387  -0.00075  -0.00015
  17   60467.9    165.4   0.000000002   0.00000   0.00001  -0.00002  -0.00002
  18   61598.2    162.3   0.000000122   0.00000  -0.00003   0.00014   0.00017

-------------------------------------------------------------------
                             CD SPECTRUM
-------------------------------------------------------------------
State  Energy     Wavelength     R         MX        MY        MZ   
       (cm-1)       (nm)     (1e40*cgs)   (au)      (au)      (au)  
-------------------------------------------------------------------
   1   43701.3    228.8     -0.00547  -0.05573   0.02831  -0.00315
   2   43850.0    228.1     -0.00213   0.00017   0.00001   0.00005
   3   47830.3    209.1      0.01412  -0.04738  -0.09761  -0.00401
   4   47945.6    208.6      0.15428   0.00165  -0.00128   0.00007
   5   48142.5    207.7     -0.03657   0.12854   0.01654   0.00233
   6   48190.9    207.5      0.01919   0.00503  -0.00004   0.00034
   7   48221.8    207.4     -0.02164   0.02046  -0.00087   0.00493
   8   48321.4    206.9      0.02061  -0.00106   0.00013  -0.00014
   9   48846.8    204.7     -0.19244  -0.20489   0.09672  -0.02967
  10   49129.9    203.5      0.04939  -0.00317   0.00042  -0.00026
  11   52441.3    190.7     -0.00424   0.00090   0.00073  -0.00020
  12   52473.0    190.6      0.01116  -0.04540  -0.09742   0.03147
  13   57369.7    174.3      0.01443  -0.07486  -0.35504   0.22847
  14   59112.4    169.2     -0.05327   0.01631  -0.00181   0.00104
  15   59124.7    169.1      0.02543   0.38816  -0.04559   0.02686
  16   60379.1    165.6      0.00221  -0.00020  -0.00090   0.00041
  17   60467.9    165.4      0.06535   0.12666   0.69222  -0.24894
  18   61598.2    162.3     -0.09107   0.67424  -0.11301   0.05961

-------------------------------------------------------------------
         CD SPECTRUM VIA TRANSITION VELOCITY DIPOLE MOMENTS        
-------------------------------------------------------------------
State  Energy     Wavelength     R         MX        MY        MZ   
       (cm-1)       (nm)     (1e40*cgs)   (au)      (au)      (au)  
-------------------------------------------------------------------
   1   43701.3    228.8     -0.00109  -0.05573   0.02831  -0.00315
   2   43850.0    228.1      0.00174   0.00017   0.00001   0.00005
   3   47830.3    209.1     -0.04675  -0.04738  -0.09761  -0.00401
   4   47945.6    208.6      0.05593   0.00165  -0.00128   0.00007
   5   48142.5    207.7     -0.02267   0.12854   0.01654   0.00233
   6   48190.9    207.5      0.01838   0.00503  -0.00004   0.00034
   7   48221.8    207.4     -0.00707   0.02046  -0.00087   0.00493
   8   48321.4    206.9      0.00077  -0.00106   0.00013  -0.00014
   9   48846.8    204.7     -0.01763  -0.20489   0.09672  -0.02967
  10   49129.9    203.5      0.02019  -0.00317   0.00042  -0.00026
  11   52441.3    190.7      0.00041   0.00090   0.00073  -0.00020
  12   52473.0    190.6     -0.00080  -0.04540  -0.09742   0.03147
  13   57369.7    174.3      0.00258  -0.07486  -0.35504   0.22847
  14   59112.4    169.2      0.00000   0.01631  -0.00181   0.00104
  15   59124.7    169.1     -0.00045   0.38816  -0.04559   0.02686
  16   60379.1    165.6     -0.00027  -0.00020  -0.00090   0.00041
  17   60467.9    165.4     -0.00904   0.12666   0.69222  -0.24894
  18   61598.2    162.3     -0.04544   0.67424  -0.11301   0.05961

Total run time:       14.214 sec

           *** ORCA-CIS/TD-DFT FINISHED WITHOUT ERROR ***

Maximum memory used throughout the entire CIS-calculation: 123.7 MB

-----------------------
CIS/TD-DFT TOTAL ENERGY
-----------------------

    E(SCF)  =   -464.166483728 Eh
    DE(CIS) =      0.199117901 Eh (Root  1)
    ----------------------------- ---------
    E(tot)  =   -463.967365827 Eh


-------------------------   --------------------
FINAL SINGLE POINT ENERGY      -463.967365826813
-------------------------   --------------------


                            ***************************************
                            *     ORCA property calculations      *
                            ***************************************

                                    ---------------------
                                    Active property flags
                                    ---------------------
   (+) Dipole Moment


------------------------------------------------------------------------------
                       ORCA ELECTRIC PROPERTIES CALCULATION
------------------------------------------------------------------------------

Dipole Moment Calculation                       ... on
Quadrupole Moment Calculation                   ... off
Polarizability Calculation                      ... off
GBWName                                         ... benzeneDimer-TDA.gbw
Electron density file                           ... benzeneDimer-TDA.scfp
The origin for moment calculation is the CENTER OF MASS  = ( 0.000001,  0.000011  0.000014)

-------------
DIPOLE MOMENT
-------------
                                X             Y             Z
Electronic contribution:      0.00003       0.00021       0.00030
Nuclear contribution   :     -0.00001      -0.00015      -0.00018
                        -----------------------------------------
Total Dipole Moment    :      0.00001       0.00006       0.00011
                        -----------------------------------------
Magnitude (a.u.)       :      0.00013
Magnitude (Debye)      :      0.00033



--------------------
Rotational spectrum 
--------------------
 
Rotational constants in cm-1:     0.054384     0.022519     0.021201 
Rotational constants in MHz :  1630.400814   675.100582   635.582701 

 Dipole components along the rotational axes: 
x,y,z [a.u.] :     0.000120    -0.000013    -0.000047 
x,y,z [Debye]:     0.000304    -0.000034    -0.000120 

 
--------------------------------------------------------------------------
WARNING: There was an error initializing an OpenFabrics device.

  Local host:   cnode05
  Local device: mlx5_0
--------------------------------------------------------------------------
[cnode05:352802] 7 more processes have sent help message help-mpi-btl-openib.txt / error in device init
[cnode05:352802] Set MCA parameter "orte_base_help_aggregate" to 0 to see all help / error messages

Timings for individual modules:

Sum of individual times         ...       28.499 sec (=   0.475 min)
GTO integral calculation        ...        0.532 sec (=   0.009 min)   1.9 %
SCF iterations                  ...       13.330 sec (=   0.222 min)  46.8 %
CIS module                      ...       14.637 sec (=   0.244 min)  51.4 %
                             ****ORCA TERMINATED NORMALLY****
TOTAL RUN TIME: 0 days 0 hours 0 minutes 29 seconds 27 msec

Sender: Unischeduler System <lcz@mgt01>
Subject: Job 129369: <#!/bin/bash
#BSUB -J intel
#BSUB -o benzeneDimer-TDA.out
#BSUB -n 8
#BSUB -q cqueue
#BSUB -R span[hosts=1]
export LD_LIBRARY_PATH=/apps/software/openmpi-4.1.1/lib:/apps/software/orca_5_0_0:$LD_LIBRARY_PATH
export PATH=/apps/software/openmpi-4.1.1/bin:/apps/software/orca_5_0_0:$PATH
/apps/software/orca_5_0_0/orca benzeneDimer-TDA.inp >& benzeneDimer-TDA.out> Done

Job <#!/bin/bash
#BSUB -J intel
#BSUB -o benzeneDimer-TDA.out
#BSUB -n 8
#BSUB -q cqueue
#BSUB -R span[hosts=1]
export LD_LIBRARY_PATH=/apps/software/openmpi-4.1.1/lib:/apps/software/orca_5_0_0:$LD_LIBRARY_PATH
export PATH=/apps/software/openmpi-4.1.1/bin:/apps/software/orca_5_0_0:$PATH
/apps/software/orca_5_0_0/orca benzeneDimer-TDA.inp >& benzeneDimer-TDA.out> was submitted from host <mgt01> by user <lcz>.
Job was executed on host(s) <8*cnode05>, in queue <cqueue>, as user <lcz>.
</apps/users/lcz> was used as the home directory.
</apps/users/lcz/exe10/task1/ORCA/RI> was used as the working directory.
Started at 2022-05-08 11:36:55
Results reported at 2022-05-08 11:37:24

Your job looked like:

------------------------------------------------------------
# User input
#!/bin/bash
#BSUB -J intel
#BSUB -o benzeneDimer-TDA.out
#BSUB -n 8
#BSUB -q cqueue
#BSUB -R span[hosts=1]
export LD_LIBRARY_PATH=/apps/software/openmpi-4.1.1/lib:/apps/software/orca_5_0_0:$LD_LIBRARY_PATH
export PATH=/apps/software/openmpi-4.1.1/bin:/apps/software/orca_5_0_0:$PATH
/apps/software/orca_5_0_0/orca benzeneDimer-TDA.inp >& benzeneDimer-TDA.out
------------------------------------------------------------

Successfully completed.

Resource usage summary:

    CPU time   :          142.13 sec.
    Max Memory :              1668 MB
    Max Processes  :              13


The output (if any) follows:

