 Entering Gaussian System, Link 0=/apps/software/g16/g16
 Initial command:
 /apps/software/g16/l1.exe "/scratch/Gau-135431.inp" -scrdir="/scratch/"
 Entering Link 1 = /apps/software/g16/l1.exe PID=    135432.
  
 Copyright (c) 1988,1990,1992,1993,1995,1998,2003,2009,2016,
            Gaussian, Inc.  All Rights Reserved.
  
 This is part of the Gaussian(R) 16 program.  It is based on
 the Gaussian(R) 09 system (copyright 2009, Gaussian, Inc.),
 the Gaussian(R) 03 system (copyright 2003, Gaussian, Inc.),
 the Gaussian(R) 98 system (copyright 1998, Gaussian, Inc.),
 the Gaussian(R) 94 system (copyright 1995, Gaussian, Inc.),
 the Gaussian 92(TM) system (copyright 1992, Gaussian, Inc.),
 the Gaussian 90(TM) system (copyright 1990, Gaussian, Inc.),
 the Gaussian 88(TM) system (copyright 1988, Gaussian, Inc.),
 the Gaussian 86(TM) system (copyright 1986, Carnegie Mellon
 University), and the Gaussian 82(TM) system (copyright 1983,
 Carnegie Mellon University). Gaussian is a federally registered
 trademark of Gaussian, Inc.
  
 This software contains proprietary and confidential information,
 including trade secrets, belonging to Gaussian, Inc.
  
 This software is provided under written license and may be
 used, copied, transmitted, or stored only in accord with that
 written license.
  
 The following legend is applicable only to US Government
 contracts under FAR:
  
                    RESTRICTED RIGHTS LEGEND
  
 Use, reproduction and disclosure by the US Government is
 subject to restrictions as set forth in subparagraphs (a)
 and (c) of the Commercial Computer Software - Restricted
 Rights clause in FAR 52.227-19.
  
 Gaussian, Inc.
 340 Quinnipiac St., Bldg. 40, Wallingford CT 06492
  
  
 ---------------------------------------------------------------
 Warning -- This program may not be used in any manner that
 competes with the business of Gaussian, Inc. or will provide
 assistance to any competitor of Gaussian, Inc.  The licensee
 of this program is prohibited from giving any competitor of
 Gaussian, Inc. access to this program.  By using this program,
 the user acknowledges that Gaussian, Inc. is engaged in the
 business of creating and licensing software in the field of
 computational chemistry and represents and warrants to the
 licensee that it is not a competitor of Gaussian, Inc. and that
 it will not use this program in any manner prohibited above.
 ---------------------------------------------------------------
  

 Cite this work as:
 Gaussian 16, Revision A.03,
 M. J. Frisch, G. W. Trucks, H. B. Schlegel, G. E. Scuseria, 
 M. A. Robb, J. R. Cheeseman, G. Scalmani, V. Barone, 
 G. A. Petersson, H. Nakatsuji, X. Li, M. Caricato, A. V. Marenich, 
 J. Bloino, B. G. Janesko, R. Gomperts, B. Mennucci, H. P. Hratchian, 
 J. V. Ortiz, A. F. Izmaylov, J. L. Sonnenberg, D. Williams-Young, 
 F. Ding, F. Lipparini, F. Egidi, J. Goings, B. Peng, A. Petrone, 
 T. Henderson, D. Ranasinghe, V. G. Zakrzewski, J. Gao, N. Rega, 
 G. Zheng, W. Liang, M. Hada, M. Ehara, K. Toyota, R. Fukuda, 
 J. Hasegawa, M. Ishida, T. Nakajima, Y. Honda, O. Kitao, H. Nakai, 
 T. Vreven, K. Throssell, J. A. Montgomery, Jr., J. E. Peralta, 
 F. Ogliaro, M. J. Bearpark, J. J. Heyd, E. N. Brothers, K. N. Kudin, 
 V. N. Staroverov, T. A. Keith, R. Kobayashi, J. Normand, 
 K. Raghavachari, A. P. Rendell, J. C. Burant, S. S. Iyengar, 
 J. Tomasi, M. Cossi, J. M. Millam, M. Klene, C. Adamo, R. Cammi, 
 J. W. Ochterski, R. L. Martin, K. Morokuma, O. Farkas, 
 J. B. Foresman, and D. J. Fox, Gaussian, Inc., Wallingford CT, 2016.
 
 ******************************************
 Gaussian 16:  ES64L-G16RevA.03 25-Dec-2016
                 7-May-2022 
 ******************************************
 %nprocshared=8
 Will use up to    8 processors via shared memory.
 %mem=20GB
 %chk=benzeneDimer-TDDFT-Gaussian.chk
 -----------------------------------------
 #p TD=(Triplet,nstates=18) RB3LYP/def2SVP
 -----------------------------------------
 1/38=1,172=1/1;
 2/12=2,17=6,18=5,40=1/2;
 3/5=43,7=101,11=1,25=1,30=1,74=-5,116=1/1,2,3,8;
 4//1;
 5/5=2,38=5/2;
 8/6=1,10=1,108=18/1;
 9/41=18,42=1,48=3,70=2/14;
 6/7=2,8=2,9=2,10=2/1;
 99/5=1,9=1/99;
 Leave Link    1 at Sat May  7 21:54:36 2022, MaxMem=  2684354560 cpu:               0.1 elap:               0.0
 (Enter /apps/software/g16/l101.exe)
 ------------------
 benzeneDimer TDDFT
 ------------------
 Symbolic Z-matrix:
 Charge =  0 Multiplicity = 1
 C                     0.27534  -0.4584    2.74314 
 C                     1.27901   0.22894   2.05397 
 C                     0.93962   1.23161   1.13988 
 C                    -0.40242   1.54874   0.91664 
 C                    -1.4067    0.86382   1.60782 
 C                    -1.06898  -0.14012   2.52029 
 H                     0.5396   -1.2419    3.45444 
 H                     2.32659  -0.02216   2.22396 
 H                     1.72083   1.75505   0.5893 
 H                    -0.6664    2.3167    0.19022 
 H                    -2.45442   1.10654   1.42783 
 H                    -1.8524   -0.67607   3.05755 
 C                     0.40864  -1.54714  -0.91723 
 C                     1.40844  -0.85938  -1.61207 
 C                     1.0645    0.14296  -2.52396 
 C                    -0.28156   0.45682  -2.74254 
 C                    -1.28074  -0.23333  -2.04966 
 C                    -0.93515  -1.23444  -1.13618 
 H                     0.67744  -2.31392  -0.19132 
 H                     2.45752  -1.09873  -1.43549 
 H                     1.84443   0.68111  -3.0641 
 H                    -0.55068   1.23905  -3.4534 
 H                    -2.32967   0.01435  -2.2163 
 H                    -1.71285  -1.76011  -0.58278 
 
 ITRead=  0  0  0  0  0  0  0  0  0  0  0  0  0  0  0  0  0  0  0  0
 ITRead=  0  0  0  0
 MicOpt= -1 -1 -1 -1 -1 -1 -1 -1 -1 -1 -1 -1 -1 -1 -1 -1 -1 -1 -1 -1
 MicOpt= -1 -1 -1 -1
 NAtoms=     24 NQM=       24 NQMF=       0 NMMI=      0 NMMIF=      0
                NMic=       0 NMicF=      0.
                    Isotopes and Nuclear Properties:
 (Nuclear quadrupole moments (NQMom) in fm**2, nuclear magnetic moments (NMagM)
  in nuclear magnetons)

  Atom         1           2           3           4           5           6           7           8           9          10
 IAtWgt=          12          12          12          12          12          12           1           1           1           1
 AtmWgt=  12.0000000  12.0000000  12.0000000  12.0000000  12.0000000  12.0000000   1.0078250   1.0078250   1.0078250   1.0078250
 NucSpn=           0           0           0           0           0           0           1           1           1           1
 AtZEff=  -0.0000000  -0.0000000  -0.0000000  -0.0000000  -0.0000000  -0.0000000  -0.0000000  -0.0000000  -0.0000000  -0.0000000
 NQMom=    0.0000000   0.0000000   0.0000000   0.0000000   0.0000000   0.0000000   0.0000000   0.0000000   0.0000000   0.0000000
 NMagM=    0.0000000   0.0000000   0.0000000   0.0000000   0.0000000   0.0000000   2.7928460   2.7928460   2.7928460   2.7928460
 AtZNuc=   6.0000000   6.0000000   6.0000000   6.0000000   6.0000000   6.0000000   1.0000000   1.0000000   1.0000000   1.0000000

  Atom        11          12          13          14          15          16          17          18          19          20
 IAtWgt=           1           1          12          12          12          12          12          12           1           1
 AtmWgt=   1.0078250   1.0078250  12.0000000  12.0000000  12.0000000  12.0000000  12.0000000  12.0000000   1.0078250   1.0078250
 NucSpn=           1           1           0           0           0           0           0           0           1           1
 AtZEff=  -0.0000000  -0.0000000  -0.0000000  -0.0000000  -0.0000000  -0.0000000  -0.0000000  -0.0000000  -0.0000000  -0.0000000
 NQMom=    0.0000000   0.0000000   0.0000000   0.0000000   0.0000000   0.0000000   0.0000000   0.0000000   0.0000000   0.0000000
 NMagM=    2.7928460   2.7928460   0.0000000   0.0000000   0.0000000   0.0000000   0.0000000   0.0000000   2.7928460   2.7928460
 AtZNuc=   1.0000000   1.0000000   6.0000000   6.0000000   6.0000000   6.0000000   6.0000000   6.0000000   1.0000000   1.0000000

  Atom        21          22          23          24
 IAtWgt=           1           1           1           1
 AtmWgt=   1.0078250   1.0078250   1.0078250   1.0078250
 NucSpn=           1           1           1           1
 AtZEff=  -0.0000000  -0.0000000  -0.0000000  -0.0000000
 NQMom=    0.0000000   0.0000000   0.0000000   0.0000000
 NMagM=    2.7928460   2.7928460   2.7928460   2.7928460
 AtZNuc=   1.0000000   1.0000000   1.0000000   1.0000000
 Leave Link  101 at Sat May  7 21:54:36 2022, MaxMem=  2684354560 cpu:               0.6 elap:               0.1
 (Enter /apps/software/g16/l202.exe)
                          Input orientation:                          
 ---------------------------------------------------------------------
 Center     Atomic      Atomic             Coordinates (Angstroms)
 Number     Number       Type             X           Y           Z
 ---------------------------------------------------------------------
      1          6           0        0.275340   -0.458399    2.743143
      2          6           0        1.279007    0.228941    2.053972
      3          6           0        0.939623    1.231612    1.139882
      4          6           0       -0.402424    1.548740    0.916643
      5          6           0       -1.406699    0.863818    1.607818
      6          6           0       -1.068978   -0.140123    2.520287
      7          1           0        0.539604   -1.241899    3.454437
      8          1           0        2.326588   -0.022157    2.223964
      9          1           0        1.720833    1.755052    0.589302
     10          1           0       -0.666404    2.316698    0.190218
     11          1           0       -2.454419    1.106540    1.427829
     12          1           0       -1.852402   -0.676072    3.057548
     13          6           0        0.408637   -1.547139   -0.917226
     14          6           0        1.408440   -0.859383   -1.612070
     15          6           0        1.064504    0.142964   -2.523961
     16          6           0       -0.281558    0.456819   -2.742536
     17          6           0       -1.280736   -0.233330   -2.049664
     18          6           0       -0.935148   -1.234436   -1.136183
     19          1           0        0.677439   -2.313917   -0.191322
     20          1           0        2.457518   -1.098728   -1.435489
     21          1           0        1.844433    0.681107   -3.064104
     22          1           0       -0.550679    1.239051   -3.453404
     23          1           0       -2.329668    0.014353   -2.216299
     24          1           0       -1.712851   -1.760113   -0.582784
 ---------------------------------------------------------------------
                    Distance matrix (angstroms):
                    1          2          3          4          5
     1  C    0.000000
     2  C    1.398121   0.000000
     3  C    2.422366   1.398604   0.000000
     4  C    2.797155   2.421280   1.396960   0.000000
     5  C    2.422081   2.795557   2.420632   1.398359   0.000000
     6  C    1.399341   2.422125   2.796722   2.422442   1.398054
     7  H    1.090709   2.161340   3.411076   3.887863   3.410593
     8  H    2.160434   1.090584   2.161214   3.409445   3.886132
     9  H    3.409963   2.160899   1.089686   2.158226   3.407803
    10  H    3.886576   3.408362   2.158378   1.089559   2.160668
    11  H    3.410377   3.885962   3.408530   2.160448   1.090425
    12  H    2.161832   3.410562   3.887429   3.411113   2.161395
    13  C    3.821182   3.569317   3.497871   3.688545   3.934972
    14  C    4.518029   3.826365   3.487878   3.933532   4.611085
    15  C    5.359739   4.583762   3.824199   3.995728   4.868066
    16  C    5.589315   5.049137   4.143037   3.820535   4.511892
    17  C    5.044108   4.858580   4.153222   3.570179   3.820572
    18  C    4.137232   4.149824   3.844039   3.499137   3.486341
    19  H    3.495099   3.445193   3.796264   4.160987   4.204585
    20  H    4.757404   3.915091   3.790387   4.552020   5.295798
    21  H    6.122471   5.169029   4.335348   4.652688   5.694743
    22  H    6.477719   5.890608   4.829009   4.383514   5.146798
    23  H    5.621889   5.594980   4.840861   3.985466   4.024591
    24  H    4.087684   4.456460   4.353575   3.861866   3.431834
                    6          7          8          9         10
     6  C    0.000000
     7  H    2.161962   0.000000
     8  H    3.410512   2.489005   0.000000
     9  H    3.886313   4.311150   2.489485   0.000000
    10  H    3.409876   4.977268   4.308639   2.484676   0.000000
    11  H    2.160343   4.311204   4.976527   4.307717   2.488607
    12  H    1.090708   2.489854   4.311197   4.977008   4.311014
    13  C    3.997441   4.384263   3.983865   3.859527   4.160695
    14  C    4.871479   5.154677   4.032258   3.432040   4.200084
    15  C    5.484188   6.159108   4.915579   3.566791   3.884318
    16  C    5.354781   6.477841   5.630095   4.098307   3.494038
    17  C    4.575803   5.884384   5.596541   4.463991   3.449219
    18  C    3.819058   4.821695   4.837265   4.355292   3.800278
    19  H    3.889495   3.802602   3.715570   4.272534   4.836743
    20  H    5.385468   5.254548   3.816772   3.575828   4.905808
    21  H    6.351992   6.920398   5.356372   3.809988   4.423807
    22  H    6.152702   7.420384   6.488592   4.665779   3.801407
    23  H    4.903922   6.478283   6.434128   5.225705   3.722709
    24  H    3.559212   4.652016   5.216838   5.051767   4.279366
                   11         12         13         14         15
    11  H    0.000000
    12  H    2.489199   0.000000
    13  C    4.553942   4.655092   0.000000
    14  C    5.294102   5.698423   1.398364   0.000000
    15  C    5.378470   6.350779   2.422438   1.398048   0.000000
    16  C    4.747147   6.114897   2.797137   2.422072   1.399343
    17  C    3.907139   5.158142   2.421258   2.795549   2.422128
    18  C    3.789790   4.329030   1.396955   2.420648   2.796742
    19  H    4.912200   4.431454   1.089560   2.160684   3.409881
    20  H    6.098272   6.240307   2.160459   1.090427   2.160338
    21  H    6.232061   7.278952   3.411110   2.161389   1.090707
    22  H    5.241013   6.910475   3.887845   3.410584   2.161963
    23  H    3.806325   5.340218   3.409423   3.886124   3.410513
    24  H    3.579133   3.800873   2.158222   3.407814   3.886331
                   16         17         18         19         20
    16  C    0.000000
    17  C    1.398119   0.000000
    18  C    2.422374   1.398603   0.000000
    19  H    3.886560   3.408332   2.158351   0.000000
    20  H    3.410372   3.885957   3.408546   2.488638   0.000000
    21  H    2.161839   3.410566   3.887448   4.311023   2.489191
    22  H    1.090709   2.161337   3.411081   4.977252   4.311200
    23  H    2.160430   1.090584   2.161206   4.308604   4.976521
    24  H    3.409973   2.160908   1.089682   2.484639   4.307727
                   21         22         23         24
    21  H    0.000000
    22  H    2.489863   0.000000
    23  H    4.311201   2.488999   0.000000
    24  H    4.977024   4.311159   2.489491   0.000000
 Stoichiometry    C12H12
 Framework group  C1[X(C12H12)]
 Deg. of freedom    66
 Full point group                 C1      NOp   1
 Largest Abelian subgroup         C1      NOp   1
 Largest concise Abelian subgroup C1      NOp   1
                         Standard orientation:                         
 ---------------------------------------------------------------------
 Center     Atomic      Atomic             Coordinates (Angstroms)
 Number     Number       Type             X           Y           Z
 ---------------------------------------------------------------------
      1          6           0       -2.647475   -0.543473   -0.711521
      2          6           0       -1.987044   -1.387011    0.186820
      3          6           0       -1.221108   -0.843604    1.223230
      4          6           0       -1.117423    0.542470    1.363026
      5          6           0       -1.780165    1.386791    0.466754
      6          6           0       -2.544441    0.844973   -0.570969
      7          1           0       -3.243081   -0.966949   -1.521192
      8          1           0       -2.063328   -2.469128    0.074672
      9          1           0       -0.691644   -1.500704    1.912652
     10          1           0       -0.504946    0.964659    2.159121
     11          1           0       -1.692981    2.468643    0.571744
     12          1           0       -3.059341    1.503536   -1.271552
     13          6           0        1.118192   -0.548339   -1.360487
     14          6           0        1.783966   -1.387572   -0.461680
     15          6           0        2.547491   -0.839882    0.573502
     16          6           0        2.646706    0.549349    0.708982
     17          6           0        1.983209    1.387783   -0.191870
     18          6           0        1.218059    0.838514   -1.225765
     19          1           0        0.506377   -0.975086   -2.154659
     20          1           0        1.699837   -2.470039   -0.562778
     21          1           0        3.064778   -1.494471    1.276047
     22          1           0        3.241754    0.977412    1.516649
     23          1           0        2.056495    2.470507   -0.083646
     24          1           0        0.686277    1.491627   -1.917184
 ---------------------------------------------------------------------
 Rotational constants (GHZ):           1.6316464           0.6756643           0.6361095
 Leave Link  202 at Sat May  7 21:54:36 2022, MaxMem=  2684354560 cpu:               0.1 elap:               0.0
 (Enter /apps/software/g16/l301.exe)
 Standard basis: def2SVP (5D, 7F)
 Ernie: Thresh=  0.10000D-02 Tol=  0.10000D-05 Strict=F.
 There are   240 symmetry adapted cartesian basis functions of A   symmetry.
 There are   228 symmetry adapted basis functions of A   symmetry.
   228 basis functions,   384 primitive gaussians,   240 cartesian basis functions
    42 alpha electrons       42 beta electrons
       nuclear repulsion energy       624.5042741874 Hartrees.
 IExCor=  402 DFT=T Ex+Corr=B3LYP ExCW=0 ScaHFX=  0.200000
 ScaDFX=  0.800000  0.720000  1.000000  0.810000 ScalE2=  1.000000  1.000000
 IRadAn=      5 IRanWt=     -1 IRanGd=            0 ICorTp=0 IEmpDi=  4
 NAtoms=   24 NActive=   24 NUniq=   24 SFac= 1.00D+00 NAtFMM=   60 NAOKFM=F Big=F
 Integral buffers will be    131072 words long.
 Raffenetti 1 integral format.
 Two-electron integral symmetry is turned on.
 Leave Link  301 at Sat May  7 21:54:36 2022, MaxMem=  2684354560 cpu:               0.4 elap:               0.1
 (Enter /apps/software/g16/l302.exe)
 NPDir=0 NMtPBC=     1 NCelOv=     1 NCel=       1 NClECP=     1 NCelD=      1
         NCelK=      1 NCelE2=     1 NClLst=     1 CellRange=     0.0.
 One-electron integrals computed using PRISM.
 One-electron integral symmetry used in STVInt
   1 Symmetry operations used in ECPInt.
 ECPInt:  NShTT=    5886 NPrTT=   21102 LenC2=    5798 LenP2D=   15999.
 LDataN:  DoStor=T MaxTD1= 4 Len=   56
 NBasis=   228 RedAO= T EigKep=  2.91D-04  NBF=   228
 NBsUse=   228 1.00D-06 EigRej= -1.00D+00 NBFU=   228
 Precomputing XC quadrature grid using
 IXCGrd= 4 IRadAn=           5 IRanWt=          -1 IRanGd=           0 AccXCQ= 0.00D+00.
 Generated NRdTot=       0 NPtTot=           0 NUsed=           0 NTot=          32
 NSgBfM=   240   240   240   240   240 MxSgAt=    24 MxSgA2=    24.
 Leave Link  302 at Sat May  7 21:54:37 2022, MaxMem=  2684354560 cpu:               1.5 elap:               0.2
 (Enter /apps/software/g16/l303.exe)
 DipDrv:  MaxL=1.
 Leave Link  303 at Sat May  7 21:54:37 2022, MaxMem=  2684354560 cpu:               0.2 elap:               0.0
 (Enter /apps/software/g16/l308.exe)
 Leave Link  308 at Sat May  7 21:54:37 2022, MaxMem=  2684354560 cpu:               0.3 elap:               0.1
 (Enter /apps/software/g16/l401.exe)
 ExpMin= 1.22D-01 ExpMax= 1.24D+03 ExpMxC= 1.86D+02 IAcc=3 IRadAn=         5 AccDes= 0.00D+00
 Harris functional with IExCor=  402 and IRadAn=       5 diagonalized for initial guess.
 HarFok:  IExCor=  402 AccDes= 0.00D+00 IRadAn=         5 IDoV= 1 UseB2=F ITyADJ=14
 ICtDFT=  3500011 ScaDFX=  1.000000  1.000000  1.000000  1.000000
 FoFCou: FMM=F IPFlag=           0 FMFlag=      100000 FMFlg1=           0
         NFxFlg=           0 DoJE=T BraDBF=F KetDBF=T FulRan=T
         wScrn=  0.000000 ICntrl=       500 IOpCl=  0 I1Cent=   200000004 NGrid=           0
         NMat0=    1 NMatS0=      1 NMatT0=    0 NMatD0=    1 NMtDS0=    0 NMtDT0=    0
 Petite list used in FoFCou.
 Harris En= -464.188644987999    
 JPrj=0 DoOrth=F DoCkMO=F.
 Leave Link  401 at Sat May  7 21:54:38 2022, MaxMem=  2684354560 cpu:               6.2 elap:               0.8
 (Enter /apps/software/g16/l502.exe)
 Integral symmetry usage will be decided dynamically.
 Closed shell SCF:
 Using DIIS extrapolation, IDIIS=  1040.
 NGot=  2684354560 LenX=  2684234796 LenY=  2684176755
 Requested convergence on RMS density matrix=1.00D-08 within 128 cycles.
 Requested convergence on MAX density matrix=1.00D-06.
 Requested convergence on             energy=1.00D-06.
 No special actions if energy rises.
 Fock matrices will be formed incrementally for  20 cycles.
 Integral accuracy reduced to 1.0D-05 until final iterations.

 Cycle   1  Pass 0  IDiag  1:
 FoFJK:  IHMeth= 1 ICntrl=       0 DoSepK=F KAlg= 0 I1Cent=           0 FoldK=F
 IRaf= 960000000 NMat=       1 IRICut=       1 DoRegI=T DoRafI=F ISym2E= 0 IDoP0=0 IntGTp=1.
 FoFCou: FMM=F IPFlag=           0 FMFlag=      100000 FMFlg1=           0
         NFxFlg=           0 DoJE=F BraDBF=F KetDBF=F FulRan=T
         wScrn=  0.000000 ICntrl=         0 IOpCl=  0 I1Cent=           0 NGrid=           0
         NMat0=    1 NMatS0=      1 NMatT0=    0 NMatD0=    1 NMtDS0=    0 NMtDT0=    0
 Symmetry not used in FoFCou.
 E= -463.884318871693    
 DIIS: error= 3.97D-02 at cycle   1 NSaved=   1.
 NSaved= 1 IEnMin= 1 EnMin= -463.884318871693     IErMin= 1 ErrMin= 3.97D-02
 ErrMax= 3.97D-02  0.00D+00 EMaxC= 1.00D-01 BMatC= 2.21D-01 BMatP= 2.21D-01
 IDIUse=3 WtCom= 6.03D-01 WtEn= 3.97D-01
 Coeff-Com:  0.100D+01
 Coeff-En:   0.100D+01
 Coeff:      0.100D+01
 Gap=     0.234 Goal=   None    Shift=    0.000
 GapD=    0.234 DampG=1.000 DampE=0.500 DampFc=0.5000 IDamp=-1.
 Damping current iteration by 5.00D-01
 RMSDP=6.68D-03 MaxDP=9.46D-02              OVMax= 1.56D-01

 Cycle   2  Pass 0  IDiag  1:
 RMSU=  2.93D-03    CP:  9.34D-01
 E= -464.013527012966     Delta-E=       -0.129208141273 Rises=F Damp=T
 DIIS: error= 7.68D-03 at cycle   2 NSaved=   2.
 NSaved= 2 IEnMin= 2 EnMin= -464.013527012966     IErMin= 2 ErrMin= 7.68D-03
 ErrMax= 7.68D-03  0.00D+00 EMaxC= 1.00D-01 BMatC= 1.03D-02 BMatP= 2.21D-01
 IDIUse=3 WtCom= 9.23D-01 WtEn= 7.68D-02
 Coeff-Com:  0.443D-01 0.956D+00
 Coeff-En:   0.521D-01 0.948D+00
 Coeff:      0.449D-01 0.955D+00
 Gap=     0.292 Goal=   None    Shift=    0.000
 RMSDP=1.65D-03 MaxDP=1.96D-02 DE=-1.29D-01 OVMax= 9.09D-02

 Cycle   3  Pass 0  IDiag  1:
 RMSU=  1.53D-03    CP:  9.09D-01  1.06D+00
 E= -464.163182963228     Delta-E=       -0.149655950263 Rises=F Damp=F
 DIIS: error= 3.79D-03 at cycle   3 NSaved=   3.
 NSaved= 3 IEnMin= 3 EnMin= -464.163182963228     IErMin= 3 ErrMin= 3.79D-03
 ErrMax= 3.79D-03  0.00D+00 EMaxC= 1.00D-01 BMatC= 2.77D-03 BMatP= 1.03D-02
 IDIUse=3 WtCom= 9.62D-01 WtEn= 3.79D-02
 Coeff-Com: -0.213D-01 0.312D+00 0.710D+00
 Coeff-En:   0.000D+00 0.000D+00 0.100D+01
 Coeff:     -0.205D-01 0.300D+00 0.721D+00
 Gap=     0.236 Goal=   None    Shift=    0.000
 RMSDP=5.71D-04 MaxDP=1.16D-02 DE=-1.50D-01 OVMax= 2.06D-02

 Cycle   4  Pass 0  IDiag  1:
 RMSU=  4.68D-04    CP:  9.03D-01  1.14D+00  8.90D-01
 E= -464.164857604059     Delta-E=       -0.001674640831 Rises=F Damp=F
 DIIS: error= 2.24D-03 at cycle   4 NSaved=   4.
 NSaved= 4 IEnMin= 4 EnMin= -464.164857604059     IErMin= 4 ErrMin= 2.24D-03
 ErrMax= 2.24D-03  0.00D+00 EMaxC= 1.00D-01 BMatC= 9.26D-04 BMatP= 2.77D-03
 IDIUse=3 WtCom= 9.78D-01 WtEn= 2.24D-02
 Coeff-Com: -0.152D-01 0.122D+00 0.409D+00 0.484D+00
 Coeff-En:   0.000D+00 0.000D+00 0.263D+00 0.737D+00
 Coeff:     -0.149D-01 0.120D+00 0.405D+00 0.490D+00
 Gap=     0.235 Goal=   None    Shift=    0.000
 RMSDP=1.99D-04 MaxDP=4.02D-03 DE=-1.67D-03 OVMax= 1.34D-02

 Cycle   5  Pass 0  IDiag  1:
 RMSU=  1.53D-04    CP:  9.03D-01  1.14D+00  9.20D-01  7.48D-01
 E= -464.165838294625     Delta-E=       -0.000980690565 Rises=F Damp=F
 DIIS: error= 7.34D-04 at cycle   5 NSaved=   5.
 NSaved= 5 IEnMin= 5 EnMin= -464.165838294625     IErMin= 5 ErrMin= 7.34D-04
 ErrMax= 7.34D-04  0.00D+00 EMaxC= 1.00D-01 BMatC= 1.05D-04 BMatP= 9.26D-04
 IDIUse=3 WtCom= 9.93D-01 WtEn= 7.34D-03
 Coeff-Com: -0.514D-02 0.991D-02 0.824D-01 0.276D+00 0.637D+00
 Coeff-En:   0.000D+00 0.000D+00 0.000D+00 0.105D+00 0.895D+00
 Coeff:     -0.510D-02 0.984D-02 0.818D-01 0.275D+00 0.639D+00
 Gap=     0.235 Goal=   None    Shift=    0.000
 RMSDP=5.07D-05 MaxDP=1.05D-03 DE=-9.81D-04 OVMax= 3.43D-03

 Cycle   6  Pass 0  IDiag  1:
 RMSU=  1.55D-05    CP:  9.03D-01  1.14D+00  9.21D-01  7.88D-01  7.13D-01
 E= -464.165960844613     Delta-E=       -0.000122549989 Rises=F Damp=F
 DIIS: error= 5.39D-05 at cycle   6 NSaved=   6.
 NSaved= 6 IEnMin= 6 EnMin= -464.165960844613     IErMin= 6 ErrMin= 5.39D-05
 ErrMax= 5.39D-05  0.00D+00 EMaxC= 1.00D-01 BMatC= 8.32D-07 BMatP= 1.05D-04
 IDIUse=1 WtCom= 1.00D+00 WtEn= 0.00D+00
 Coeff-Com: -0.177D-02 0.208D-02 0.259D-01 0.979D-01 0.247D+00 0.629D+00
 Coeff:     -0.177D-02 0.208D-02 0.259D-01 0.979D-01 0.247D+00 0.629D+00
 Gap=     0.235 Goal=   None    Shift=    0.000
 RMSDP=6.59D-06 MaxDP=1.10D-04 DE=-1.23D-04 OVMax= 2.57D-04

 Initial convergence to 1.0D-05 achieved.  Increase integral accuracy.
 Cycle   7  Pass 1  IDiag  1:
 E= -464.165940958118     Delta-E=        0.000019886495 Rises=F Damp=F
 DIIS: error= 5.20D-05 at cycle   1 NSaved=   1.
 NSaved= 1 IEnMin= 1 EnMin= -464.165940958118     IErMin= 1 ErrMin= 5.20D-05
 ErrMax= 5.20D-05  0.00D+00 EMaxC= 1.00D-01 BMatC= 2.55D-07 BMatP= 2.55D-07
 IDIUse=1 WtCom= 1.00D+00 WtEn= 0.00D+00
 Coeff-Com:  0.100D+01
 Coeff:      0.100D+01
 Gap=     0.235 Goal=   None    Shift=    0.000
 RMSDP=6.59D-06 MaxDP=1.10D-04 DE= 1.99D-05 OVMax= 2.27D-04

 Cycle   8  Pass 1  IDiag  1:
 RMSU=  1.91D-05    CP:  1.00D+00
 E= -464.165940904001     Delta-E=        0.000000054117 Rises=F Damp=F
 DIIS: error= 4.25D-05 at cycle   2 NSaved=   2.
 NSaved= 2 IEnMin= 1 EnMin= -464.165940958118     IErMin= 2 ErrMin= 4.25D-05
 ErrMax= 4.25D-05  0.00D+00 EMaxC= 1.00D-01 BMatC= 2.53D-07 BMatP= 2.55D-07
 IDIUse=1 WtCom= 1.00D+00 WtEn= 0.00D+00
 Coeff-Com:  0.499D+00 0.501D+00
 Coeff:      0.499D+00 0.501D+00
 Gap=     0.235 Goal=   None    Shift=    0.000
 RMSDP=2.61D-06 MaxDP=7.05D-05 DE= 5.41D-08 OVMax= 1.55D-04

 Cycle   9  Pass 1  IDiag  1:
 RMSU=  2.59D-06    CP:  1.00D+00  9.83D-01
 E= -464.165941141473     Delta-E=       -0.000000237472 Rises=F Damp=F
 DIIS: error= 9.98D-06 at cycle   3 NSaved=   3.
 NSaved= 3 IEnMin= 3 EnMin= -464.165941141473     IErMin= 3 ErrMin= 9.98D-06
 ErrMax= 9.98D-06  0.00D+00 EMaxC= 1.00D-01 BMatC= 1.47D-08 BMatP= 2.53D-07
 IDIUse=1 WtCom= 1.00D+00 WtEn= 0.00D+00
 Coeff-Com:  0.592D-02 0.194D+00 0.800D+00
 Coeff:      0.592D-02 0.194D+00 0.800D+00
 Gap=     0.235 Goal=   None    Shift=    0.000
 RMSDP=5.70D-07 MaxDP=1.46D-05 DE=-2.37D-07 OVMax= 3.17D-05

 Cycle  10  Pass 1  IDiag  1:
 RMSU=  2.80D-07    CP:  1.00D+00  9.94D-01  8.26D-01
 E= -464.165941155657     Delta-E=       -0.000000014184 Rises=F Damp=F
 DIIS: error= 1.38D-06 at cycle   4 NSaved=   4.
 NSaved= 4 IEnMin= 4 EnMin= -464.165941155657     IErMin= 4 ErrMin= 1.38D-06
 ErrMax= 1.38D-06  0.00D+00 EMaxC= 1.00D-01 BMatC= 4.29D-10 BMatP= 1.47D-08
 IDIUse=1 WtCom= 1.00D+00 WtEn= 0.00D+00
 Coeff-Com: -0.127D-02 0.977D-01 0.420D+00 0.484D+00
 Coeff:     -0.127D-02 0.977D-01 0.420D+00 0.484D+00
 Gap=     0.235 Goal=   None    Shift=    0.000
 RMSDP=1.49D-07 MaxDP=2.90D-06 DE=-1.42D-08 OVMax= 8.29D-06

 Cycle  11  Pass 1  IDiag  1:
 RMSU=  8.07D-08    CP:  1.00D+00  9.95D-01  8.27D-01  5.55D-01
 E= -464.165941156085     Delta-E=       -0.000000000428 Rises=F Damp=F
 DIIS: error= 5.19D-07 at cycle   5 NSaved=   5.
 NSaved= 5 IEnMin= 5 EnMin= -464.165941156085     IErMin= 5 ErrMin= 5.19D-07
 ErrMax= 5.19D-07  0.00D+00 EMaxC= 1.00D-01 BMatC= 4.83D-11 BMatP= 4.29D-10
 IDIUse=1 WtCom= 1.00D+00 WtEn= 0.00D+00
 Coeff-Com: -0.124D-02 0.460D-01 0.200D+00 0.299D+00 0.456D+00
 Coeff:     -0.124D-02 0.460D-01 0.200D+00 0.299D+00 0.456D+00
 Gap=     0.235 Goal=   None    Shift=    0.000
 RMSDP=3.72D-08 MaxDP=8.16D-07 DE=-4.28D-10 OVMax= 2.50D-06

 Cycle  12  Pass 1  IDiag  1:
 RMSU=  2.41D-08    CP:  1.00D+00  9.95D-01  8.26D-01  5.80D-01  6.62D-01
 E= -464.165941156141     Delta-E=       -0.000000000056 Rises=F Damp=F
 DIIS: error= 3.93D-08 at cycle   6 NSaved=   6.
 NSaved= 6 IEnMin= 6 EnMin= -464.165941156141     IErMin= 6 ErrMin= 3.93D-08
 ErrMax= 3.93D-08  0.00D+00 EMaxC= 1.00D-01 BMatC= 4.74D-13 BMatP= 4.83D-11
 IDIUse=1 WtCom= 1.00D+00 WtEn= 0.00D+00
 Coeff-Com: -0.289D-03 0.758D-02 0.332D-01 0.577D-01 0.140D+00 0.762D+00
 Coeff:     -0.289D-03 0.758D-02 0.332D-01 0.577D-01 0.140D+00 0.762D+00
 Gap=     0.235 Goal=   None    Shift=    0.000
 RMSDP=5.12D-09 MaxDP=1.25D-07 DE=-5.64D-11 OVMax= 2.33D-07

 SCF Done:  E(RB3LYP) =  -464.165941156     A.U. after   12 cycles
            NFock= 12  Conv=0.51D-08     -V/T= 2.0120
 KE= 4.586843336262D+02 PE=-2.321932536473D+03 EE= 7.745779875035D+02
 Leave Link  502 at Sat May  7 21:54:51 2022, MaxMem=  2684354560 cpu:             103.5 elap:              13.0
 (Enter /apps/software/g16/l801.exe)
 DoSCS=F DFT=T ScalE2(SS,OS)=  1.000000  1.000000
 ExpMin= 1.22D-01 ExpMax= 1.24D+03 ExpMxC= 1.86D+02 IAcc=3 IRadAn=         5 AccDes= 0.00D+00
 HarFok:  IExCor=  205 AccDes= 0.00D+00 IRadAn=         5 IDoV=-2 UseB2=F ITyADJ=14
 ICtDFT= 12500011 ScaDFX=  1.000000  1.000000  1.000000  1.000000
 Largest valence mixing into a core orbital is  7.14D-05
 Largest core mixing into a valence orbital is  4.02D-05
 Range of M.O.s used for correlation:    13   228
 NBasis=   228 NAE=    42 NBE=    42 NFC=    12 NFV=     0
 NROrb=    216 NOA=    30 NOB=    30 NVA=   186 NVB=   186

 **** Warning!!: The largest alpha MO coefficient is  0.11858056D+02

 Leave Link  801 at Sat May  7 21:54:51 2022, MaxMem=  2684354560 cpu:               0.7 elap:               0.1
 (Enter /apps/software/g16/l914.exe)
 RHF ground state
 Keep R1, R2, and R3 ints in memory in canonical form, NReq=1182492261.
 FoFCou: FMM=F IPFlag=           0 FMFlag=           0 FMFlg1=           0
         NFxFlg=           0 DoJE=F BraDBF=F KetDBF=F FulRan=T
         wScrn=  0.000000 ICntrl=       600 IOpCl=  0 I1Cent=           0 NGrid=           0
         NMat0=    1 NMatS0=  26106 NMatT0=    0 NMatD0=    1 NMtDS0=    0 NMtDT0=    0
 Symmetry not used in FoFCou.
 Two-electron integral symmetry not used.
 MDV=  2684354560 DFT=T DoStab=F Mixed=T DoRPA=T DoScal=F NonHer=T
 Making orbital integer symmetry assigments:
 Orbital symmetries:
       Occupied  (A) (A) (A) (A) (A) (A) (A) (A) (A) (A) (A) (A)
                 (A) (A) (A) (A) (A) (A) (A) (A) (A) (A) (A) (A)
                 (A) (A) (A) (A) (A) (A) (A) (A) (A) (A) (A) (A)
                 (A) (A) (A) (A) (A) (A)
       Virtual   (A) (A) (A) (A) (A) (A) (A) (A) (A) (A) (A) (A)
                 (A) (A) (A) (A) (A) (A) (A) (A) (A) (A) (A) (A)
                 (A) (A) (A) (A) (A) (A) (A) (A) (A) (A) (A) (A)
                 (A) (A) (A) (A) (A) (A) (A) (A) (A) (A) (A) (A)
                 (A) (A) (A) (A) (A) (A) (A) (A) (A) (A) (A) (A)
                 (A) (A) (A) (A) (A) (A) (A) (A) (A) (A) (A) (A)
                 (A) (A) (A) (A) (A) (A) (A) (A) (A) (A) (A) (A)
                 (A) (A) (A) (A) (A) (A) (A) (A) (A) (A) (A) (A)
                 (A) (A) (A) (A) (A) (A) (A) (A) (A) (A) (A) (A)
                 (A) (A) (A) (A) (A) (A) (A) (A) (A) (A) (A) (A)
                 (A) (A) (A) (A) (A) (A) (A) (A) (A) (A) (A) (A)
                 (A) (A) (A) (A) (A) (A) (A) (A) (A) (A) (A) (A)
                 (A) (A) (A) (A) (A) (A) (A) (A) (A) (A) (A) (A)
                 (A) (A) (A) (A) (A) (A) (A) (A) (A) (A) (A) (A)
                 (A) (A) (A) (A) (A) (A) (A) (A) (A) (A) (A) (A)
                 (A) (A) (A) (A) (A) (A)
    72 initial guesses have been made.
 Convergence on wavefunction:    0.001000000000000
 Davidson Disk Diagonalization:  ConvIn= 1.00D-03 SkipCon=T Conv= 1.00D-03.
 Max sub-space:  3240 roots to seek:    72 dimension of matrix:        11160
 Iteration     1 Dimension    72 NMult     0 NNew     72
 CISAX will form    72 AO SS matrices at one time.
 NMat=    72 NSing=     0 JSym2X= 0.
 New state      1 was old state      2
 New state      2 was old state      1
 New state      3 was old state      9
 New state      4 was old state      6
 New state      5 was old state      4
 New state      6 was old state      3
 New state      7 was old state      8
 New state      8 was old state      7
 New state      9 was old state     11
 New state     11 was old state      5
 New state     18 was old state     19
 Excitation Energies [eV] at current iteration:
 Root      1 :     4.193335499693755
 Root      2 :     4.199134631878686
 Root      3 :     4.758451716062257
 Root      4 :     4.763455465968772
 Root      5 :     4.774066216383040
 Root      6 :     4.774211733944733
 Root      7 :     5.125771687095621
 Root      8 :     5.135491549992069
 Root      9 :     5.944263022622789
 Root     10 :     5.953222843332953
 Root     11 :     5.962294718511751
 Root     12 :     5.977651941831629
 Root     13 :     6.042905300100086
 Root     14 :     6.058227317401471
 Root     15 :     6.069479928776238
 Root     16 :     6.092923619222407
 Root     17 :     7.064195753055758
 Root     18 :     7.264095612390888
 Root     19 :     7.268514360388109
 Root     20 :     7.401721133765346
 Root     21 :     7.539578361814062
 Root     22 :     7.540752708768273
 Root     23 :     7.601894999671416
 Root     24 :     7.601962720390114
 Root     25 :     7.605194641823205
 Root     26 :     7.605481095841632
 Root     27 :     7.655184903449374
 Root     28 :     7.655319482775854
 Root     29 :     7.770562771827389
 Root     30 :     7.787186771936009
 Root     31 :     7.810270549860711
 Root     32 :     7.816517367491166
 Root     33 :     7.889752389075105
 Root     34 :     7.961627092336177
 Root     35 :     7.976700885931095
 Root     36 :     8.055637880426898
 Root     37 :     8.225546899770285
 Root     38 :     8.275360803803332
 Root     39 :     8.350370391155703
 Root     40 :     8.354989950040833
 Root     41 :     8.396977616717004
 Root     42 :     8.406173364641454
 Root     43 :     8.489949638154457
 Root     44 :     8.504231466228772
 Root     45 :     8.504693160891756
 Root     46 :     8.511265262838076
 Root     47 :     8.512070045818222
 Root     48 :     8.512789261959989
 Root     49 :     8.513441129818117
 Root     50 :     8.521949106163468
 Root     51 :     8.523052048954268
 Root     52 :     8.659373367494194
 Root     53 :     8.998252975526217
 Root     54 :     9.008084560338677
 Root     55 :     9.059754825967644
 Root     56 :     9.064709470025463
 Root     57 :     9.109725188286777
 Root     58 :     9.134581457992567
 Root     59 :     9.139952904071079
 Root     60 :     9.156164541398150
 Root     61 :     9.186687312873504
 Root     62 :     9.191728531351076
 Root     63 :     9.331052280361268
 Root     64 :     9.347379278781620
 Root     65 :     9.387004373714918
 Root     66 :     9.402443214595749
 Root     67 :     9.549222122983270
 Root     68 :     9.580324940880825
 Root     69 :     9.634434665981505
 Root     70 :     9.652884577154161
 Root     71 :     9.732513194907952
 Root     72 :     9.766362980636687
 Iteration     2 Dimension   108 NMult    72 NNew     36
 CISAX will form    36 AO SS matrices at one time.
 NMat=    36 NSing=     0 JSym2X= 0.
 Root      1 not converged, maximum delta is    0.118681984383820
 Root      2 not converged, maximum delta is    0.108266412638023
 Root      3 not converged, maximum delta is    0.028522180016396
 Root      4 not converged, maximum delta is    0.009428876537150
 Root      5 not converged, maximum delta is    0.012002405146872
 Root      6 not converged, maximum delta is    0.020341827832202
 Root      7 not converged, maximum delta is    0.008832197840018
 Root      8 not converged, maximum delta is    0.009225815832741
 Root      9 not converged, maximum delta is    0.060689794019906
 Root     10 not converged, maximum delta is    0.060687461427221
 Root     11 not converged, maximum delta is    0.015856972711784
 Root     12 not converged, maximum delta is    0.010109608408410
 Root     13 not converged, maximum delta is    0.013882736383923
 Root     14 not converged, maximum delta is    0.013380589301602
 Root     15 not converged, maximum delta is    0.017152409388116
 Root     16 not converged, maximum delta is    0.010145777331471
 Root     17 not converged, maximum delta is    0.038849550987134
 Root     18 not converged, maximum delta is    0.033400760111559
 Excitation Energies [eV] at current iteration:
 Root      1 :     3.755374245778517   Change is   -0.437961253915238
 Root      2 :     3.763684057265097   Change is   -0.435450574613589
 Root      3 :     4.699896786774937   Change is   -0.058554929287321
 Root      4 :     4.704846860508151   Change is   -0.058608605460621
 Root      5 :     4.715445078108523   Change is   -0.058621138274517
 Root      6 :     4.716456353235007   Change is   -0.057755380709727
 Root      7 :     5.101314802621070   Change is   -0.024456884474551
 Root      8 :     5.110559956673106   Change is   -0.024931593318963
 Root      9 :     5.920423395741115   Change is   -0.023839626881674
 Root     10 :     5.942418952431558   Change is   -0.010803890901396
 Root     11 :     5.956354150343074   Change is   -0.005940568168677
 Root     12 :     5.973709413087476   Change is   -0.003942528744154
 Root     13 :     6.036766466028259   Change is   -0.006138834071828
 Root     14 :     6.050839401856475   Change is   -0.007387915544996
 Root     15 :     6.061877159973667   Change is   -0.007602768802571
 Root     16 :     6.085855244975159   Change is   -0.007068374247248
 Root     17 :     7.025881670460823   Change is   -0.038314082594936
 Root     18 :     7.222835961181387   Change is   -0.041259651209501
 Iteration     3 Dimension   144 NMult   108 NNew     36
 CISAX will form    36 AO SS matrices at one time.
 NMat=    36 NSing=     0 JSym2X= 0.
 Root      1 not converged, maximum delta is    0.003261912471767
 Root      2 not converged, maximum delta is    0.003264072737158
 Root      3 not converged, maximum delta is    0.001335940434285
 Root      4 not converged, maximum delta is    0.001212204735968
 Root      5 not converged, maximum delta is    0.001211429492828
 Root      6 not converged, maximum delta is    0.001327531483135
 Root      7 has converged.
 Root      8 has converged.
 Root      9 not converged, maximum delta is    0.003422017331655
 Root     10 not converged, maximum delta is    0.003797912379944
 Root     11 not converged, maximum delta is    0.003577033965650
 Root     12 not converged, maximum delta is    0.001080370963868
 Root     13 has converged.
 Root     14 has converged.
 Root     15 has converged.
 Root     16 has converged.
 Root     17 not converged, maximum delta is    0.002066325888494
 Root     18 not converged, maximum delta is    0.024192283710663
 Excitation Energies [eV] at current iteration:
 Root      1 :     3.749049147118346   Change is   -0.006325098660171
 Root      2 :     3.757234713613050   Change is   -0.006449343652047
 Root      3 :     4.698704282260927   Change is   -0.001192504514010
 Root      4 :     4.703667443162214   Change is   -0.001179417345936
 Root      5 :     4.714291621800774   Change is   -0.001153456307750
 Root      6 :     4.715286005865297   Change is   -0.001170347369709
 Root      7 :     5.101080226849636   Change is   -0.000234575771433
 Root      8 :     5.110323858727416   Change is   -0.000236097945691
 Root      9 :     5.918716375544616   Change is   -0.001707020196500
 Root     10 :     5.941531558846585   Change is   -0.000887393584972
 Root     11 :     5.955890596787953   Change is   -0.000463553555121
 Root     12 :     5.973531661307914   Change is   -0.000177751779562
 Root     13 :     6.036632359169802   Change is   -0.000134106858457
 Root     14 :     6.050705396141362   Change is   -0.000134005715114
 Root     15 :     6.061735527825588   Change is   -0.000141632148079
 Root     16 :     6.085750522350558   Change is   -0.000104722624600
 Root     17 :     7.024536246495259   Change is   -0.001345423965564
 Root     18 :     7.220642644138596   Change is   -0.002193317042792
 Iteration     4 Dimension   168 NMult   144 NNew     24
 CISAX will form    24 AO SS matrices at one time.
 NMat=    24 NSing=     0 JSym2X= 0.
 Root      1 has converged.
 Root      2 has converged.
 Root      3 has converged.
 Root      4 has converged.
 Root      5 has converged.
 Root      6 has converged.
 Root      7 has converged.
 Root      8 has converged.
 Root      9 has converged.
 Root     10 has converged.
 Root     11 has converged.
 Root     12 has converged.
 Root     13 has converged.
 Root     14 has converged.
 Root     15 has converged.
 Root     16 has converged.
 Root     17 has converged.
 Root     18 not converged, maximum delta is    0.002989196825088
 Excitation Energies [eV] at current iteration:
 Root      1 :     3.748983301473721   Change is   -0.000065845644625
 Root      2 :     3.757164615937963   Change is   -0.000070097675087
 Root      3 :     4.698657215575417   Change is   -0.000047066685510
 Root      4 :     4.703618847611983   Change is   -0.000048595550231
 Root      5 :     4.714246599116510   Change is   -0.000045022684263
 Root      6 :     4.715238159987263   Change is   -0.000047845878034
 Root      7 :     5.101079109765057   Change is   -0.000001117084579
 Root      8 :     5.110323199287090   Change is   -0.000000659440326
 Root      9 :     5.918665165152330   Change is   -0.000051210392286
 Root     10 :     5.941505048098810   Change is   -0.000026510747776
 Root     11 :     5.955874572015485   Change is   -0.000016024772468
 Root     12 :     5.973524829216552   Change is   -0.000006832091362
 Root     13 :     6.036629859286433   Change is   -0.000002499883369
 Root     14 :     6.050702398856151   Change is   -0.000002997285211
 Root     15 :     6.061732962083463   Change is   -0.000002565742126
 Root     16 :     6.085746945758260   Change is   -0.000003576592299
 Root     17 :     7.024432190175605   Change is   -0.000104056319654
 Root     18 :     7.220466200546910   Change is   -0.000176443591686
 Iteration     5 Dimension   170 NMult   168 NNew      2
 CISAX will form     2 AO SS matrices at one time.
 NMat=     2 NSing=     0 JSym2X= 0.
 Root      1 has converged.
 Root      2 has converged.
 Root      3 has converged.
 Root      4 has converged.
 Root      5 has converged.
 Root      6 has converged.
 Root      7 has converged.
 Root      8 has converged.
 Root      9 has converged.
 Root     10 has converged.
 Root     11 has converged.
 Root     12 has converged.
 Root     13 has converged.
 Root     14 has converged.
 Root     15 has converged.
 Root     16 has converged.
 Root     17 has converged.
 Root     18 has converged.
 Excitation Energies [eV] at current iteration:
 Root      1 :     3.748983292532491   Change is   -0.000000008941231
 Root      2 :     3.757164615899695   Change is   -0.000000000038268
 Root      3 :     4.698657215560353   Change is   -0.000000000015065
 Root      4 :     4.703618843945412   Change is   -0.000000003666571
 Root      5 :     4.714246596181224   Change is   -0.000000002935287
 Root      6 :     4.715238159960886   Change is   -0.000000000026378
 Root      7 :     5.101079109745799   Change is   -0.000000000019258
 Root      8 :     5.110323024248578   Change is   -0.000000175038512
 Root      9 :     5.918665132926744   Change is   -0.000000032225586
 Root     10 :     5.941504907245111   Change is   -0.000000140853699
 Root     11 :     5.955874571732501   Change is   -0.000000000282984
 Root     12 :     5.973524829196307   Change is   -0.000000000020244
 Root     13 :     6.036629823833115   Change is   -0.000000035453317
 Root     14 :     6.050702398788002   Change is   -0.000000000068149
 Root     15 :     6.061732909975746   Change is   -0.000000052107717
 Root     16 :     6.085746945516031   Change is   -0.000000000242229
 Root     17 :     7.024432190110336   Change is   -0.000000000065269
 Root     18 :     7.220445233102842   Change is   -0.000020967444068
 Convergence achieved on expansion vectors.
 ***********************************************************************
 Excited states from <AA,BB:AA,BB> singles matrix:
 ***********************************************************************
 
 1PDM for each excited state written to RWF  633
 Ground to excited state transition densities written to RWF  633
 Ground to excited state transition electric dipole moments (Au):
       state          X           Y           Z        Dip. S.      Osc.
         1        -0.0000     -0.0000     -0.0000      0.0000      0.0000
         2        -0.0000     -0.0000     -0.0000      0.0000      0.0000
         3        -0.0000     -0.0000     -0.0000      0.0000      0.0000
         4        -0.0000     -0.0000     -0.0000      0.0000      0.0000
         5        -0.0000     -0.0000     -0.0000      0.0000      0.0000
         6        -0.0000     -0.0000     -0.0000      0.0000      0.0000
         7        -0.0000     -0.0000     -0.0000      0.0000      0.0000
         8        -0.0000     -0.0000     -0.0000      0.0000      0.0000
         9        -0.0000     -0.0000     -0.0000      0.0000      0.0000
        10        -0.0000     -0.0000     -0.0000      0.0000      0.0000
        11        -0.0000     -0.0000     -0.0000      0.0000      0.0000
        12        -0.0000     -0.0000     -0.0000      0.0000      0.0000
        13        -0.0000     -0.0000     -0.0000      0.0000      0.0000
        14        -0.0000     -0.0000     -0.0000      0.0000      0.0000
        15        -0.0000     -0.0000     -0.0000      0.0000      0.0000
        16        -0.0000     -0.0000     -0.0000      0.0000      0.0000
        17        -0.0000     -0.0000     -0.0000      0.0000      0.0000
        18        -0.0000     -0.0000     -0.0000      0.0000      0.0000
 Ground to excited state transition velocity dipole moments (Au):
       state          X           Y           Z        Dip. S.      Osc.
         1         0.0000      0.0000      0.0000      0.0000      0.0000
         2         0.0000      0.0000      0.0000      0.0000      0.0000
         3         0.0000      0.0000      0.0000      0.0000      0.0000
         4         0.0000      0.0000      0.0000      0.0000      0.0000
         5         0.0000      0.0000      0.0000      0.0000      0.0000
         6         0.0000      0.0000      0.0000      0.0000      0.0000
         7         0.0000      0.0000      0.0000      0.0000      0.0000
         8         0.0000      0.0000      0.0000      0.0000      0.0000
         9         0.0000      0.0000      0.0000      0.0000      0.0000
        10         0.0000      0.0000      0.0000      0.0000      0.0000
        11         0.0000      0.0000      0.0000      0.0000      0.0000
        12         0.0000      0.0000      0.0000      0.0000      0.0000
        13         0.0000      0.0000      0.0000      0.0000      0.0000
        14         0.0000      0.0000      0.0000      0.0000      0.0000
        15         0.0000      0.0000      0.0000      0.0000      0.0000
        16         0.0000      0.0000      0.0000      0.0000      0.0000
        17         0.0000      0.0000      0.0000      0.0000      0.0000
        18         0.0000      0.0000      0.0000      0.0000      0.0000
 Ground to excited state transition magnetic dipole moments (Au):
       state          X           Y           Z
         1         0.0000      0.0000      0.0000
         2         0.0000      0.0000      0.0000
         3         0.0000      0.0000      0.0000
         4         0.0000      0.0000      0.0000
         5         0.0000      0.0000      0.0000
         6         0.0000      0.0000      0.0000
         7         0.0000      0.0000      0.0000
         8         0.0000      0.0000      0.0000
         9         0.0000      0.0000      0.0000
        10         0.0000      0.0000      0.0000
        11         0.0000      0.0000      0.0000
        12         0.0000      0.0000      0.0000
        13         0.0000      0.0000      0.0000
        14         0.0000      0.0000      0.0000
        15         0.0000      0.0000      0.0000
        16         0.0000      0.0000      0.0000
        17         0.0000      0.0000      0.0000
        18         0.0000      0.0000      0.0000
 Ground to excited state transition velocity quadrupole moments (Au):
       state          XX          YY          ZZ          XY          XZ          YZ
         1         0.0000      0.0000      0.0000      0.0000      0.0000      0.0000
         2         0.0000      0.0000      0.0000      0.0000      0.0000      0.0000
         3         0.0000      0.0000      0.0000      0.0000      0.0000      0.0000
         4         0.0000      0.0000      0.0000      0.0000      0.0000      0.0000
         5         0.0000      0.0000      0.0000      0.0000      0.0000      0.0000
         6         0.0000      0.0000      0.0000      0.0000      0.0000      0.0000
         7         0.0000      0.0000      0.0000      0.0000      0.0000      0.0000
         8         0.0000      0.0000      0.0000      0.0000      0.0000      0.0000
         9         0.0000      0.0000      0.0000      0.0000      0.0000      0.0000
        10         0.0000      0.0000      0.0000      0.0000      0.0000      0.0000
        11         0.0000      0.0000      0.0000      0.0000      0.0000      0.0000
        12         0.0000      0.0000      0.0000      0.0000      0.0000      0.0000
        13         0.0000      0.0000      0.0000      0.0000      0.0000      0.0000
        14         0.0000      0.0000      0.0000      0.0000      0.0000      0.0000
        15         0.0000      0.0000      0.0000      0.0000      0.0000      0.0000
        16         0.0000      0.0000      0.0000      0.0000      0.0000      0.0000
        17         0.0000      0.0000      0.0000      0.0000      0.0000      0.0000
        18         0.0000      0.0000      0.0000      0.0000      0.0000      0.0000
 <0|del|b> * <b|rxdel|0> + <0|del|b> * <b|delr+rdel|0>
 Rotatory Strengths (R) in cgs (10**-40 erg-esu-cm/Gauss)
       state          XX          YY          ZZ    R(velocity)    E-M Angle
         1         0.0000      0.0000      0.0000      0.0000       90.00
         2         0.0000      0.0000      0.0000      0.0000       90.00
         3         0.0000      0.0000      0.0000      0.0000       90.00
         4         0.0000      0.0000      0.0000      0.0000       90.00
         5         0.0000      0.0000      0.0000      0.0000       90.00
         6         0.0000      0.0000      0.0000      0.0000       90.00
         7         0.0000      0.0000      0.0000      0.0000       90.00
         8         0.0000      0.0000      0.0000      0.0000       90.00
         9         0.0000      0.0000      0.0000      0.0000       90.00
        10         0.0000      0.0000      0.0000      0.0000       90.00
        11         0.0000      0.0000      0.0000      0.0000       90.00
        12         0.0000      0.0000      0.0000      0.0000       90.00
        13         0.0000      0.0000      0.0000      0.0000       90.00
        14         0.0000      0.0000      0.0000      0.0000       90.00
        15         0.0000      0.0000      0.0000      0.0000       90.00
        16         0.0000      0.0000      0.0000      0.0000       90.00
        17         0.0000      0.0000      0.0000      0.0000       90.00
        18         0.0000      0.0000      0.0000      0.0000       90.00
 1/2[<0|r|b>*<b|rxdel|0> + (<0|rxdel|b>*<b|r|0>)*]
 Rotatory Strengths (R) in cgs (10**-40 erg-esu-cm/Gauss)
       state          XX          YY          ZZ     R(length)
         1         0.0000      0.0000      0.0000      0.0000
         2         0.0000      0.0000      0.0000      0.0000
         3         0.0000      0.0000      0.0000      0.0000
         4         0.0000      0.0000      0.0000      0.0000
         5         0.0000      0.0000      0.0000      0.0000
         6         0.0000      0.0000      0.0000      0.0000
         7         0.0000      0.0000      0.0000      0.0000
         8         0.0000      0.0000      0.0000      0.0000
         9         0.0000      0.0000      0.0000      0.0000
        10         0.0000      0.0000      0.0000      0.0000
        11         0.0000      0.0000      0.0000      0.0000
        12         0.0000      0.0000      0.0000      0.0000
        13         0.0000      0.0000      0.0000      0.0000
        14         0.0000      0.0000      0.0000      0.0000
        15         0.0000      0.0000      0.0000      0.0000
        16         0.0000      0.0000      0.0000      0.0000
        17         0.0000      0.0000      0.0000      0.0000
        18         0.0000      0.0000      0.0000      0.0000
  1/2[<0|del|b>*<b|r|0> + (<0|r|b>*<b|del|0>)*] (Au)
       state          X           Y           Z        Dip. S.   Osc.(frdel)
         1        -0.0000     -0.0000     -0.0000      0.0000      0.0000
         2        -0.0000     -0.0000     -0.0000      0.0000      0.0000
         3        -0.0000     -0.0000     -0.0000      0.0000      0.0000
         4        -0.0000     -0.0000     -0.0000      0.0000      0.0000
         5        -0.0000     -0.0000     -0.0000      0.0000      0.0000
         6        -0.0000     -0.0000     -0.0000      0.0000      0.0000
         7        -0.0000     -0.0000     -0.0000      0.0000      0.0000
         8        -0.0000     -0.0000     -0.0000      0.0000      0.0000
         9        -0.0000     -0.0000     -0.0000      0.0000      0.0000
        10        -0.0000     -0.0000     -0.0000      0.0000      0.0000
        11        -0.0000     -0.0000     -0.0000      0.0000      0.0000
        12        -0.0000     -0.0000     -0.0000      0.0000      0.0000
        13        -0.0000     -0.0000     -0.0000      0.0000      0.0000
        14        -0.0000     -0.0000     -0.0000      0.0000      0.0000
        15        -0.0000     -0.0000     -0.0000      0.0000      0.0000
        16        -0.0000     -0.0000     -0.0000      0.0000      0.0000
        17        -0.0000     -0.0000     -0.0000      0.0000      0.0000
        18        -0.0000     -0.0000     -0.0000      0.0000      0.0000

 Excitation energies and oscillator strengths:
 
 Excited State   1:      Triplet-A      3.7490 eV  330.71 nm  f=0.0000  <S**2>=2.000
      39 -> 43         0.22714
      39 -> 45        -0.21719
      40 -> 43         0.19927
      40 -> 44        -0.11547
      40 -> 45         0.19491
      40 -> 46         0.18114
      41 -> 43         0.15101
      41 -> 44         0.14478
      41 -> 45         0.15490
      41 -> 46        -0.23316
      42 -> 44         0.34359
      42 -> 46         0.20606
 This state for optimization and/or second-order correction.
 Total Energy, E(TD-HF/TD-DFT) =  -464.028168555    
 Copying the excited state density for this state as the 1-particle RhoCI density.
 
 Excited State   2:      Triplet-A      3.7572 eV  329.99 nm  f=0.0000  <S**2>=2.000
      39 -> 44         0.26942
      39 -> 46         0.16464
      40 -> 43         0.15294
      40 -> 44        -0.14411
      40 -> 45         0.14731
      40 -> 46         0.23037
      41 -> 43        -0.19602
      41 -> 44        -0.10861
      41 -> 45        -0.19802
      41 -> 46         0.17819
      42 -> 43         0.29675
      42 -> 45        -0.27692
 
 Excited State   3:      Triplet-A      4.6987 eV  263.87 nm  f=0.0000  <S**2>=2.000
      39 -> 46         0.24616
      40 -> 44         0.25744
      40 -> 45        -0.20488
      40 -> 46        -0.11315
      41 -> 44         0.19103
      41 -> 45         0.27388
      42 -> 43         0.43090
 
 Excited State   4:      Triplet-A      4.7036 eV  263.59 nm  f=0.0000  <S**2>=2.000
      39 -> 45        -0.27094
      40 -> 43        -0.28553
      40 -> 46        -0.20898
      41 -> 43        -0.21935
      41 -> 46         0.27017
      42 -> 44         0.41505
 
 Excited State   5:      Triplet-A      4.7142 eV  263.00 nm  f=0.0000  <S**2>=2.000
      39 -> 43         0.28755
      40 -> 44         0.22141
      40 -> 45        -0.27150
      41 -> 44        -0.27637
      41 -> 45        -0.21775
      42 -> 46         0.40555
 
 Excited State   6:      Triplet-A      4.7152 eV  262.94 nm  f=0.0000  <S**2>=2.000
      39 -> 44        -0.25891
      39 -> 46         0.10657
      40 -> 43         0.21650
      40 -> 44         0.10088
      40 -> 46         0.25181
      41 -> 43        -0.28188
      41 -> 46         0.19528
      42 -> 45         0.41466
 
 Excited State   7:      Triplet-A      5.1011 eV  243.05 nm  f=0.0000  <S**2>=2.000
      39 -> 44        -0.13162
      39 -> 46         0.18128
      40 -> 43        -0.16076
      40 -> 44        -0.25736
      40 -> 45         0.15369
      40 -> 46        -0.13631
      41 -> 43         0.21043
      41 -> 44        -0.19088
      41 -> 45        -0.20621
      41 -> 46        -0.10639
      42 -> 43         0.29172
      42 -> 45         0.31058
 
 Excited State   8:      Triplet-A      5.1103 eV  242.62 nm  f=0.0000  <S**2>=2.000
      39 -> 43         0.18221
      39 -> 45         0.16893
      40 -> 43        -0.21304
      40 -> 44        -0.18840
      40 -> 45         0.19358
      40 -> 46        -0.10446
      41 -> 43        -0.16692
      41 -> 44         0.23500
      41 -> 45         0.15509
      41 -> 46         0.13755
      42 -> 44        -0.22791
      42 -> 46         0.36278
 
 Excited State   9:      Triplet-A      5.9187 eV  209.48 nm  f=0.0000  <S**2>=2.000
      40 -> 43         0.27607
      40 -> 44         0.13082
      40 -> 45         0.26206
      40 -> 46        -0.27314
      41 -> 43         0.21581
      41 -> 44        -0.18317
      41 -> 45         0.20294
      41 -> 46         0.35662
 
 Excited State  10:      Triplet-A      5.9415 eV  208.67 nm  f=0.0000  <S**2>=2.000
      40 -> 43         0.25148
      40 -> 44        -0.25637
      40 -> 45        -0.29237
      40 -> 46        -0.14136
      41 -> 43         0.20481
      41 -> 44         0.35860
      41 -> 45        -0.22473
      41 -> 46         0.19560
 
 Excited State  11:      Triplet-A      5.9559 eV  208.17 nm  f=0.0000  <S**2>=2.000
      40 -> 43        -0.27787
      40 -> 44         0.24557
      40 -> 45         0.13684
      40 -> 46         0.32057
      41 -> 43         0.34753
      41 -> 44         0.18241
      41 -> 45        -0.15350
      41 -> 46         0.24069
 
 Excited State  12:      Triplet-A      5.9735 eV  207.56 nm  f=0.0000  <S**2>=2.000
      40 -> 43        -0.11810
      40 -> 44        -0.30392
      40 -> 45        -0.28973
      40 -> 46         0.25190
      41 -> 43         0.15278
      41 -> 44        -0.23898
      41 -> 45         0.35710
      41 -> 46         0.19067
 
 Excited State  13:      Triplet-A      6.0366 eV  205.39 nm  f=0.0000  <S**2>=2.000
      39 -> 43         0.55037
      39 -> 45        -0.14134
      42 -> 44        -0.21051
      42 -> 46        -0.35908
 
 Excited State  14:      Triplet-A      6.0507 eV  204.91 nm  f=0.0000  <S**2>=2.000
      39 -> 44         0.55957
      39 -> 46         0.13372
      42 -> 43        -0.19377
      42 -> 45         0.35848
 
 Excited State  15:      Triplet-A      6.0617 eV  204.54 nm  f=0.0000  <S**2>=2.000
      39 -> 43         0.16498
      39 -> 45         0.57230
      42 -> 44         0.33450
      42 -> 46        -0.17329
 
 Excited State  16:      Triplet-A      6.0857 eV  203.73 nm  f=0.0000  <S**2>=2.000
      39 -> 44        -0.14842
      39 -> 46         0.59089
      42 -> 43        -0.31666
      42 -> 45        -0.15788
 
 Excited State  17:      Triplet-A      7.0244 eV  176.50 nm  f=0.0000  <S**2>=2.000
      39 -> 48        -0.16317
      42 -> 47         0.68442
 
 Excited State  18:      Triplet-A      7.2204 eV  171.71 nm  f=0.0000  <S**2>=2.000
      40 -> 47         0.50488
      40 -> 48        -0.16149
      41 -> 47         0.40241
      41 -> 48         0.21620
 SavETr:  write IOETrn=   770 NScale= 10 NData=  16 NLR=1 NState=   18 LETran=     334.
 Leave Link  914 at Sat May  7 21:56:59 2022, MaxMem=  2684354560 cpu:            1022.8 elap:             128.2
 (Enter /apps/software/g16/l601.exe)
 Copying SCF densities to generalized density rwf, IOpCl= 0 IROHF=0.

 **********************************************************************

            Population analysis using the SCF density.

 **********************************************************************

 Orbital symmetries:
       Occupied  (A) (A) (A) (A) (A) (A) (A) (A) (A) (A) (A) (A)
                 (A) (A) (A) (A) (A) (A) (A) (A) (A) (A) (A) (A)
                 (A) (A) (A) (A) (A) (A) (A) (A) (A) (A) (A) (A)
                 (A) (A) (A) (A) (A) (A)
       Virtual   (A) (A) (A) (A) (A) (A) (A) (A) (A) (A) (A) (A)
                 (A) (A) (A) (A) (A) (A) (A) (A) (A) (A) (A) (A)
                 (A) (A) (A) (A) (A) (A) (A) (A) (A) (A) (A) (A)
                 (A) (A) (A) (A) (A) (A) (A) (A) (A) (A) (A) (A)
                 (A) (A) (A) (A) (A) (A) (A) (A) (A) (A) (A) (A)
                 (A) (A) (A) (A) (A) (A) (A) (A) (A) (A) (A) (A)
                 (A) (A) (A) (A) (A) (A) (A) (A) (A) (A) (A) (A)
                 (A) (A) (A) (A) (A) (A) (A) (A) (A) (A) (A) (A)
                 (A) (A) (A) (A) (A) (A) (A) (A) (A) (A) (A) (A)
                 (A) (A) (A) (A) (A) (A) (A) (A) (A) (A) (A) (A)
                 (A) (A) (A) (A) (A) (A) (A) (A) (A) (A) (A) (A)
                 (A) (A) (A) (A) (A) (A) (A) (A) (A) (A) (A) (A)
                 (A) (A) (A) (A) (A) (A) (A) (A) (A) (A) (A) (A)
                 (A) (A) (A) (A) (A) (A) (A) (A) (A) (A) (A) (A)
                 (A) (A) (A) (A) (A) (A) (A) (A) (A) (A) (A) (A)
                 (A) (A) (A) (A) (A) (A)
 The electronic state is 1-A.
 Alpha  occ. eigenvalues --  -10.18788 -10.18786 -10.18752 -10.18751 -10.18712
 Alpha  occ. eigenvalues --  -10.18711 -10.18698 -10.18698 -10.18605 -10.18599
 Alpha  occ. eigenvalues --  -10.18549 -10.18548  -0.84292  -0.83963  -0.73491
 Alpha  occ. eigenvalues --   -0.73340  -0.73326  -0.73212  -0.59346  -0.59325
 Alpha  occ. eigenvalues --   -0.59322  -0.59296  -0.51874  -0.51757  -0.45373
 Alpha  occ. eigenvalues --   -0.45351  -0.44450  -0.44413  -0.41923  -0.41848
 Alpha  occ. eigenvalues --   -0.41835  -0.41787  -0.37592  -0.35242  -0.34274
 Alpha  occ. eigenvalues --   -0.34270  -0.34256  -0.34246  -0.26150  -0.25088
 Alpha  occ. eigenvalues --   -0.25087  -0.24220
 Alpha virt. eigenvalues --   -0.00680  -0.00525  -0.00465  -0.00345   0.05124
 Alpha virt. eigenvalues --    0.07069   0.08754   0.09389   0.11019   0.11411
 Alpha virt. eigenvalues --    0.13266   0.13375   0.14404   0.14717   0.15014
 Alpha virt. eigenvalues --    0.15371   0.16191   0.16780   0.28575   0.28834
 Alpha virt. eigenvalues --    0.29127   0.29311   0.29943   0.30079   0.30337
 Alpha virt. eigenvalues --    0.30515   0.30814   0.36366   0.37085   0.40108
 Alpha virt. eigenvalues --    0.40923   0.41648   0.42536   0.43665   0.44174
 Alpha virt. eigenvalues --    0.45499   0.46120   0.46152   0.48015   0.49890
 Alpha virt. eigenvalues --    0.50498   0.50719   0.51285   0.53007   0.53331
 Alpha virt. eigenvalues --    0.54105   0.54478   0.56990   0.57405   0.61583
 Alpha virt. eigenvalues --    0.62853   0.63679   0.64232   0.64721   0.65772
 Alpha virt. eigenvalues --    0.66077   0.66796   0.67303   0.67363   0.67557
 Alpha virt. eigenvalues --    0.70096   0.70105   0.70892   0.71215   0.73236
 Alpha virt. eigenvalues --    0.73834   0.74129   0.75139   0.76590   0.76756
 Alpha virt. eigenvalues --    0.76907   0.78073   0.79118   0.79175   0.81234
 Alpha virt. eigenvalues --    0.83511   0.87820   0.89050   0.89861   0.90491
 Alpha virt. eigenvalues --    0.99991   1.04372   1.05569   1.06905   1.16418
 Alpha virt. eigenvalues --    1.16787   1.22055   1.24465   1.24870   1.25398
 Alpha virt. eigenvalues --    1.25896   1.26236   1.26655   1.28024   1.28846
 Alpha virt. eigenvalues --    1.28950   1.30892   1.30921   1.32673   1.36796
 Alpha virt. eigenvalues --    1.52665   1.53415   1.64051   1.64716   1.65845
 Alpha virt. eigenvalues --    1.66216   1.67726   1.68684   1.73700   1.74316
 Alpha virt. eigenvalues --    1.74687   1.75165   1.75356   1.75977   1.76652
 Alpha virt. eigenvalues --    1.76729   1.76909   1.77580   1.78011   1.79364
 Alpha virt. eigenvalues --    1.79483   1.79764   1.82465   1.83190   1.84429
 Alpha virt. eigenvalues --    1.85341   1.93370   1.95244   1.98173   1.98189
 Alpha virt. eigenvalues --    1.98345   1.98675   1.98844   1.99137   1.99946
 Alpha virt. eigenvalues --    2.00115   2.00904   2.02081   2.10734   2.13335
 Alpha virt. eigenvalues --    2.13911   2.14392   2.15289   2.17757   2.18586
 Alpha virt. eigenvalues --    2.22753   2.30562   2.30732   2.30941   2.31181
 Alpha virt. eigenvalues --    2.31287   2.31336   2.31776   2.33620   2.35312
 Alpha virt. eigenvalues --    2.35358   2.35598   2.35682   2.56202   2.56294
 Alpha virt. eigenvalues --    2.59891   2.61540   2.61781   2.63084   2.64954
 Alpha virt. eigenvalues --    2.64959   2.72363   2.72367   2.72675   2.73112
 Alpha virt. eigenvalues --    2.73483   2.73754   2.86596   2.86665   2.86699
 Alpha virt. eigenvalues --    2.86844   2.89982   2.91912   3.12431   3.12589
 Alpha virt. eigenvalues --    3.12694   3.12842   3.25023   3.25174   3.66229
 Alpha virt. eigenvalues --    3.66350
          Condensed to atoms (all electrons):
               1          2          3          4          5          6
     1  C    5.110691   0.249395   0.112072  -0.162229   0.110443   0.249082
     2  C    0.249395   5.114550   0.244368   0.114099  -0.162575   0.110255
     3  C    0.112072   0.244368   5.089515   0.254141   0.114256  -0.162912
     4  C   -0.162229   0.114099   0.254141   5.089141   0.246745   0.112609
     5  C    0.110443  -0.162575   0.114256   0.246745   5.105523   0.248847
     6  C    0.249082   0.110255  -0.162912   0.112609   0.248847   5.113456
     7  H    0.438763  -0.075588   0.015525  -0.001844   0.015523  -0.075331
     8  H   -0.076311   0.439529  -0.075955   0.015803  -0.001862   0.015570
     9  H    0.015296  -0.074858   0.436347  -0.072730   0.015411  -0.001785
    10  H   -0.001794   0.015403  -0.072888   0.436940  -0.074475   0.015289
    11  H    0.015586  -0.001913   0.015880  -0.075667   0.439623  -0.076617
    12  H   -0.075196   0.015450  -0.001788   0.015454  -0.075673   0.438716
    13  C   -0.001791  -0.000424  -0.004696   0.000791  -0.000448   0.000779
    14  C   -0.000284   0.001996  -0.001458  -0.000433  -0.000587   0.000145
    15  C   -0.000065  -0.000242  -0.001169   0.000761   0.000144  -0.000006
    16  C    0.000018   0.000061   0.000532  -0.001773  -0.000284  -0.000065
    17  C    0.000062  -0.000331  -0.000135  -0.000448   0.002015  -0.000247
    18  C    0.000520  -0.000126   0.000326  -0.004648  -0.001513  -0.001169
    19  H    0.001671   0.001961  -0.000854  -0.000102  -0.000241   0.000323
    20  H    0.000027   0.000257   0.000077   0.000021  -0.000019  -0.000001
    21  H    0.000000  -0.000025  -0.000002  -0.000025   0.000002  -0.000000
    22  H   -0.000000   0.000003  -0.000012  -0.000023  -0.000028   0.000001
    23  H   -0.000002  -0.000004  -0.000026   0.000017   0.000116   0.000024
    24  H    0.000236  -0.000179   0.000044  -0.000841   0.002115   0.001046
               7          8          9         10         11         12
     1  C    0.438763  -0.076311   0.015296  -0.001794   0.015586  -0.075196
     2  C   -0.075588   0.439529  -0.074858   0.015403  -0.001913   0.015450
     3  C    0.015525  -0.075955   0.436347  -0.072888   0.015880  -0.001788
     4  C   -0.001844   0.015803  -0.072730   0.436940  -0.075667   0.015454
     5  C    0.015523  -0.001862   0.015411  -0.074475   0.439623  -0.075673
     6  C   -0.075331   0.015570  -0.001785   0.015289  -0.076617   0.438716
     7  H    0.731917  -0.013947  -0.000318   0.000037  -0.000324  -0.013882
     8  H   -0.013947   0.733149  -0.013951  -0.000320   0.000036  -0.000325
     9  H   -0.000318  -0.013951   0.728829  -0.013990  -0.000326   0.000037
    10  H    0.000037  -0.000320  -0.013990   0.726593  -0.013984  -0.000315
    11  H   -0.000324   0.000036  -0.000326  -0.013984   0.732944  -0.013935
    12  H   -0.013882  -0.000325   0.000037  -0.000315  -0.013935   0.732112
    13  C   -0.000023   0.000017  -0.000844  -0.000101   0.000020  -0.000024
    14  C   -0.000028   0.000113   0.002143  -0.000243  -0.000020   0.000002
    15  C    0.000001   0.000023   0.001004   0.000336  -0.000001  -0.000000
    16  C   -0.000000  -0.000003   0.000233   0.001688   0.000028   0.000000
    17  C    0.000003  -0.000003  -0.000178   0.001917   0.000270  -0.000025
    18  C   -0.000012  -0.000026   0.000045  -0.000848   0.000072  -0.000003
    19  H    0.000071   0.000102  -0.000049  -0.000004  -0.000006   0.000000
    20  H   -0.000001   0.000104   0.000135  -0.000006   0.000000  -0.000000
    21  H   -0.000000  -0.000001   0.000062   0.000000  -0.000000   0.000000
    22  H    0.000000  -0.000000  -0.000001   0.000072  -0.000001  -0.000000
    23  H   -0.000000   0.000000  -0.000003   0.000100   0.000108  -0.000001
    24  H   -0.000001  -0.000003   0.000000  -0.000049   0.000132   0.000065
              13         14         15         16         17         18
     1  C   -0.001791  -0.000284  -0.000065   0.000018   0.000062   0.000520
     2  C   -0.000424   0.001996  -0.000242   0.000061  -0.000331  -0.000126
     3  C   -0.004696  -0.001458  -0.001169   0.000532  -0.000135   0.000326
     4  C    0.000791  -0.000433   0.000761  -0.001773  -0.000448  -0.004648
     5  C   -0.000448  -0.000587   0.000144  -0.000284   0.002015  -0.001513
     6  C    0.000779   0.000145  -0.000006  -0.000065  -0.000247  -0.001169
     7  H   -0.000023  -0.000028   0.000001  -0.000000   0.000003  -0.000012
     8  H    0.000017   0.000113   0.000023  -0.000003  -0.000003  -0.000026
     9  H   -0.000844   0.002143   0.001004   0.000233  -0.000178   0.000045
    10  H   -0.000101  -0.000243   0.000336   0.001688   0.001917  -0.000848
    11  H    0.000020  -0.000020  -0.000001   0.000028   0.000270   0.000072
    12  H   -0.000024   0.000002  -0.000000   0.000000  -0.000025  -0.000003
    13  C    5.089259   0.246614   0.112632  -0.162267   0.114122   0.254151
    14  C    0.246614   5.105622   0.248917   0.110450  -0.162589   0.114248
    15  C    0.112632   0.248917   5.113332   0.249102   0.110220  -0.162873
    16  C   -0.162267   0.110450   0.249102   5.110729   0.249415   0.112054
    17  C    0.114122  -0.162589   0.110220   0.249415   5.114510   0.244420
    18  C    0.254151   0.114248  -0.162873   0.112054   0.244420   5.089416
    19  H    0.436900  -0.074468   0.015285  -0.001792   0.015401  -0.072870
    20  H   -0.075669   0.439604  -0.076603   0.015584  -0.001912   0.015880
    21  H    0.015458  -0.075681   0.438730  -0.075207   0.015452  -0.001788
    22  H   -0.001843   0.015521  -0.075316   0.438734  -0.075569   0.015521
    23  H    0.015807  -0.001862   0.015569  -0.076318   0.439532  -0.075959
    24  H   -0.072728   0.015413  -0.001786   0.015298  -0.074874   0.436365
              19         20         21         22         23         24
     1  C    0.001671   0.000027   0.000000  -0.000000  -0.000002   0.000236
     2  C    0.001961   0.000257  -0.000025   0.000003  -0.000004  -0.000179
     3  C   -0.000854   0.000077  -0.000002  -0.000012  -0.000026   0.000044
     4  C   -0.000102   0.000021  -0.000025  -0.000023   0.000017  -0.000841
     5  C   -0.000241  -0.000019   0.000002  -0.000028   0.000116   0.002115
     6  C    0.000323  -0.000001  -0.000000   0.000001   0.000024   0.001046
     7  H    0.000071  -0.000001  -0.000000   0.000000  -0.000000  -0.000001
     8  H    0.000102   0.000104  -0.000001  -0.000000   0.000000  -0.000003
     9  H   -0.000049   0.000135   0.000062  -0.000001  -0.000003   0.000000
    10  H   -0.000004  -0.000006   0.000000   0.000072   0.000100  -0.000049
    11  H   -0.000006   0.000000  -0.000000  -0.000001   0.000108   0.000132
    12  H    0.000000  -0.000000   0.000000  -0.000000  -0.000001   0.000065
    13  C    0.436900  -0.075669   0.015458  -0.001843   0.015807  -0.072728
    14  C   -0.074468   0.439604  -0.075681   0.015521  -0.001862   0.015413
    15  C    0.015285  -0.076603   0.438730  -0.075316   0.015569  -0.001786
    16  C   -0.001792   0.015584  -0.075207   0.438734  -0.076318   0.015298
    17  C    0.015401  -0.001912   0.015452  -0.075569   0.439532  -0.074874
    18  C   -0.072870   0.015880  -0.001788   0.015521  -0.075959   0.436365
    19  H    0.726619  -0.013984  -0.000315   0.000037  -0.000321  -0.013990
    20  H   -0.013984   0.732965  -0.013935  -0.000324   0.000036  -0.000326
    21  H   -0.000315  -0.013935   0.732124  -0.013881  -0.000325   0.000037
    22  H    0.000037  -0.000324  -0.013881   0.731916  -0.013947  -0.000318
    23  H   -0.000321   0.000036  -0.000325  -0.013947   0.733161  -0.013952
    24  H   -0.013990  -0.000326   0.000037  -0.000318  -0.013952   0.728800
 Mulliken charges:
               1
     1  C    0.013810
     2  C    0.008937
     3  C    0.038813
     4  C    0.034242
     5  C    0.016941
     6  C    0.011990
     7  H   -0.020540
     8  H   -0.021739
     9  H   -0.020508
    10  H   -0.019357
    11  H   -0.021905
    12  H   -0.020671
    13  C    0.034308
    14  C    0.016862
    15  C    0.012005
    16  C    0.013784
    17  C    0.008972
    18  C    0.038820
    19  H   -0.019376
    20  H   -0.021912
    21  H   -0.020679
    22  H   -0.020540
    23  H   -0.021750
    24  H   -0.020506
 Sum of Mulliken charges =  -0.00000
 Mulliken charges with hydrogens summed into heavy atoms:
               1
     1  C   -0.006730
     2  C   -0.012802
     3  C    0.018305
     4  C    0.014885
     5  C   -0.004964
     6  C   -0.008681
    13  C    0.014931
    14  C   -0.005051
    15  C   -0.008673
    16  C   -0.006756
    17  C   -0.012778
    18  C    0.018314
 Electronic spatial extent (au):  <R**2>=           2017.6524
 Charge=             -0.0000 electrons
 Dipole moment (field-independent basis, Debye):
    X=             -0.0003    Y=             -0.0000    Z=              0.0001  Tot=              0.0003
 Quadrupole moment (field-independent basis, Debye-Ang):
   XX=            -74.6814   YY=            -64.8337   ZZ=            -69.5483
   XY=              0.0005   XZ=              6.4386   YZ=             -0.0033
 Traceless Quadrupole moment (field-independent basis, Debye-Ang):
   XX=             -4.9936   YY=              4.8541   ZZ=              0.1395
   XY=              0.0005   XZ=              6.4386   YZ=             -0.0033
 Octapole moment (field-independent basis, Debye-Ang**2):
  XXX=              0.0258  YYY=             -0.0004  ZZZ=              0.0047  XYY=             -0.0008
  XXY=             -0.0030  XXZ=              0.0039  XZZ=             -0.0101  YZZ=             -0.0002
  YYZ=              0.0003  XYZ=              0.0013
 Hexadecapole moment (field-independent basis, Debye-Ang**3):
 XXXX=          -1847.8767 YYYY=           -559.0749 ZZZZ=           -458.8082 XXXY=             -0.0064
 XXXZ=             83.2207 YYYX=             -0.0075 YYYZ=             -0.0537 ZZZX=             23.9957
 ZZZY=              0.0110 XXYY=           -377.3936 XXZZ=           -372.4581 YYZZ=           -171.1593
 XXYZ=              0.0018 YYXZ=             10.0653 ZZXY=              0.0241
 N-N= 6.245042741874D+02 E-N=-2.321932540680D+03  KE= 4.586843336262D+02
 Leave Link  601 at Sat May  7 21:56:59 2022, MaxMem=  2684354560 cpu:               0.3 elap:               0.1
 (Enter /apps/software/g16/l9999.exe)
 Electronic transition elements 
                 1             2             3             4             5 
      1  -0.464028D+03 -0.464028D+03 -0.463993D+03 -0.463993D+03 -0.463993D+03
      2   0.000000D+00  0.000000D+00  0.000000D+00  0.000000D+00  0.000000D+00
      3   0.000000D+00  0.000000D+00  0.000000D+00  0.000000D+00  0.000000D+00
      4   0.000000D+00  0.000000D+00  0.000000D+00  0.000000D+00  0.000000D+00
      5   0.000000D+00  0.000000D+00  0.000000D+00  0.000000D+00  0.000000D+00
      6   0.000000D+00  0.000000D+00  0.000000D+00  0.000000D+00  0.000000D+00
      7   0.000000D+00  0.000000D+00  0.000000D+00  0.000000D+00  0.000000D+00
      8   0.000000D+00  0.000000D+00  0.000000D+00  0.000000D+00  0.000000D+00
      9   0.000000D+00  0.000000D+00  0.000000D+00  0.000000D+00  0.000000D+00
     10   0.000000D+00  0.000000D+00  0.000000D+00  0.000000D+00  0.000000D+00
     11   0.000000D+00  0.000000D+00  0.000000D+00  0.000000D+00  0.000000D+00
     12   0.000000D+00  0.000000D+00  0.000000D+00  0.000000D+00  0.000000D+00
     13   0.000000D+00  0.000000D+00  0.000000D+00  0.000000D+00  0.000000D+00
     14   0.000000D+00  0.000000D+00  0.000000D+00  0.000000D+00  0.000000D+00
     15   0.000000D+00  0.000000D+00  0.000000D+00  0.000000D+00  0.000000D+00
     16   0.000000D+00  0.000000D+00  0.000000D+00  0.000000D+00  0.000000D+00
                 6             7             8             9            10 
      1  -0.463993D+03 -0.463978D+03 -0.463978D+03 -0.463948D+03 -0.463948D+03
      2   0.000000D+00  0.000000D+00  0.000000D+00  0.000000D+00  0.000000D+00
      3   0.000000D+00  0.000000D+00  0.000000D+00  0.000000D+00  0.000000D+00
      4   0.000000D+00  0.000000D+00  0.000000D+00  0.000000D+00  0.000000D+00
      5   0.000000D+00  0.000000D+00  0.000000D+00  0.000000D+00  0.000000D+00
      6   0.000000D+00  0.000000D+00  0.000000D+00  0.000000D+00  0.000000D+00
      7   0.000000D+00  0.000000D+00  0.000000D+00  0.000000D+00  0.000000D+00
      8   0.000000D+00  0.000000D+00  0.000000D+00  0.000000D+00  0.000000D+00
      9   0.000000D+00  0.000000D+00  0.000000D+00  0.000000D+00  0.000000D+00
     10   0.000000D+00  0.000000D+00  0.000000D+00  0.000000D+00  0.000000D+00
     11   0.000000D+00  0.000000D+00  0.000000D+00  0.000000D+00  0.000000D+00
     12   0.000000D+00  0.000000D+00  0.000000D+00  0.000000D+00  0.000000D+00
     13   0.000000D+00  0.000000D+00  0.000000D+00  0.000000D+00  0.000000D+00
     14   0.000000D+00  0.000000D+00  0.000000D+00  0.000000D+00  0.000000D+00
     15   0.000000D+00  0.000000D+00  0.000000D+00  0.000000D+00  0.000000D+00
     16   0.000000D+00  0.000000D+00  0.000000D+00  0.000000D+00  0.000000D+00
                11            12            13            14            15 
      1  -0.463947D+03 -0.463946D+03 -0.463944D+03 -0.463944D+03 -0.463943D+03
      2   0.000000D+00  0.000000D+00  0.000000D+00  0.000000D+00  0.000000D+00
      3   0.000000D+00  0.000000D+00  0.000000D+00  0.000000D+00  0.000000D+00
      4   0.000000D+00  0.000000D+00  0.000000D+00  0.000000D+00  0.000000D+00
      5   0.000000D+00  0.000000D+00  0.000000D+00  0.000000D+00  0.000000D+00
      6   0.000000D+00  0.000000D+00  0.000000D+00  0.000000D+00  0.000000D+00
      7   0.000000D+00  0.000000D+00  0.000000D+00  0.000000D+00  0.000000D+00
      8   0.000000D+00  0.000000D+00  0.000000D+00  0.000000D+00  0.000000D+00
      9   0.000000D+00  0.000000D+00  0.000000D+00  0.000000D+00  0.000000D+00
     10   0.000000D+00  0.000000D+00  0.000000D+00  0.000000D+00  0.000000D+00
     11   0.000000D+00  0.000000D+00  0.000000D+00  0.000000D+00  0.000000D+00
     12   0.000000D+00  0.000000D+00  0.000000D+00  0.000000D+00  0.000000D+00
     13   0.000000D+00  0.000000D+00  0.000000D+00  0.000000D+00  0.000000D+00
     14   0.000000D+00  0.000000D+00  0.000000D+00  0.000000D+00  0.000000D+00
     15   0.000000D+00  0.000000D+00  0.000000D+00  0.000000D+00  0.000000D+00
     16   0.000000D+00  0.000000D+00  0.000000D+00  0.000000D+00  0.000000D+00
                16            17            18 
      1  -0.463942D+03 -0.463908D+03 -0.463901D+03
      2   0.000000D+00  0.000000D+00  0.000000D+00
      3   0.000000D+00  0.000000D+00  0.000000D+00
      4   0.000000D+00  0.000000D+00  0.000000D+00
      5   0.000000D+00  0.000000D+00  0.000000D+00
      6   0.000000D+00  0.000000D+00  0.000000D+00
      7   0.000000D+00  0.000000D+00  0.000000D+00
      8   0.000000D+00  0.000000D+00  0.000000D+00
      9   0.000000D+00  0.000000D+00  0.000000D+00
     10   0.000000D+00  0.000000D+00  0.000000D+00
     11   0.000000D+00  0.000000D+00  0.000000D+00
     12   0.000000D+00  0.000000D+00  0.000000D+00
     13   0.000000D+00  0.000000D+00  0.000000D+00
     14   0.000000D+00  0.000000D+00  0.000000D+00
     15   0.000000D+00  0.000000D+00  0.000000D+00
     16   0.000000D+00  0.000000D+00  0.000000D+00
 1\1\GINC-CNODE03\SP\RB3LYP TD-FC\def2SVP\C12H12\ROOT\07-May-2022\0\\#p
  TD=(Triplet,nstates=18) RB3LYP/def2SVP\\benzeneDimer TDDFT\\0,1\C,0,0
 .2753396649,-0.4583991028,2.7431434037\C,0,1.2790068474,0.228940885,2.
 0539719648\C,0,0.9396228745,1.2316124293,1.1398820801\C,0,-0.402424351
 9,1.548739846,0.9166429849\C,0,-1.4066987602,0.863818488,1.6078176624\
 C,0,-1.0689776461,-0.1401228207,2.5202869189\H,0,0.5396037066,-1.24189
 88627,3.454437268\H,0,2.3265880048,-0.0221573006,2.223964486\H,0,1.720
 8327922,1.7550518009,0.5893019773\H,0,-0.666403863,2.3166978903,0.1902
 176042\H,0,-2.4544190626,1.1065399822,1.4278290338\H,0,-1.852402131,-0
 .6760717401,3.0575475298\C,0,0.4086370714,-1.5471389088,-0.9172261978\
 C,0,1.4084398871,-0.8593830184,-1.612070091\C,0,1.0645035959,0.1429643
 568,-2.523961076\C,0,-0.2815576237,0.4568194212,-2.7425360958\C,0,-1.2
 807356103,-0.2333300903,-2.0496635088\C,0,-0.9351478829,-1.2344361275,
 -1.1361827687\H,0,0.677439447,-2.3139170102,-0.1913216756\H,0,2.457518
 0436,-1.0987283442,-1.4354894188\H,0,1.8444327275,0.6811069426,-3.0641
 042217\H,0,-0.5506787567,1.2390514581,-3.4534039543\H,0,-2.329668169,0
 .0143528458,-2.2162994354\H,0,-1.7128508054,-1.7601130199,-0.582784469
 9\\Version=ES64L-G16RevA.03\State=1-A\HF=-464.1659412\RMSD=5.124e-09\P
 G=C01 [X(C12H12)]\\@


 Make no judgements where you have no compassion.
                               -- Anne McCaffrey
 Job cpu time:       0 days  0 hours 18 minutes 57.3 seconds.
 Elapsed time:       0 days  0 hours  2 minutes 22.7 seconds.
 File lengths (MBytes):  RWF=    764 Int=      0 D2E=      0 Chk=     36 Scr=      1
 Normal termination of Gaussian 16 at Sat May  7 21:56:59 2022.

Sender: Unischeduler System <lcz@mgt01>
Subject: Job 129274: <#!/bin/bash
#BSUB -J intel
#BSUB -o benzeneDimer-TDDFT-Gaussian.out
#BSUB -n 8
#BSUB -q cqueue
#BSUB -R span[hosts=1]
export g16root=/apps/software
source /apps/software/g16/bsd/g16.profile
export GAUSS_SCRDIR=/scratch
/apps/software/g16/g16 < benzeneDimer-TDDFT-Gaussian.inp > benzeneDimer-TDDFT-Gaussian.out> Done

Job <#!/bin/bash
#BSUB -J intel
#BSUB -o benzeneDimer-TDDFT-Gaussian.out
#BSUB -n 8
#BSUB -q cqueue
#BSUB -R span[hosts=1]
export g16root=/apps/software
source /apps/software/g16/bsd/g16.profile
export GAUSS_SCRDIR=/scratch
/apps/software/g16/g16 < benzeneDimer-TDDFT-Gaussian.inp > benzeneDimer-TDDFT-Gaussian.out> was submitted from host <mgt01> by user <lcz>.
Job was executed on host(s) <8*cnode03>, in queue <cqueue>, as user <lcz>.
</apps/users/lcz> was used as the home directory.
</apps/users/lcz/exe10/task3> was used as the working directory.
Started at 2022-05-07 21:54:36
Results reported at 2022-05-07 21:56:59

Your job looked like:

------------------------------------------------------------
# User input
#!/bin/bash
#BSUB -J intel
#BSUB -o benzeneDimer-TDDFT-Gaussian.out
#BSUB -n 8
#BSUB -q cqueue
#BSUB -R span[hosts=1]
export g16root=/apps/software
source /apps/software/g16/bsd/g16.profile
export GAUSS_SCRDIR=/scratch
/apps/software/g16/g16 < benzeneDimer-TDDFT-Gaussian.inp > benzeneDimer-TDDFT-Gaussian.out
------------------------------------------------------------

Successfully completed.

Resource usage summary:

    CPU time   :         1067.48 sec.
    Max Memory :              9317 MB
    Max Processes  :               5


The output (if any) follows:

