 Entering Gaussian System, Link 0=/apps/software/g16/g16
 Initial command:
 /apps/software/g16/l1.exe "/scratch/Gau-239746.inp" -scrdir="/scratch/"
 Entering Link 1 = /apps/software/g16/l1.exe PID=    239747.
  
 Copyright (c) 1988,1990,1992,1993,1995,1998,2003,2009,2016,
            Gaussian, Inc.  All Rights Reserved.
  
 This is part of the Gaussian(R) 16 program.  It is based on
 the Gaussian(R) 09 system (copyright 2009, Gaussian, Inc.),
 the Gaussian(R) 03 system (copyright 2003, Gaussian, Inc.),
 the Gaussian(R) 98 system (copyright 1998, Gaussian, Inc.),
 the Gaussian(R) 94 system (copyright 1995, Gaussian, Inc.),
 the Gaussian 92(TM) system (copyright 1992, Gaussian, Inc.),
 the Gaussian 90(TM) system (copyright 1990, Gaussian, Inc.),
 the Gaussian 88(TM) system (copyright 1988, Gaussian, Inc.),
 the Gaussian 86(TM) system (copyright 1986, Carnegie Mellon
 University), and the Gaussian 82(TM) system (copyright 1983,
 Carnegie Mellon University). Gaussian is a federally registered
 trademark of Gaussian, Inc.
  
 This software contains proprietary and confidential information,
 including trade secrets, belonging to Gaussian, Inc.
  
 This software is provided under written license and may be
 used, copied, transmitted, or stored only in accord with that
 written license.
  
 The following legend is applicable only to US Government
 contracts under FAR:
  
                    RESTRICTED RIGHTS LEGEND
  
 Use, reproduction and disclosure by the US Government is
 subject to restrictions as set forth in subparagraphs (a)
 and (c) of the Commercial Computer Software - Restricted
 Rights clause in FAR 52.227-19.
  
 Gaussian, Inc.
 340 Quinnipiac St., Bldg. 40, Wallingford CT 06492
  
  
 ---------------------------------------------------------------
 Warning -- This program may not be used in any manner that
 competes with the business of Gaussian, Inc. or will provide
 assistance to any competitor of Gaussian, Inc.  The licensee
 of this program is prohibited from giving any competitor of
 Gaussian, Inc. access to this program.  By using this program,
 the user acknowledges that Gaussian, Inc. is engaged in the
 business of creating and licensing software in the field of
 computational chemistry and represents and warrants to the
 licensee that it is not a competitor of Gaussian, Inc. and that
 it will not use this program in any manner prohibited above.
 ---------------------------------------------------------------
  

 Cite this work as:
 Gaussian 16, Revision A.03,
 M. J. Frisch, G. W. Trucks, H. B. Schlegel, G. E. Scuseria, 
 M. A. Robb, J. R. Cheeseman, G. Scalmani, V. Barone, 
 G. A. Petersson, H. Nakatsuji, X. Li, M. Caricato, A. V. Marenich, 
 J. Bloino, B. G. Janesko, R. Gomperts, B. Mennucci, H. P. Hratchian, 
 J. V. Ortiz, A. F. Izmaylov, J. L. Sonnenberg, D. Williams-Young, 
 F. Ding, F. Lipparini, F. Egidi, J. Goings, B. Peng, A. Petrone, 
 T. Henderson, D. Ranasinghe, V. G. Zakrzewski, J. Gao, N. Rega, 
 G. Zheng, W. Liang, M. Hada, M. Ehara, K. Toyota, R. Fukuda, 
 J. Hasegawa, M. Ishida, T. Nakajima, Y. Honda, O. Kitao, H. Nakai, 
 T. Vreven, K. Throssell, J. A. Montgomery, Jr., J. E. Peralta, 
 F. Ogliaro, M. J. Bearpark, J. J. Heyd, E. N. Brothers, K. N. Kudin, 
 V. N. Staroverov, T. A. Keith, R. Kobayashi, J. Normand, 
 K. Raghavachari, A. P. Rendell, J. C. Burant, S. S. Iyengar, 
 J. Tomasi, M. Cossi, J. M. Millam, M. Klene, C. Adamo, R. Cammi, 
 J. W. Ochterski, R. L. Martin, K. Morokuma, O. Farkas, 
 J. B. Foresman, and D. J. Fox, Gaussian, Inc., Wallingford CT, 2016.
 
 ******************************************
 Gaussian 16:  ES64L-G16RevA.03 25-Dec-2016
                 2-Apr-2022 
 ******************************************
 %chk=/apps/users/lcz/exe4/task4/O2/triplet/O2.chk
 ------------------------------------------
 #p UHF/cc-pVDZ nosymm guess=mix stable=opt
 ------------------------------------------
 1/38=1,172=1/1;
 2/12=2,15=1,17=6,18=5,40=1/2;
 3/5=16,11=2,25=1,30=1,116=2/1,2,3;
 4/13=-1/1;
 5/5=2,38=5/2;
 6/7=2,8=2,9=2,10=2,28=1/1;
 8/6=1,10=90,11=11/1;
 9/8=-3,42=1,46=1/14;
 5/5=2,8=3,17=40,38=5/8(-2);
 6/7=2,8=2,9=2,10=2,28=1/1;
 99/5=1,9=1/99;
 Leave Link    1 at Sat Apr  2 12:38:53 2022, MaxMem=           0 cpu:               0.0 elap:               0.0
 (Enter /apps/software/g16/l101.exe)
 -----
 O2 SP
 -----
 Symbolic Z-matrix:
 Charge =  0 Multiplicity = 3
 O                     0.        0.        0. 
 O                     0.        0.        1.25 
 
 ITRead=  0  0
 MicOpt= -1 -1
 NAtoms=      2 NQM=        2 NQMF=       0 NMMI=      0 NMMIF=      0
                NMic=       0 NMicF=      0.
                    Isotopes and Nuclear Properties:
 (Nuclear quadrupole moments (NQMom) in fm**2, nuclear magnetic moments (NMagM)
  in nuclear magnetons)

  Atom         1           2
 IAtWgt=          16          16
 AtmWgt=  15.9949146  15.9949146
 NucSpn=           0           0
 AtZEff=  -0.0000000  -0.0000000
 NQMom=    0.0000000   0.0000000
 NMagM=    0.0000000   0.0000000
 AtZNuc=   8.0000000   8.0000000
 Leave Link  101 at Sat Apr  2 12:38:53 2022, MaxMem=   104857600 cpu:               0.1 elap:               0.1
 (Enter /apps/software/g16/l202.exe)
                          Input orientation:                          
 ---------------------------------------------------------------------
 Center     Atomic      Atomic             Coordinates (Angstroms)
 Number     Number       Type             X           Y           Z
 ---------------------------------------------------------------------
      1          8           0        0.000000    0.000000    0.000000
      2          8           0        0.000000    0.000000    1.250000
 ---------------------------------------------------------------------
 Symmetry turned off by external request.
 Stoichiometry    O2(3)
 Framework group  D*H[C*(O.O)]
 Deg. of freedom     1
 Full point group                 D*H     NOp   8
 Rotational constants (GHZ):           0.0000000          40.4431750          40.4431750
 Leave Link  202 at Sat Apr  2 12:38:54 2022, MaxMem=   104857600 cpu:               0.0 elap:               0.0
 (Enter /apps/software/g16/l301.exe)
 Standard basis: CC-pVDZ (5D, 7F)
 Ernie: Thresh=  0.10000D-02 Tol=  0.10000D-05 Strict=F.
 Ernie:  4 primitive shells out of 44 were deleted.
    28 basis functions,    66 primitive gaussians,    30 cartesian basis functions
     9 alpha electrons        7 beta electrons
       nuclear repulsion energy        27.0938731991 Hartrees.
 IExCor=    0 DFT=F Ex=HF Corr=None ExCW=0 ScaHFX=  1.000000
 ScaDFX=  1.000000  1.000000  1.000000  1.000000 ScalE2=  1.000000  1.000000
 IRadAn=      5 IRanWt=     -1 IRanGd=            0 ICorTp=0 IEmpDi=  4
 NAtoms=    2 NActive=    2 NUniq=    2 SFac= 1.00D+00 NAtFMM=   60 NAOKFM=F Big=F
 Integral buffers will be    131072 words long.
 Raffenetti 2 integral format.
 Two-electron integral symmetry is turned off.
 Leave Link  301 at Sat Apr  2 12:38:54 2022, MaxMem=   104857600 cpu:               0.1 elap:               0.1
 (Enter /apps/software/g16/l302.exe)
 NPDir=0 NMtPBC=     1 NCelOv=     1 NCel=       1 NClECP=     1 NCelD=      1
         NCelK=      1 NCelE2=     1 NClLst=     1 CellRange=     0.0.
 One-electron integrals computed using PRISM.
 NBasis=    28 RedAO= T EigKep=  2.24D-02  NBF=    28
 NBsUse=    28 1.00D-06 EigRej= -1.00D+00 NBFU=    28
 Leave Link  302 at Sat Apr  2 12:38:54 2022, MaxMem=   104857600 cpu:               0.1 elap:               0.1
 (Enter /apps/software/g16/l303.exe)
 DipDrv:  MaxL=1.
 Leave Link  303 at Sat Apr  2 12:38:54 2022, MaxMem=   104857600 cpu:               0.0 elap:               0.0
 (Enter /apps/software/g16/l401.exe)
 ExpMin= 2.75D-01 ExpMax= 1.17D+04 ExpMxC= 4.01D+02 IAcc=3 IRadAn=         5 AccDes= 0.00D+00
 Harris functional with IExCor=  205 and IRadAn=       5 diagonalized for initial guess.
 HarFok:  IExCor=  205 AccDes= 0.00D+00 IRadAn=         5 IDoV= 1 UseB2=F ITyADJ=14
 ICtDFT=  3500011 ScaDFX=  1.000000  1.000000  1.000000  1.000000
 FoFCou: FMM=F IPFlag=           0 FMFlag=      100000 FMFlg1=           0
         NFxFlg=           0 DoJE=T BraDBF=F KetDBF=T FulRan=T
         wScrn=  0.000000 ICntrl=       500 IOpCl=  0 I1Cent=   200000004 NGrid=           0
         NMat0=    1 NMatS0=      1 NMatT0=    0 NMatD0=    1 NMtDS0=    0 NMtDT0=    0
 Symmetry not used in FoFCou.
 Harris En= -149.550006687473    
 JPrj=0 DoOrth=F DoCkMO=T.
 Mixing orbitals, IMix= 1 IMixAn=  0 NRI=1 NE=    9 Coef=  7.07106781D-01  7.07106781D-01
 Mixing orbitals, IMix= 1 IMixAn=  0 NRI=1 NE=    7 Coef= -7.07106781D-01  7.07106781D-01
 Initial guess <Sx>= 0.0000 <Sy>= 0.0000 <Sz>= 1.0000 <S**2>= 2.0000 S= 1.0000
 Leave Link  401 at Sat Apr  2 12:38:54 2022, MaxMem=   104857600 cpu:               0.2 elap:               0.1
 (Enter /apps/software/g16/l502.exe)
 Keep R1 and R2 ints in memory in canonical form, NReq=1000977.
 FoFCou: FMM=F IPFlag=           0 FMFlag=           0 FMFlg1=           0
         NFxFlg=           0 DoJE=F BraDBF=F KetDBF=F FulRan=T
         wScrn=  0.000000 ICntrl=       600 IOpCl=  0 I1Cent=           0 NGrid=           0
         NMat0=    1 NMatS0=    406 NMatT0=    0 NMatD0=    1 NMtDS0=    0 NMtDT0=    0
 Symmetry not used in FoFCou.
 Two-electron integral symmetry not used.
 UHF open shell SCF:
 Using DIIS extrapolation, IDIIS=  1040.
 NGot=   104857600 LenX=   104690006 LenY=   104688665
 Requested convergence on RMS density matrix=1.00D-08 within 128 cycles.
 Requested convergence on MAX density matrix=1.00D-06.
 Requested convergence on             energy=1.00D-06.
 No special actions if energy rises.

 Cycle   1  Pass 1  IDiag  1:
 E= -149.255716587089    
 DIIS: error= 7.73D-02 at cycle   1 NSaved=   1.
 NSaved= 1 IEnMin= 1 EnMin= -149.255716587089     IErMin= 1 ErrMin= 7.73D-02
 ErrMax= 7.73D-02  0.00D+00 EMaxC= 1.00D-01 BMatC= 6.64D-01 BMatP= 6.64D-01
 IDIUse=3 WtCom= 2.27D-01 WtEn= 7.73D-01
 Coeff-Com:  0.100D+01
 Coeff-En:   0.100D+01
 Coeff:      0.100D+01
 Gap=     0.543 Goal=   None    Shift=    0.000
 Gap=     0.381 Goal=   None    Shift=    0.000
 GapD=    0.381 DampG=1.000 DampE=0.500 DampFc=0.5000 IDamp=-1.
 Damping current iteration by 5.00D-01
 RMSDP=3.26D-02 MaxDP=3.02D-01              OVMax= 3.14D-01

 Cycle   2  Pass 1  IDiag  1:
 E= -149.367574253464     Delta-E=       -0.111857666375 Rises=F Damp=T
 DIIS: error= 6.71D-02 at cycle   2 NSaved=   2.
 NSaved= 2 IEnMin= 2 EnMin= -149.367574253464     IErMin= 2 ErrMin= 6.71D-02
 ErrMax= 6.71D-02  0.00D+00 EMaxC= 1.00D-01 BMatC= 1.56D-01 BMatP= 6.64D-01
 IDIUse=3 WtCom= 3.29D-01 WtEn= 6.71D-01
 Coeff-Com: -0.202D+00 0.120D+01
 Coeff-En:   0.000D+00 0.100D+01
 Coeff:     -0.665D-01 0.107D+01
 Gap=     0.731 Goal=   None    Shift=    0.000
 Gap=     0.665 Goal=   None    Shift=    0.000
 RMSDP=2.31D-02 MaxDP=1.77D-01 DE=-1.12D-01 OVMax= 1.17D-01

 Cycle   3  Pass 1  IDiag  1:
 E= -149.547752961754     Delta-E=       -0.180178708289 Rises=F Damp=F
 DIIS: error= 4.69D-02 at cycle   3 NSaved=   3.
 NSaved= 3 IEnMin= 3 EnMin= -149.547752961754     IErMin= 3 ErrMin= 4.69D-02
 ErrMax= 4.69D-02  0.00D+00 EMaxC= 1.00D-01 BMatC= 4.90D-02 BMatP= 1.56D-01
 IDIUse=3 WtCom= 5.31D-01 WtEn= 4.69D-01
 Coeff-Com:  0.123D+00-0.433D+00 0.131D+01
 Coeff-En:   0.000D+00 0.000D+00 0.100D+01
 Coeff:      0.653D-01-0.230D+00 0.116D+01
 Gap=     0.845 Goal=   None    Shift=    0.000
 Gap=     0.669 Goal=   None    Shift=    0.000
 RMSDP=1.01D-02 MaxDP=5.25D-02 DE=-1.80D-01 OVMax= 1.53D-01

 Cycle   4  Pass 1  IDiag  1:
 E= -149.590605692367     Delta-E=       -0.042852730613 Rises=F Damp=F
 DIIS: error= 2.91D-02 at cycle   4 NSaved=   4.
 NSaved= 4 IEnMin= 4 EnMin= -149.590605692367     IErMin= 4 ErrMin= 2.91D-02
 ErrMax= 2.91D-02  0.00D+00 EMaxC= 1.00D-01 BMatC= 1.99D-02 BMatP= 4.90D-02
 IDIUse=3 WtCom= 7.09D-01 WtEn= 2.91D-01
 Coeff-Com:  0.281D-01 0.903D-01-0.129D+01 0.218D+01
 Coeff-En:   0.000D+00 0.000D+00 0.000D+00 0.100D+01
 Coeff:      0.200D-01 0.641D-01-0.918D+00 0.183D+01
 Gap=     0.913 Goal=   None    Shift=    0.000
 Gap=     0.674 Goal=   None    Shift=    0.000
 RMSDP=8.13D-03 MaxDP=4.06D-02 DE=-4.29D-02 OVMax= 1.43D-01

 Cycle   5  Pass 1  IDiag  1:
 E= -149.612739869899     Delta-E=       -0.022134177532 Rises=F Damp=F
 DIIS: error= 9.98D-03 at cycle   5 NSaved=   5.
 NSaved= 5 IEnMin= 5 EnMin= -149.612739869899     IErMin= 5 ErrMin= 9.98D-03
 ErrMax= 9.98D-03  0.00D+00 EMaxC= 1.00D-01 BMatC= 3.39D-03 BMatP= 1.99D-02
 IDIUse=3 WtCom= 9.00D-01 WtEn= 9.98D-02
 Coeff-Com:  0.128D-02-0.282D-01 0.426D+00-0.120D+01 0.180D+01
 Coeff-En:   0.000D+00 0.000D+00 0.000D+00 0.000D+00 0.100D+01
 Coeff:      0.115D-02-0.254D-01 0.383D+00-0.108D+01 0.172D+01
 Gap=     0.929 Goal=   None    Shift=    0.000
 Gap=     0.678 Goal=   None    Shift=    0.000
 RMSDP=3.37D-03 MaxDP=2.14D-02 DE=-2.21D-02 OVMax= 6.05D-02

 Cycle   6  Pass 1  IDiag  1:
 E= -149.616750571806     Delta-E=       -0.004010701907 Rises=F Damp=F
 DIIS: error= 3.33D-03 at cycle   6 NSaved=   6.
 NSaved= 6 IEnMin= 6 EnMin= -149.616750571806     IErMin= 6 ErrMin= 3.33D-03
 ErrMax= 3.33D-03  0.00D+00 EMaxC= 1.00D-01 BMatC= 4.63D-04 BMatP= 3.39D-03
 IDIUse=3 WtCom= 9.67D-01 WtEn= 3.33D-02
 Coeff-Com:  0.171D-01-0.508D-01 0.986D-01-0.389D-01-0.400D+00 0.137D+01
 Coeff-En:   0.000D+00 0.000D+00 0.000D+00 0.000D+00 0.000D+00 0.100D+01
 Coeff:      0.165D-01-0.491D-01 0.953D-01-0.376D-01-0.386D+00 0.136D+01
 Gap=     0.934 Goal=   None    Shift=    0.000
 Gap=     0.678 Goal=   None    Shift=    0.000
 RMSDP=9.68D-04 MaxDP=8.16D-03 DE=-4.01D-03 OVMax= 2.36D-02

 Cycle   7  Pass 1  IDiag  1:
 E= -149.617322936163     Delta-E=       -0.000572364357 Rises=F Damp=F
 DIIS: error= 2.43D-03 at cycle   7 NSaved=   7.
 NSaved= 7 IEnMin= 7 EnMin= -149.617322936163     IErMin= 7 ErrMin= 2.43D-03
 ErrMax= 2.43D-03  0.00D+00 EMaxC= 1.00D-01 BMatC= 1.60D-04 BMatP= 4.63D-04
 IDIUse=3 WtCom= 9.76D-01 WtEn= 2.43D-02
 Coeff-Com:  0.473D-02-0.146D-02-0.943D-01 0.182D+00 0.125D-01-0.104D+01
 Coeff-Com:  0.193D+01
 Coeff-En:   0.000D+00 0.000D+00 0.000D+00 0.000D+00 0.000D+00 0.000D+00
 Coeff-En:   0.100D+01
 Coeff:      0.462D-02-0.142D-02-0.920D-01 0.178D+00 0.122D-01-0.101D+01
 Coeff:      0.191D+01
 Gap=     0.936 Goal=   None    Shift=    0.000
 Gap=     0.676 Goal=   None    Shift=    0.000
 RMSDP=6.68D-04 MaxDP=6.92D-03 DE=-5.72D-04 OVMax= 2.17D-02

 Cycle   8  Pass 1  IDiag  1:
 E= -149.617617469854     Delta-E=       -0.000294533691 Rises=F Damp=F
 DIIS: error= 1.52D-03 at cycle   8 NSaved=   8.
 NSaved= 8 IEnMin= 8 EnMin= -149.617617469854     IErMin= 8 ErrMin= 1.52D-03
 ErrMax= 1.52D-03  0.00D+00 EMaxC= 1.00D-01 BMatC= 6.92D-05 BMatP= 1.60D-04
 IDIUse=3 WtCom= 9.85D-01 WtEn= 1.52D-02
 Coeff-Com:  0.286D-02-0.499D-02 0.272D-01-0.568D-01 0.115D+00-0.132D+00
 Coeff-Com: -0.809D+00 0.186D+01
 Coeff-En:   0.000D+00 0.000D+00 0.000D+00 0.000D+00 0.000D+00 0.000D+00
 Coeff-En:   0.000D+00 0.100D+01
 Coeff:      0.281D-02-0.492D-02 0.268D-01-0.559D-01 0.113D+00-0.130D+00
 Coeff:     -0.796D+00 0.184D+01
 Gap=     0.936 Goal=   None    Shift=    0.000
 Gap=     0.674 Goal=   None    Shift=    0.000
 RMSDP=6.09D-04 MaxDP=6.17D-03 DE=-2.95D-04 OVMax= 1.93D-02

 Cycle   9  Pass 1  IDiag  1:
 E= -149.617793543304     Delta-E=       -0.000176073449 Rises=F Damp=F
 DIIS: error= 9.17D-04 at cycle   9 NSaved=   9.
 NSaved= 9 IEnMin= 9 EnMin= -149.617793543304     IErMin= 9 ErrMin= 9.17D-04
 ErrMax= 9.17D-04  0.00D+00 EMaxC= 1.00D-01 BMatC= 2.57D-05 BMatP= 6.92D-05
 IDIUse=3 WtCom= 9.91D-01 WtEn= 9.17D-03
 Coeff-Com:  0.140D-02-0.668D-02 0.229D-01-0.314D-01-0.775D-01 0.535D+00
 Coeff-Com: -0.618D+00-0.474D+00 0.165D+01
 Coeff-En:   0.000D+00 0.000D+00 0.000D+00 0.000D+00 0.000D+00 0.000D+00
 Coeff-En:   0.000D+00 0.000D+00 0.100D+01
 Coeff:      0.138D-02-0.662D-02 0.227D-01-0.311D-01-0.768D-01 0.530D+00
 Coeff:     -0.612D+00-0.470D+00 0.164D+01
 Gap=     0.937 Goal=   None    Shift=    0.000
 Gap=     0.672 Goal=   None    Shift=    0.000
 RMSDP=3.91D-04 MaxDP=4.00D-03 DE=-1.76D-04 OVMax= 1.26D-02

 Cycle  10  Pass 1  IDiag  1:
 E= -149.617872615469     Delta-E=       -0.000079072165 Rises=F Damp=F
 DIIS: error= 8.49D-04 at cycle  10 NSaved=  10.
 NSaved=10 IEnMin=10 EnMin= -149.617872615469     IErMin=10 ErrMin= 8.49D-04
 ErrMax= 8.49D-04  0.00D+00 EMaxC= 1.00D-01 BMatC= 1.41D-05 BMatP= 2.57D-05
 IDIUse=3 WtCom= 9.92D-01 WtEn= 8.49D-03
 Coeff-Com:  0.808D-03 0.166D-02-0.415D-01 0.924D-01-0.400D-01-0.410D+00
 Coeff-Com:  0.938D+00-0.319D+00-0.168D+01 0.246D+01
 Coeff-En:   0.000D+00 0.000D+00 0.000D+00 0.000D+00 0.000D+00 0.000D+00
 Coeff-En:   0.000D+00 0.000D+00 0.000D+00 0.100D+01
 Coeff:      0.801D-03 0.164D-02-0.412D-01 0.916D-01-0.397D-01-0.407D+00
 Coeff:      0.930D+00-0.317D+00-0.167D+01 0.245D+01
 Gap=     0.938 Goal=   None    Shift=    0.000
 Gap=     0.669 Goal=   None    Shift=    0.000
 RMSDP=3.68D-04 MaxDP=4.00D-03 DE=-7.91D-05 OVMax= 1.06D-02

 Cycle  11  Pass 1  IDiag  1:
 E= -149.617932776123     Delta-E=       -0.000060160653 Rises=F Damp=F
 DIIS: error= 6.64D-04 at cycle  11 NSaved=  11.
 NSaved=11 IEnMin=11 EnMin= -149.617932776123     IErMin=11 ErrMin= 6.64D-04
 ErrMax= 6.64D-04  0.00D+00 EMaxC= 1.00D-01 BMatC= 8.16D-06 BMatP= 1.41D-05
 IDIUse=3 WtCom= 9.93D-01 WtEn= 6.64D-03
 Coeff-Com:  0.111D-02-0.723D-02 0.667D-01-0.134D+00 0.337D-01 0.726D+00
 Coeff-Com: -0.177D+01 0.951D+00 0.281D+01-0.607D+01 0.440D+01
 Coeff-En:   0.000D+00 0.000D+00 0.000D+00 0.000D+00 0.000D+00 0.000D+00
 Coeff-En:   0.000D+00 0.000D+00 0.000D+00 0.000D+00 0.100D+01
 Coeff:      0.111D-02-0.718D-02 0.663D-01-0.133D+00 0.334D-01 0.721D+00
 Coeff:     -0.176D+01 0.945D+00 0.279D+01-0.603D+01 0.438D+01
 Gap=     0.937 Goal=   None    Shift=    0.000
 Gap=     0.666 Goal=   None    Shift=    0.000
 RMSDP=6.45D-04 MaxDP=7.11D-03 DE=-6.02D-05 OVMax= 1.97D-02

 Cycle  12  Pass 1  IDiag  1:
 E= -149.617999792368     Delta-E=       -0.000067016245 Rises=F Damp=F
 DIIS: error= 2.56D-04 at cycle  12 NSaved=  12.
 NSaved=12 IEnMin=12 EnMin= -149.617999792368     IErMin=12 ErrMin= 2.56D-04
 ErrMax= 2.56D-04  0.00D+00 EMaxC= 1.00D-01 BMatC= 2.11D-06 BMatP= 8.16D-06
 IDIUse=3 WtCom= 9.97D-01 WtEn= 2.56D-03
 Coeff-Com: -0.834D-03 0.171D-02-0.111D-02-0.588D-02 0.150D-01-0.399D-01
 Coeff-Com:  0.145D+00-0.141D+00-0.312D+00 0.996D+00-0.156D+01 0.190D+01
 Coeff-En:   0.000D+00 0.000D+00 0.000D+00 0.000D+00 0.000D+00 0.000D+00
 Coeff-En:   0.000D+00 0.000D+00 0.000D+00 0.000D+00 0.000D+00 0.100D+01
 Coeff:     -0.832D-03 0.170D-02-0.111D-02-0.587D-02 0.150D-01-0.398D-01
 Coeff:      0.144D+00-0.140D+00-0.311D+00 0.993D+00-0.155D+01 0.190D+01
 Gap=     0.938 Goal=   None    Shift=    0.000
 Gap=     0.664 Goal=   None    Shift=    0.000
 RMSDP=4.41D-04 MaxDP=4.87D-03 DE=-6.70D-05 OVMax= 1.31D-02

 Cycle  13  Pass 1  IDiag  1:
 E= -149.618019326927     Delta-E=       -0.000019534559 Rises=F Damp=F
 DIIS: error= 8.72D-05 at cycle  13 NSaved=  13.
 NSaved=13 IEnMin=13 EnMin= -149.618019326927     IErMin=13 ErrMin= 8.72D-05
 ErrMax= 8.72D-05  0.00D+00 EMaxC= 1.00D-01 BMatC= 4.96D-07 BMatP= 2.11D-06
 IDIUse=1 WtCom= 1.00D+00 WtEn= 0.00D+00
 Coeff-Com:  0.112D-02-0.222D-02-0.303D-03 0.693D-02-0.548D-02-0.372D-01
 Coeff-Com:  0.769D-01-0.740D-01-0.482D-01 0.188D+00 0.564D-01-0.786D+00
 Coeff-Com:  0.162D+01
 Coeff:      0.112D-02-0.222D-02-0.303D-03 0.693D-02-0.548D-02-0.372D-01
 Coeff:      0.769D-01-0.740D-01-0.482D-01 0.188D+00 0.564D-01-0.786D+00
 Coeff:      0.162D+01
 Gap=     0.938 Goal=   None    Shift=    0.000
 Gap=     0.663 Goal=   None    Shift=    0.000
 RMSDP=1.75D-04 MaxDP=1.93D-03 DE=-1.95D-05 OVMax= 5.02D-03

 Cycle  14  Pass 1  IDiag  1:
 E= -149.618022305485     Delta-E=       -0.000002978558 Rises=F Damp=F
 DIIS: error= 5.14D-05 at cycle  14 NSaved=  14.
 NSaved=14 IEnMin=14 EnMin= -149.618022305485     IErMin=14 ErrMin= 5.14D-05
 ErrMax= 5.14D-05  0.00D+00 EMaxC= 1.00D-01 BMatC= 1.05D-07 BMatP= 4.96D-07
 IDIUse=1 WtCom= 1.00D+00 WtEn= 0.00D+00
 Coeff-Com: -0.170D-04-0.160D-03 0.279D-02-0.684D-02 0.614D-03 0.437D-01
 Coeff-Com: -0.916D-01 0.557D-01 0.125D+00-0.318D+00 0.202D+00 0.134D+00
 Coeff-Com: -0.951D+00 0.180D+01
 Coeff:     -0.170D-04-0.160D-03 0.279D-02-0.684D-02 0.614D-03 0.437D-01
 Coeff:     -0.916D-01 0.557D-01 0.125D+00-0.318D+00 0.202D+00 0.134D+00
 Coeff:     -0.951D+00 0.180D+01
 Gap=     0.938 Goal=   None    Shift=    0.000
 Gap=     0.663 Goal=   None    Shift=    0.000
 RMSDP=1.00D-04 MaxDP=1.11D-03 DE=-2.98D-06 OVMax= 2.91D-03

 Cycle  15  Pass 1  IDiag  1:
 E= -149.618022899426     Delta-E=       -0.000000593940 Rises=F Damp=F
 DIIS: error= 2.01D-05 at cycle  15 NSaved=  15.
 NSaved=15 IEnMin=15 EnMin= -149.618022899426     IErMin=15 ErrMin= 2.01D-05
 ErrMax= 2.01D-05  0.00D+00 EMaxC= 1.00D-01 BMatC= 1.32D-08 BMatP= 1.05D-07
 IDIUse=1 WtCom= 1.00D+00 WtEn= 0.00D+00
 Coeff-Com:  0.351D-04-0.630D-04-0.316D-03 0.133D-02 0.905D-03-0.135D-01
 Coeff-Com:  0.256D-01-0.250D-01-0.164D-01 0.941D-01-0.703D-01-0.538D-01
 Coeff-Com:  0.573D+00-0.156D+01 0.205D+01
 Coeff:      0.351D-04-0.630D-04-0.316D-03 0.133D-02 0.905D-03-0.135D-01
 Coeff:      0.256D-01-0.250D-01-0.164D-01 0.941D-01-0.703D-01-0.538D-01
 Coeff:      0.573D+00-0.156D+01 0.205D+01
 Gap=     0.938 Goal=   None    Shift=    0.000
 Gap=     0.662 Goal=   None    Shift=    0.000
 RMSDP=2.96D-05 MaxDP=3.22D-04 DE=-5.94D-07 OVMax= 8.50D-04

 Cycle  16  Pass 1  IDiag  1:
 E= -149.618022927948     Delta-E=       -0.000000028522 Rises=F Damp=F
 DIIS: error= 3.01D-06 at cycle  16 NSaved=  16.
 NSaved=16 IEnMin=16 EnMin= -149.618022927948     IErMin=16 ErrMin= 3.01D-06
 ErrMax= 3.01D-06  0.00D+00 EMaxC= 1.00D-01 BMatC= 6.24D-10 BMatP= 1.32D-08
 IDIUse=1 WtCom= 1.00D+00 WtEn= 0.00D+00
 Coeff-Com:  0.565D-05 0.163D-04-0.321D-03 0.572D-03-0.731D-03-0.179D-03
 Coeff-Com:  0.393D-02 0.500D-03-0.184D-01 0.282D-01-0.172D-01 0.146D-01
 Coeff-Com: -0.765D-01 0.287D+00-0.581D+00 0.136D+01
 Coeff:      0.565D-05 0.163D-04-0.321D-03 0.572D-03-0.731D-03-0.179D-03
 Coeff:      0.393D-02 0.500D-03-0.184D-01 0.282D-01-0.172D-01 0.146D-01
 Coeff:     -0.765D-01 0.287D+00-0.581D+00 0.136D+01
 Gap=     0.938 Goal=   None    Shift=    0.000
 Gap=     0.662 Goal=   None    Shift=    0.000
 RMSDP=5.40D-06 MaxDP=6.02D-05 DE=-2.85D-08 OVMax= 1.61D-04

 Cycle  17  Pass 1  IDiag  1:
 E= -149.618022929925     Delta-E=       -0.000000001977 Rises=F Damp=F
 DIIS: error= 7.52D-07 at cycle  17 NSaved=  17.
 NSaved=17 IEnMin=17 EnMin= -149.618022929925     IErMin=17 ErrMin= 7.52D-07
 ErrMax= 7.52D-07  0.00D+00 EMaxC= 1.00D-01 BMatC= 4.49D-11 BMatP= 6.24D-10
 IDIUse=1 WtCom= 1.00D+00 WtEn= 0.00D+00
 Coeff-Com: -0.400D-05 0.171D-04-0.123D-03 0.223D-03-0.905D-04-0.957D-03
 Coeff-Com:  0.270D-02-0.170D-02-0.258D-02 0.560D-02-0.651D-02 0.948D-02
 Coeff-Com: -0.239D-01 0.436D-01-0.383D-01-0.185D+00 0.120D+01
 Coeff:     -0.400D-05 0.171D-04-0.123D-03 0.223D-03-0.905D-04-0.957D-03
 Coeff:      0.270D-02-0.170D-02-0.258D-02 0.560D-02-0.651D-02 0.948D-02
 Coeff:     -0.239D-01 0.436D-01-0.383D-01-0.185D+00 0.120D+01
 Gap=     0.938 Goal=   None    Shift=    0.000
 Gap=     0.662 Goal=   None    Shift=    0.000
 RMSDP=1.36D-06 MaxDP=1.51D-05 DE=-1.98D-09 OVMax= 3.87D-05

 Cycle  18  Pass 1  IDiag  1:
 E= -149.618022930026     Delta-E=       -0.000000000101 Rises=F Damp=F
 DIIS: error= 2.70D-07 at cycle  18 NSaved=  18.
 NSaved=18 IEnMin=18 EnMin= -149.618022930026     IErMin=18 ErrMin= 2.70D-07
 ErrMax= 2.70D-07  0.00D+00 EMaxC= 1.00D-01 BMatC= 3.64D-12 BMatP= 4.49D-11
 IDIUse=1 WtCom= 1.00D+00 WtEn= 0.00D+00
 Coeff-Com: -0.106D-05 0.106D-05 0.307D-05 0.132D-05 0.755D-05-0.897D-05
 Coeff-Com: -0.146D-03 0.976D-04 0.313D-03-0.469D-03 0.880D-03-0.257D-02
 Coeff-Com:  0.670D-02-0.136D-01 0.184D-01 0.364D-01-0.421D+00 0.138D+01
 Coeff:     -0.106D-05 0.106D-05 0.307D-05 0.132D-05 0.755D-05-0.897D-05
 Coeff:     -0.146D-03 0.976D-04 0.313D-03-0.469D-03 0.880D-03-0.257D-02
 Coeff:      0.670D-02-0.136D-01 0.184D-01 0.364D-01-0.421D+00 0.138D+01
 Gap=     0.938 Goal=   None    Shift=    0.000
 Gap=     0.662 Goal=   None    Shift=    0.000
 RMSDP=8.93D-08 MaxDP=6.09D-07 DE=-1.01D-10 OVMax= 2.21D-06

 Cycle  19  Pass 1  IDiag  1:
 E= -149.618022930030     Delta-E=       -0.000000000003 Rises=F Damp=F
 DIIS: error= 1.63D-07 at cycle  19 NSaved=  19.
 NSaved=19 IEnMin=19 EnMin= -149.618022930030     IErMin=19 ErrMin= 1.63D-07
 ErrMax= 1.63D-07  0.00D+00 EMaxC= 1.00D-01 BMatC= 5.61D-13 BMatP= 3.64D-12
 IDIUse=1 WtCom= 1.00D+00 WtEn= 0.00D+00
 Coeff-Com:  0.408D-06-0.134D-05 0.116D-04-0.267D-04 0.712D-05 0.124D-03
 Coeff-Com: -0.253D-03 0.149D-03 0.225D-03-0.605D-03 0.443D-03 0.369D-03
 Coeff-Com: -0.105D-02 0.197D-02-0.263D-02-0.109D-01 0.933D-01-0.563D+00
 Coeff-Com:  0.148D+01
 Coeff:      0.408D-06-0.134D-05 0.116D-04-0.267D-04 0.712D-05 0.124D-03
 Coeff:     -0.253D-03 0.149D-03 0.225D-03-0.605D-03 0.443D-03 0.369D-03
 Coeff:     -0.105D-02 0.197D-02-0.263D-02-0.109D-01 0.933D-01-0.563D+00
 Coeff:      0.148D+01
 Gap=     0.938 Goal=   None    Shift=    0.000
 Gap=     0.662 Goal=   None    Shift=    0.000
 RMSDP=1.49D-07 MaxDP=1.63D-06 DE=-3.24D-12 OVMax= 4.22D-06

 Cycle  20  Pass 1  IDiag  1:
 E= -149.618022930031     Delta-E=       -0.000000000001 Rises=F Damp=F
 DIIS: error= 9.19D-08 at cycle  20 NSaved=  20.
 NSaved=20 IEnMin=20 EnMin= -149.618022930031     IErMin=20 ErrMin= 9.19D-08
 ErrMax= 9.19D-08  0.00D+00 EMaxC= 1.00D-01 BMatC= 1.74D-13 BMatP= 5.61D-13
 IDIUse=1 WtCom= 1.00D+00 WtEn= 0.00D+00
 Coeff-Com:  0.757D-07-0.179D-07-0.602D-05 0.194D-04 0.619D-06-0.128D-03
 Coeff-Com:  0.224D-03-0.181D-03-0.446D-04 0.444D-03-0.341D-03-0.693D-03
 Coeff-Com:  0.303D-02-0.758D-02 0.104D-01-0.147D-02-0.652D-01 0.443D+00
 Coeff-Com: -0.164D+01 0.226D+01
 Coeff:      0.757D-07-0.179D-07-0.602D-05 0.194D-04 0.619D-06-0.128D-03
 Coeff:      0.224D-03-0.181D-03-0.446D-04 0.444D-03-0.341D-03-0.693D-03
 Coeff:      0.303D-02-0.758D-02 0.104D-01-0.147D-02-0.652D-01 0.443D+00
 Coeff:     -0.164D+01 0.226D+01
 Gap=     0.938 Goal=   None    Shift=    0.000
 Gap=     0.662 Goal=   None    Shift=    0.000
 RMSDP=2.57D-08 MaxDP=2.12D-07 DE=-1.34D-12 OVMax= 7.37D-07

 Cycle  21  Pass 1  IDiag  1:
 E= -149.618022930031     Delta-E=       -0.000000000000 Rises=F Damp=F
 DIIS: error= 3.05D-08 at cycle  21 NSaved=  20.
 NSaved=20 IEnMin=20 EnMin= -149.618022930031     IErMin=20 ErrMin= 3.05D-08
 ErrMax= 3.05D-08  0.00D+00 EMaxC= 1.00D-01 BMatC= 4.33D-14 BMatP= 1.74D-13
 IDIUse=1 WtCom= 1.00D+00 WtEn= 0.00D+00
 Large coefficients: NSaved= 20 BigCof=    0.00 CofMax=   10.00 Det=-4.96D-15
 Inversion failed.  Reducing to 19 matrices.
 Large coefficients: NSaved= 19 BigCof=    0.00 CofMax=   10.00 Det=-5.09D-15
 Inversion failed.  Reducing to 18 matrices.
 Large coefficients: NSaved= 18 BigCof=    0.00 CofMax=   10.00 Det=-7.30D-15
 Inversion failed.  Reducing to 17 matrices.
 Large coefficients: NSaved= 17 BigCof=    0.00 CofMax=   10.00 Det=-9.98D-15
 Inversion failed.  Reducing to 16 matrices.
 Coeff-Com:  0.225D-06-0.162D-04 0.413D-04-0.388D-04-0.308D-04 0.116D-03
 Coeff-Com: -0.188D-03 0.140D-03 0.428D-03-0.859D-03 0.231D-02-0.852D-02
 Coeff-Com:  0.500D-01 0.177D+00-0.997D+00 0.178D+01
 Coeff:      0.225D-06-0.162D-04 0.413D-04-0.388D-04-0.308D-04 0.116D-03
 Coeff:     -0.188D-03 0.140D-03 0.428D-03-0.859D-03 0.231D-02-0.852D-02
 Coeff:      0.500D-01 0.177D+00-0.997D+00 0.178D+01
 Gap=     0.938 Goal=   None    Shift=    0.000
 Gap=     0.662 Goal=   None    Shift=    0.000
 RMSDP=2.12D-08 MaxDP=1.74D-07 DE=-2.84D-14 OVMax= 4.86D-07

 Cycle  22  Pass 1  IDiag  1:
 E= -149.618022930031     Delta-E=       -0.000000000000 Rises=F Damp=F
 DIIS: error= 9.14D-09 at cycle  22 NSaved=  17.
 NSaved=17 IEnMin=17 EnMin= -149.618022930031     IErMin=17 ErrMin= 9.14D-09
 ErrMax= 9.14D-09  0.00D+00 EMaxC= 1.00D-01 BMatC= 3.75D-15 BMatP= 4.33D-14
 IDIUse=1 WtCom= 1.00D+00 WtEn= 0.00D+00
 Large coefficients: NSaved= 17 BigCof=    0.00 CofMax=   10.00 Det=-1.87D-15
 Inversion failed.  Reducing to 16 matrices.
 Large coefficients: NSaved= 16 BigCof=    0.00 CofMax=   10.00 Det=-1.87D-15
 Inversion failed.  Reducing to 15 matrices.
 Coeff-Com: -0.223D-05 0.687D-05-0.613D-05-0.916D-05 0.529D-04-0.110D-03
 Coeff-Com:  0.503D-04 0.582D-04 0.262D-03-0.420D-02 0.697D-03-0.171D-01
 Coeff-Com:  0.189D+00-0.659D+00 0.149D+01
 Coeff:     -0.223D-05 0.687D-05-0.613D-05-0.916D-05 0.529D-04-0.110D-03
 Coeff:      0.503D-04 0.582D-04 0.262D-03-0.420D-02 0.697D-03-0.171D-01
 Coeff:      0.189D+00-0.659D+00 0.149D+01
 Gap=     0.938 Goal=   None    Shift=    0.000
 Gap=     0.662 Goal=   None    Shift=    0.000
 RMSDP=4.84D-09 MaxDP=3.02D-08 DE=-8.53D-14 OVMax= 9.45D-08

 SCF Done:  E(UHF) =  -149.618022930     A.U. after   22 cycles
            NFock= 22  Conv=0.48D-08     -V/T= 2.0013
 <Sx>= 0.0000 <Sy>= 0.0000 <Sz>= 1.0000 <S**2>= 2.0324 S= 1.0107
 <L.S>=  0.00000000000    
 KE= 1.494210752012D+02 PE=-4.091605955651D+02 EE= 8.302762423483D+01
 Annihilation of the first spin contaminant:
 S**2 before annihilation     2.0324,   after     2.0005
 Leave Link  502 at Sat Apr  2 12:38:54 2022, MaxMem=   104857600 cpu:               0.1 elap:               0.1
 (Enter /apps/software/g16/l601.exe)
 Copying SCF densities to generalized density rwf, IOpCl= 1 IROHF=0.

 **********************************************************************

            Population analysis using the SCF density.

 **********************************************************************

 Alpha  occ. eigenvalues --  -20.75501 -20.75447  -1.68418  -1.21454  -0.82287
 Alpha  occ. eigenvalues --   -0.82287  -0.74206  -0.56269  -0.56269
 Alpha virt. eigenvalues --    0.37566   1.05357   1.05357   1.05729   1.16464
 Alpha virt. eigenvalues --    1.16486   1.16486   1.32848   1.92195   2.37787
 Alpha virt. eigenvalues --    2.37787   2.64956   2.64962   2.91375   2.91475
 Alpha virt. eigenvalues --    3.02993   3.56608   3.56608   4.16594
  Beta  occ. eigenvalues --  -20.70085 -20.69984  -1.54758  -1.00851  -0.68582
  Beta  occ. eigenvalues --   -0.56014  -0.56014
  Beta virt. eigenvalues --    0.10235   0.10235   0.45301   1.08484   1.17751
  Beta virt. eigenvalues --    1.17751   1.18691   1.29046   1.29046   1.35851
  Beta virt. eigenvalues --    1.97262   2.44882   2.44882   2.76940   2.76953
  Beta virt. eigenvalues --    3.06020   3.06132   3.10129   3.64262   3.64262
  Beta virt. eigenvalues --    4.21354
          Condensed to atoms (all electrons):
               1          2
     1  O    7.820847   0.179153
     2  O    0.179153   7.820847
          Atomic-Atomic Spin Densities.
               1          2
     1  O    1.356206  -0.356206
     2  O   -0.356206   1.356206
 Mulliken charges and spin densities:
               1          2
     1  O   -0.000000   1.000000
     2  O    0.000000   1.000000
 Sum of Mulliken charges =  -0.00000   2.00000
 Mulliken charges and spin densities with hydrogens summed into heavy atoms:
               1          2
     1  O   -0.000000   1.000000
     2  O    0.000000   1.000000
 Electronic spatial extent (au):  <R**2>=             67.1326
 Charge=             -0.0000 electrons
 Dipole moment (field-independent basis, Debye):
    X=             -0.0000    Y=             -0.0000    Z=              0.0000  Tot=              0.0000
 Quadrupole moment (field-independent basis, Debye-Ang):
   XX=             -9.9165   YY=             -9.9165   ZZ=            -10.4227
   XY=              0.0000   XZ=              0.0000   YZ=             -0.0000
 Traceless Quadrupole moment (field-independent basis, Debye-Ang):
   XX=              0.1687   YY=              0.1687   ZZ=             -0.3375
   XY=              0.0000   XZ=              0.0000   YZ=             -0.0000
 Octapole moment (field-independent basis, Debye-Ang**2):
  XXX=             -0.0000  YYY=              0.0000  ZZZ=            -19.5425  XYY=             -0.0000
  XXY=              0.0000  XXZ=             -6.2734  XZZ=              0.0000  YZZ=             -0.0000
  YYZ=             -6.1222  XYZ=             -0.1953
 Hexadecapole moment (field-independent basis, Debye-Ang**3):
 XXXX=             -6.5030 YYYY=             -6.5030 ZZZZ=            -53.6181 XXXY=             -0.0000
 XXXZ=              0.0000 YYYX=              0.0000 YYYZ=              0.0000 ZZZX=              0.0000
 ZZZY=             -0.0000 XXYY=             -2.1677 XXZZ=            -10.1152 YYZZ=             -9.9261
 XXYZ=              0.0000 YYXZ=              0.0000 ZZXY=             -0.2442
 N-N= 2.709387319910D+01 E-N=-4.091605955387D+02  KE= 1.494210752012D+02
                          Isotropic Fermi Contact Couplings
        Atom                 a.u.       MegaHertz       Gauss      10(-4) cm-1
     1  O(17)              0.40639    -123.17610     -43.95230     -41.08712
     2  O(17)              0.40639    -123.17611     -43.95230     -41.08713
 --------------------------------------------------------
       Center         ----  Spin Dipole Couplings  ----
                      3XX-RR        3YY-RR        3ZZ-RR
 --------------------------------------------------------
     1   Atom        1.608367      1.025106     -2.633473
     2   Atom        1.025106      1.608367     -2.633473
 --------------------------------------------------------
                        XY            XZ            YZ
 --------------------------------------------------------
     1   Atom        0.753338      0.000000     -0.000000
     2   Atom       -0.753338      0.000000     -0.000000
 --------------------------------------------------------


 ---------------------------------------------------------------------------------
              Anisotropic Spin Dipole Couplings in Principal Axis System
 ---------------------------------------------------------------------------------

       Atom             a.u.   MegaHertz   Gauss  10(-4) cm-1        Axes

              Baa    -2.6335   190.556    67.995    63.563 -0.0000  0.0000  1.0000
     1 O(17)  Bbb     0.5089   -36.825   -13.140   -12.284 -0.5652  0.8249 -0.0000
              Bcc     2.1246  -153.731   -54.855   -51.279  0.8249  0.5652  0.0000
 
              Baa    -2.6335   190.556    67.995    63.563 -0.0000  0.0000  1.0000
     2 O(17)  Bbb     0.5089   -36.825   -13.140   -12.284  0.8249  0.5652  0.0000
              Bcc     2.1246  -153.731   -54.855   -51.279 -0.5652  0.8249 -0.0000
 

 ---------------------------------------------------------------------------------

 No NMR shielding tensors so no spin-rotation constants.
 Leave Link  601 at Sat Apr  2 12:38:54 2022, MaxMem=   104857600 cpu:               0.1 elap:               0.1
 (Enter /apps/software/g16/l801.exe)
 Range of M.O.s used for correlation:     1    28
 NBasis=    28 NAE=     9 NBE=     7 NFC=     0 NFV=     0
 NROrb=     28 NOA=     9 NOB=     7 NVA=    19 NVB=    21
 Leave Link  801 at Sat Apr  2 12:38:54 2022, MaxMem=   104857600 cpu:               0.0 elap:               0.0
 (Enter /apps/software/g16/l914.exe)
 UHF ground state
 Doing stability rather than CIS.
 Keep R1 and R2 ints in memory in canonical form, NReq=1001317.
 FoFCou: FMM=F IPFlag=           0 FMFlag=           0 FMFlg1=           0
         NFxFlg=           0 DoJE=F BraDBF=F KetDBF=F FulRan=T
         wScrn=  0.000000 ICntrl=       600 IOpCl=  0 I1Cent=           0 NGrid=           0
         NMat0=    1 NMatS0=    406 NMatT0=    0 NMatD0=    1 NMtDS0=    0 NMtDT0=    0
 Symmetry not used in FoFCou.
 Two-electron integral symmetry not used.
 MDV=   104857600 DFT=F DoStab=T Mixed=F DoRPA=F DoScal=F NonHer=F
 Making orbital integer symmetry assigments:
    12 initial guesses have been made.
 Convergence on wavefunction:    0.001000000000000
 Davidson Disk Diagonalization:  ConvIn= 1.00D-03 SkipCon=T Conv= 1.00D-03.
 Max sub-space:   636 roots to seek:    12 dimension of matrix:          318
 Iteration     1 Dimension    12 NMult     0 NNew     12
 CISAX will form    12 AO SS matrices at one time.
 NMat=    12 NSing=    12 JSym2X= 0.
 New state      1 was old state      2
 Excitation Energies [eV] at current iteration:
 Root      1 :     0.256884591607927
 Root      2 :     0.905270224759910
 Root      3 :     6.053237103531512
 Root      4 :     6.053237152363494
 Root      5 :     6.232343672831314
 Root      6 :     7.894288062911558
 Root      7 :    10.884924236565151
 Root      8 :    10.884924334564296
 Root      9 :    11.178028758904874
 Root     10 :    15.093443581423207
 Root     11 :    15.093443617919229
 Root     12 :    36.019374413784966
 Iteration     2 Dimension    24 NMult    12 NNew     12
 CISAX will form    12 AO SS matrices at one time.
 NMat=    12 NSing=    12 JSym2X= 0.
 Root      1 not converged, maximum delta is    0.029927985007785
 Excitation Energies [eV] at current iteration:
 Root      1 :     0.003276544410548   Change is   -0.253608047197379
 Root      2 :     0.604095356039758   Change is   -0.301174868720152
 Root      3 :     4.636549422245150   Change is   -1.595794250586165
 Root      4 :     5.254588330626367   Change is   -0.798648772905144
 Root      5 :     5.254588376759832   Change is   -0.798648775603662
 Root      6 :     7.685000130915897   Change is   -0.209287931995661
 Root      7 :     9.657776041258057   Change is   -1.520252717646817
 Root      8 :    10.120479118456180   Change is   -0.764445118108971
 Root      9 :    10.120479204993652   Change is   -0.764445129570644
 Root     10 :    13.953919174049130   Change is   -1.139524407374076
 Root     11 :    13.953919199710461   Change is   -1.139524418208768
 Root     12 :    22.998109059072643   Change is  -13.021265354712327
 Iteration     3 Dimension    27 NMult    24 NNew      3
 CISAX will form     3 AO SS matrices at one time.
 NMat=     3 NSing=     3 JSym2X= 0.
 Root      1 not converged, maximum delta is    0.005484158037959
 Excitation Energies [eV] at current iteration:
 Root      1 :     0.000043884772341   Change is   -0.003232659638207
 Root      2 :     0.596750758418078   Change is   -0.007344597621680
 Root      3 :     4.524127914614858   Change is   -0.112421507630292
 Iteration     4 Dimension    30 NMult    27 NNew      3
 CISAX will form     3 AO SS matrices at one time.
 NMat=     3 NSing=     3 JSym2X= 0.
 Root      1 has converged.
 Excitation Energies [eV] at current iteration:
 Root      1 :     0.000000223615711   Change is   -0.000043661156630
 Root      2 :     0.596313216519527   Change is   -0.000437541898551
 Root      3 :     4.519692927992423   Change is   -0.004434986622434
 Convergence achieved on expansion vectors.
 ***********************************************************************
 Stability analysis using <AA,BB:AA,BB> singles matrix:
 ***********************************************************************
 1PDM for each excited state written to RWF  633
 Ground to excited state transition densities written to RWF  633

 Eigenvectors of the stability matrix:
 
 Excited state symmetry could not be determined.
 Eigenvector   1:  3.017-?Sym  Eigenvalue= 0.0000000  <S**2>=2.026
      6B ->  8B        0.66209
      6B ->  9B       -0.22699
      7B ->  8B        0.22699
      7B ->  9B        0.66209
 The wavefunction is stable under the perturbations considered.
 Leave Link  914 at Sat Apr  2 12:38:54 2022, MaxMem=   104857600 cpu:               0.1 elap:               0.1
 (Enter /apps/software/g16/l508.exe)
 The wavefunction is already stable.
 Leave Link  508 at Sat Apr  2 12:38:54 2022, MaxMem=   104857600 cpu:               0.0 elap:               0.0
 (Enter /apps/software/g16/l601.exe)
 Copying SCF densities to generalized density rwf, IOpCl= 1 IROHF=0.

 **********************************************************************

            Population analysis using the SCF density.

 **********************************************************************

 Alpha  occ. eigenvalues --  -20.75501 -20.75447  -1.68418  -1.21454  -0.82287
 Alpha  occ. eigenvalues --   -0.82287  -0.74206  -0.56269  -0.56269
 Alpha virt. eigenvalues --    0.37566   1.05357   1.05357   1.05729   1.16464
 Alpha virt. eigenvalues --    1.16486   1.16486   1.32848   1.92195   2.37787
 Alpha virt. eigenvalues --    2.37787   2.64956   2.64962   2.91375   2.91475
 Alpha virt. eigenvalues --    3.02993   3.56608   3.56608   4.16594
  Beta  occ. eigenvalues --  -20.70085 -20.69984  -1.54758  -1.00851  -0.68582
  Beta  occ. eigenvalues --   -0.56014  -0.56014
  Beta virt. eigenvalues --    0.10235   0.10235   0.45301   1.08484   1.17751
  Beta virt. eigenvalues --    1.17751   1.18691   1.29046   1.29046   1.35851
  Beta virt. eigenvalues --    1.97262   2.44882   2.44882   2.76940   2.76953
  Beta virt. eigenvalues --    3.06020   3.06132   3.10129   3.64262   3.64262
  Beta virt. eigenvalues --    4.21354
          Condensed to atoms (all electrons):
               1          2
     1  O    7.820847   0.179153
     2  O    0.179153   7.820847
          Atomic-Atomic Spin Densities.
               1          2
     1  O    1.356206  -0.356206
     2  O   -0.356206   1.356206
 Mulliken charges and spin densities:
               1          2
     1  O   -0.000000   1.000000
     2  O    0.000000   1.000000
 Sum of Mulliken charges =  -0.00000   2.00000
 Mulliken charges and spin densities with hydrogens summed into heavy atoms:
               1          2
     1  O   -0.000000   1.000000
     2  O    0.000000   1.000000
 Electronic spatial extent (au):  <R**2>=             67.1326
 Charge=             -0.0000 electrons
 Dipole moment (field-independent basis, Debye):
    X=             -0.0000    Y=             -0.0000    Z=              0.0000  Tot=              0.0000
 Quadrupole moment (field-independent basis, Debye-Ang):
   XX=             -9.9165   YY=             -9.9165   ZZ=            -10.4227
   XY=              0.0000   XZ=              0.0000   YZ=             -0.0000
 Traceless Quadrupole moment (field-independent basis, Debye-Ang):
   XX=              0.1687   YY=              0.1687   ZZ=             -0.3375
   XY=              0.0000   XZ=              0.0000   YZ=             -0.0000
 Octapole moment (field-independent basis, Debye-Ang**2):
  XXX=             -0.0000  YYY=              0.0000  ZZZ=            -19.5425  XYY=             -0.0000
  XXY=              0.0000  XXZ=             -6.2734  XZZ=              0.0000  YZZ=             -0.0000
  YYZ=             -6.1222  XYZ=             -0.1953
 Hexadecapole moment (field-independent basis, Debye-Ang**3):
 XXXX=             -6.5030 YYYY=             -6.5030 ZZZZ=            -53.6181 XXXY=             -0.0000
 XXXZ=              0.0000 YYYX=              0.0000 YYYZ=              0.0000 ZZZX=              0.0000
 ZZZY=             -0.0000 XXYY=             -2.1677 XXZZ=            -10.1152 YYZZ=             -9.9261
 XXYZ=              0.0000 YYXZ=              0.0000 ZZXY=             -0.2442
 N-N= 2.709387319910D+01 E-N=-4.091605955387D+02  KE= 1.494210752012D+02
                          Isotropic Fermi Contact Couplings
        Atom                 a.u.       MegaHertz       Gauss      10(-4) cm-1
     1  O(17)              0.40639    -123.17610     -43.95230     -41.08712
     2  O(17)              0.40639    -123.17611     -43.95230     -41.08713
 --------------------------------------------------------
       Center         ----  Spin Dipole Couplings  ----
                      3XX-RR        3YY-RR        3ZZ-RR
 --------------------------------------------------------
     1   Atom        1.608367      1.025106     -2.633473
     2   Atom        1.025106      1.608367     -2.633473
 --------------------------------------------------------
                        XY            XZ            YZ
 --------------------------------------------------------
     1   Atom        0.753338      0.000000     -0.000000
     2   Atom       -0.753338      0.000000     -0.000000
 --------------------------------------------------------


 ---------------------------------------------------------------------------------
              Anisotropic Spin Dipole Couplings in Principal Axis System
 ---------------------------------------------------------------------------------

       Atom             a.u.   MegaHertz   Gauss  10(-4) cm-1        Axes

              Baa    -2.6335   190.556    67.995    63.563 -0.0000  0.0000  1.0000
     1 O(17)  Bbb     0.5089   -36.825   -13.140   -12.284 -0.5652  0.8249 -0.0000
              Bcc     2.1246  -153.731   -54.855   -51.279  0.8249  0.5652  0.0000
 
              Baa    -2.6335   190.556    67.995    63.563 -0.0000  0.0000  1.0000
     2 O(17)  Bbb     0.5089   -36.825   -13.140   -12.284  0.8249  0.5652  0.0000
              Bcc     2.1246  -153.731   -54.855   -51.279 -0.5652  0.8249 -0.0000
 

 ---------------------------------------------------------------------------------

 No NMR shielding tensors so no spin-rotation constants.
 Leave Link  601 at Sat Apr  2 12:38:54 2022, MaxMem=   104857600 cpu:               0.1 elap:               0.1
 (Enter /apps/software/g16/l9999.exe)
 1\1\GINC-CNODE05\Stability\UHF\CC-pVDZ\O2(3)\ROOT\02-Apr-2022\0\\#p UH
 F/cc-pVDZ nosymm guess=mix stable=opt\\O2 SP\\0,3\O,0,0.,0.,0.\O,0,0.,
 0.,1.25\\Version=ES64L-G16RevA.03\HF=-149.6180229\S2=2.032354\S2-1=0.\
 S2A=2.000542\RMSD=4.839e-09\Dipole=0.,0.,0.\Quadrupole=0.125456,0.1254
 56,-0.250912,0.,0.,0.\PG=D*H [C*(O1.O1)]\\@


 Any fool can criticize, condemn, and complain -- and most do.
 -- Dale Carnegie
 Job cpu time:       0 days  0 hours  0 minutes  1.0 seconds.
 Elapsed time:       0 days  0 hours  0 minutes  1.0 seconds.
 File lengths (MBytes):  RWF=      8 Int=      0 D2E=      0 Chk=      2 Scr=      1
 Normal termination of Gaussian 16 at Sat Apr  2 12:38:54 2022.

Sender: Unischeduler System <lcz@mgt01>
Subject: Job 113622: <#!/bin/bash
#BSUB -J intel
#BSUB -o O2.out
#BSUB -n 8
#BSUB -q cqueue
#BSUB -R span[hosts=1]
export g16root=/apps/software
source /apps/software/g16/bsd/g16.profile
export GAUSS_SCRDIR=/scratch
/apps/software/g16/g16 < O2.gjf > O2.out> Done

Job <#!/bin/bash
#BSUB -J intel
#BSUB -o O2.out
#BSUB -n 8
#BSUB -q cqueue
#BSUB -R span[hosts=1]
export g16root=/apps/software
source /apps/software/g16/bsd/g16.profile
export GAUSS_SCRDIR=/scratch
/apps/software/g16/g16 < O2.gjf > O2.out> was submitted from host <mgt01> by user <lcz>.
Job was executed on host(s) <8*cnode05>, in queue <cqueue>, as user <lcz>.
</apps/users/lcz> was used as the home directory.
</apps/users/lcz/exe4/task4/O2/triplet> was used as the working directory.
Started at 2022-04-02 12:38:53
Results reported at 2022-04-02 12:38:54

Your job looked like:

------------------------------------------------------------
# User input
#!/bin/bash
#BSUB -J intel
#BSUB -o O2.out
#BSUB -n 8
#BSUB -q cqueue
#BSUB -R span[hosts=1]
export g16root=/apps/software
source /apps/software/g16/bsd/g16.profile
export GAUSS_SCRDIR=/scratch
/apps/software/g16/g16 < O2.gjf > O2.out
------------------------------------------------------------

Successfully completed.

Resource usage summary:

    CPU time   :            0.99 sec.
    Max Memory :               198 MB
    Max Processes  :               5


The output (if any) follows:

