[Molden Format]
[N_ATOMS]
           12
[Atoms]  AU
C     1    6       2.288567        1.321231       -0.000000
C     2    6       0.000000        2.642354       -0.000000
C     3    6      -2.288567        1.321231        0.000000
C     4    6      -2.288567       -1.321231       -0.000000
C     5    6      -0.000000       -2.642354       -0.000000
C     6    6       2.288567       -1.321231       -0.000000
H     7    1       4.076666        2.353666        0.000000
H     8    1      -0.000000        4.707134       -0.000000
H     9    1      -4.076666        2.353666        0.000000
H    10    1      -4.076666       -2.353666        0.000000
H    11    1      -0.000000       -4.707134       -0.000000
H    12    1       4.076666       -2.353666        0.000000
[5D7F9G]
[GTO]
    1
    s    8
   0.666500000E+04   0.691583963E-03
   0.100000000E+04   0.532579615E-02
   0.228000000E+03   0.270607210E-01
   0.647100000E+02   0.101656846E+00
   0.210600000E+02   0.274574824E+00
   0.749500000E+01   0.448294319E+00
   0.279700000E+01   0.284902611E+00
   0.521500000E+00   0.151948592E-01
    s    8
   0.666500000E+04  -0.293269653E-03
   0.100000000E+04  -0.231803547E-02
   0.228000000E+03  -0.114997860E-01
   0.647100000E+02  -0.468267270E-01
   0.210600000E+02  -0.128466169E+00
   0.749500000E+01  -0.301266272E+00
   0.279700000E+01  -0.255630702E+00
   0.521500000E+00   0.109379336E+01
    s    1
   0.159600000E+00   0.100000000E+01
    p    3
   0.943900000E+01   0.569792516E-01
   0.200200000E+01   0.313207212E+00
   0.545600000E+00   0.760376742E+00
    p    1
   0.151700000E+00   0.100000000E+01
    d    1
   0.550000000E+00   0.100000000E+01
 
    2
    s    8
   0.666500000E+04   0.691583963E-03
   0.100000000E+04   0.532579615E-02
   0.228000000E+03   0.270607210E-01
   0.647100000E+02   0.101656846E+00
   0.210600000E+02   0.274574824E+00
   0.749500000E+01   0.448294319E+00
   0.279700000E+01   0.284902611E+00
   0.521500000E+00   0.151948592E-01
    s    8
   0.666500000E+04  -0.293269653E-03
   0.100000000E+04  -0.231803547E-02
   0.228000000E+03  -0.114997860E-01
   0.647100000E+02  -0.468267270E-01
   0.210600000E+02  -0.128466169E+00
   0.749500000E+01  -0.301266272E+00
   0.279700000E+01  -0.255630702E+00
   0.521500000E+00   0.109379336E+01
    s    1
   0.159600000E+00   0.100000000E+01
    p    3
   0.943900000E+01   0.569792516E-01
   0.200200000E+01   0.313207212E+00
   0.545600000E+00   0.760376742E+00
    p    1
   0.151700000E+00   0.100000000E+01
    d    1
   0.550000000E+00   0.100000000E+01
 
    3
    s    8
   0.666500000E+04   0.691583963E-03
   0.100000000E+04   0.532579615E-02
   0.228000000E+03   0.270607210E-01
   0.647100000E+02   0.101656846E+00
   0.210600000E+02   0.274574824E+00
   0.749500000E+01   0.448294319E+00
   0.279700000E+01   0.284902611E+00
   0.521500000E+00   0.151948592E-01
    s    8
   0.666500000E+04  -0.293269653E-03
   0.100000000E+04  -0.231803547E-02
   0.228000000E+03  -0.114997860E-01
   0.647100000E+02  -0.468267270E-01
   0.210600000E+02  -0.128466169E+00
   0.749500000E+01  -0.301266272E+00
   0.279700000E+01  -0.255630702E+00
   0.521500000E+00   0.109379336E+01
    s    1
   0.159600000E+00   0.100000000E+01
    p    3
   0.943900000E+01   0.569792516E-01
   0.200200000E+01   0.313207212E+00
   0.545600000E+00   0.760376742E+00
    p    1
   0.151700000E+00   0.100000000E+01
    d    1
   0.550000000E+00   0.100000000E+01
 
    4
    s    8
   0.666500000E+04   0.691583963E-03
   0.100000000E+04   0.532579615E-02
   0.228000000E+03   0.270607210E-01
   0.647100000E+02   0.101656846E+00
   0.210600000E+02   0.274574824E+00
   0.749500000E+01   0.448294319E+00
   0.279700000E+01   0.284902611E+00
   0.521500000E+00   0.151948592E-01
    s    8
   0.666500000E+04  -0.293269653E-03
   0.100000000E+04  -0.231803547E-02
   0.228000000E+03  -0.114997860E-01
   0.647100000E+02  -0.468267270E-01
   0.210600000E+02  -0.128466169E+00
   0.749500000E+01  -0.301266272E+00
   0.279700000E+01  -0.255630702E+00
   0.521500000E+00   0.109379336E+01
    s    1
   0.159600000E+00   0.100000000E+01
    p    3
   0.943900000E+01   0.569792516E-01
   0.200200000E+01   0.313207212E+00
   0.545600000E+00   0.760376742E+00
    p    1
   0.151700000E+00   0.100000000E+01
    d    1
   0.550000000E+00   0.100000000E+01
 
    5
    s    8
   0.666500000E+04   0.691583963E-03
   0.100000000E+04   0.532579615E-02
   0.228000000E+03   0.270607210E-01
   0.647100000E+02   0.101656846E+00
   0.210600000E+02   0.274574824E+00
   0.749500000E+01   0.448294319E+00
   0.279700000E+01   0.284902611E+00
   0.521500000E+00   0.151948592E-01
    s    8
   0.666500000E+04  -0.293269653E-03
   0.100000000E+04  -0.231803547E-02
   0.228000000E+03  -0.114997860E-01
   0.647100000E+02  -0.468267270E-01
   0.210600000E+02  -0.128466169E+00
   0.749500000E+01  -0.301266272E+00
   0.279700000E+01  -0.255630702E+00
   0.521500000E+00   0.109379336E+01
    s    1
   0.159600000E+00   0.100000000E+01
    p    3
   0.943900000E+01   0.569792516E-01
   0.200200000E+01   0.313207212E+00
   0.545600000E+00   0.760376742E+00
    p    1
   0.151700000E+00   0.100000000E+01
    d    1
   0.550000000E+00   0.100000000E+01
 
    6
    s    8
   0.666500000E+04   0.691583963E-03
   0.100000000E+04   0.532579615E-02
   0.228000000E+03   0.270607210E-01
   0.647100000E+02   0.101656846E+00
   0.210600000E+02   0.274574824E+00
   0.749500000E+01   0.448294319E+00
   0.279700000E+01   0.284902611E+00
   0.521500000E+00   0.151948592E-01
    s    8
   0.666500000E+04  -0.293269653E-03
   0.100000000E+04  -0.231803547E-02
   0.228000000E+03  -0.114997860E-01
   0.647100000E+02  -0.468267270E-01
   0.210600000E+02  -0.128466169E+00
   0.749500000E+01  -0.301266272E+00
   0.279700000E+01  -0.255630702E+00
   0.521500000E+00   0.109379336E+01
    s    1
   0.159600000E+00   0.100000000E+01
    p    3
   0.943900000E+01   0.569792516E-01
   0.200200000E+01   0.313207212E+00
   0.545600000E+00   0.760376742E+00
    p    1
   0.151700000E+00   0.100000000E+01
    d    1
   0.550000000E+00   0.100000000E+01
 
    7
    s    3
   0.130100000E+02   0.334987264E-01
   0.196200000E+01   0.234800801E+00
   0.444600000E+00   0.813682958E+00
    s    1
   0.122000000E+00   0.100000000E+01
    p    1
   0.727000000E+00   0.100000000E+01
 
    8
    s    3
   0.130100000E+02   0.334987264E-01
   0.196200000E+01   0.234800801E+00
   0.444600000E+00   0.813682958E+00
    s    1
   0.122000000E+00   0.100000000E+01
    p    1
   0.727000000E+00   0.100000000E+01
 
    9
    s    3
   0.130100000E+02   0.334987264E-01
   0.196200000E+01   0.234800801E+00
   0.444600000E+00   0.813682958E+00
    s    1
   0.122000000E+00   0.100000000E+01
    p    1
   0.727000000E+00   0.100000000E+01
 
   10
    s    3
   0.130100000E+02   0.334987264E-01
   0.196200000E+01   0.234800801E+00
   0.444600000E+00   0.813682958E+00
    s    1
   0.122000000E+00   0.100000000E+01
    p    1
   0.727000000E+00   0.100000000E+01
 
   11
    s    3
   0.130100000E+02   0.334987264E-01
   0.196200000E+01   0.234800801E+00
   0.444600000E+00   0.813682958E+00
    s    1
   0.122000000E+00   0.100000000E+01
    p    1
   0.727000000E+00   0.100000000E+01
 
   12
    s    3
   0.130100000E+02   0.334987264E-01
   0.196200000E+01   0.234800801E+00
   0.444600000E+00   0.813682958E+00
    s    1
   0.122000000E+00   0.100000000E+01
    p    1
   0.727000000E+00   0.100000000E+01
 
[MO]
 Sym= A   
 Ene=         0.000000
 Spin= Alpha
 Occup=       0.000000
   1        0.408843567
   2        0.001415922
   3       -0.001834453
   4        0.000075906
   5        0.000043824
   6       -0.000000000
   7       -0.000198211
   8       -0.000114589
   9        0.000000000
  10       -0.000061358
  11        0.000000000
  12       -0.000000001
  13        0.000044674
  14        0.000077399
  15        0.408703420
  16        0.001415230
  17       -0.001832748
  18        0.000000007
  19        0.000087580
  20        0.000000000
  21       -0.000000027
  22       -0.000229360
  23        0.000000003
  24       -0.000061184
  25       -0.000000003
  26       -0.000000004
  27       -0.000089302
  28       -0.000000002
  29        0.408860776
  30        0.001415993
  31       -0.001834600
  32       -0.000075900
  33        0.000043825
  34       -0.000000001
  35        0.000198181
  36       -0.000114607
  37       -0.000000004
  38       -0.000061356
  39       -0.000000005
  40        0.000000002
  41        0.000044676
  42       -0.000077375
  43        0.408864931
  44        0.001416012
  45       -0.001834624
  46       -0.000075907
  47       -0.000043826
  48       -0.000000000
  49        0.000198189
  50        0.000114600
  51       -0.000000001
  52       -0.000061361
  53       -0.000000004
  54        0.000000005
  55        0.000044676
  56        0.000077402
  57        0.408707231
  58        0.001415246
  59       -0.001832778
  60       -0.000000005
  61       -0.000087580
  62        0.000000001
  63       -0.000000031
  64        0.000229358
  65        0.000000005
  66       -0.000061185
  67        0.000000000
  68        0.000000007
  69       -0.000089301
  70       -0.000000001
  71        0.408843576
  72        0.001415921
  73       -0.001834464
  74        0.000075900
  75       -0.000043823
  76       -0.000000000
  77       -0.000198209
  78        0.000114579
  79       -0.000000003
  80       -0.000061354
  81        0.000000006
  82        0.000000001
  83        0.000044674
  84       -0.000077374
  85       -0.000137248
  86        0.000683292
  87        0.000120524
  88        0.000069589
  89        0.000000000
  90       -0.000137089
  91        0.000683243
  92       -0.000000000
  93        0.000139036
  94        0.000000001
  95       -0.000137238
  96        0.000683309
  97       -0.000120518
  98        0.000069592
  99       -0.000000001
 100       -0.000137254
 101        0.000683315
 102       -0.000120532
 103       -0.000069594
 104       -0.000000000
 105       -0.000137090
 106        0.000683247
 107        0.000000000
 108       -0.000139037
 109        0.000000002
 110       -0.000137234
 111        0.000683291
 112        0.000120513
 113       -0.000069588
 114       -0.000000001
 Sym= A   
 Ene=         0.000000
 Spin= Alpha
 Occup=       0.000000
   1        0.502519641
   2        0.002118852
   3       -0.004003861
   4        0.000022295
   5        0.000038341
   6       -0.000000001
   7        0.000660679
   8       -0.000487675
   9        0.000000001
  10       -0.000060747
  11        0.000000000
  12       -0.000000003
  13        0.000038301
  14        0.000050255
  15        0.003134765
  16        0.000013222
  17       -0.000024976
  18       -0.000044546
  19        0.000000236
  20        0.000000000
  21        0.001519679
  22        0.000002056
  23       -0.000000001
  24       -0.000000380
  25        0.000000005
  26        0.000000002
  27       -0.000000372
  28        0.000016309
  29       -0.499380997
  30       -0.002105634
  31        0.003978957
  32        0.000021866
  33       -0.000038579
  34        0.000000002
  35        0.000666053
  36        0.000500993
  37        0.000000003
  38        0.000060364
  39        0.000000002
  40       -0.000000005
  41       -0.000038225
  42        0.000049788
  43       -0.502508971
  44       -0.002118821
  45        0.004003847
  46        0.000022292
  47        0.000038340
  48        0.000000001
  49        0.000660702
  50       -0.000487670
  51       -0.000000001
  52        0.000060749
  53        0.000000002
  54       -0.000000008
  55       -0.000038301
  56       -0.000050252
  57       -0.003111736
  58       -0.000013133
  59        0.000024823
  60       -0.000044546
  61        0.000000232
  62       -0.000000000
  63        0.001519681
  64        0.000002045
  65        0.000000001
  66        0.000000372
  67        0.000000011
  68        0.000000001
  69        0.000000368
  70       -0.000016309
  71        0.499394550
  72        0.002105678
  73       -0.003979002
  74        0.000021870
  75       -0.000038580
  76       -0.000000002
  77        0.000666036
  78        0.000500992
  79       -0.000000003
  80       -0.000060364
  81        0.000000003
  82        0.000000000
  83        0.000038225
  84       -0.000049792
  85       -0.000140272
  86        0.000522262
  87        0.000180501
  88        0.000109880
  89        0.000000000
  90       -0.000000867
  91        0.000003257
  92       -0.000009903
  93        0.000001312
  94       -0.000000001
  95        0.000139368
  96       -0.000518983
  97        0.000179295
  98       -0.000109296
  99        0.000000001
 100        0.000140270
 101       -0.000522237
 102        0.000180499
 103        0.000109879
 104       -0.000000001
 105        0.000000858
 106       -0.000003228
 107       -0.000009903
 108        0.000001302
 109        0.000000000
 110       -0.000139373
 111        0.000519008
 112        0.000179299
 113       -0.000109298
 114       -0.000000000
 Sym= A   
 Ene=         0.000000
 Spin= Alpha
 Occup=       0.000000
   1        0.286565540
   2        0.001208315
   3       -0.002283516
   4        0.000038369
   5       -0.000022521
   6        0.000000001
   7       -0.000497624
   8        0.001236751
   9       -0.000000001
  10       -0.000034712
  11        0.000000002
  12       -0.000000000
  13        0.000005682
  14        0.000038216
  15        0.578400660
  16        0.002438747
  17       -0.004607847
  18        0.000000239
  19        0.000044237
  20        0.000000001
  21       -0.000008217
  22        0.000377828
  23        0.000000004
  24       -0.000069809
  25       -0.000000005
  26       -0.000000004
  27       -0.000071870
  28       -0.000000088
  29        0.291983383
  30        0.001231163
  31       -0.002326709
  32       -0.000038611
  33       -0.000022105
  34       -0.000000000
  35        0.000490437
  36        0.001231421
  37       -0.000000003
  38       -0.000035372
  39       -0.000000008
  40       -0.000000006
  41        0.000006094
  42       -0.000038763
  43       -0.286568662
  44       -0.001208332
  45        0.002283569
  46        0.000038369
  47       -0.000022522
  48       -0.000000001
  49       -0.000497612
  50        0.001236763
  51        0.000000002
  52        0.000034717
  53        0.000000007
  54       -0.000000003
  55       -0.000005681
  56       -0.000038216
  57       -0.578398987
  58       -0.002438743
  59        0.004607847
  60        0.000000238
  61        0.000044236
  62       -0.000000001
  63       -0.000008207
  64        0.000377832
  65       -0.000000006
  66        0.000069809
  67       -0.000000001
  68       -0.000000007
  69        0.000071870
  70        0.000000086
  71       -0.291973860
  72       -0.001231122
  73        0.002326620
  74       -0.000038609
  75       -0.000022106
  76        0.000000000
  77        0.000490450
  78        0.001231411
  79        0.000000003
  80        0.000035366
  81       -0.000000008
  82       -0.000000004
  83       -0.000006094
  84        0.000038761
  85       -0.000080131
  86        0.000297745
  87        0.000108703
  88        0.000052831
  89       -0.000000001
  90       -0.000161299
  91        0.000601054
  92        0.000000054
  93        0.000243052
  94        0.000000001
  95       -0.000081650
  96        0.000303367
  97       -0.000110653
  98        0.000054018
  99       -0.000000001
 100        0.000080134
 101       -0.000297743
 102        0.000108706
 103        0.000052832
 104        0.000000002
 105        0.000161299
 106       -0.000601050
 107        0.000000054
 108        0.000243052
 109       -0.000000002
 110        0.000081645
 111       -0.000303359
 112       -0.000110648
 113        0.000054015
 114        0.000000001
 Sym= A   
 Ene=         0.000000
 Spin= Alpha
 Occup=       0.000000
   1        0.504234515
   2        0.002338423
   3       -0.005703346
   4        0.000042065
   5       -0.000010138
   6       -0.000000000
   7        0.000988258
   8        0.000973975
   9       -0.000000001
  10       -0.000435366
  11        0.000000002
  12       -0.000000001
  13       -0.000038136
  14        0.000069838
  15       -0.006115256
  16       -0.000028357
  17        0.000069103
  18       -0.000060784
  19       -0.000000379
  20       -0.000000000
  21        0.000712224
  22       -0.000016257
  23       -0.000000002
  24        0.000005278
  25        0.000000007
  26        0.000000002
  27        0.000000495
  28        0.000138447
  29       -0.498124223
  30       -0.002310093
  31        0.005634341
  32        0.000042298
  33        0.000011294
  34        0.000000001
  35        0.000967706
  36       -0.000977151
  37        0.000000003
  38        0.000430099
  39        0.000000003
  40        0.000000004
  41        0.000040579
  42        0.000070688
  43        0.504244421
  44        0.002338478
  45       -0.005703590
  46       -0.000042065
  47        0.000010138
  48       -0.000000001
  49       -0.000988349
  50       -0.000974011
  51       -0.000000002
  52       -0.000435386
  53       -0.000000003
  54        0.000000001
  55       -0.000038135
  56        0.000069840
  57       -0.006137583
  58       -0.000028465
  59        0.000069446
  60        0.000060784
  61        0.000000379
  62       -0.000000000
  63       -0.000712219
  64        0.000016362
  65       -0.000000001
  66        0.000005299
  67       -0.000000010
  68       -0.000000001
  69        0.000000499
  70        0.000138447
  71       -0.498111370
  72       -0.002310025
  73        0.005634073
  74       -0.000042298
  75       -0.000011294
  76        0.000000001
  77       -0.000967610
  78        0.000977118
  79        0.000000003
  80        0.000430079
  81       -0.000000004
  82       -0.000000004
  83        0.000040580
  84        0.000070685
  85       -0.000297042
  86        0.000213143
  87        0.000298583
  88        0.000165780
  89       -0.000000000
  90        0.000003598
  91       -0.000002591
  92       -0.000011707
  93       -0.000004139
  94       -0.000000001
  95        0.000293458
  96       -0.000210543
  97        0.000295114
  98       -0.000163530
  99       -0.000000000
 100       -0.000297054
 101        0.000213130
 102       -0.000298592
 103       -0.000165785
 104       -0.000000001
 105        0.000003614
 106       -0.000002591
 107        0.000011707
 108        0.000004154
 109       -0.000000000
 110        0.000293445
 111       -0.000210553
 112       -0.000295105
 113        0.000163524
 114       -0.000000000
 Sym= A   
 Ene=         0.000000
 Spin= Alpha
 Occup=       0.000000
   1       -0.283983311
   2       -0.001317068
   3        0.003212438
   4        0.000011198
   5       -0.000054718
   6       -0.000000000
   7       -0.000965417
   8        0.000158842
   9       -0.000000002
  10        0.000245239
  11        0.000000000
  12        0.000000002
  13       -0.000116019
  14        0.000040166
  15        0.578780025
  16        0.002683882
  17       -0.006545850
  18       -0.000000647
  19        0.000036026
  20        0.000000001
  21        0.000007526
  22        0.001541139
  23        0.000000002
  24       -0.000499681
  25       -0.000000001
  26        0.000000000
  27       -0.000047332
  28        0.000001466
  29       -0.294585548
  30       -0.001366239
  31        0.003332394
  32       -0.000010310
  33       -0.000054490
  34        0.000000000
  35        0.000986116
  36        0.000138179
  37        0.000000000
  38        0.000254395
  39       -0.000000004
  40       -0.000000005
  41       -0.000115185
  42       -0.000038697
  43       -0.283980092
  44       -0.001317056
  45        0.003212440
  46       -0.000011198
  47        0.000054718
  48       -0.000000000
  49        0.000965423
  50       -0.000158825
  51       -0.000000003
  52        0.000245242
  53       -0.000000004
  54       -0.000000002
  55       -0.000116019
  56        0.000040165
  57        0.578781516
  58        0.002683890
  59       -0.006545889
  60        0.000000647
  61       -0.000036027
  62        0.000000001
  63       -0.000007546
  64       -0.001541155
  65        0.000000004
  66       -0.000499685
  67        0.000000001
  68       -0.000000000
  69       -0.000047333
  70        0.000001466
  71       -0.294594914
  72       -0.001366281
  73        0.003332497
  74        0.000010310
  75        0.000054491
  76        0.000000000
  77       -0.000986138
  78       -0.000138175
  79       -0.000000001
  80        0.000254400
  81        0.000000005
  82        0.000000005
  83       -0.000115186
  84       -0.000038695
  85        0.000167287
  86       -0.000119899
  87       -0.000161457
  88       -0.000104964
  89       -0.000000000
  90       -0.000340828
  91        0.000244691
  92       -0.000000124
  93        0.000391870
  94       -0.000000001
  95        0.000173525
  96       -0.000124375
  97        0.000167731
  98       -0.000108447
  99       -0.000000000
 100        0.000167288
 101       -0.000119892
 102        0.000161457
 103        0.000104964
 104       -0.000000001
 105       -0.000340830
 106        0.000244689
 107        0.000000124
 108       -0.000391871
 109       -0.000000001
 110        0.000173530
 111       -0.000124381
 112       -0.000167735
 113        0.000108450
 114       -0.000000001
 Sym= A   
 Ene=         0.000000
 Spin= Alpha
 Occup=       0.000000
   1       -0.409374995
   2       -0.002112734
   3        0.007808655
   4       -0.000003336
   5       -0.000001934
   6        0.000000000
   7       -0.002396058
   8       -0.001383456
   9       -0.000000000
  10        0.000546286
  11        0.000000001
  12       -0.000000003
  13       -0.000043622
  14       -0.000075636
  15        0.409470714
  16        0.002113021
  17       -0.007809205
  18        0.000000004
  19        0.000003848
  20        0.000000001
  21       -0.000000004
  22        0.002766523
  23        0.000000000
  24       -0.000546257
  25        0.000000003
  26        0.000000001
  27       -0.000087229
  28       -0.000000004
  29       -0.409358672
  30       -0.002112659
  31        0.007808471
  32        0.000003338
  33       -0.000001935
  34        0.000000001
  35        0.002396037
  36       -0.001383417
  37        0.000000001
  38        0.000546270
  39       -0.000000002
  40       -0.000000001
  41       -0.000043624
  42        0.000075642
  43        0.409354601
  44        0.002112639
  45       -0.007808425
  46       -0.000003334
  47       -0.000001934
  48       -0.000000000
  49       -0.002396015
  50       -0.001383421
  51        0.000000000
  52       -0.000546268
  53        0.000000003
  54       -0.000000005
  55        0.000043623
  56        0.000075634
  57       -0.409467007
  58       -0.002113004
  59        0.007809161
  60        0.000000002
  61        0.000003848
  62       -0.000000001
  63        0.000000022
  64        0.002766513
  65       -0.000000002
  66        0.000546254
  67        0.000000001
  68        0.000000002
  69        0.000087228
  70       -0.000000001
  71        0.409375009
  72        0.002112735
  73       -0.007808656
  74        0.000003340
  75       -0.000001935
  76       -0.000000001
  77        0.002396066
  78       -0.001383454
  79        0.000000000
  80       -0.000546284
  81       -0.000000003
  82       -0.000000002
  83        0.000043621
  84       -0.000075645
  85        0.000361153
  86        0.000198482
  87       -0.000282953
  88       -0.000163364
  89        0.000000000
  90       -0.000361073
  91       -0.000198279
  92        0.000000000
  93        0.000326729
  94       -0.000000001
  95        0.000361149
  96        0.000198494
  97        0.000282947
  98       -0.000163360
  99       -0.000000001
 100       -0.000361140
 101       -0.000198490
 102       -0.000282940
 103       -0.000163358
 104        0.000000000
 105        0.000361071
 106        0.000198280
 107       -0.000000000
 108        0.000326726
 109        0.000000002
 110       -0.000361159
 111       -0.000198487
 112        0.000282956
 113       -0.000163366
 114        0.000000001
 Sym= A   
 Ene=         0.000000
 Spin= Alpha
 Occup=       0.000000
   1       -0.011548954
   2        0.180040522
   3        0.100378662
   4       -0.056125899
   5       -0.032412976
   6       -0.000000005
   7       -0.010410613
   8       -0.006011605
   9        0.000000004
  10       -0.009044213
  11        0.000000014
  12       -0.000000014
  13       -0.002833525
  14       -0.004907907
  15       -0.011548239
  16        0.180038644
  17        0.100376551
  18        0.000000026
  19       -0.064806736
  20       -0.000000001
  21        0.000000073
  22       -0.012019924
  23        0.000000048
  24       -0.009044665
  25       -0.000000036
  26       -0.000000063
  27        0.005670045
  28       -0.000000025
  29       -0.011548935
  30        0.180040565
  31        0.100378173
  32        0.056125965
  33       -0.032412962
  34       -0.000000007
  35        0.010410492
  36       -0.006011228
  37       -0.000000058
  38       -0.009044150
  39       -0.000000089
  40        0.000000037
  41       -0.002833476
  42        0.004908116
  43       -0.011548953
  44        0.180040537
  45        0.100378670
  46        0.056125896
  47        0.032412981
  48       -0.000000005
  49        0.010410623
  50        0.006011638
  51       -0.000000014
  52       -0.009044214
  53       -0.000000055
  54        0.000000056
  55       -0.002833524
  56       -0.004907899
  57       -0.011548236
  58        0.180038639
  59        0.100376524
  60       -0.000000033
  61        0.064806735
  62       -0.000000004
  63       -0.000000105
  64        0.012019907
  65        0.000000078
  66       -0.009044664
  67        0.000000006
  68        0.000000098
  69        0.005670048
  70       -0.000000019
  71       -0.011548936
  72        0.180040540
  73        0.100378226
  74       -0.056125960
  75        0.032412961
  76       -0.000000008
  77       -0.010410506
  78        0.006011221
  79       -0.000000064
  80       -0.009044152
  81        0.000000095
  82       -0.000000009
  83       -0.002833477
  84        0.004908112
  85        0.046643089
  86        0.000696579
  87       -0.007199180
  88       -0.004156741
  89       -0.000000004
  90        0.046642566
  91        0.000695800
  92        0.000000003
  93       -0.008313013
  94        0.000000017
  95        0.046643183
  96        0.000696491
  97        0.007199261
  98       -0.004156748
  99       -0.000000027
 100        0.046643094
 101        0.000696589
 102        0.007199178
 103        0.004156740
 104       -0.000000006
 105        0.046642565
 106        0.000695796
 107        0.000000000
 108        0.008313014
 109        0.000000022
 110        0.046643169
 111        0.000696490
 112       -0.007199257
 113        0.004156747
 114       -0.000000026
 Sym= A   
 Ene=         0.000000
 Spin= Alpha
 Occup=       0.000000
   1       -0.015084190
   2        0.214659569
   3        0.130342641
   4        0.004915237
   5       -0.064368467
   6       -0.000000006
   7       -0.005376069
   8       -0.027737324
   9        0.000000027
  10       -0.008664132
  11        0.000000020
  12       -0.000000029
  13       -0.012498970
  14       -0.002695005
  15       -0.000000562
  16        0.000008608
  17        0.000004768
  18        0.116408507
  19       -0.000001143
  20       -0.000000004
  21        0.042668921
  22       -0.000000499
  23       -0.000000036
  24       -0.000000344
  25        0.000000055
  26        0.000000029
  27        0.000000472
  28       -0.018955158
  29        0.015083555
  30       -0.214651070
  31       -0.130336589
  32        0.004919587
  33        0.064373944
  34       -0.000000003
  35       -0.005373684
  36        0.027738888
  37        0.000000061
  38        0.008663754
  39        0.000000072
  40       -0.000000066
  41        0.012499867
  42       -0.002694509
  43        0.015084189
  44       -0.214659557
  45       -0.130342657
  46        0.004915247
  47       -0.064368467
  48        0.000000001
  49       -0.005376087
  50       -0.027737335
  51       -0.000000025
  52        0.008664132
  53        0.000000046
  54       -0.000000088
  55        0.012498969
  56        0.002694996
  57        0.000000559
  58       -0.000008595
  59       -0.000004741
  60        0.116408503
  61       -0.000001139
  62        0.000000001
  63        0.042668919
  64       -0.000000460
  65        0.000000029
  66        0.000000344
  67        0.000000116
  68        0.000000017
  69       -0.000000469
  70        0.018955158
  71       -0.015083555
  72        0.214651077
  73        0.130336591
  74        0.004919582
  75        0.064373948
  76       -0.000000005
  77       -0.005373678
  78        0.027738884
  79       -0.000000058
  80       -0.008663756
  81        0.000000105
  82       -0.000000020
  83       -0.012499867
  84        0.002694505
  85        0.090264496
  86        0.011141082
  87       -0.010783946
  88       -0.007936633
  89       -0.000000005
  90        0.000003647
  91        0.000000383
  92        0.002961712
  93       -0.000000574
  94       -0.000000007
  95       -0.090261049
  96       -0.011140486
  97       -0.010783525
  98        0.007936559
  99        0.000000029
 100       -0.090264490
 101       -0.011141091
 102       -0.010783941
 103       -0.007936634
 104        0.000000003
 105       -0.000003631
 106       -0.000000362
 107        0.002961712
 108       -0.000000568
 109        0.000000004
 110        0.090261043
 111        0.011140481
 112       -0.010783524
 113        0.007936558
 114       -0.000000034
 Sym= A   
 Ene=         0.000000
 Spin= Alpha
 Occup=       0.000000