[Molden Format]
[N_ATOMS]
           12
[Atoms]  AU
C     1    6       2.288567        1.321231       -0.000000
C     2    6       0.000000        2.642354       -0.000000
C     3    6      -2.288567        1.321231        0.000000
C     4    6      -2.288567       -1.321231       -0.000000
C     5    6      -0.000000       -2.642354       -0.000000
C     6    6       2.288567       -1.321231       -0.000000
H     7    1       4.076666        2.353666        0.000000
H     8    1      -0.000000        4.707134       -0.000000
H     9    1      -4.076666        2.353666        0.000000
H    10    1      -4.076666       -2.353666        0.000000
H    11    1      -0.000000       -4.707134       -0.000000
H    12    1       4.076666       -2.353666        0.000000
[5D7F9G]
[GTO]
    1
    s    8
   0.666500000E+04   0.691583963E-03
   0.100000000E+04   0.532579615E-02
   0.228000000E+03   0.270607210E-01
   0.647100000E+02   0.101656846E+00
   0.210600000E+02   0.274574824E+00
   0.749500000E+01   0.448294319E+00
   0.279700000E+01   0.284902611E+00
   0.521500000E+00   0.151948592E-01
    s    8
   0.666500000E+04  -0.293269653E-03
   0.100000000E+04  -0.231803547E-02
   0.228000000E+03  -0.114997860E-01
   0.647100000E+02  -0.468267270E-01
   0.210600000E+02  -0.128466169E+00
   0.749500000E+01  -0.301266272E+00
   0.279700000E+01  -0.255630702E+00
   0.521500000E+00   0.109379336E+01
    s    1
   0.159600000E+00   0.100000000E+01
    p    3
   0.943900000E+01   0.569792516E-01
   0.200200000E+01   0.313207212E+00
   0.545600000E+00   0.760376742E+00
    p    1
   0.151700000E+00   0.100000000E+01
    d    1
   0.550000000E+00   0.100000000E+01
 
    2
    s    8
   0.666500000E+04   0.691583963E-03
   0.100000000E+04   0.532579615E-02
   0.228000000E+03   0.270607210E-01
   0.647100000E+02   0.101656846E+00
   0.210600000E+02   0.274574824E+00
   0.749500000E+01   0.448294319E+00
   0.279700000E+01   0.284902611E+00
   0.521500000E+00   0.151948592E-01
    s    8
   0.666500000E+04  -0.293269653E-03
   0.100000000E+04  -0.231803547E-02
   0.228000000E+03  -0.114997860E-01
   0.647100000E+02  -0.468267270E-01
   0.210600000E+02  -0.128466169E+00
   0.749500000E+01  -0.301266272E+00
   0.279700000E+01  -0.255630702E+00
   0.521500000E+00   0.109379336E+01
    s    1
   0.159600000E+00   0.100000000E+01
    p    3
   0.943900000E+01   0.569792516E-01
   0.200200000E+01   0.313207212E+00
   0.545600000E+00   0.760376742E+00
    p    1
   0.151700000E+00   0.100000000E+01
    d    1
   0.550000000E+00   0.100000000E+01
 
    3
    s    8
   0.666500000E+04   0.691583963E-03
   0.100000000E+04   0.532579615E-02
   0.228000000E+03   0.270607210E-01
   0.647100000E+02   0.101656846E+00
   0.210600000E+02   0.274574824E+00
   0.749500000E+01   0.448294319E+00
   0.279700000E+01   0.284902611E+00
   0.521500000E+00   0.151948592E-01
    s    8
   0.666500000E+04  -0.293269653E-03
   0.100000000E+04  -0.231803547E-02
   0.228000000E+03  -0.114997860E-01
   0.647100000E+02  -0.468267270E-01
   0.210600000E+02  -0.128466169E+00
   0.749500000E+01  -0.301266272E+00
   0.279700000E+01  -0.255630702E+00
   0.521500000E+00   0.109379336E+01
    s    1
   0.159600000E+00   0.100000000E+01
    p    3
   0.943900000E+01   0.569792516E-01
   0.200200000E+01   0.313207212E+00
   0.545600000E+00   0.760376742E+00
    p    1
   0.151700000E+00   0.100000000E+01
    d    1
   0.550000000E+00   0.100000000E+01
 
    4
    s    8
   0.666500000E+04   0.691583963E-03
   0.100000000E+04   0.532579615E-02
   0.228000000E+03   0.270607210E-01
   0.647100000E+02   0.101656846E+00
   0.210600000E+02   0.274574824E+00
   0.749500000E+01   0.448294319E+00
   0.279700000E+01   0.284902611E+00
   0.521500000E+00   0.151948592E-01
    s    8
   0.666500000E+04  -0.293269653E-03
   0.100000000E+04  -0.231803547E-02
   0.228000000E+03  -0.114997860E-01
   0.647100000E+02  -0.468267270E-01
   0.210600000E+02  -0.128466169E+00
   0.749500000E+01  -0.301266272E+00
   0.279700000E+01  -0.255630702E+00
   0.521500000E+00   0.109379336E+01
    s    1
   0.159600000E+00   0.100000000E+01
    p    3
   0.943900000E+01   0.569792516E-01
   0.200200000E+01   0.313207212E+00
   0.545600000E+00   0.760376742E+00
    p    1
   0.151700000E+00   0.100000000E+01
    d    1
   0.550000000E+00   0.100000000E+01
 
    5
    s    8
   0.666500000E+04   0.691583963E-03
   0.100000000E+04   0.532579615E-02
   0.228000000E+03   0.270607210E-01
   0.647100000E+02   0.101656846E+00
   0.210600000E+02   0.274574824E+00
   0.749500000E+01   0.448294319E+00
   0.279700000E+01   0.284902611E+00
   0.521500000E+00   0.151948592E-01
    s    8
   0.666500000E+04  -0.293269653E-03
   0.100000000E+04  -0.231803547E-02
   0.228000000E+03  -0.114997860E-01
   0.647100000E+02  -0.468267270E-01
   0.210600000E+02  -0.128466169E+00
   0.749500000E+01  -0.301266272E+00
   0.279700000E+01  -0.255630702E+00
   0.521500000E+00   0.109379336E+01
    s    1
   0.159600000E+00   0.100000000E+01
    p    3
   0.943900000E+01   0.569792516E-01
   0.200200000E+01   0.313207212E+00
   0.545600000E+00   0.760376742E+00
    p    1
   0.151700000E+00   0.100000000E+01
    d    1
   0.550000000E+00   0.100000000E+01
 
    6
    s    8
   0.666500000E+04   0.691583963E-03
   0.100000000E+04   0.532579615E-02
   0.228000000E+03   0.270607210E-01
   0.647100000E+02   0.101656846E+00
   0.210600000E+02   0.274574824E+00
   0.749500000E+01   0.448294319E+00
   0.279700000E+01   0.284902611E+00
   0.521500000E+00   0.151948592E-01
    s    8
   0.666500000E+04  -0.293269653E-03
   0.100000000E+04  -0.231803547E-02
   0.228000000E+03  -0.114997860E-01
   0.647100000E+02  -0.468267270E-01
   0.210600000E+02  -0.128466169E+00
   0.749500000E+01  -0.301266272E+00
   0.279700000E+01  -0.255630702E+00
   0.521500000E+00   0.109379336E+01
    s    1
   0.159600000E+00   0.100000000E+01
    p    3
   0.943900000E+01   0.569792516E-01
   0.200200000E+01   0.313207212E+00
   0.545600000E+00   0.760376742E+00
    p    1
   0.151700000E+00   0.100000000E+01
    d    1
   0.550000000E+00   0.100000000E+01
 
    7
    s    3
   0.130100000E+02   0.334987264E-01
   0.196200000E+01   0.234800801E+00
   0.444600000E+00   0.813682958E+00
    s    1
   0.122000000E+00   0.100000000E+01
    p    1
   0.727000000E+00   0.100000000E+01
 
    8
    s    3
   0.130100000E+02   0.334987264E-01
   0.196200000E+01   0.234800801E+00
   0.444600000E+00   0.813682958E+00
    s    1
   0.122000000E+00   0.100000000E+01
    p    1
   0.727000000E+00   0.100000000E+01
 
    9
    s    3
   0.130100000E+02   0.334987264E-01
   0.196200000E+01   0.234800801E+00
   0.444600000E+00   0.813682958E+00
    s    1
   0.122000000E+00   0.100000000E+01
    p    1
   0.727000000E+00   0.100000000E+01
 
   10
    s    3
   0.130100000E+02   0.334987264E-01
   0.196200000E+01   0.234800801E+00
   0.444600000E+00   0.813682958E+00
    s    1
   0.122000000E+00   0.100000000E+01
    p    1
   0.727000000E+00   0.100000000E+01
 
   11
    s    3
   0.130100000E+02   0.334987264E-01
   0.196200000E+01   0.234800801E+00
   0.444600000E+00   0.813682958E+00
    s    1
   0.122000000E+00   0.100000000E+01
    p    1
   0.727000000E+00   0.100000000E+01
 
   12
    s    3
   0.130100000E+02   0.334987264E-01
   0.196200000E+01   0.234800801E+00
   0.444600000E+00   0.813682958E+00
    s    1
   0.122000000E+00   0.100000000E+01
    p    1
   0.727000000E+00   0.100000000E+01
 
[MO]
 Sym= A   
 Ene=       -11.241495
 Spin= Alpha
 Occup=       2.000000
   1        0.408843138
   2        0.001415920
   3       -0.001834449
   4        0.000075906
   5        0.000043824
   6       -0.000000000
   7       -0.000198212
   8       -0.000114590
   9        0.000000000
  10       -0.000061358
  11        0.000000000
  12       -0.000000001
  13        0.000044674
  14        0.000077399
  15        0.408703176
  16        0.001415229
  17       -0.001832746
  18        0.000000007
  19        0.000087580
  20        0.000000000
  21       -0.000000029
  22       -0.000229360
  23        0.000000003
  24       -0.000061184
  25       -0.000000003
  26       -0.000000004
  27       -0.000089302
  28       -0.000000002
  29        0.408861452
  30        0.001415996
  31       -0.001834607
  32       -0.000075900
  33        0.000043825
  34       -0.000000001
  35        0.000198180
  36       -0.000114607
  37       -0.000000004
  38       -0.000061356
  39       -0.000000005
  40        0.000000002
  41        0.000044676
  42       -0.000077375
  43        0.408865066
  44        0.001416013
  45       -0.001834624
  46       -0.000075907
  47       -0.000043826
  48       -0.000000000
  49        0.000198189
  50        0.000114601
  51       -0.000000001
  52       -0.000061361
  53       -0.000000004
  54        0.000000005
  55        0.000044676
  56        0.000077402
  57        0.408706984
  58        0.001415245
  59       -0.001832775
  60       -0.000000005
  61       -0.000087580
  62        0.000000001
  63       -0.000000032
  64        0.000229358
  65        0.000000005
  66       -0.000061184
  67        0.000000000
  68        0.000000007
  69       -0.000089301
  70       -0.000000001
  71        0.408843684
  72        0.001415922
  73       -0.001834466
  74        0.000075900
  75       -0.000043823
  76       -0.000000000
  77       -0.000198209
  78        0.000114579
  79       -0.000000003
  80       -0.000061354
  81        0.000000006
  82        0.000000001
  83        0.000044674
  84       -0.000077374
  85       -0.000137247
  86        0.000683292
  87        0.000120523
  88        0.000069589
  89        0.000000000
  90       -0.000137089
  91        0.000683243
  92       -0.000000000
  93        0.000139036
  94        0.000000001
  95       -0.000137238
  96        0.000683310
  97       -0.000120519
  98        0.000069592
  99       -0.000000001
 100       -0.000137254
 101        0.000683315
 102       -0.000120532
 103       -0.000069594
 104       -0.000000000
 105       -0.000137090
 106        0.000683247
 107        0.000000000
 108       -0.000139037
 109        0.000000002
 110       -0.000137234
 111        0.000683291
 112        0.000120513
 113       -0.000069588
 114       -0.000000001
 Sym= A   
 Ene=       -11.240952
 Spin= Alpha
 Occup=       2.000000
   1        0.502119709
   2        0.002117165
   3       -0.004000670
   4        0.000022241
   5        0.000038372
   6       -0.000000001
   7        0.000661371
   8       -0.000489399
   9        0.000000001
  10       -0.000060698
  11        0.000000000
  12       -0.000000003
  13        0.000038293
  14        0.000050201
  15        0.002329160
  16        0.000009825
  17       -0.000018560
  18       -0.000044546
  19        0.000000174
  20        0.000000000
  21        0.001519689
  22        0.000001531
  23       -0.000000001
  24       -0.000000284
  25        0.000000005
  26        0.000000002
  27       -0.000000272
  28        0.000016309
  29       -0.499787506
  30       -0.002107348
  31        0.003982200
  32        0.000021920
  33       -0.000038548
  34        0.000000002
  35        0.000665371
  36        0.000499275
  37        0.000000003
  38        0.000060413
  39        0.000000002
  40       -0.000000005
  41       -0.000038233
  42        0.000049842
  43       -0.502108681
  44       -0.002117133
  45        0.004000656
  46        0.000022238
  47        0.000038371
  48        0.000000001
  49        0.000661394
  50       -0.000489394
  51       -0.000000001
  52        0.000060700
  53        0.000000002
  54       -0.000000008
  55       -0.000038293
  56       -0.000050199
  57       -0.002305458
  58       -0.000009734
  59        0.000018402
  60       -0.000044546
  61        0.000000170
  62       -0.000000000
  63        0.001519690
  64        0.000001520
  65        0.000000001
  66        0.000000275
  67        0.000000011
  68        0.000000001
  69        0.000000268
  70       -0.000016309
  71        0.499801401
  72        0.002107394
  73       -0.003982245
  74        0.000021923
  75       -0.000038549
  76       -0.000000002
  77        0.000665353
  78        0.000499275
  79       -0.000000003
  80       -0.000060414
  81        0.000000003
  82        0.000000000
  83        0.000038233
  84       -0.000049846
  85       -0.000140160
  86        0.000521846
  87        0.000180349
  88        0.000109806
  89        0.000000000
  90       -0.000000643
  91        0.000002420
  92       -0.000009903
  93        0.000000974
  94       -0.000000001
  95        0.000139482
  96       -0.000519405
  97        0.000179449
  98       -0.000109371
  99        0.000000001
 100        0.000140158
 101       -0.000521822
 102        0.000180347
 103        0.000109805
 104       -0.000000001
 105        0.000000633
 106       -0.000002390
 107       -0.000009903
 108        0.000000963
 109        0.000000000
 110       -0.000139487
 111        0.000519431
 112        0.000179453
 113       -0.000109373
 114       -0.000000000
 Sym= A   
 Ene=       -11.240951
 Spin= Alpha
 Occup=       2.000000
   1        0.287265733
   2        0.001211267
   3       -0.002289096
   4        0.000038400
   5       -0.000022468
   6        0.000000001
   7       -0.000496702
   8        0.001236070
   9       -0.000000001
  10       -0.000034797
  11        0.000000002
  12       -0.000000000
  13        0.000005735
  14        0.000038286
  15        0.578404294
  16        0.002438763
  17       -0.004607874
  18        0.000000177
  19        0.000044237
  20        0.000000001
  21       -0.000006099
  22        0.000377830
  23        0.000000004
  24       -0.000069809
  25       -0.000000005
  26       -0.000000004
  27       -0.000071871
  28       -0.000000065
  29        0.291287342
  30        0.001228229
  31       -0.002321165
  32       -0.000038580
  33       -0.000022159
  34       -0.000000000
  35        0.000491364
  36        0.001232119
  37       -0.000000003
  38       -0.000035288
  39       -0.000000008
  40       -0.000000006
  41        0.000006041
  42       -0.000038693
  43       -0.287269030
  44       -0.001211286
  45        0.002289151
  46        0.000038400
  47       -0.000022468
  48       -0.000000001
  49       -0.000496689
  50        0.001236083
  51        0.000000002
  52        0.000034802
  53        0.000000007
  54       -0.000000003
  55       -0.000005734
  56       -0.000038286
  57       -0.578402592
  58       -0.002438758
  59        0.004607874
  60        0.000000176
  61        0.000044237
  62       -0.000000001
  63       -0.000006089
  64        0.000377834
  65       -0.000000006
  66        0.000069809
  67       -0.000000001
  68       -0.000000007
  69        0.000071870
  70        0.000000063
  71       -0.291277619
  72       -0.001228187
  73        0.002321074
  74       -0.000038579
  75       -0.000022159
  76        0.000000000
  77        0.000491377
  78        0.001232109
  79        0.000000003
  80        0.000035282
  81       -0.000000008
  82       -0.000000004
  83       -0.000006041
  84        0.000038692
  85       -0.000080327
  86        0.000298472
  87        0.000108955
  88        0.000052984
  89       -0.000000001
  90       -0.000161300
  91        0.000601058
  92        0.000000040
  93        0.000243053
  94        0.000000001
  95       -0.000081456
  96        0.000302643
  97       -0.000110403
  98        0.000053865
  99       -0.000000001
 100        0.000080329
 101       -0.000298470
 102        0.000108957
 103        0.000052985
 104        0.000000002
 105        0.000161300
 106       -0.000601054
 107        0.000000040
 108        0.000243053
 109       -0.000000002
 110        0.000081451
 111       -0.000302635
 112       -0.000110398
 113        0.000053862
 114        0.000000001
 Sym= A   
 Ene=       -11.239778
 Spin= Alpha
 Occup=       2.000000
   1        0.503453422
   2        0.002334800
   3       -0.005694507
   4        0.000042096
   5       -0.000010288
   6       -0.000000000
   7        0.000985603
   8        0.000974406
   9       -0.000000001
  10       -0.000434691
  11        0.000000002
  12       -0.000000001
  13       -0.000038454
  14        0.000069948
  15       -0.004526524
  16       -0.000020990
  17        0.000051135
  18       -0.000060786
  19       -0.000000280
  20       -0.000000000
  21        0.000712242
  22       -0.000012027
  23       -0.000000002
  24        0.000003907
  25        0.000000007
  26        0.000000002
  27        0.000000365
  28        0.000138450
  29       -0.498930635
  30       -0.002313833
  31        0.005643466
  32        0.000042270
  33        0.000011144
  34        0.000000001
  35        0.000970410
  36       -0.000976768
  37        0.000000003
  38        0.000430796
  39        0.000000003
  40        0.000000004
  41        0.000040262
  42        0.000070581
  43        0.503463669
  44        0.002334857
  45       -0.005694758
  46       -0.000042095
  47        0.000010288
  48       -0.000000001
  49       -0.000985697
  50       -0.000974443
  51       -0.000000002
  52       -0.000434711
  53       -0.000000003
  54        0.000000001
  55       -0.000038453
  56        0.000069950
  57       -0.004549500
  58       -0.000021101
  59        0.000051488
  60        0.000060786
  61        0.000000281
  62       -0.000000000
  63       -0.000712237
  64        0.000012135
  65       -0.000000001
  66        0.000003928
  67       -0.000000010
  68       -0.000000001
  69        0.000000369
  70        0.000138450
  71       -0.498917474
  72       -0.002313763
  73        0.005643192
  74       -0.000042270
  75       -0.000011144
  76        0.000000001
  77       -0.000970311
  78        0.000976734
  79        0.000000003
  80        0.000430775
  81       -0.000000003
  82       -0.000000004
  83        0.000040264
  84        0.000070578
  85       -0.000296582
  86        0.000212813
  87        0.000298139
  88        0.000165491
  89       -0.000000000
  90        0.000002663
  91       -0.000001919
  92       -0.000011707
  93       -0.000003063
  94       -0.000000001
  95        0.000293933
  96       -0.000210883
  97        0.000295573
  98       -0.000163827
  99       -0.000000000
 100       -0.000296594
 101        0.000212801
 102       -0.000298148
 103       -0.000165496
 104       -0.000000001
 105        0.000002678
 106       -0.000001919
 107        0.000011707
 108        0.000003079
 109       -0.000000000
 110        0.000293920
 111       -0.000210893
 112       -0.000295564
 113        0.000163821
 114       -0.000000000
 Sym= A   
 Ene=       -11.239778
 Spin= Alpha
 Occup=       2.000000
   1       -0.285365775
   2       -0.001323479
   3        0.003228076
   4        0.000011083
   5       -0.000054690
   6       -0.000000000
   7       -0.000968126
   8        0.000156169
   9       -0.000000002
  10        0.000246433
  11        0.000000000
  12        0.000000002
  13       -0.000115914
  14        0.000039974
  15        0.578794804
  16        0.002683950
  17       -0.006546015
  18       -0.000000480
  19        0.000036027
  20        0.000000001
  21        0.000005572
  22        0.001541177
  23        0.000000002
  24       -0.000499694
  25       -0.000000001
  26        0.000000000
  27       -0.000047333
  28        0.000001086
  29       -0.293217328
  30       -0.001359894
  31        0.003316920
  32       -0.000010426
  33       -0.000054521
  34        0.000000000
  35        0.000983457
  36        0.000140860
  37        0.000000000
  38        0.000253214
  39       -0.000000004
  40       -0.000000005
  41       -0.000115296
  42       -0.000038891
  43       -0.285362392
  44       -0.001323467
  45        0.003228077
  46       -0.000011083
  47        0.000054690
  48       -0.000000000
  49        0.000968131
  50       -0.000156152
  51       -0.000000003
  52        0.000246435
  53       -0.000000004
  54       -0.000000002
  55       -0.000115914
  56        0.000039973
  57        0.578796350
  58        0.002683959
  59       -0.006546056
  60        0.000000481
  61       -0.000036028
  62        0.000000001
  63       -0.000005592
  64       -0.001541194
  65        0.000000004
  66       -0.000499697
  67        0.000000001
  68       -0.000000000
  69       -0.000047334
  70        0.000001087
  71       -0.293226909
  72       -0.001359937
  73        0.003317024
  74        0.000010426
  75        0.000054522
  76        0.000000000
  77       -0.000983479
  78       -0.000140856
  79       -0.000000001
  80        0.000253219
  81        0.000000005
  82        0.000000005
  83       -0.000115297
  84       -0.000038889
  85        0.000168101
  86       -0.000120484
  87       -0.000162276
  88       -0.000105418
  89       -0.000000000
  90       -0.000340837
  91        0.000244698
  92       -0.000000091
  93        0.000391880
  94       -0.000000001
  95        0.000172719
  96       -0.000123796
  97        0.000166920
  98       -0.000107998
  99       -0.000000000
 100        0.000168102
 101       -0.000120476
 102        0.000162275
 103        0.000105418
 104       -0.000000001
 105       -0.000340839
 106        0.000244696
 107        0.000000092
 108       -0.000391881
 109       -0.000000001
 110        0.000172724
 111       -0.000123803
 112       -0.000166925
 113        0.000108001
 114       -0.000000001
 Sym= A   
 Ene=       -11.239207
 Spin= Alpha
 Occup=       2.000000
   1       -0.409375408
   2       -0.002112736
   3        0.007808660
   4       -0.000003336
   5       -0.000001934
   6        0.000000000
   7       -0.002396059
   8       -0.001383456
   9       -0.000000000
  10        0.000546286
  11        0.000000001
  12       -0.000000003
  13       -0.000043622
  14       -0.000075636
  15        0.409470954
  16        0.002113022
  17       -0.007809207
  18        0.000000004
  19        0.000003848
  20        0.000000001
  21       -0.000000005
  22        0.002766524
  23        0.000000000
  24       -0.000546257
  25        0.000000003
  26        0.000000001
  27       -0.000087229
  28       -0.000000004
  29       -0.409358016
  30       -0.002112656
  31        0.007808465
  32        0.000003338
  33       -0.000001935
  34        0.000000001
  35        0.002396036
  36       -0.001383416
  37        0.000000001
  38        0.000546270
  39       -0.000000002
  40       -0.000000001
  41       -0.000043624
  42        0.000075642
  43        0.409354477
  44        0.002112638
  45       -0.007808423
  46       -0.000003334
  47       -0.000001934
  48       -0.000000000
  49       -0.002396015
  50       -0.001383420
  51        0.000000000
  52       -0.000546268
  53        0.000000003
  54       -0.000000005
  55        0.000043623
  56        0.000075634
  57       -0.409467250
  58       -0.002113005
  59        0.007809163
  60        0.000000002
  61        0.000003848
  62       -0.000000001
  63        0.000000021
  64        0.002766513
  65       -0.000000002
  66        0.000546254
  67        0.000000001
  68        0.000000002
  69        0.000087228
  70       -0.000000001
  71        0.409374894
  72        0.002112735
  73       -0.007808656
  74        0.000003340
  75       -0.000001935
  76       -0.000000001
  77        0.002396067
  78       -0.001383454
  79        0.000000000
  80       -0.000546284
  81       -0.000000003
  82       -0.000000002
  83        0.000043621
  84       -0.000075645
  85        0.000361153
  86        0.000198481
  87       -0.000282953
  88       -0.000163365
  89        0.000000000
  90       -0.000361073
  91       -0.000198279
  92        0.000000000
  93        0.000326729
  94       -0.000000001
  95        0.000361149
  96        0.000198495
  97        0.000282946
  98       -0.000163360
  99       -0.000000001
 100       -0.000361140
 101       -0.000198490
 102       -0.000282940
 103       -0.000163358
 104        0.000000000
 105        0.000361071
 106        0.000198280
 107       -0.000000000
 108        0.000326726
 109        0.000000002
 110       -0.000361159
 111       -0.000198488
 112        0.000282956
 113       -0.000163366
 114        0.000000001
 Sym= A   
 Ene=        -1.146010
 Spin= Alpha
 Occup=       2.000000
   1       -0.011548954
   2        0.180040521
   3        0.100378662
   4       -0.056125899
   5       -0.032412976
   6       -0.000000005
   7       -0.010410613
   8       -0.006011605
   9        0.000000004
  10       -0.009044213
  11        0.000000014
  12       -0.000000014
  13       -0.002833525
  14       -0.004907907
  15       -0.011548239
  16        0.180038644
  17        0.100376551
  18        0.000000025
  19       -0.064806736
  20       -0.000000001
  21        0.000000073
  22       -0.012019924
  23        0.000000048
  24       -0.009044665
  25       -0.000000036
  26       -0.000000063
  27        0.005670045
  28       -0.000000025
  29       -0.011548935
  30        0.180040565
  31        0.100378173
  32        0.056125964
  33       -0.032412962
  34       -0.000000007
  35        0.010410492
  36       -0.006011229
  37       -0.000000058
  38       -0.009044150
  39       -0.000000089
  40        0.000000037
  41       -0.002833476
  42        0.004908116
  43       -0.011548953
  44        0.180040537
  45        0.100378670
  46        0.056125896
  47        0.032412982
  48       -0.000000005
  49        0.010410623
  50        0.006011638
  51       -0.000000014
  52       -0.009044214
  53       -0.000000055
  54        0.000000056
  55       -0.002833524
  56       -0.004907899
  57       -0.011548237
  58        0.180038639
  59        0.100376524
  60       -0.000000033
  61        0.064806735
  62       -0.000000004
  63       -0.000000105
  64        0.012019907
  65        0.000000078
  66       -0.009044664
  67        0.000000006
  68        0.000000098
  69        0.005670048
  70       -0.000000019
  71       -0.011548936
  72        0.180040540
  73        0.100378226
  74       -0.056125960
  75        0.032412961
  76       -0.000000008
  77       -0.010410506
  78        0.006011221
  79       -0.000000064
  80       -0.009044152
  81        0.000000095
  82       -0.000000009
  83       -0.002833477
  84        0.004908112
  85        0.046643089
  86        0.000696579
  87       -0.007199180
  88       -0.004156741
  89       -0.000000004
  90        0.046642566
  91        0.000695800
  92        0.000000003
  93       -0.008313013
  94        0.000000017
  95        0.046643183
  96        0.000696491
  97        0.007199261
  98       -0.004156748
  99       -0.000000027
 100        0.046643094
 101        0.000696589
 102        0.007199178
 103        0.004156740
 104       -0.000000006
 105        0.046642565
 106        0.000695796
 107       -0.000000000
 108        0.008313014
 109        0.000000022
 110        0.046643169
 111        0.000696490
 112       -0.007199257
 113        0.004156747
 114       -0.000000026
 Sym= A   
 Ene=        -1.011126
 Spin= Alpha
 Occup=       2.000000
   1       -0.015084108
   2        0.214658411
   3        0.130341938
   4        0.004915838
   5       -0.064369208
   6       -0.000000006
   7       -0.005375810
   8       -0.027737573
   9        0.000000027
  10       -0.008664085
  11        0.000000020
  12       -0.000000029
  13       -0.012499080
  14       -0.002694889
  15       -0.000000400
  16        0.000006293
  17        0.000003362
  18        0.116408506
  19       -0.000000842
  20       -0.000000004
  21        0.042668921
  22       -0.000000299
  23       -0.000000036
  24       -0.000000251
  25        0.000000055
  26        0.000000029
  27        0.000000379
  28       -0.018955158
  29        0.015083636
  30       -0.214652228
  31       -0.130337293
  32        0.004918986
  33        0.064373204
  34       -0.000000003
  35       -0.005373943
  36        0.027738639
  37        0.000000061
  38        0.008663801
  39        0.000000072
  40       -0.000000066
  41        0.012499757
  42       -0.002694626
  43        0.015084108
  44       -0.214658399
  45       -0.130341954
  46        0.004915849
  47       -0.064369207
  48        0.000000001
  49       -0.005375827
  50       -0.027737584
  51       -0.000000025
  52        0.008664085
  53        0.000000046
  54       -0.000000088
  55        0.012499079
  56        0.002694879
  57        0.000000396
  58       -0.000006279
  59       -0.000003335
  60        0.116408503
  61       -0.000000838
  62        0.000000001
  63        0.042668919
  64       -0.000000260
  65        0.000000029
  66        0.000000251
  67        0.000000116
  68        0.000000017
  69       -0.000000376
  70        0.018955158
  71       -0.015083637
  72        0.214652235
  73        0.130337295
  74        0.004918981
  75        0.064373208
  76       -0.000000005
  77       -0.005373937
  78        0.027738635
  79       -0.000000058
  80       -0.008663803
  81        0.000000105
  82       -0.000000020
  83       -0.012499758
  84        0.002694622
  85        0.090264009
  86        0.011141022
  87       -0.010783872
  88       -0.007936618
  89       -0.000000005
  90        0.000002673
  91        0.000000263
  92        0.002961712
  93       -0.000000430
  94       -0.000000007
  95       -0.090261536
  96       -0.011140546
  97       -0.010783599
  98        0.007936574
  99        0.000000029
 100       -0.090264004
 101       -0.011141030
 102       -0.010783866
 103       -0.007936619
 104        0.000000003
 105       -0.000002658
 106       -0.000000242
 107        0.002961712
 108       -0.000000424
 109        0.000000004
 110        0.090261530
 111        0.011140541
 112       -0.010783599
 113        0.007936573
 114       -0.000000034
 Sym= A   
 Ene=        -1.011099
 Spin= Alpha
 Occup=       2.000000