[Molden Format]
[N_ATOMS]
           12
[Atoms]  AU
C     1    6       2.288567        1.321231       -0.000000
C     2    6       0.000000        2.642354       -0.000000
C     3    6      -2.288567        1.321231        0.000000
C     4    6      -2.288567       -1.321231       -0.000000
C     5    6      -0.000000       -2.642354       -0.000000
C     6    6       2.288567       -1.321231       -0.000000
H     7    1       4.076666        2.353666        0.000000
H     8    1      -0.000000        4.707134       -0.000000
H     9    1      -4.076666        2.353666        0.000000
H    10    1      -4.076666       -2.353666        0.000000
H    11    1      -0.000000       -4.707134       -0.000000
H    12    1       4.076666       -2.353666        0.000000
[5D7F9G]
[GTO]
    1
    s    8
   0.666500000E+04   0.691583963E-03
   0.100000000E+04   0.532579615E-02
   0.228000000E+03   0.270607210E-01
   0.647100000E+02   0.101656846E+00
   0.210600000E+02   0.274574824E+00
   0.749500000E+01   0.448294319E+00
   0.279700000E+01   0.284902611E+00
   0.521500000E+00   0.151948592E-01
    s    8
   0.666500000E+04  -0.293269653E-03
   0.100000000E+04  -0.231803547E-02
   0.228000000E+03  -0.114997860E-01
   0.647100000E+02  -0.468267270E-01
   0.210600000E+02  -0.128466169E+00
   0.749500000E+01  -0.301266272E+00
   0.279700000E+01  -0.255630702E+00
   0.521500000E+00   0.109379336E+01
    s    1
   0.159600000E+00   0.100000000E+01
    p    3
   0.943900000E+01   0.569792516E-01
   0.200200000E+01   0.313207212E+00
   0.545600000E+00   0.760376742E+00
    p    1
   0.151700000E+00   0.100000000E+01
    d    1
   0.550000000E+00   0.100000000E+01
 
    2
    s    8
   0.666500000E+04   0.691583963E-03
   0.100000000E+04   0.532579615E-02
   0.228000000E+03   0.270607210E-01
   0.647100000E+02   0.101656846E+00
   0.210600000E+02   0.274574824E+00
   0.749500000E+01   0.448294319E+00
   0.279700000E+01   0.284902611E+00
   0.521500000E+00   0.151948592E-01
    s    8
   0.666500000E+04  -0.293269653E-03
   0.100000000E+04  -0.231803547E-02
   0.228000000E+03  -0.114997860E-01
   0.647100000E+02  -0.468267270E-01
   0.210600000E+02  -0.128466169E+00
   0.749500000E+01  -0.301266272E+00
   0.279700000E+01  -0.255630702E+00
   0.521500000E+00   0.109379336E+01
    s    1
   0.159600000E+00   0.100000000E+01
    p    3
   0.943900000E+01   0.569792516E-01
   0.200200000E+01   0.313207212E+00
   0.545600000E+00   0.760376742E+00
    p    1
   0.151700000E+00   0.100000000E+01
    d    1
   0.550000000E+00   0.100000000E+01
 
    3
    s    8
   0.666500000E+04   0.691583963E-03
   0.100000000E+04   0.532579615E-02
   0.228000000E+03   0.270607210E-01
   0.647100000E+02   0.101656846E+00
   0.210600000E+02   0.274574824E+00
   0.749500000E+01   0.448294319E+00
   0.279700000E+01   0.284902611E+00
   0.521500000E+00   0.151948592E-01
    s    8
   0.666500000E+04  -0.293269653E-03
   0.100000000E+04  -0.231803547E-02
   0.228000000E+03  -0.114997860E-01
   0.647100000E+02  -0.468267270E-01
   0.210600000E+02  -0.128466169E+00
   0.749500000E+01  -0.301266272E+00
   0.279700000E+01  -0.255630702E+00
   0.521500000E+00   0.109379336E+01
    s    1
   0.159600000E+00   0.100000000E+01
    p    3
   0.943900000E+01   0.569792516E-01
   0.200200000E+01   0.313207212E+00
   0.545600000E+00   0.760376742E+00
    p    1
   0.151700000E+00   0.100000000E+01
    d    1
   0.550000000E+00   0.100000000E+01
 
    4
    s    8
   0.666500000E+04   0.691583963E-03
   0.100000000E+04   0.532579615E-02
   0.228000000E+03   0.270607210E-01
   0.647100000E+02   0.101656846E+00
   0.210600000E+02   0.274574824E+00
   0.749500000E+01   0.448294319E+00
   0.279700000E+01   0.284902611E+00
   0.521500000E+00   0.151948592E-01
    s    8
   0.666500000E+04  -0.293269653E-03
   0.100000000E+04  -0.231803547E-02
   0.228000000E+03  -0.114997860E-01
   0.647100000E+02  -0.468267270E-01
   0.210600000E+02  -0.128466169E+00
   0.749500000E+01  -0.301266272E+00
   0.279700000E+01  -0.255630702E+00
   0.521500000E+00   0.109379336E+01
    s    1
   0.159600000E+00   0.100000000E+01
    p    3
   0.943900000E+01   0.569792516E-01
   0.200200000E+01   0.313207212E+00
   0.545600000E+00   0.760376742E+00
    p    1
   0.151700000E+00   0.100000000E+01
    d    1
   0.550000000E+00   0.100000000E+01
 
    5
    s    8
   0.666500000E+04   0.691583963E-03
   0.100000000E+04   0.532579615E-02
   0.228000000E+03   0.270607210E-01
   0.647100000E+02   0.101656846E+00
   0.210600000E+02   0.274574824E+00
   0.749500000E+01   0.448294319E+00
   0.279700000E+01   0.284902611E+00
   0.521500000E+00   0.151948592E-01
    s    8
   0.666500000E+04  -0.293269653E-03
   0.100000000E+04  -0.231803547E-02
   0.228000000E+03  -0.114997860E-01
   0.647100000E+02  -0.468267270E-01
   0.210600000E+02  -0.128466169E+00
   0.749500000E+01  -0.301266272E+00
   0.279700000E+01  -0.255630702E+00
   0.521500000E+00   0.109379336E+01
    s    1
   0.159600000E+00   0.100000000E+01
    p    3
   0.943900000E+01   0.569792516E-01
   0.200200000E+01   0.313207212E+00
   0.545600000E+00   0.760376742E+00
    p    1
   0.151700000E+00   0.100000000E+01
    d    1
   0.550000000E+00   0.100000000E+01
 
    6
    s    8
   0.666500000E+04   0.691583963E-03
   0.100000000E+04   0.532579615E-02
   0.228000000E+03   0.270607210E-01
   0.647100000E+02   0.101656846E+00
   0.210600000E+02   0.274574824E+00
   0.749500000E+01   0.448294319E+00
   0.279700000E+01   0.284902611E+00
   0.521500000E+00   0.151948592E-01
    s    8
   0.666500000E+04  -0.293269653E-03
   0.100000000E+04  -0.231803547E-02
   0.228000000E+03  -0.114997860E-01
   0.647100000E+02  -0.468267270E-01
   0.210600000E+02  -0.128466169E+00
   0.749500000E+01  -0.301266272E+00
   0.279700000E+01  -0.255630702E+00
   0.521500000E+00   0.109379336E+01
    s    1
   0.159600000E+00   0.100000000E+01
    p    3
   0.943900000E+01   0.569792516E-01
   0.200200000E+01   0.313207212E+00
   0.545600000E+00   0.760376742E+00
    p    1
   0.151700000E+00   0.100000000E+01
    d    1
   0.550000000E+00   0.100000000E+01
 
    7
    s    3
   0.130100000E+02   0.334987264E-01
   0.196200000E+01   0.234800801E+00
   0.444600000E+00   0.813682958E+00
    s    1
   0.122000000E+00   0.100000000E+01
    p    1
   0.727000000E+00   0.100000000E+01
 
    8
    s    3
   0.130100000E+02   0.334987264E-01
   0.196200000E+01   0.234800801E+00
   0.444600000E+00   0.813682958E+00
    s    1
   0.122000000E+00   0.100000000E+01
    p    1
   0.727000000E+00   0.100000000E+01
 
    9
    s    3
   0.130100000E+02   0.334987264E-01
   0.196200000E+01   0.234800801E+00
   0.444600000E+00   0.813682958E+00
    s    1
   0.122000000E+00   0.100000000E+01
    p    1
   0.727000000E+00   0.100000000E+01
 
   10
    s    3
   0.130100000E+02   0.334987264E-01
   0.196200000E+01   0.234800801E+00
   0.444600000E+00   0.813682958E+00
    s    1
   0.122000000E+00   0.100000000E+01
    p    1
   0.727000000E+00   0.100000000E+01
 
   11
    s    3
   0.130100000E+02   0.334987264E-01
   0.196200000E+01   0.234800801E+00
   0.444600000E+00   0.813682958E+00
    s    1
   0.122000000E+00   0.100000000E+01
    p    1
   0.727000000E+00   0.100000000E+01
 
   12
    s    3
   0.130100000E+02   0.334987264E-01
   0.196200000E+01   0.234800801E+00
   0.444600000E+00   0.813682958E+00
    s    1
   0.122000000E+00   0.100000000E+01
    p    1
   0.727000000E+00   0.100000000E+01
 
[MO]
 Sym= A   
 Ene=       -11.230438
 Spin= Alpha
 Occup=       2.000000
   1       -0.408876291
   2       -0.001472829
   3        0.001853339
   4       -0.000076934
   5       -0.000044422
   6        0.000000000
   7        0.000195113
   8        0.000112826
   9       -0.000000000
  10        0.000054128
  11       -0.000000000
  12        0.000000001
  13       -0.000047782
  14       -0.000082780
  15       -0.408719847
  16       -0.001472036
  17        0.001851434
  18       -0.000000006
  19       -0.000088776
  20       -0.000000000
  21       -0.000000008
  22        0.000225853
  23       -0.000000003
  24        0.000053954
  25        0.000000003
  26        0.000000004
  27        0.000095522
  28        0.000000001
  29       -0.408871039
  30       -0.001472805
  31        0.001853310
  32        0.000076927
  33       -0.000044420
  34        0.000000001
  35       -0.000195112
  36        0.000112818
  37        0.000000004
  38        0.000054123
  39        0.000000005
  40       -0.000000002
  41       -0.000047782
  42        0.000082753
  43       -0.408872955
  44       -0.001472815
  45        0.001853313
  46        0.000076934
  47        0.000044422
  48        0.000000000
  49       -0.000195119
  50       -0.000112819
  51        0.000000001
  52        0.000054128
  53        0.000000004
  54       -0.000000005
  55       -0.000047782
  56       -0.000082781
  57       -0.408721007
  58       -0.001472042
  59        0.001851443
  60        0.000000006
  61        0.000088776
  62       -0.000000001
  63       -0.000000005
  64       -0.000225852
  65       -0.000000005
  66        0.000053954
  67       -0.000000000
  68       -0.000000007
  69        0.000095521
  70        0.000000002
  71       -0.408875897
  72       -0.001472827
  73        0.001853349
  74       -0.000076928
  75        0.000044421
  76        0.000000000
  77        0.000195107
  78       -0.000112819
  79        0.000000003
  80        0.000054124
  81       -0.000000006
  82       -0.000000001
  83       -0.000047783
  84        0.000082755
  85        0.000144324
  86       -0.000687152
  87       -0.000125802
  88       -0.000072637
  89       -0.000000000
  90        0.000144161
  91       -0.000687100
  92        0.000000000
  93       -0.000145125
  94       -0.000000001
  95        0.000144308
  96       -0.000687145
  97        0.000125789
  98       -0.000072635
  99        0.000000001
 100        0.000144323
 101       -0.000687149
 102        0.000125801
 103        0.000072636
 104        0.000000000
 105        0.000144161
 106       -0.000687101
 107       -0.000000000
 108        0.000145125
 109       -0.000000002
 110        0.000144310
 111       -0.000687150
 112       -0.000125791
 113        0.000072636
 114        0.000000001
 Sym= A   
 Ene=       -11.229899
 Spin= Alpha
 Occup=       2.000000
   1        0.501838878
   2        0.002203082
   3       -0.004048296
   4        0.000013725
   5        0.000037736
   6       -0.000000001
   7        0.000688145
   8       -0.000483845
   9        0.000000001
  10       -0.000048398
  11        0.000000000
  12       -0.000000003
  13        0.000047013
  14        0.000051384
  15        0.001701263
  16        0.000007478
  17       -0.000013747
  18       -0.000051914
  19        0.000000099
  20        0.000000000
  21        0.001534118
  22        0.000001213
  23       -0.000000001
  24       -0.000000163
  25        0.000000005
  26        0.000000002
  27       -0.000000212
  28        0.000030267
  29       -0.500135899
  30       -0.002195606
  31        0.004034588
  32        0.000013493
  33       -0.000037911
  34        0.000000002
  35        0.000691032
  36        0.000491212
  37        0.000000003
  38        0.000048228
  39        0.000000002
  40       -0.000000005
  41       -0.000047018
  42        0.000051059
  43       -0.501842102
  44       -0.002203094
  45        0.004048309
  46        0.000013726
  47        0.000037736
  48        0.000000001
  49        0.000688142
  50       -0.000483845
  51       -0.000000001
  52        0.000048398
  53        0.000000002
  54       -0.000000008
  55       -0.000047013
  56       -0.000051386
  57       -0.001706160
  58       -0.000007498
  59        0.000013779
  60       -0.000051914
  61        0.000000100
  62       -0.000000000
  63        0.001534119
  64        0.000001215
  65        0.000000001
  66        0.000000164
  67        0.000000011
  68        0.000000001
  69        0.000000213
  70       -0.000030268
  71        0.500133997
  72        0.002195601
  73       -0.004034589
  74        0.000013492
  75       -0.000037911
  76       -0.000000002
  77        0.000691038
  78        0.000491211
  79       -0.000000003
  80       -0.000048229
  81        0.000000003
  82        0.000000000
  83        0.000047018
  84       -0.000051059
  85       -0.000147788
  86        0.000516677
  87        0.000185014
  88        0.000114795
  89        0.000000000
  90       -0.000000492
  91        0.000001747
  92       -0.000013879
  93        0.000000732
  94       -0.000000001
  95        0.000147260
  96       -0.000514921
  97        0.000184321
  98       -0.000114482
  99        0.000000001
 100        0.000147789
 101       -0.000516683
 102        0.000185016
 103        0.000114795
 104       -0.000000001
 105        0.000000494
 106       -0.000001754
 107       -0.000013879
 108        0.000000734
 109        0.000000000
 110       -0.000147260
 111        0.000514916
 112        0.000184321
 113       -0.000114482
 114       -0.000000000
 Sym= A   
 Ene=       -11.229899
 Spin= Alpha
 Occup=       2.000000
   1        0.287821822
   2        0.001263568
   3       -0.002322155
   4        0.000037809
   5       -0.000030160
   6        0.000000001
   7       -0.000489240
   8        0.001253903
   9       -0.000000001
  10       -0.000027834
  11        0.000000002
  12       -0.000000000
  13       -0.000003157
  14        0.000047085
  15        0.578439971
  16        0.002539300
  17       -0.004665559
  18        0.000000151
  19        0.000035404
  20        0.000000001
  21       -0.000004523
  22        0.000407958
  23        0.000000004
  24       -0.000055669
  25       -0.000000005
  26       -0.000000004
  27       -0.000078124
  28       -0.000000088
  29        0.290772451
  30        0.001276523
  31       -0.002345957
  32       -0.000037891
  33       -0.000029937
  34       -0.000000000
  35        0.000485170
  36        0.001251026
  37       -0.000000003
  38       -0.000028118
  39       -0.000000008
  40       -0.000000006
  41       -0.000002880
  42       -0.000047392
  43       -0.287819520
  44       -0.001263558
  45        0.002322134
  46        0.000037808
  47       -0.000030160
  48       -0.000000001
  49       -0.000489242
  50        0.001253900
  51        0.000000002
  52        0.000027833
  53        0.000000007
  54       -0.000000003
  55        0.000003157
  56       -0.000047084
  57       -0.578439152
  58       -0.002539297
  59        0.004665556
  60        0.000000151
  61        0.000035403
  62       -0.000000002
  63       -0.000004524
  64        0.000407959
  65       -0.000000006
  66        0.000055669
  67       -0.000000001
  68       -0.000000007
  69        0.000078124
  70        0.000000088
  71       -0.290772828
  72       -0.001276526
  73        0.002345968
  74       -0.000037891
  75       -0.000029937
  76        0.000000000
  77        0.000485168
  78        0.001251030
  79        0.000000003
  80        0.000028119
  81       -0.000000008
  82       -0.000000004
  83        0.000002880
  84        0.000047392
  85       -0.000084904
  86        0.000296249
  87        0.000114184
  88        0.000052026
  89       -0.000000001
  90       -0.000170192
  91        0.000595485
  92        0.000000041
  93        0.000250736
  94        0.000000001
  95       -0.000085777
  96        0.000299283
  97       -0.000115274
  98        0.000052702
  99       -0.000000001
 100        0.000084902
 101       -0.000296247
 102        0.000114183
 103        0.000052025
 104        0.000000002
 105        0.000170192
 106       -0.000595484
 107        0.000000041
 108        0.000250736
 109       -0.000000002
 110        0.000085777
 111       -0.000299282
 112       -0.000115275
 113        0.000052703
 114        0.000000001
 Sym= A   
 Ene=       -11.228738
 Spin= Alpha
 Occup=       2.000000
   1       -0.502840593
   2       -0.002416606
   3        0.005773873
   4       -0.000034450
   5        0.000016953
   6        0.000000000
   7       -0.001018329
   8       -0.000999116
   9        0.000000001
  10        0.000423178
  11       -0.000000002
  12        0.000000001
  13        0.000043394
  14       -0.000070929
  15        0.003229541
  16        0.000015522
  17       -0.000037078
  18        0.000064483
  19        0.000000135
  20        0.000000000
  21       -0.000719615
  22        0.000008874
  23        0.000000002
  24       -0.000002718
  25       -0.000000007
  26       -0.000000002
  27       -0.000000250
  28       -0.000147532
  29        0.499613642
  30        0.002401095
  31       -0.005736780
  32       -0.000034649
  33       -0.000017561
  34       -0.000000001
  35       -0.001007168
  36        0.001000688
  37       -0.000000003
  38       -0.000420460
  39       -0.000000003
  40       -0.000000004
  41       -0.000044751
  42       -0.000071433
  43       -0.502837549
  44       -0.002416589
  45        0.005773811
  46        0.000034450
  47       -0.000016953
  48        0.000000001
  49        0.001018307
  50        0.000999108
  51        0.000000002
  52        0.000423174
  53        0.000000003
  54       -0.000000001
  55        0.000043395
  56       -0.000070928
  57        0.003224836
  58        0.000015498
  59       -0.000037003
  60       -0.000064483
  61       -0.000000135
  62        0.000000000
  63        0.000719612
  64       -0.000008850
  65        0.000000001
  66       -0.000002713
  67        0.000000010
  68        0.000000001
  69       -0.000000249
  70       -0.000147532
  71        0.499615373
  72        0.002401106
  73       -0.005736831
  74        0.000034649
  75        0.000017561
  76       -0.000000001
  77        0.001007188
  78       -0.001000697
  79       -0.000000003
  80       -0.000420464
  81        0.000000003
  82        0.000000004
  83       -0.000044751
  84       -0.000071433
  85        0.000300798
  86       -0.000204680
  87       -0.000302435
  88       -0.000166866
  89        0.000000000
  90       -0.000001930
  91        0.000001314
  92        0.000013595
  93        0.000002216
  94        0.000000001
  95       -0.000298877
  96        0.000203367
  97       -0.000300586
  98        0.000165647
  99        0.000000001
 100        0.000300795
 101       -0.000204683
 102        0.000302433
 103        0.000166865
 104        0.000000001
 105       -0.000001926
 106        0.000001315
 107       -0.000013595
 108       -0.000002213
 109        0.000000000
 110       -0.000298879
 111        0.000203364
 112        0.000300588
 113       -0.000165648
 114        0.000000000
 Sym= A   
 Ene=       -11.228738
 Spin= Alpha
 Occup=       2.000000
   1       -0.286515829
   2       -0.001377049
   3        0.003290252
   4        0.000017487
   5       -0.000054623
   6       -0.000000000
   7       -0.000994463
   8        0.000147418
   9       -0.000000002
  10        0.000241167
  11        0.000000000
  12        0.000000002
  13       -0.000122209
  14        0.000044537
  15        0.578838662
  16        0.002781584
  17       -0.006645738
  18       -0.000000363
  19        0.000024624
  20        0.000000000
  21        0.000004011
  22        0.001589954
  23        0.000000002
  24       -0.000487081
  25       -0.000000001
  26        0.000000000
  27       -0.000045526
  28        0.000000823
  29       -0.292105319
  30       -0.001403911
  31        0.003354441
  32       -0.000017107
  33       -0.000054430
  34        0.000000000
  35        0.001005761
  36        0.000136265
  37        0.000000000
  38        0.000245868
  39       -0.000000004
  40       -0.000000005
  41       -0.000121717
  42       -0.000043761
  43       -0.286518159
  44       -0.001377060
  45        0.003290281
  46       -0.000017487
  47        0.000054623
  48       -0.000000000
  49        0.000994470
  50       -0.000147416
  51       -0.000000003
  52        0.000241169
  53       -0.000000004
  54       -0.000000002
  55       -0.000122209
  56        0.000044535
  57        0.578839503
  58        0.002781588
  59       -0.006645755
  60        0.000000364
  61       -0.000024624
  62        0.000000001
  63       -0.000004007
  64       -0.001589960
  65        0.000000004
  66       -0.000487082
  67        0.000000001
  68       -0.000000000
  69       -0.000045526
  70        0.000000823
  71       -0.292104947
  72       -0.001403910
  73        0.003354448
  74        0.000017107
  75        0.000054430
  76        0.000000000
  77       -0.001005764
  78       -0.000136261
  79       -0.000000001
  80        0.000245869
  81        0.000000005
  82        0.000000005
  83       -0.000121718
  84       -0.000043760
  85        0.000171386
  86       -0.000116480
  87       -0.000164516
  88       -0.000108590
  89       -0.000000000
  90       -0.000346126
  91        0.000235671
  92       -0.000000075
  93        0.000397459
  94       -0.000000001
  95        0.000174719
  96       -0.000118754
  97        0.000167871
  98       -0.000110444
  99       -0.000000000
 100        0.000171387
 101       -0.000116481
 102        0.000164518
 103        0.000108591
 104       -0.000000001
 105       -0.000346127
 106        0.000235670
 107        0.000000075
 108       -0.000397460
 109       -0.000000001
 110        0.000174720
 111       -0.000118752
 112       -0.000167871
 113        0.000110444
 114       -0.000000001
 Sym= A   
 Ene=       -11.228170
 Spin= Alpha
 Occup=       2.000000
   1       -0.409382542
   2       -0.002179427
   3        0.007888648
   4        0.000004051
   5        0.000002328
   6        0.000000000
   7       -0.002425729
   8       -0.001400568
   9       -0.000000000
  10        0.000541126
  11        0.000000001
  12       -0.000000003
  13       -0.000039305
  14       -0.000068153
  15        0.409493827
  16        0.002179803
  17       -0.007889367
  18        0.000000003
  19       -0.000004677
  20        0.000000001
  21        0.000000010
  22        0.002800807
  23        0.000000000
  24       -0.000541107
  25        0.000000003
  26        0.000000001
  27       -0.000078591
  28       -0.000000001
  29       -0.409387548
  30       -0.002179452
  31        0.007888708
  32       -0.000004047
  33        0.000002328
  34        0.000000001
  35        0.002425751
  36       -0.001400573
  37        0.000000001
  38        0.000541130
  39       -0.000000002
  40       -0.000000001
  41       -0.000039305
  42        0.000068162
  43        0.409385649
  44        0.002179442
  45       -0.007888684
  46        0.000004051
  47        0.000002329
  48       -0.000000000
  49       -0.002425735
  50       -0.001400576
  51        0.000000000
  52       -0.000541129
  53        0.000000003
  54       -0.000000005
  55        0.000039304
  56        0.000068153
  57       -0.409492653
  58       -0.002179797
  59        0.007889352
  60        0.000000003
  61       -0.000004678
  62       -0.000000001
  63        0.000000005
  64        0.002800803
  65       -0.000000002
  66        0.000541105
  67        0.000000001
  68        0.000000002
  69        0.000078591
  70        0.000000002
  71        0.409382905
  72        0.002179430
  73       -0.007888656
  74       -0.000004047
  75        0.000002328
  76       -0.000000001
  77        0.002425741
  78       -0.001400566
  79        0.000000000
  80       -0.000541126
  81       -0.000000003
  82       -0.000000002
  83        0.000039305
  84       -0.000068162
  85        0.000361999
  86        0.000204036
  87       -0.000285433
  88       -0.000164797
  89        0.000000000
  90       -0.000361928
  91       -0.000203823
  92       -0.000000000
  93        0.000329605
  94       -0.000000001
  95        0.000362008
  96        0.000204040
  97        0.000285439
  98       -0.000164800
  99       -0.000000001
 100       -0.000362000
 101       -0.000204035
 102       -0.000285434
 103       -0.000164798
 104        0.000000000
 105        0.000361927
 106        0.000203823
 107       -0.000000000
 108        0.000329604
 109        0.000000002
 110       -0.000362005
 111       -0.000204042
 112        0.000285437
 113       -0.000164798
 114        0.000000001
 Sym= A   
 Ene=        -1.141175
 Spin= Alpha
 Occup=       2.000000
   1        0.011776470
   2       -0.179499650
   3       -0.100465747
   4        0.056201464
   5        0.032456535
   6        0.000000000
   7        0.010656741
   8        0.006153762
   9       -0.000000006
  10        0.009116362
  11       -0.000000013
  12        0.000000014
  13        0.002768509
  14        0.004795282
  15        0.011775788
  16       -0.179497948
  17       -0.100464423
  18       -0.000000034
  19        0.064893978
  20       -0.000000004
  21       -0.000000079
  22        0.012304755
  23       -0.000000050
  24        0.009116837
  25        0.000000036
  26        0.000000064
  27       -0.005539974
  28        0.000000026
  29        0.011776449
  30       -0.179499670
  31       -0.100465249
  32       -0.056201531
  33        0.032456507
  34        0.000000001
  35       -0.010656626
  36        0.006153379
  37        0.000000055
  38        0.009116299
  39        0.000000088
  40       -0.000000037
  41        0.002768458
  42       -0.004795490
  43        0.011776467
  44       -0.179499640
  45       -0.100465740
  46       -0.056201460
  47       -0.032456533
  48       -0.000000004
  49       -0.010656750
  50       -0.006153792
  51        0.000000009
  52        0.009116362
  53        0.000000054
  54       -0.000000056
  55        0.002768507
  56        0.004795273
  57        0.011775785
  58       -0.179497941
  59       -0.100464395
  60        0.000000028
  61       -0.064893977
  62       -0.000000006
  63        0.000000106
  64       -0.012304739
  65       -0.000000084
  66        0.009116836
  67       -0.000000007
  68       -0.000000098
  69       -0.005539977
  70        0.000000018
  71        0.011776452
  72       -0.179499669
  73       -0.100465314
  74        0.056201527
  75       -0.032456516
  76        0.000000000
  77        0.010656641
  78       -0.006153375
  79        0.000000060
  80        0.009116302
  81       -0.000000094
  82        0.000000009
  83        0.002768461
  84       -0.004795486
  85       -0.046607606
  86       -0.000901411
  87        0.007139749
  88        0.004122423
  89        0.000000003
  90       -0.046607203
  91       -0.000900845
  92       -0.000000003
  93        0.008244391
  94       -0.000000017
  95       -0.046607692
  96       -0.000901324
  97       -0.007139829
  98        0.004122430
  99        0.000000026
 100       -0.046607602
 101       -0.000901420
 102       -0.007139746
 103       -0.004122422
 104        0.000000006
 105       -0.046607201
 106       -0.000900841
 107       -0.000000000
 108       -0.008244392
 109       -0.000000022
 110       -0.046607686
 111       -0.000901324
 112        0.007139826
 113       -0.004122430
 114        0.000000026
 Sym= A   
 Ene=        -1.005985
 Spin= Alpha
 Occup=       2.000000
   1        0.015339909
   2       -0.214119850
   3       -0.130685318
   4       -0.004668837
   5        0.064314659
   6        0.000000015
   7        0.005423531
   8        0.027820524
   9       -0.000000020
  10        0.008660831
  11       -0.000000020
  12        0.000000029
  13        0.012441257
  14        0.002597605
  15        0.000000035
  16       -0.000001072
  17       -0.000000210
  18       -0.116062937
  19        0.000000164
  20        0.000000006
  21       -0.042763367
  22       -0.000000143
  23        0.000000037
  24        0.000000040
  25       -0.000000054
  26       -0.000000030
  27       -0.000000170
  28        0.018951600
  29       -0.015339804
  30        0.214118884
  31        0.130683862
  32       -0.004669267
  33       -0.064315315
  34       -0.000000003
  35        0.005422847
  36       -0.027820473
  37       -0.000000066
  38       -0.008660758
  39       -0.000000073
  40        0.000000066
  41       -0.012441441
  42        0.002597868
  43       -0.015339910
  44        0.214119849
  45        0.130685340
  46       -0.004668833
  47        0.064314654
  48       -0.000000009
  49        0.005423551
  50        0.027820534
  51        0.000000018
  52       -0.008660832
  53       -0.000000046
  54        0.000000088
  55       -0.012441256
  56       -0.002597596
  57       -0.000000033
  58        0.000001089
  59        0.000000205
  60       -0.116062932
  61        0.000000167
  62       -0.000000003
  63       -0.042763364
  64       -0.000000178
  65       -0.000000031
  66       -0.000000041
  67       -0.000000116
  68       -0.000000017
  69        0.000000168
  70       -0.018951600
  71        0.015339803
  72       -0.214118877
  73       -0.130683856
  74       -0.004669276
  75       -0.064315324
  76        0.000000010
  77        0.005422839
  78       -0.027820472
  79        0.000000063
  80        0.008660759
  81       -0.000000105
  82        0.000000021
  83        0.012441442
  84       -0.002597863
  85       -0.090409965
  86       -0.011405548
  87        0.010728681
  88        0.007910868
  89        0.000000005
  90       -0.000000480
  91        0.000000004
  92       -0.002972207
  93        0.000000106
  94        0.000000007
  95        0.090409681
  96        0.011405346
  97        0.010728742
  98       -0.007910892
  99       -0.000000029
 100        0.090409959
 101        0.011405556
 102        0.010728676
 103        0.007910869
 104       -0.000000003
 105        0.000000476
 106       -0.000000024
 107       -0.002972207
 108        0.000000102
 109       -0.000000004
 110       -0.090409673
 111       -0.011405341
 112        0.010728741
 113       -0.007910891
 114        0.000000034
 Sym= A   
 Ene=        -1.005958
 Spin= Alpha
 Occup=       2.000000