
                                        *****************
                                        * O   R   C   A *
                                        *****************

                                            #,                                       
                                            ###                                      
                                            ####                                     
                                            #####                                    
                                            ######                                   
                                           ########,                                 
                                     ,,################,,,,,                         
                               ,,#################################,,                 
                          ,,##########################################,,             
                       ,#########################################, ''#####,          
                    ,#############################################,,   '####,        
                  ,##################################################,,,,####,       
                ,###########''''           ''''###############################       
              ,#####''   ,,,,##########,,,,          '''####'''          '####       
            ,##' ,,,,###########################,,,                        '##       
           ' ,,###''''                  '''############,,,                           
         ,,##''                                '''############,,,,        ,,,,,,###''
      ,#''                                            '''#######################'''  
     '                                                          ''''####''''         
             ,#######,   #######,   ,#######,      ##                                
            ,#'     '#,  ##    ##  ,#'     '#,    #''#        ######   ,####,        
            ##       ##  ##   ,#'  ##            #'  '#       #        #'  '#        
            ##       ##  #######   ##           ,######,      #####,   #    #        
            '#,     ,#'  ##    ##  '#,     ,#' ,#      #,         ##   #,  ,#        
             '#######'   ##     ##  '#######'  #'      '#     #####' # '####'        



                  #######################################################
                  #                        -***-                        #
                  #          Department of theory and spectroscopy      #
                  #    Directorship and core code : Frank Neese         #
                  #        Max Planck Institute fuer Kohlenforschung    #
                  #                Kaiser Wilhelm Platz 1               #
                  #                 D-45470 Muelheim/Ruhr               #
                  #                      Germany                        #
                  #                                                     #
                  #                  All rights reserved                #
                  #                        -***-                        #
                  #######################################################


                         Program Version 5.0.0 -  RELEASE  -
                                (SVN: $Rev: 19529$)
                ($Date: 2021-06-28 11:36:33 +0200 (Mo, 28 Jun 2021) $)


 With contributions from (in alphabetic order):
   Daniel Aravena         : Magnetic Suceptibility
   Michael Atanasov       : Ab Initio Ligand Field Theory (pilot matlab implementation)
   Alexander A. Auer      : GIAO ZORA, VPT2 properties, NMR spectrum
   Ute Becker             : Parallelization
   Giovanni Bistoni       : ED, misc. LED, open-shell LED, HFLD
   Martin Brehm           : Molecular dynamics
   Dmytro Bykov           : SCF Hessian
   Vijay G. Chilkuri      : MRCI spin determinant printing, contributions to CSF-ICE
   Dipayan Datta          : RHF DLPNO-CCSD density
   Achintya Kumar Dutta   : EOM-CC, STEOM-CC
   Dmitry Ganyushin       : Spin-Orbit,Spin-Spin,Magnetic field MRCI
   Miquel Garcia          : C-PCM Hessian, Gaussian charge scheme
   Yang Guo               : DLPNO-NEVPT2, F12-NEVPT2, CIM, IAO-localization
   Andreas Hansen         : Spin unrestricted coupled pair/coupled cluster methods
   Benjamin Helmich-Paris : MC-RPA, TRAH-SCF, COSX integrals
   Lee Huntington         : MR-EOM, pCC
   Robert Izsak           : Overlap fitted RIJCOSX, COSX-SCS-MP3, EOM
   Marcus Kettner         : VPT2
   Christian Kollmar      : KDIIS, OOCD, Brueckner-CCSD(T), CCSD density, CASPT2, CASPT2-K
   Simone Kossmann        : Meta GGA functionals, TD-DFT gradient, OOMP2, MP2 Hessian
   Martin Krupicka        : Initial AUTO-CI
   Lucas Lang             : DCDCAS
   Marvin Lechner         : AUTO-CI (C++ implementation), FIC-MRCC
   Dagmar Lenk            : GEPOL surface, SMD
   Dimitrios Liakos       : Extrapolation schemes; Compound Job, initial MDCI parallelization
   Dimitrios Manganas     : Further ROCIS development; embedding schemes
   Dimitrios Pantazis     : SARC Basis sets
   Anastasios Papadopoulos: AUTO-CI, single reference methods and gradients
   Taras Petrenko         : DFT Hessian,TD-DFT gradient, ASA, ECA, R-Raman, ABS, FL, XAS/XES, NRVS
   Peter Pinski           : DLPNO-MP2, DLPNO-MP2 Gradient
   Christoph Reimann      : Effective Core Potentials
   Marius Retegan         : Local ZFS, SOC
   Christoph Riplinger    : Optimizer, TS searches, QM/MM, DLPNO-CCSD(T), (RO)-DLPNO pert. Triples
   Tobias Risthaus        : Range-separated hybrids, TD-DFT gradient, RPA, STAB
   Michael Roemelt        : Original ROCIS implementation
   Masaaki Saitow         : Open-shell DLPNO-CCSD energy and density
   Barbara Sandhoefer     : DKH picture change effects
   Avijit Sen             : IP-ROCIS
   Kantharuban Sivalingam : CASSCF convergence, NEVPT2, FIC-MRCI
   Bernardo de Souza      : ESD, SOC TD-DFT
   Georgi Stoychev        : AutoAux, RI-MP2 NMR
   Willem Van den Heuvel  : Paramagnetic NMR
   Boris Wezisla          : Elementary symmetry handling
   Frank Wennmohs         : Technical directorship


 We gratefully acknowledge several colleagues who have allowed us to
 interface, adapt or use parts of their codes:
   Stefan Grimme, W. Hujo, H. Kruse, P. Pracht,  : VdW corrections, initial TS optimization,
                  C. Bannwarth, S. Ehlert          DFT functionals, gCP, sTDA/sTD-DF
   Ed Valeev, F. Pavosevic, A. Kumar             : LibInt (2-el integral package), F12 methods
   Garnet Chan, S. Sharma, J. Yang, R. Olivares  : DMRG
   Ulf Ekstrom                                   : XCFun DFT Library
   Mihaly Kallay                                 : mrcc  (arbitrary order and MRCC methods)
   Jiri Pittner, Ondrej Demel                    : Mk-CCSD
   Frank Weinhold                                : gennbo (NPA and NBO analysis)
   Christopher J. Cramer and Donald G. Truhlar   : smd solvation model
   Lars Goerigk                                  : TD-DFT with DH, B97 family of functionals
   V. Asgeirsson, H. Jonsson                     : NEB implementation
   FAccTs GmbH                                   : IRC, NEB, NEB-TS, DLPNO-Multilevel, CI-OPT
                                                   MM, QMMM, 2- and 3-layer-ONIOM, Crystal-QMMM,
                                                   LR-CPCM, SF, NACMEs, symmetry and pop. for TD-DFT,
                                                   nearIR, NL-DFT gradient (VV10), updates on ESD,
                                                   ML-optimized integration grids
   S Lehtola, MJT Oliveira, MAL Marques          : LibXC Library
   Liviu Ungur et al                             : ANISO software


 Your calculation uses the libint2 library for the computation of 2-el integrals
 For citations please refer to: http://libint.valeyev.net

 Your ORCA version has been built with support for libXC version: 5.1.0
 For citations please refer to: https://tddft.org/programs/libxc/

 This ORCA versions uses:
   CBLAS   interface :  Fast vector & matrix operations
   LAPACKE interface :  Fast linear algebra routines
   SCALAPACK package :  Parallel linear algebra routines
   Shared memory     :  Shared parallel matrices
   BLAS/LAPACK       :  OpenBLAS 0.3.15  USE64BITINT DYNAMIC_ARCH NO_AFFINITY SkylakeX SINGLE_THREADED
        Core in use  :  SkylakeX
   Copyright (c) 2011-2014, The OpenBLAS Project


================================================================================

----- Orbital basis set information -----
Your calculation utilizes the basis: def2-SVP
   F. Weigend and R. Ahlrichs, Phys. Chem. Chem. Phys. 7, 3297 (2005).

================================================================================
                                        WARNINGS
                       Please study these warnings very carefully!
================================================================================


INFO   : the flag for use of the SHARK integral package has been found!

================================================================================
                                       INPUT FILE
================================================================================
NAME = /scratch/CH2-CAS22_137/CH2-CAS22.inp
|  1> ! def2-SVP pal4 VeryTightSCF
|  2> ! MOread
|  3> 
|  4> %moinp  "CH2-ROHF.gbw"
|  5> 
|  6> %casscf
|  7>     mult    3
|  8>     nel     2
|  9>     norb    2
| 10> end
| 11> 
| 12> *xyz 0 3
| 13>  C   -0.56828011888064      0.21526016701941      0.00000000000000
| 14>  H   -0.02093310180940     -0.71582241410459      0.00000000000000
| 15>  H   -1.62855716930996      0.42096895708518      0.00000000000000
| 16> *
| 17> 
| 18>                          ****END OF INPUT****
================================================================================

                       ****************************
                       * Single Point Calculation *
                       ****************************

---------------------------------
CARTESIAN COORDINATES (ANGSTROEM)
---------------------------------
  C     -0.568280    0.215260    0.000000
  H     -0.020933   -0.715822    0.000000
  H     -1.628557    0.420969    0.000000

----------------------------
CARTESIAN COORDINATES (A.U.)
----------------------------
  NO LB      ZA    FRAG     MASS         X           Y           Z
   0 C     6.0000    0    12.011   -1.073894    0.406783    0.000000
   1 H     1.0000    0     1.008   -0.039558   -1.352708    0.000000
   2 H     1.0000    0     1.008   -3.077527    0.795516    0.000000

--------------------------------
INTERNAL COORDINATES (ANGSTROEM)
--------------------------------
 C      0   0   0     0.000000000000     0.00000000     0.00000000
 H      1   0   0     1.080047929478     0.00000000     0.00000000
 H      1   2   0     1.080047929482   131.42938943     0.00000000

---------------------------
INTERNAL COORDINATES (A.U.)
---------------------------
 C      0   0   0     0.000000000000     0.00000000     0.00000000
 H      1   0   0     2.040994798222     0.00000000     0.00000000
 H      1   2   0     2.040994798229   131.42938943     0.00000000

---------------------
BASIS SET INFORMATION
---------------------
There are 2 groups of distinct atoms

 Group   1 Type C   : 7s4p1d contracted to 3s2p1d pattern {511/31/1}
 Group   2 Type H   : 4s1p contracted to 2s1p pattern {31/1}

Atom   0C    basis set group =>   1
Atom   1H    basis set group =>   2
Atom   2H    basis set group =>   2
--------------------------------------------------------------------------
WARNING: There was an error initializing an OpenFabrics device.

  Local host:   cnode05
  Local device: mlx5_0
--------------------------------------------------------------------------


           ************************************************************
           *        Program running with 4 parallel MPI-processes     *
           *              working on a common directory               *
           ************************************************************
------------------------------------------------------------------------------
                           ORCA GTO INTEGRAL CALCULATION
------------------------------------------------------------------------------
------------------------------------------------------------------------------
                   ___                                                        
                  /   \      - P O W E R E D   B Y -                         
                 /     \                                                     
                 |  |  |   _    _      __       _____    __    __             
                 |  |  |  | |  | |    /  \     |  _  \  |  |  /  |          
                  \  \/   | |  | |   /    \    | | | |  |  | /  /          
                 / \  \   | |__| |  /  /\  \   | |_| |  |  |/  /          
                |  |  |   |  __  | /  /__\  \  |    /   |      \           
                |  |  |   | |  | | |   __   |  |    \   |  |\   \          
                \     /   | |  | | |  |  |  |  | |\  \  |  | \   \       
                 \___/    |_|  |_| |__|  |__|  |_| \__\ |__|  \__/        
                                                                              
                      - O R C A' S   B I G   F R I E N D -                    
                                      &                                       
                       - I N T E G R A L  F E E D E R -                       
                                                                              
 v1 FN, 2020, v2 2021                                                         
------------------------------------------------------------------------------


Reading SHARK input file /scratch/CH2-CAS22_137/CH2-CAS22.SHARKINP.tmp ... ok
----------------------
SHARK INTEGRAL PACKAGE
----------------------

Number of atoms                             ...      3
Number of basis functions                   ...     24
Number of shells                            ...     12
Maximum angular momentum                    ...      2
Integral batch strategy                     ... SHARK/LIBINT Hybrid
RI-J (if used) integral strategy            ... SPLIT-RIJ (Revised 2003 algorithm where possible)
Printlevel                                  ...      1
Contraction scheme used                     ... SEGMENTED contraction
Coulomb Range Separation                    ... NOT USED
Exchange Range Separation                   ... NOT USED
Finite Nucleus Model                        ... NOT USED
Auxiliary Coulomb fitting basis             ... NOT available
Auxiliary J/K fitting basis                 ... NOT available
Auxiliary Correlation fitting basis         ... NOT available
Auxiliary 'external' fitting basis          ... NOT available
Integral threshold                          ...     1.000000e-12
Primitive cut-off                           ...     1.000000e-14
Primitive pair pre-selection threshold      ...     1.000000e-14

Calculating pre-screening integrals         ... done (  0.0 sec) Dimension = 12
Organizing shell pair data                  ... done (  0.0 sec)
Shell pair information
Total number of shell pairs                 ...        78
Shell pairs after pre-screening             ...        78
Total number of primitive shell pairs       ...       272
Primitive shell pairs kept                  ...       265
          la=0 lb=0:     28 shell pairs
          la=1 lb=0:     28 shell pairs
          la=1 lb=1:     10 shell pairs
          la=2 lb=0:      7 shell pairs
          la=2 lb=1:      4 shell pairs
          la=2 lb=2:      1 shell pairs

Calculating one electron integrals          ... done (  0.0 sec)
Calculating Nuclear repulsion               ... done (  0.0 sec) ENN=      6.148247449881 Eh

SHARK setup successfully completed in   0.1 seconds

Maximum memory used throughout the entire GTOINT-calculation: 6.7 MB
[cnode05:416287] 3 more processes have sent help message help-mpi-btl-openib.txt / error in device init
[cnode05:416287] Set MCA parameter "orte_base_help_aggregate" to 0 to see all help / error messages
--------------------------------------------------------------------------
WARNING: There was an error initializing an OpenFabrics device.

  Local host:   cnode05
  Local device: mlx5_0
--------------------------------------------------------------------------


           ************************************************************
           *        Program running with 4 parallel MPI-processes     *
           *              working on a common directory               *
           ************************************************************
-------------------------------------------------------------------------------
                                 ORCA SCF
-------------------------------------------------------------------------------

------------
SCF SETTINGS
------------
Hamiltonian:
 Ab initio Hamiltonian  Method          .... Hartree-Fock(GTOs)


General Settings:
 Integral files         IntName         .... /scratch/CH2-CAS22_137/CH2-CAS22
 Hartree-Fock type      HFTyp           .... CASSCF
 Total Charge           Charge          ....    0
 Multiplicity           Mult            ....    3
 Number of Electrons    NEL             ....    8
 Basis Dimension        Dim             ....   24
 Nuclear Repulsion      ENuc            ....      6.1482474499 Eh


Diagonalization of the overlap matrix:
Smallest eigenvalue                        ... 2.961e-02
Time for diagonalization                   ...    0.000 sec
Threshold for overlap eigenvalues          ... 1.000e-08
Number of eigenvalues below threshold      ... 0
Time for construction of square roots      ...    0.001 sec
Total time needed                          ...    0.002 sec

---------------------
INITIAL GUESS: MOREAD
---------------------
Guess MOs are being read from file: CH2-ROHF.gbw
Input Geometry matches current geometry (good)
Input basis set matches current basis set (good)
MOs were renormalized
Gram-Schmidt orthogonalization of all MOs with pivot on actives
                      ------------------
                      INITIAL GUESS DONE (   0.0 sec)
                      ------------------


 ... the calculation is a CASSCF calculation -I'm leaving here GOOD LUCK!!!

[cnode05:416320] 3 more processes have sent help message help-mpi-btl-openib.txt / error in device init
[cnode05:416320] Set MCA parameter "orte_base_help_aggregate" to 0 to see all help / error messages
--------------------------------------------------------------------------
WARNING: There was an error initializing an OpenFabrics device.

  Local host:   cnode05
  Local device: mlx5_0
--------------------------------------------------------------------------


           ************************************************************
           *        Program running with 4 parallel MPI-processes     *
           *              working on a common directory               *
           ************************************************************
-------------------------------------------------------------------------------
                              ORCA-CASSCF
-------------------------------------------------------------------------------

Setting up the integral package       ... done
Building the CAS space                ... done (1 configurations for Mult=3)

SYSTEM-SPECIFIC SETTINGS:
Number of active electrons          ...    2
Number of active orbitals           ...    2
Total number of electrons           ...    8
Total number of orbitals            ...   24

Determined orbital ranges:
   Internal       0 -    2 (   3 orbitals)
   Active         3 -    4 (   2 orbitals)
   External       5 -   23 (  19 orbitals)
Number of rotation parameters      ...    101

CI-STEP:
CI strategy                         ... General CI
Number of multiplicity blocks       ...    1
BLOCK  1 WEIGHT=   1.0000
  Multiplicity                      ...    3
  #(Configurations)                 ...    1
  #(CSFs)                           ...    1
  #(Roots)                          ...    1
    ROOT=0 WEIGHT=    1.000000
   ===>>> The calculation is a restricted open-shell Hartree-Fock case

  PrintLevel                        ...    1
  N(GuessMat)                       ...       512
  MaxDim(CI)                        ...        10
  MaxIter(CI)                       ...        64
  Energy Tolerance CI               ...  1.00e-09
  Residual Tolerance CI             ...  1.00e-09
  Shift(CI)                         ...  1.00e-04

INTEGRAL-TRANSFORMATION-STEP:
  Algorithm                         ... EXACT

ORBITAL-IMPROVEMENT-STEP:
  Algorithm                         ... SuperCI(PT)
  Default Parametrization           ... CAYLEY
  Act-Act rotations                 ... depends on algorithm used

  Note: SuperCI(PT) will ignore FreezeIE, FreezeAct and FreezeGrad. In general Default settings are encouraged.
        In conjunction with ShiftUp, ShiftDn or GradScaling the performance of SuperCI(PT) is less optimal.  

  MaxRot                            ... 2.00e-01 
  Max. no of vectors (DIIS)         ... 15
  DThresh (cut-off) metric          ... 1.00e-06
  Switch step at gradient           ...  3.00e-02 
  Switch step at iteration          ...        50   
  Switch step to                    ... SuperCI(PT)    

SCF-SETTINGS:
  Incremental                       ... on
  RIJCOSX approximation             ... off
  RI-JK approximation               ... off
  AO integral handling              ... DIRECT
  Integral Neglect Thresh           ...  1.00e-12
  Primitive cutoff TCut             ...  1.00e-14
  Energy convergence tolerance      ...  1.00e-08
  Orbital gradient convergence      ...  1.00e-05
  Max. number of iterations         ...        75  


FINAL ORBITALS:
  Active   Orbitals                 ... natural 
  Internal Orbitals                 ... canonical 
  External Orbitals                 ... canonical 

------------------
CAS-SCF ITERATIONS
------------------


MACRO-ITERATION   1: 
   --- Inactive Energy E0 = -37.54880450 Eh
CI-ITERATION   0: 
   -38.889390583   0.000000000000 (    0.00)
   CI-PROBLEM SOLVED
   DENSITIES MADE

                 <<<<<<<<<<<<<<<<<<INITIAL CI STATE CHECK>>>>>>>>>>>>>>>>>>

BLOCK  1 MULT= 3 NROOTS= 1 
ROOT   0:  E=     -38.8893905828 Eh
      1.00000 [     0]: 11

                 <<<<<<<<<<<<<<<<<<INITIAL CI STATE CHECK>>>>>>>>>>>>>>>>>>

   E(CAS)=   -38.889390583 Eh DE=    0.000000e+00
   --- Energy gap subspaces: Ext-Act = 0.323   Act-Int = 0.448
   N(occ)=  1.00000 1.00000
   ||g|| =     1.139065e-06 Max(G)=   -6.959022e-07 Rot=8,3
                     ---- THE CAS-SCF GRADIENT HAS CONVERGED ----
                            --- FINALIZING ORBITALS ---
                    ---- DOING ONE FINAL ITERATION FOR PRINTING ----
   --- Forming Natural Orbitals
   --- Canonicalize Internal Space
   --- Canonicalize External Space

MACRO-ITERATION   2: 
   --- Inactive Energy E0 = -37.54880450 Eh
   --- All densities will be recomputed
CI-ITERATION   0: 
   -38.889390583   0.000000000000 (    0.00)
   CI-PROBLEM SOLVED
   DENSITIES MADE
   E(CAS)=   -38.889390583 Eh DE=   -1.421085e-14
   --- Energy gap subspaces: Ext-Act = 0.323   Act-Int = 0.448
   N(occ)=  1.00000 1.00000
   ||g|| =     1.139065e-06 Max(G)=    6.959024e-07 Rot=8,4
--------------
CASSCF RESULTS
--------------

Final CASSCF energy       : -38.889390583 Eh   -1058.2341 eV

----------------
ORBITAL ENERGIES
----------------

  NO   OCC          E(Eh)            E(eV) 
   0   2.0000     -11.247863      -306.0699 
   1   2.0000      -0.840992       -22.8846 
   2   2.0000      -0.598758       -16.2930 
   3   1.0000      -0.106598        -2.9007 
   4   1.0000      -0.150792        -4.1032 
   5   0.0000       0.216140         5.8815 
   6   0.0000       0.266871         7.2619 
   7   0.0000       0.579364        15.7653 
   8   0.0000       0.682671        18.5764 
   9   0.0000       0.689335        18.7578 
  10   0.0000       0.722228        19.6528 
  11   0.0000       0.874086        23.7851 
  12   0.0000       0.955081        25.9891 
  13   0.0000       1.432153        38.9709 
  14   0.0000       1.663760        45.2732 
  15   0.0000       1.715458        46.6800 
  16   0.0000       1.722059        46.8596 
  17   0.0000       2.107737        57.3544 
  18   0.0000       2.245493        61.1030 
  19   0.0000       2.364525        64.3420 
  20   0.0000       2.487516        67.6888 
  21   0.0000       2.593500        70.5727 
  22   0.0000       3.152367        85.7803 
  23   0.0000       3.368909        91.6727 


---------------------------------------------
CAS-SCF STATES FOR BLOCK  1 MULT= 3 NROOTS= 1
---------------------------------------------

ROOT   0:  E=     -38.8893905828 Eh
      1.00000 [     0]: 11


--------------
DENSITY MATRIX
--------------

                  0          1    
      0       1.000000   0.000000
      1       0.000000   1.000000
Trace of the electron density:  2.000000
Extracting Spin-Density from 2-RDM (MULT=3) ... done

-------------------
SPIN-DENSITY MATRIX
-------------------

                  0          1    
      0       1.000000   0.000000
      1       0.000000   1.000000
Trace of the spin density:  2.000000

-----------------
ENERGY COMPONENTS
-----------------

One electron energy          :    -63.822775138 Eh       -1736.7060 eV
Two electron energy          :     18.785137105 Eh         511.1696 eV
Nuclear repulsion energy     :      6.148247450 Eh         167.3023 eV
                               ----------------
                                  -38.889390583

Kinetic energy               :     38.707430774 Eh        1053.2827 eV
Potential energy             :    -77.596821357 Eh       -2111.5169 eV
Virial ratio                 :     -2.004700901 
                               ----------------
                                  -38.889390583

Core energy                  :    -37.548804501 Eh    -1021.7549 eV


----------------------------
LOEWDIN ORBITAL-COMPOSITIONS
----------------------------

                      0         1         2         3         4         5   
                 -11.24786  -0.84099  -0.59876  -0.10660  -0.15079   0.21614
                   2.00000   2.00000   2.00000   1.00000   1.00000   0.00000
                  --------  --------  --------  --------  --------  --------
 0 C  s              99.7      47.5       0.0       0.0      15.0      17.1
 0 C  pz              0.0       0.0       0.0      96.1       0.0       0.0
 0 C  px              0.0       1.4      35.1       0.0      26.5       1.5
 0 C  py              0.0       2.8      17.6       0.0      53.0       3.0
 0 C  dz2             0.0       0.1       0.0       0.0       0.1       0.8
 0 C  dx2y2           0.0       0.0       0.7       0.0       0.0       0.1
 0 C  dxy             0.0       0.2       0.1       0.0       0.3       0.8
 1 H  s               0.1      22.3      22.5       0.0       1.4      31.5
 1 H  pz              0.0       0.0       0.0       2.0       0.0       0.0
 1 H  px              0.0       0.7       0.0       0.0       0.5       3.8
 1 H  py              0.1       1.1       0.7       0.0       0.7       3.1
 2 H  s               0.1      22.3      22.5       0.0       1.4      31.5
 2 H  pz              0.0       0.0       0.0       2.0       0.0       0.0
 2 H  px              0.1       1.5       0.7       0.0       0.3       5.3
 2 H  py              0.0       0.2       0.0       0.0       0.9       1.6

                      6         7         8         9        10        11   
                   0.26687   0.57936   0.68267   0.68933   0.72223   0.87409
                   0.00000   0.00000   0.00000   0.00000   0.00000   0.00000
                  --------  --------  --------  --------  --------  --------
 0 C  s               0.0      46.1      21.9       0.0       0.0      30.2
 0 C  pz              0.0       0.0       0.0       0.0     100.0       0.0
 0 C  px              8.7       1.7      24.2      42.7       0.0       8.2
 0 C  py              4.3       3.5      48.4      21.3       0.0      16.4
 0 C  dz2             0.0       4.2       0.4       0.0       0.0       1.4
 0 C  dx2y2           0.8       0.6       0.0       9.5       0.0       0.3
 0 C  dxy             0.1       5.0       0.3       1.2       0.0       2.5
 1 H  s              37.7      17.7       2.2      10.1       0.0      15.0
 1 H  px              0.2       1.6       0.1       1.7       0.0       1.6
 1 H  py              5.1       0.1       0.0       0.8       0.0       3.9
 2 H  s              37.7      17.7       2.2      10.1       0.0      15.0
 2 H  px              5.2       0.0       0.1       0.2       0.0       5.3
 2 H  py              0.1       1.7       0.1       2.3       0.0       0.3

                     12        13        14        15        16        17   
                   0.95508   1.43215   1.66376   1.71546   1.72206   2.10774
                   0.00000   0.00000   0.00000   0.00000   0.00000   0.00000
                  --------  --------  --------  --------  --------  --------
 0 C  s               0.0       0.0       1.3       0.0       0.0       3.3
 0 C  pz              0.0       0.0       0.0       0.0       2.3       0.0
 0 C  px             26.7       0.0       0.8       3.9       0.0       0.3
 0 C  py             13.3       0.0       1.5       1.9       0.0       0.6
 0 C  dz2             0.0       0.0       9.3       0.0       0.0      68.6
 0 C  dxz             0.0      21.5       0.0       0.0      12.4       0.0
 0 C  dyz             0.0      10.8       0.0       0.0      24.8       0.0
 0 C  dx2y2           4.5       0.0       3.0       6.6       0.0       0.0
 0 C  dxy             0.6       0.0      23.7       0.8       0.0       0.0
 1 H  s              19.4       0.0       0.9       2.0       0.0       0.9
 1 H  pz              0.0      33.8       0.0       0.0      30.3       0.0
 1 H  px              1.1       0.0      14.3      39.3       0.0       0.5
 1 H  py              7.0       0.0      15.1       2.1       0.0      12.2
 2 H  s              19.4       0.0       0.9       2.0       0.0       0.9
 2 H  pz              0.0      33.8       0.0       0.0      30.3       0.0
 2 H  px              8.1       0.0       5.8       0.5       0.0      12.4
 2 H  py              0.0       0.0      23.6      40.9       0.0       0.3

                     18        19        20        21        22        23   
                   2.24549   2.36453   2.48752   2.59350   3.15237   3.36891
                   0.00000   0.00000   0.00000   0.00000   0.00000   0.00000
                  --------  --------  --------  --------  --------  --------
 0 C  s               0.0       0.0       3.7       0.0       0.0      14.1
 0 C  pz              1.7       0.0       0.0       0.0       0.0       0.0
 0 C  px              0.0       5.3       1.3       0.0      11.0       0.8
 0 C  py              0.0       2.7       2.5       0.0       5.5       1.7
 0 C  dz2             0.0       0.0       2.8       0.0       0.0      12.2
 0 C  dxz            20.9       0.0       0.0      45.1       0.0       0.0
 0 C  dyz            41.9       0.0       0.0      22.6       0.0       0.0
 0 C  dx2y2           0.0      35.6       4.1       0.0      31.2       3.0
 0 C  dxy             0.0       4.4      32.4       0.0       3.9      23.7
 1 H  s               0.0       0.4       0.3       0.0       7.9       7.9
 1 H  pz             17.8       0.0       0.0      16.2       0.0       0.0
 1 H  px              0.0       0.1      26.0       0.0       7.5       0.9
 1 H  py              0.0      25.4       0.3       0.0       8.9      13.4
 2 H  s               0.0       0.4       0.3       0.0       7.9       7.9
 2 H  pz             17.8       0.0       0.0      16.2       0.0       0.0
 2 H  px              0.0      21.4       5.0       0.0      13.8      14.2
 2 H  py              0.0       4.2      21.3       0.0       2.5       0.1


----------------------------
LOEWDIN REDUCED ACTIVE MOs  
----------------------------

                      0         1         2         3         4         5   
                 -11.24786  -0.84099  -0.59876  -0.10660  -0.15079   0.21614
                   2.00000   2.00000   2.00000   1.00000   1.00000   0.00000
                  --------  --------  --------  --------  --------  --------
 0 C  s              99.7      47.5       0.0       0.0      15.0      17.1
 0 C  pz              0.0       0.0       0.0      96.1       0.0       0.0
 0 C  px              0.0       1.4      35.1       0.0      26.5       1.5
 0 C  py              0.0       2.8      17.6       0.0      53.0       3.0
 1 H  s               0.1      22.3      22.5       0.0       1.4      31.5
 2 H  s               0.1      22.3      22.5       0.0       1.4      31.5
 2 H  px              0.1       1.5       0.7       0.0       0.3       5.3

------------------------------------------------------------------------------
                           ORCA POPULATION ANALYSIS
------------------------------------------------------------------------------
Input electron density              ... /scratch/CH2-CAS22_137/CH2-CAS22.scfp
Input spin density                  ... /scratch/CH2-CAS22_137/CH2-CAS22.scfr
BaseName (.gbw .S,...)              ... /scratch/CH2-CAS22_137/CH2-CAS22

                    ********************************
                    * MULLIKEN POPULATION ANALYSIS *
                    ********************************

------------------------------------------
MULLIKEN ATOMIC CHARGES AND SPIN DENSITIES
------------------------------------------
   0 C :   -0.170611    1.955643
   1 H :    0.085306    0.022178
   2 H :    0.085306    0.022178
Sum of atomic charges       :   -0.0000000
Sum of atomic spin densities:    2.0000000

---------------------------------------------------
MULLIKEN REDUCED ORBITAL CHARGES AND SPIN DENSITIES
---------------------------------------------------
CHARGE
  0 C s       :     3.332183  s :     3.332183
      pz      :     0.989166  p :     2.825620
      px      :     0.935113
      py      :     0.901340
      dz2     :     0.002235  d :     0.012809
      dxz     :     0.000001
      dyz     :     0.000003
      dx2y2   :     0.006896
      dxy     :     0.003674
  1 H s       :     0.886648  s :     0.886648
      pz      :     0.005415  p :     0.028047
      px      :     0.007524
      py      :     0.015108
  2 H s       :     0.886648  s :     0.886648
      pz      :     0.005415  p :     0.028047
      px      :     0.018642
      py      :     0.003990

SPIN
  0 C s       :     0.192150  s :     0.192150
      pz      :     0.989166  p :     1.761891
      px      :     0.257584
      py      :     0.515141
      dz2     :     0.000484  d :     0.001603
      dxz     :     0.000001
      dyz     :     0.000003
      dx2y2   :     0.000124
      dxy     :     0.000991
  1 H s       :     0.014110  s :     0.014110
      pz      :     0.005415  p :     0.008068
      px      :     0.001890
      py      :     0.000763
  2 H s       :     0.014110  s :     0.014110
      pz      :     0.005415  p :     0.008068
      px      :     0.000094
      py      :     0.002560


                     *******************************
                     * LOEWDIN POPULATION ANALYSIS *
                     *******************************

-----------------------------------------
LOEWDIN ATOMIC CHARGES AND SPIN DENSITIES
-----------------------------------------
   0 C :   -0.012405    1.909736
   1 H :    0.006203    0.045132
   2 H :    0.006203    0.045132

--------------------------------------------------
LOEWDIN REDUCED ORBITAL CHARGES AND SPIN DENSITIES
--------------------------------------------------
CHARGE
  0 C s       :     3.094040  s :     3.094040
      pz      :     0.960691  p :     2.892126
      px      :     0.995102
      py      :     0.936333
      dz2     :     0.004205  d :     0.026239
      dxz     :     0.000042
      dyz     :     0.000084
      dx2y2   :     0.013973
      dxy     :     0.007934
  1 H s       :     0.910863  s :     0.910863
      pz      :     0.019592  p :     0.082934
      px      :     0.019990
      py      :     0.043353
  2 H s       :     0.910863  s :     0.910863
      pz      :     0.019592  p :     0.082934
      px      :     0.050267
      py      :     0.013076

SPIN
  0 C s       :     0.149689  s :     0.149689
      pz      :     0.960691  p :     1.755173
      px      :     0.264836
      py      :     0.529645
      dz2     :     0.001397  d :     0.004874
      dxz     :     0.000042
      dyz     :     0.000084
      dx2y2   :     0.000372
      dxy     :     0.002979
  1 H s       :     0.013717  s :     0.013717
      pz      :     0.019592  p :     0.031415
      px      :     0.005222
      py      :     0.006602
  2 H s       :     0.013717  s :     0.013717
      pz      :     0.019592  p :     0.031415
      px      :     0.002759
      py      :     0.009065


                      *****************************
                      * MAYER POPULATION ANALYSIS *
                      *****************************

  NA   - Mulliken gross atomic population
  ZA   - Total nuclear charge
  QA   - Mulliken gross atomic charge
  VA   - Mayer's total valence
  BVA  - Mayer's bonded valence
  FA   - Mayer's free valence

  ATOM       NA         ZA         QA         VA         BVA        FA
  0 C      6.1706     6.0000    -0.1706     3.8687     1.9562     1.9125
  1 H      0.9147     1.0000     0.0853     0.9771     0.9768     0.0003
  2 H      0.9147     1.0000     0.0853     0.9771     0.9768     0.0003

  Mayer bond orders larger than 0.100000
B(  0-C ,  1-H ) :   0.9781 B(  0-C ,  2-H ) :   0.9781 


-------------------------------------------------------------
 Forming the transition density       ... done in 0.000166 sec
-------------------------------------------------------------



==========================================
CASSCF UV, CD spectra and dipole moments
==========================================
-------------------
ABSORPTION SPECTRUM
-------------------

Center of mass           = ( -1.1435,  0.3083,  0.0000)
Nuclear contribution to the dipole moment =    -0.412057,   -0.582721,    0.000000 au

Calculating the Dipole integrals                  ... done
Transforming integrals                            ... done
Calculating the Linear Momentum integrals         ... done
Transforming integrals                            ... done
Calculating the Angular Momentum integrals        ... done
Transforming integrals                            ... done

------------------------------------------------------------------------------
                                 DIPOLE MOMENTS
------------------------------------------------------------------------------
  Root  Block           TX        TY        TZ           |T|
                      (Debye)   (Debye)   (Debye)      (Debye)
------------------------------------------------------------------------------
    0    0           -0.32550  -0.46032   0.00000      0.56378

--------------
CASSCF TIMINGS
--------------

Total time                       ...        0.3 sec
Sum of individual times          ...        0.0 sec (  5.6%)

Calculation of AO operators
   F(Core) operator              ...        0.0 sec (  1.4%)
   G(Act) operator               ...        0.0 sec (  0.9%)
   J(AO) operators               ...        0.0 sec (  0.0%)
Calculation of MO transformed quantities
   J(MO) operators               ...        0.0 sec (  2.4%)
   (pq|rs) integrals             ...        0.0 sec (  0.0%)
   AO->MO one electron integrals ...        0.0 sec (  0.0%)
Configuration interaction steps
   CI-setup phase                ...        0.0 sec (  0.1%)
   CI-solution phase             ...        0.0 sec (  0.7%)
   Generation of densities       ...        0.0 sec (  0.0%)
Orbital improvement steps
   Orbital gradient              ...        0.0 sec (  0.0%)
Properties                       ...        0.0 sec (  0.1%)
   SOC integral calculation      ...        0.0 sec (  0.0%)
   SSC RMEs (incl. integrals)    ...        0.0 sec (  0.0%)
   SOC RMEs                      ...        0.0 sec (  0.0%)

Maximum memory used throughout the entire CASSCF-calculation: 62.8 MB
[cnode05:416352] 3 more processes have sent help message help-mpi-btl-openib.txt / error in device init
[cnode05:416352] Set MCA parameter "orte_base_help_aggregate" to 0 to see all help / error messages

-------------------------   --------------------
FINAL SINGLE POINT ENERGY       -38.889390582815
-------------------------   --------------------


                            ***************************************
                            *     ORCA property calculations      *
                            ***************************************

                                    ---------------------
                                    Active property flags
                                    ---------------------
   (+) Dipole Moment


------------------------------------------------------------------------------
                       ORCA ELECTRIC PROPERTIES CALCULATION
------------------------------------------------------------------------------

Dipole Moment Calculation                       ... on
Quadrupole Moment Calculation                   ... off
Polarizability Calculation                      ... off
GBWName                                         ... /scratch/CH2-CAS22_137/CH2-CAS22.gbw
Electron density file                           ... /scratch/CH2-CAS22_137/CH2-CAS22.scfp
The origin for moment calculation is the CENTER OF MASS  = (-1.143549,  0.308278  0.000000)

-------------
DIPOLE MOMENT
-------------
                                X             Y             Z
Electronic contribution:      0.28400       0.40162       0.00000
Nuclear contribution   :     -0.41206      -0.58272       0.00000
                        -----------------------------------------
Total Dipole Moment    :     -0.12806      -0.18110       0.00000
                        -----------------------------------------
Magnitude (a.u.)       :      0.22180
Magnitude (Debye)      :      0.56378



--------------------
Rotational spectrum 
--------------------
 
Rotational constants in cm-1:    49.491373     8.627771     7.346981 
Rotational constants in MHz : 1483714.044143 258654.059176 220256.936203 

 Dipole components along the rotational axes: 
x,y,z [a.u.] :     0.000000    -0.221803     0.000000 
x,y,z [Debye]:     0.000000    -0.563779     0.000000 

 
--------------------------------------------------------------------------
WARNING: There was an error initializing an OpenFabrics device.

  Local host:   cnode05
  Local device: mlx5_0
--------------------------------------------------------------------------
[cnode05:416399] 3 more processes have sent help message help-mpi-btl-openib.txt / error in device init
[cnode05:416399] Set MCA parameter "orte_base_help_aggregate" to 0 to see all help / error messages

Timings for individual modules:

Sum of individual times         ...        4.606 sec (=   0.077 min)
GTO integral calculation        ...        0.348 sec (=   0.006 min)   7.6 %
SCF iterations                  ...        0.305 sec (=   0.005 min)   6.6 %
CASSCF iterations               ...        3.954 sec (=   0.066 min)  85.8 %
                             ****ORCA TERMINATED NORMALLY****
TOTAL RUN TIME: 0 days 0 hours 0 minutes 4 seconds 930 msec

Sender: Unischeduler System <lcz@mgt01>
Subject: Job 135656: <#!/bin/bash
#BSUB -J intel
#BSUB -o CH2-CAS22.out
#BSUB -n 4
#BSUB -q cqueue
export LD_LIBRARY_PATH=/apps/software/openmpi-4.1.1/lib:/apps/software/orca_5_0_0:$LD_LIBRARY_PATH
export PATH=/apps/software/openmpi-4.1.1/bin:/apps/software/orca_5_0_0:$PATH
mkdir /scratch/CH2-CAS22_137
scp $USER@mgt01:/apps/users/lcz/exe7/task7/session3/ORCA/CH2-CAS22.inp /scratch/CH2-CAS22_137
scp $USER@mgt01:/apps/users/lcz/exe7/task7/session3/ORCA/CH2-ROHF.gbw /scratch/CH2-CAS22_137
/apps/software/orca_5_0_0/orca /scratch/CH2-CAS22_137/CH2-CAS22.inp >& CH2-CAS22.out
scp /scratch/CH2-CAS22_137/*.gbw $USER@mgt01:/apps/users/lcz/exe7/task7/session3/ORCA
scp /scratch/CH2-CAS22_137/*.xyz $USER@mgt01:/apps/users/lcz/exe7/task7/session3/ORCA
scp /scratch/CH2-CAS22_137/*.trj $USER@mgt01:/apps/users/lcz/exe7/task7/session3/ORCA> Exited

Job <#!/bin/bash
#BSUB -J intel
#BSUB -o CH2-CAS22.out
#BSUB -n 4
#BSUB -q cqueue
export LD_LIBRARY_PATH=/apps/software/openmpi-4.1.1/lib:/apps/software/orca_5_0_0:$LD_LIBRARY_PATH
export PATH=/apps/software/openmpi-4.1.1/bin:/apps/software/orca_5_0_0:$PATH
mkdir /scratch/CH2-CAS22_137
scp $USER@mgt01:/apps/users/lcz/exe7/task7/session3/ORCA/CH2-CAS22.inp /scratch/CH2-CAS22_137
scp $USER@mgt01:/apps/users/lcz/exe7/task7/session3/ORCA/CH2-ROHF.gbw /scratch/CH2-CAS22_137
/apps/software/orca_5_0_0/orca /scratch/CH2-CAS22_137/CH2-CAS22.inp >& CH2-CAS22.out
scp /scratch/CH2-CAS22_137/*.gbw $USER@mgt01:/apps/users/lcz/exe7/task7/session3/ORCA
scp /scratch/CH2-CAS22_137/*.xyz $USER@mgt01:/apps/users/lcz/exe7/task7/session3/ORCA
scp /scratch/CH2-CAS22_137/*.trj $USER@mgt01:/apps/users/lcz/exe7/task7/session3/ORCA> was submitted from host <mgt01> by user <lcz>.
Job was executed on host(s) <4*cnode05>, in queue <cqueue>, as user <lcz>.
</apps/users/lcz> was used as the home directory.
</apps/users/lcz/exe7/task7/session3/ORCA> was used as the working directory.
Started at 2022-05-24 17:28:58
Results reported at 2022-05-24 17:29:05

Your job looked like:

------------------------------------------------------------
# User input
#!/bin/bash
#BSUB -J intel
#BSUB -o CH2-CAS22.out
#BSUB -n 4
#BSUB -q cqueue
export LD_LIBRARY_PATH=/apps/software/openmpi-4.1.1/lib:/apps/software/orca_5_0_0:$LD_LIBRARY_PATH
export PATH=/apps/software/openmpi-4.1.1/bin:/apps/software/orca_5_0_0:$PATH
mkdir /scratch/CH2-CAS22_137
scp $USER@mgt01:/apps/users/lcz/exe7/task7/session3/ORCA/CH2-CAS22.inp /scratch/CH2-CAS22_137
scp $USER@mgt01:/apps/users/lcz/exe7/task7/session3/ORCA/CH2-ROHF.gbw /scratch/CH2-CAS22_137
/apps/software/orca_5_0_0/orca /scratch/CH2-CAS22_137/CH2-CAS22.inp >& CH2-CAS22.out
scp /scratch/CH2-CAS22_137/*.gbw $USER@mgt01:/apps/users/lcz/exe7/task7/session3/ORCA
scp /scratch/CH2-CAS22_137/*.xyz $USER@mgt01:/apps/users/lcz/exe7/task7/session3/ORCA
scp /scratch/CH2-CAS22_137/*.trj $USER@mgt01:/apps/users/lcz/exe7/task7/session3/ORCA
------------------------------------------------------------

Exited with exit code 1.

Resource usage summary:

    Max Memory :                 0 MB
    Max Processes  :               1


The output (if any) follows:

/scratch/CH2-CAS22_137/*.xyz: No such file or directory
/scratch/CH2-CAS22_137/*.trj: No such file or directory
