
                                        *****************
                                        * O   R   C   A *
                                        *****************

                                            #,                                       
                                            ###                                      
                                            ####                                     
                                            #####                                    
                                            ######                                   
                                           ########,                                 
                                     ,,################,,,,,                         
                               ,,#################################,,                 
                          ,,##########################################,,             
                       ,#########################################, ''#####,          
                    ,#############################################,,   '####,        
                  ,##################################################,,,,####,       
                ,###########''''           ''''###############################       
              ,#####''   ,,,,##########,,,,          '''####'''          '####       
            ,##' ,,,,###########################,,,                        '##       
           ' ,,###''''                  '''############,,,                           
         ,,##''                                '''############,,,,        ,,,,,,###''
      ,#''                                            '''#######################'''  
     '                                                          ''''####''''         
             ,#######,   #######,   ,#######,      ##                                
            ,#'     '#,  ##    ##  ,#'     '#,    #''#        ######   ,####,        
            ##       ##  ##   ,#'  ##            #'  '#       #        #'  '#        
            ##       ##  #######   ##           ,######,      #####,   #    #        
            '#,     ,#'  ##    ##  '#,     ,#' ,#      #,         ##   #,  ,#        
             '#######'   ##     ##  '#######'  #'      '#     #####' # '####'        



                  #######################################################
                  #                        -***-                        #
                  #          Department of theory and spectroscopy      #
                  #    Directorship and core code : Frank Neese         #
                  #        Max Planck Institute fuer Kohlenforschung    #
                  #                Kaiser Wilhelm Platz 1               #
                  #                 D-45470 Muelheim/Ruhr               #
                  #                      Germany                        #
                  #                                                     #
                  #                  All rights reserved                #
                  #                        -***-                        #
                  #######################################################


                         Program Version 5.0.0 -  RELEASE  -
                                (SVN: $Rev: 19529$)
                ($Date: 2021-06-28 11:36:33 +0200 (Mo, 28 Jun 2021) $)


 With contributions from (in alphabetic order):
   Daniel Aravena         : Magnetic Suceptibility
   Michael Atanasov       : Ab Initio Ligand Field Theory (pilot matlab implementation)
   Alexander A. Auer      : GIAO ZORA, VPT2 properties, NMR spectrum
   Ute Becker             : Parallelization
   Giovanni Bistoni       : ED, misc. LED, open-shell LED, HFLD
   Martin Brehm           : Molecular dynamics
   Dmytro Bykov           : SCF Hessian
   Vijay G. Chilkuri      : MRCI spin determinant printing, contributions to CSF-ICE
   Dipayan Datta          : RHF DLPNO-CCSD density
   Achintya Kumar Dutta   : EOM-CC, STEOM-CC
   Dmitry Ganyushin       : Spin-Orbit,Spin-Spin,Magnetic field MRCI
   Miquel Garcia          : C-PCM Hessian, Gaussian charge scheme
   Yang Guo               : DLPNO-NEVPT2, F12-NEVPT2, CIM, IAO-localization
   Andreas Hansen         : Spin unrestricted coupled pair/coupled cluster methods
   Benjamin Helmich-Paris : MC-RPA, TRAH-SCF, COSX integrals
   Lee Huntington         : MR-EOM, pCC
   Robert Izsak           : Overlap fitted RIJCOSX, COSX-SCS-MP3, EOM
   Marcus Kettner         : VPT2
   Christian Kollmar      : KDIIS, OOCD, Brueckner-CCSD(T), CCSD density, CASPT2, CASPT2-K
   Simone Kossmann        : Meta GGA functionals, TD-DFT gradient, OOMP2, MP2 Hessian
   Martin Krupicka        : Initial AUTO-CI
   Lucas Lang             : DCDCAS
   Marvin Lechner         : AUTO-CI (C++ implementation), FIC-MRCC
   Dagmar Lenk            : GEPOL surface, SMD
   Dimitrios Liakos       : Extrapolation schemes; Compound Job, initial MDCI parallelization
   Dimitrios Manganas     : Further ROCIS development; embedding schemes
   Dimitrios Pantazis     : SARC Basis sets
   Anastasios Papadopoulos: AUTO-CI, single reference methods and gradients
   Taras Petrenko         : DFT Hessian,TD-DFT gradient, ASA, ECA, R-Raman, ABS, FL, XAS/XES, NRVS
   Peter Pinski           : DLPNO-MP2, DLPNO-MP2 Gradient
   Christoph Reimann      : Effective Core Potentials
   Marius Retegan         : Local ZFS, SOC
   Christoph Riplinger    : Optimizer, TS searches, QM/MM, DLPNO-CCSD(T), (RO)-DLPNO pert. Triples
   Tobias Risthaus        : Range-separated hybrids, TD-DFT gradient, RPA, STAB
   Michael Roemelt        : Original ROCIS implementation
   Masaaki Saitow         : Open-shell DLPNO-CCSD energy and density
   Barbara Sandhoefer     : DKH picture change effects
   Avijit Sen             : IP-ROCIS
   Kantharuban Sivalingam : CASSCF convergence, NEVPT2, FIC-MRCI
   Bernardo de Souza      : ESD, SOC TD-DFT
   Georgi Stoychev        : AutoAux, RI-MP2 NMR
   Willem Van den Heuvel  : Paramagnetic NMR
   Boris Wezisla          : Elementary symmetry handling
   Frank Wennmohs         : Technical directorship


 We gratefully acknowledge several colleagues who have allowed us to
 interface, adapt or use parts of their codes:
   Stefan Grimme, W. Hujo, H. Kruse, P. Pracht,  : VdW corrections, initial TS optimization,
                  C. Bannwarth, S. Ehlert          DFT functionals, gCP, sTDA/sTD-DF
   Ed Valeev, F. Pavosevic, A. Kumar             : LibInt (2-el integral package), F12 methods
   Garnet Chan, S. Sharma, J. Yang, R. Olivares  : DMRG
   Ulf Ekstrom                                   : XCFun DFT Library
   Mihaly Kallay                                 : mrcc  (arbitrary order and MRCC methods)
   Jiri Pittner, Ondrej Demel                    : Mk-CCSD
   Frank Weinhold                                : gennbo (NPA and NBO analysis)
   Christopher J. Cramer and Donald G. Truhlar   : smd solvation model
   Lars Goerigk                                  : TD-DFT with DH, B97 family of functionals
   V. Asgeirsson, H. Jonsson                     : NEB implementation
   FAccTs GmbH                                   : IRC, NEB, NEB-TS, DLPNO-Multilevel, CI-OPT
                                                   MM, QMMM, 2- and 3-layer-ONIOM, Crystal-QMMM,
                                                   LR-CPCM, SF, NACMEs, symmetry and pop. for TD-DFT,
                                                   nearIR, NL-DFT gradient (VV10), updates on ESD,
                                                   ML-optimized integration grids
   S Lehtola, MJT Oliveira, MAL Marques          : LibXC Library
   Liviu Ungur et al                             : ANISO software


 Your calculation uses the libint2 library for the computation of 2-el integrals
 For citations please refer to: http://libint.valeyev.net

 Your ORCA version has been built with support for libXC version: 5.1.0
 For citations please refer to: https://tddft.org/programs/libxc/

 This ORCA versions uses:
   CBLAS   interface :  Fast vector & matrix operations
   LAPACKE interface :  Fast linear algebra routines
   SCALAPACK package :  Parallel linear algebra routines
   Shared memory     :  Shared parallel matrices
   BLAS/LAPACK       :  OpenBLAS 0.3.15  USE64BITINT DYNAMIC_ARCH NO_AFFINITY SkylakeX SINGLE_THREADED
        Core in use  :  SkylakeX
   Copyright (c) 2011-2014, The OpenBLAS Project


================================================================================

----- Orbital basis set information -----
Your calculation utilizes the basis: def2-TZVP
   F. Weigend and R. Ahlrichs, Phys. Chem. Chem. Phys. 7, 3297 (2005).

================================================================================
                                        WARNINGS
                       Please study these warnings very carefully!
================================================================================


WARNING: Broken symmetry calculations need fully converged wavefunctions
  ===> : Setting SCFConvForced true
         You can overwrite this default with %scf ConvForced false 


INFO   : the flag for use of the SHARK integral package has been found!

================================================================================
                                       INPUT FILE
================================================================================
NAME = /scratch/RC2-flipspin_555/RC2-flipspin.inp
|  1> !UKS BP86 def2-TZVP Slowconv NoRI VeryTightSCF
|  2> !MOread
|  3> 
|  4> %pal
|  5>     nprocs          16
|  6> end
|  7> 
|  8> %moinp      "RC2-highspin.gbw"
|  9> 
| 10> %scf
| 11>     MaxIter         500
| 12>     FlipSpin        44
| 13>     FinalMs         0.5
| 14> end
| 15> 
| 16> *xyz +1 12
| 17>  C		41.75734		53.28449		36.46919
| 18>  N		42.79051		53.11573		35.57330
| 19>  H		43.17228		53.83016		34.93276
| 20>  C		43.13470		51.81354		35.56329
| 21>  H		43.91258		51.37948		34.93820
| 22>  N		42.38034		51.13480		36.42217
| 23>  C		41.51102		52.03696		36.99860
| 24>  H		40.83095		51.72793		37.79245
| 25>  C		40.09781		47.27650		33.80529
| 26>  N		40.02170		48.59447		33.39932
| 27>  H		39.44553		49.01241		32.66056
| 28>  C		40.82359		49.32561		34.20213
| 29>  H		40.95446		50.40104		34.10028
| 30>  N		41.40873		48.54956		35.10172
| 31>  C		40.96816		47.26932		34.87055
| 32>  H		41.28796		46.44831		35.50461
| 33>  C		38.24452		48.45120		37.81512
| 34>  H		38.05954		49.38046		37.26339
| 35>  H		37.98665		48.64263		38.86852
| 36>  C		39.72949		48.13040		37.79333
| 37>  O		40.09429		46.93627		38.07351
| 38>  O		40.51997		49.08118		37.60316
| 39>  C		38.64927		43.85206		40.73245
| 40>  N		39.75373		43.46182		41.46772
| 41>  H		39.79496		42.88382		42.31310
| 42>  C		40.85618		43.95072		40.86918
| 43>  H		41.86248		43.73518		41.21408
| 44>  N		40.53224		44.65285		39.79009
| 45>  C		39.15837		44.58557		39.68680
| 46>  H		38.64146		45.07274		38.87046
| 47>  C		42.78261		43.20374		35.50847
| 48>  N		41.70457		42.56369		36.07793
| 49>  H		41.38806		41.60804		35.87571
| 50>  C		41.22829		43.34611		37.06176
| 51>  H		40.41508		43.05921		37.72131
| 52>  N		41.93561		44.46974		37.14515
| 53>  C		42.91935		44.39163		36.18162
| 54>  H		43.65310		45.17946		36.03202
| 55>  C		45.76058		48.09668		34.01433
| 56>  H		45.12510		47.65198		33.22625
| 57>  H		46.65442		47.46412		34.10910
| 58>  C		44.94912		48.01873		35.29961
| 59>  O		44.13484		48.94943		35.55949
| 60>  O		45.08257		46.97820		36.01440
| 61>  Fe		42.54704		49.05340		36.88791
| 62>  Fe		41.81454		46.03362		38.62691
| 63>  O		42.83673		47.18336		37.38865
| 64>  H		43.73372		46.94370		37.02075
| 65>  C		43.49278		47.06016		40.65639
| 66>  C		43.63065		47.67500		42.05411
| 67>  C		45.10402		47.59104		42.50255
| 68>  C		45.62433		46.15327		42.46003
| 69>  C		45.40442		45.48020		41.08199
| 70>  C		43.93248		45.59938		40.69958
| 71>  O		42.19054		47.11944		40.15943
| 72>  O		42.78039		47.01168		42.97373
| 73>  O		45.28803		48.11581		43.80122
| 74>  O		46.99863		46.17840		42.81016
| 75>  O		45.74779		44.11749		41.08768
| 76>  O		43.60537		45.05344		39.42059
| 77>  H		44.16891		47.60985		39.96716
| 78>  H		43.37366		48.74650		41.98883
| 79>  H		45.70535		48.16646		41.76817
| 80>  H		45.03997		45.57270		43.19200
| 81>  H		46.02107		46.03839		40.34306
| 82>  H		43.34294		45.09136		41.47918
| 83>  H		42.11013		47.68750		43.28882
| 84>  H		45.23162		49.11556		43.72066
| 85>  H		47.38293		45.25457		42.73301
| 86>  H		46.61533		43.98339		41.55425
| 87>  H		43.52006		44.03995		39.45021
| 88>  O		42.85959		49.69549		38.87779
| 89>  O		44.06259		49.60890		38.41687
| 90>  H		41.30606		54.24869		36.70311
| 91>  H		39.55759		46.43186		33.37773
| 92>  H		37.59815		47.66320		37.42867
| 93>  H		37.60541		43.64578		40.96882
| 94>  H		43.42741		42.77068		34.74377
| 95>  H		46.04094		49.08905		33.66124
| 96> *
| 97> 
| 98> %method 
| 99>     frozencore  fc_ewin
|100> end
|101> 
|102> 
|103> 
|104> 
|105>                          ****END OF INPUT****
================================================================================

                       ****************************
                       * Single Point Calculation *
                       ****************************

---------------------------------
CARTESIAN COORDINATES (ANGSTROEM)
---------------------------------
  C     41.757340   53.284490   36.469190
  N     42.790510   53.115730   35.573300
  H     43.172280   53.830160   34.932760
  C     43.134700   51.813540   35.563290
  H     43.912580   51.379480   34.938200
  N     42.380340   51.134800   36.422170
  C     41.511020   52.036960   36.998600
  H     40.830950   51.727930   37.792450
  C     40.097810   47.276500   33.805290
  N     40.021700   48.594470   33.399320
  H     39.445530   49.012410   32.660560
  C     40.823590   49.325610   34.202130
  H     40.954460   50.401040   34.100280
  N     41.408730   48.549560   35.101720
  C     40.968160   47.269320   34.870550
  H     41.287960   46.448310   35.504610
  C     38.244520   48.451200   37.815120
  H     38.059540   49.380460   37.263390
  H     37.986650   48.642630   38.868520
  C     39.729490   48.130400   37.793330
  O     40.094290   46.936270   38.073510
  O     40.519970   49.081180   37.603160
  C     38.649270   43.852060   40.732450
  N     39.753730   43.461820   41.467720
  H     39.794960   42.883820   42.313100
  C     40.856180   43.950720   40.869180
  H     41.862480   43.735180   41.214080
  N     40.532240   44.652850   39.790090
  C     39.158370   44.585570   39.686800
  H     38.641460   45.072740   38.870460
  C     42.782610   43.203740   35.508470
  N     41.704570   42.563690   36.077930
  H     41.388060   41.608040   35.875710
  C     41.228290   43.346110   37.061760
  H     40.415080   43.059210   37.721310
  N     41.935610   44.469740   37.145150
  C     42.919350   44.391630   36.181620
  H     43.653100   45.179460   36.032020
  C     45.760580   48.096680   34.014330
  H     45.125100   47.651980   33.226250
  H     46.654420   47.464120   34.109100
  C     44.949120   48.018730   35.299610
  O     44.134840   48.949430   35.559490
  O     45.082570   46.978200   36.014400
  Fe    42.547040   49.053400   36.887910
  Fe    41.814540   46.033620   38.626910
  O     42.836730   47.183360   37.388650
  H     43.733720   46.943700   37.020750
  C     43.492780   47.060160   40.656390
  C     43.630650   47.675000   42.054110
  C     45.104020   47.591040   42.502550
  C     45.624330   46.153270   42.460030
  C     45.404420   45.480200   41.081990
  C     43.932480   45.599380   40.699580
  O     42.190540   47.119440   40.159430
  O     42.780390   47.011680   42.973730
  O     45.288030   48.115810   43.801220
  O     46.998630   46.178400   42.810160
  O     45.747790   44.117490   41.087680
  O     43.605370   45.053440   39.420590
  H     44.168910   47.609850   39.967160
  H     43.373660   48.746500   41.988830
  H     45.705350   48.166460   41.768170
  H     45.039970   45.572700   43.192000
  H     46.021070   46.038390   40.343060
  H     43.342940   45.091360   41.479180
  H     42.110130   47.687500   43.288820
  H     45.231620   49.115560   43.720660
  H     47.382930   45.254570   42.733010
  H     46.615330   43.983390   41.554250
  H     43.520060   44.039950   39.450210
  O     42.859590   49.695490   38.877790
  O     44.062590   49.608900   38.416870
  H     41.306060   54.248690   36.703110
  H     39.557590   46.431860   33.377730
  H     37.598150   47.663200   37.428670
  H     37.605410   43.645780   40.968820
  H     43.427410   42.770680   34.743770
  H     46.040940   49.089050   33.661240

----------------------------
CARTESIAN COORDINATES (A.U.)
----------------------------
  NO LB      ZA    FRAG     MASS         X           Y           Z
   0 C     6.0000    0    12.011   78.909937  100.693093   68.916781
   1 N     7.0000    0    14.007   80.862345  100.374183   67.223795
   2 H     1.0000    0     1.008   81.583786  101.724260   66.013350
   3 C     6.0000    0    12.011   81.512770   97.913401   67.204879
   4 H     1.0000    0     1.008   82.982750   97.093146   66.023630
   5 N     7.0000    0    14.007   80.087236   96.630768   68.827927
   6 C     6.0000    0    12.011   78.444459   98.335603   69.917221
   7 H     1.0000    0     1.008   77.159313   97.751621   71.417380
   8 C     6.0000    0    12.011   75.773879   89.339638   63.882740
   9 N     7.0000    0    14.007   75.630052   91.830240   63.115568
  10 H     1.0000    0     1.008   74.541249   92.620032   61.719514
  11 C     6.0000    0    12.011   77.145405   93.211894   64.632659
  12 H     1.0000    0     1.008   77.392713   95.244162   64.440190
  13 N     7.0000    0    14.007   78.251159   91.745372   66.332638
  14 C     6.0000    0    12.011   77.418603   89.326069   65.895790
  15 H     1.0000    0     1.008   78.022937   87.774585   67.093989
  16 C     6.0000    0    12.011   72.271669   91.559499   71.460221
  17 H     1.0000    0     1.008   71.922107   93.315546   70.417602
  18 H     1.0000    0     1.008   71.784365   91.921249   73.450858
  19 C     6.0000    0    12.011   75.077856   90.953275   71.419043
  20 O     8.0000    0    15.999   75.767228   88.696696   71.948507
  21 O     8.0000    0    15.999   76.571646   92.749989   71.059674
  22 C     6.0000    0    12.011   73.036536   82.868384   76.973175
  23 N     7.0000    0    14.007   75.123663   82.130937   78.362634
  24 H     1.0000    0     1.008   75.201576   81.038675   79.960171
  25 C     6.0000    0    12.011   77.206991   83.054824   77.231558
  26 H     1.0000    0     1.008   79.108622   82.647513   77.883324
  27 N     7.0000    0    14.007   76.594833   84.381658   75.192373
  28 C     6.0000    0    12.011   73.998595   84.254517   74.997183
  29 H     1.0000    0     1.008   73.021777   85.175135   73.454524
  30 C     6.0000    0    12.011   80.847416   81.643237   67.101284
  31 N     7.0000    0    14.007   78.810216   80.433717   68.177407
  32 H     1.0000    0     1.008   78.212099   78.627801   67.795267
  33 C     6.0000    0    12.011   77.910177   81.912277   70.036576
  34 H     1.0000    0     1.008   76.373433   81.370114   71.282945
  35 N     7.0000    0    14.007   79.246818   84.035630   70.194161
  36 C     6.0000    0    12.011   81.105817   83.888023   68.373353
  37 H     1.0000    0     1.008   82.492404   85.376806   68.090650
  38 C     6.0000    0    12.011   86.474964   90.889553   64.277768
  39 H     1.0000    0     1.008   85.274081   90.049192   62.788513
  40 H     1.0000    0     1.008   88.164077   89.694188   64.456858
  41 C     6.0000    0    12.011   84.941527   90.742249   66.706596
  42 O     8.0000    0    15.999   83.402761   92.501017   67.197698
  43 O     8.0000    0    15.999   85.193711   88.775932   68.057353
  44 Fe   26.0000    0    55.850   80.402253   92.697492   69.708048
  45 Fe   26.0000    0    55.850   79.018029   86.990935   72.994281
  46 O     8.0000    0    15.999   80.949688   89.163628   70.654309
  47 H     1.0000    0     1.008   82.644754   88.710737   69.959079
  48 C     6.0000    0    12.011   82.189443   88.930814   76.829443
  49 C     6.0000    0    12.011   82.449980   90.092693   79.470751
  50 C     6.0000    0    12.011   85.234245   89.934032   80.318179
  51 C     6.0000    0    12.011   86.217489   87.217040   80.237828
  52 C     6.0000    0    12.011   85.801919   85.945123   77.633710
  53 C     6.0000    0    12.011   83.020356   86.170340   76.911060
  54 O     8.0000    0    15.999   79.728566   89.042837   75.890324
  55 O     8.0000    0    15.999   80.843221   88.839200   81.208581
  56 O     8.0000    0    15.999   85.581974   90.925704   82.772310
  57 O     8.0000    0    15.999   88.814539   87.264529   80.899478
  58 O     8.0000    0    15.999   86.450794   83.369974   77.644463
  59 O     8.0000    0    15.999   82.402207   85.138663   74.494119
  60 H     1.0000    0     1.008   83.467144   89.969578   75.526987
  61 H     1.0000    0     1.008   81.964339   92.117535   79.347389
  62 H     1.0000    0     1.008   86.370594   91.021418   78.930402
  63 H     1.0000    0     1.008   85.113208   86.119922   81.621051
  64 H     1.0000    0     1.008   86.967219   86.999949   76.237335
  65 H     1.0000    0     1.008   81.906286   85.210321   78.384290
  66 H     1.0000    0     1.008   79.576613   90.116315   81.804014
  67 H     1.0000    0     1.008   85.475374   92.814957   82.620074
  68 H     1.0000    0     1.008   89.540761   85.518744   80.753686
  69 H     1.0000    0     1.008   88.090207   83.116562   78.526152
  70 H     1.0000    0     1.008   82.240995   83.223444   74.550093
  71 O     8.0000    0    15.999   80.992887   93.910866   73.468376
  72 O     8.0000    0    15.999   83.266228   93.747235   72.597363
  73 H     1.0000    0     1.008   78.057141  102.515167   69.358826
  74 H     1.0000    0     1.008   74.753012   87.743499   63.074769
  75 H     1.0000    0     1.008   71.050207   90.070395   70.729936
  76 H     1.0000    0     1.008   71.063926   82.478571   77.419850
  77 H     1.0000    0     1.008   82.065912   80.824872   65.656210
  78 H     1.0000    0     1.008   87.004768   92.764861   63.610525

--------------------------------
INTERNAL COORDINATES (ANGSTROEM)
--------------------------------
 C      0   0   0     0.000000000000     0.00000000     0.00000000
 N      1   0   0     1.377874841413     0.00000000     0.00000000
 H      2   1   0     1.032690684281   126.56690754     0.00000000
 C      2   1   3     1.346946826085   108.35158006   186.56018908
 H      4   2   1     1.088229243358   124.92766287   178.98437847
 N      4   2   1     1.329444188975   110.10748531   359.35947821
 C      1   2   3     1.377417725819   105.84666528   173.99902137
 H      7   1   2     1.090042461696   130.40979987   174.90689854
 C      6   4   2     5.190807550401   107.65597249   124.41301292
 N      9   6   4     1.381176778657    57.52939409   306.92484037
 H     10   9   6     1.025871361380   129.15152137   189.01941182
 C     10   9   6     1.349850794644   108.01764599     6.20346507
 H     12  10   9     1.088140645459   123.44233235   179.77801141
 N     12  10   9     1.324350629629   110.43018933   359.92760131
 C     14  12  10     1.373519548969   106.86653561     0.00000000
 H     15  14  12     1.085523626505   120.80761376   181.82736043
 C     14  12  10     4.169465094434    96.92506748   277.32786463
 H     17  14  12     1.096424981884    77.32412073   336.25796610
 H     17  14  12     1.101269241285   142.75857726   234.54965608
 C     17  14  12     1.519382553869    41.74938597   195.88908203
 O     20  17  14     1.279658676874   118.19707780   239.17921252
 O     20  17  14     1.251001945522   117.34051995    64.59710379
 C     21  20  17     4.320925369420   134.86787992   326.07680708
 N     23  21  20     1.383018843726   105.15859614   231.81570289
 H     24  23  21     1.024915243959   129.03282297   167.49683015
 C     24  23  21     1.346354093134   108.36712514   346.04559810
 H     26  24  23     1.085381588014   123.07933143   183.89869231
 N     26  24  23     1.327538658044   110.70834564     0.70912672
 C     23  21  20     1.374992237287    13.45045254   140.58425548
 H     29  23  24     1.082100527955   129.56906142   179.60030123
 C     16  15  14     3.572286103744   144.17769988   233.79635781
 N     31  16  15     1.376996345565    95.45465794   240.67009495
 H     32  31  16     1.026809831955   126.33332646   145.36367549
 C     32  31  16     1.344226604297   108.03007121   318.18916445
 H     34  32  31     1.085646497070   123.79488349   183.95187621
 N     34  32  31     1.330338246988   110.43305053     0.80083441
 C     31  16  15     1.372192188507    41.92271004   132.55488454
 H     37  31  16     1.086943113231   128.84480837   259.96734611
 C      5   4   2     3.878842045882   144.58232096   179.62505438
 H     39   5   4     1.105740931141   103.66947843    86.57997890
 H     39   5   4     1.099119398473   148.64845069   257.47756316
 C     39   5   4     1.522001383869    65.68191657   345.01328108
 O     42  39   5     1.263642363487   118.65344313    12.11235222
 O     42  39   5     1.269423620191   117.47984728   188.43130010
 Fe    43  42  39     2.072828574026   131.47951446   163.21136705
 Fe    21  20  17     2.019972436693   136.03436399   197.76568162
 O     45  43  42     1.957475528659    90.15243816   356.96668550
 H     47  45  43     0.998688332614   105.54179856    13.49314191
 C     46  21  20     2.826493046091   122.68845254    46.63948465
 C     49  46  21     1.533185429392   148.60727908    44.27832165
 C     50  49  46     1.542389987033   109.21568117   165.04840333
 C     51  50  49     1.529612048658   111.59362003   304.14512468
 C     52  51  50     1.549315292186   112.63064217    53.36196156
 C     53  52  51     1.525466697146   109.02556304   306.58945733
 O     49  46  21     1.395102998922    37.38531499    19.26663124
 O     50  49  46     1.417263713781   110.48127529    42.63886663
 O     51  50  49     1.412723257365   111.80654919   181.38722744
 O     52  51  50     1.418422723944   107.82206950   176.67090476
 O     53  52  51     1.405316290769   112.51821496   186.53375912
 O     54  53  52     1.428589113706   114.55182161   178.00140537
 H     49  46  21     1.111012540838    95.48583514   264.82311977
 H     50  49  46     1.103819545261   108.32633262   281.25979141
 H     51  50  49     1.109963931711   107.27332604    60.48064646
 H     52  51  50     1.101961077080   107.23974806   296.32603153
 H     53  52  51     1.112587454315   107.10399959    64.64625203
 H     54  53  52     1.101552491713   107.63570455   300.10753198
 H     56  50  49     1.002627970934   106.82791102   243.83497053
 H     57  51  50     1.004575564206   106.77670987   285.55335149
 H     58  52  51     1.003543960871   109.61780637   183.64752810
 H     59  53  52     0.994130789434   110.23829718   315.21720152
 H     60  54  53     1.017505341804   111.94898443    79.10026779
 O     45  43  42     2.114140365491   120.34424512    88.88161015
 O     72  45  43     1.291183207179    77.37200598   352.74349713
 H      1   2   3     1.089978827684   123.94054873   351.18175040
 H      9   6   4     1.089982537291   172.60394341   180.52973945
 H     17  14  12     1.089991641895   103.67159097    83.58905266
 H     23  21  20     1.089984364521   126.07201173    35.85243795
 H     31  16  15     1.089988116266   127.41709390    23.06269607
 H     39   5   4     1.089987382771    55.19134929   187.28548628

---------------------------
INTERNAL COORDINATES (A.U.)
---------------------------
 C      0   0   0     0.000000000000     0.00000000     0.00000000
 N      1   0   0     2.603806097091     0.00000000     0.00000000
 H      2   1   0     1.951502574342   126.56690754     0.00000000
 C      2   1   3     2.545360618255   108.35158006   186.56018908
 H      4   2   1     2.056455240871   124.92766287   178.98437847
 N      4   2   1     2.512285427496   110.10748531   359.35947821
 C      1   2   3     2.602942273806   105.84666528   173.99902137
 H      7   1   2     2.059881726951   130.40979987   174.90689854
 C      6   4   2     9.809204684149   107.65597249   124.41301292
 N      9   6   4     2.610045854192    57.52939409   306.92484037
 H     10   9   6     1.938615921641   129.15152137   189.01941182
 C     10   9   6     2.550848323532   108.01764599     6.20346507
 H     12  10   9     2.056287815106   123.44233235   179.77801141
 N     12  10   9     2.502659995286   110.43018933   359.92760131
 C     14  12  10     2.595575787138   106.86653561     0.00000000
 H     15  14  12     2.051342365995   120.80761376   181.82736043
 C     14  12  10     7.879147153424    96.92506748   277.32786463
 H     17  14  12     2.071942942151    77.32412073   336.25796610
 H     17  14  12     2.081097265740   142.75857726   234.54965608
 C     17  14  12     2.871216919469    41.74938597   195.88908203
 O     20  17  14     2.418204444189   118.19707780   239.17921252
 O     20  17  14     2.364051070039   117.34051995    64.59710379
 C     21  20  17     8.165365593317   134.86787992   326.07680708
 N     23  21  20     2.613526852694   105.15859614   231.81570289
 H     24  23  21     1.936809121564   129.03282297   167.49683015
 C     24  23  21     2.544240515308   108.36712514   346.04559810
 H     26  24  23     2.051073952147   123.07933143   183.89869231
 N     26  24  23     2.508684495896   110.70834564     0.70912672
 C     23  21  20     2.598358764740    13.45045254   140.58425548
 H     29  23  24     2.044873647206   129.56906142   179.60030123
 C     16  15  14     6.750642408088   144.17769988   233.79635781
 N     31  16  15     2.602145980529    95.45465794   240.67009495
 H     32  31  16     1.940389374013   126.33332646   145.36367549
 C     32  31  16     2.540220144052   108.03007121   318.18916445
 H     34  32  31     2.051574557713   123.79488349   183.95187621
 N     34  32  31     2.513974952289   110.43305053     0.80083441
 C     31  16  15     2.593067439385    41.92271004   132.55488454
 H     37  31  16     2.054024807158   128.84480837   259.96734611
 C      5   4   2     7.329949183455   144.58232096   179.62505438
 H     39   5   4     2.089547534923   103.66947843    86.57997890
 H     39   5   4     2.077034651595   148.64845069   257.47756316
 C     39   5   4     2.876165790962    65.68191657   345.01328108
 O     42  39   5     2.387937998212   118.65344313    12.11235222
 O     42  39   5     2.398862990093   117.47984728   188.43130010
 Fe    43  42  39     3.917078327476   131.47951446   163.21136705
 Fe    21  20  17     3.817194703420   136.03436399   197.76568162
 O     45  43  42     3.699092663019    90.15243816   356.96668550
 H     47  45  43     1.887247441784   105.54179856    13.49314191
 C     46  21  20     5.341297776545   122.68845254    46.63948465
 C     49  46  21     2.897300574069   148.60727908    44.27832165
 C     50  49  46     2.914694667195   109.21568117   165.04840333
 C     51  50  49     2.890547863110   111.59362003   304.14512468
 C     52  51  50     2.927781597327   112.63064217    53.36196156
 C     53  52  51     2.882714284022   109.02556304   306.58945733
 O     49  46  21     2.636362596574    37.38531499    19.26663124
 O     50  49  46     2.678240278590   110.48127529    42.63886663
 O     51  50  49     2.669660059441   111.80654919   181.38722744
 O     52  51  50     2.680430490384   107.82206950   176.67090476
 O     53  52  51     2.655662921091   112.51821496   186.53375912
 O     54  53  52     2.699642182806   114.55182161   178.00140537
 H     49  46  21     2.099509433536    95.48583514   264.82311977
 H     50  49  46     2.085916641813   108.32633262   281.25979141
 H     51  50  49     2.097527849465   107.27332604    60.48064646
 H     52  51  50     2.082404645923   107.23974806   296.32603153
 H     53  52  51     2.102485588693   107.10399959    64.64625203
 H     54  53  52     2.081632531477   107.63570455   300.10753198
 H     56  50  49     1.894692279275   106.82791102   243.83497053
 H     57  51  50     1.898372697179   106.77670987   285.55335149
 H     58  52  51     1.896423249396   109.61780637   183.64752810
 H     59  53  52     1.878634933329   110.23829718   315.21720152
 H     60  54  53     1.922806435812   111.94898443    79.10026779
 O     45  43  42     3.995146299447   120.34424512    88.88161015
 O     72  45  43     2.439982650286    77.37200598   352.74349713
 H      1   2   3     2.059761476096   123.94054873   351.18175040
 H      9   6   4     2.059768486237   172.60394341   180.52973945
 H     17  14  12     2.059785691444   103.67159097    83.58905266
 H     23  21  20     2.059771939201   126.07201173    35.85243795
 H     31  16  15     2.059779028971   127.41709390    23.06269607
 H     39   5   4     2.059777642867    55.19134929   187.28548628

---------------------
BASIS SET INFORMATION
---------------------
There are 5 groups of distinct atoms

 Group   1 Type C   : 11s6p2d1f contracted to 5s3p2d1f pattern {62111/411/11/1}
 Group   2 Type N   : 11s6p2d1f contracted to 5s3p2d1f pattern {62111/411/11/1}
 Group   3 Type H   : 5s1p contracted to 3s1p pattern {311/1}
 Group   4 Type O   : 11s6p2d1f contracted to 5s3p2d1f pattern {62111/411/11/1}
 Group   5 Type Fe  : 17s11p7d1f contracted to 6s4p4d1f pattern {842111/6311/4111/1}

Atom   0C    basis set group =>   1
Atom   1N    basis set group =>   2
Atom   2H    basis set group =>   3
Atom   3C    basis set group =>   1
Atom   4H    basis set group =>   3
Atom   5N    basis set group =>   2
Atom   6C    basis set group =>   1
Atom   7H    basis set group =>   3
Atom   8C    basis set group =>   1
Atom   9N    basis set group =>   2
Atom  10H    basis set group =>   3
Atom  11C    basis set group =>   1
Atom  12H    basis set group =>   3
Atom  13N    basis set group =>   2
Atom  14C    basis set group =>   1
Atom  15H    basis set group =>   3
Atom  16C    basis set group =>   1
Atom  17H    basis set group =>   3
Atom  18H    basis set group =>   3
Atom  19C    basis set group =>   1
Atom  20O    basis set group =>   4
Atom  21O    basis set group =>   4
Atom  22C    basis set group =>   1
Atom  23N    basis set group =>   2
Atom  24H    basis set group =>   3
Atom  25C    basis set group =>   1
Atom  26H    basis set group =>   3
Atom  27N    basis set group =>   2
Atom  28C    basis set group =>   1
Atom  29H    basis set group =>   3
Atom  30C    basis set group =>   1
Atom  31N    basis set group =>   2
Atom  32H    basis set group =>   3
Atom  33C    basis set group =>   1
Atom  34H    basis set group =>   3
Atom  35N    basis set group =>   2
Atom  36C    basis set group =>   1
Atom  37H    basis set group =>   3
Atom  38C    basis set group =>   1
Atom  39H    basis set group =>   3
Atom  40H    basis set group =>   3
Atom  41C    basis set group =>   1
Atom  42O    basis set group =>   4
Atom  43O    basis set group =>   4
Atom  44Fe   basis set group =>   5
Atom  45Fe   basis set group =>   5
Atom  46O    basis set group =>   4
Atom  47H    basis set group =>   3
Atom  48C    basis set group =>   1
Atom  49C    basis set group =>   1
Atom  50C    basis set group =>   1
Atom  51C    basis set group =>   1
Atom  52C    basis set group =>   1
Atom  53C    basis set group =>   1
Atom  54O    basis set group =>   4
Atom  55O    basis set group =>   4
Atom  56O    basis set group =>   4
Atom  57O    basis set group =>   4
Atom  58O    basis set group =>   4
Atom  59O    basis set group =>   4
Atom  60H    basis set group =>   3
Atom  61H    basis set group =>   3
Atom  62H    basis set group =>   3
Atom  63H    basis set group =>   3
Atom  64H    basis set group =>   3
Atom  65H    basis set group =>   3
Atom  66H    basis set group =>   3
Atom  67H    basis set group =>   3
Atom  68H    basis set group =>   3
Atom  69H    basis set group =>   3
Atom  70H    basis set group =>   3
Atom  71O    basis set group =>   4
Atom  72O    basis set group =>   4
Atom  73H    basis set group =>   3
Atom  74H    basis set group =>   3
Atom  75H    basis set group =>   3
Atom  76H    basis set group =>   3
Atom  77H    basis set group =>   3
Atom  78H    basis set group =>   3
--------------------------------------------------------------------------
WARNING: There was an error initializing an OpenFabrics device.

  Local host:   cnode16
  Local device: mlx5_0
--------------------------------------------------------------------------


           ************************************************************
           *        Program running with 16 parallel MPI-processes    *
           *              working on a common directory               *
           ************************************************************
------------------------------------------------------------------------------
                           ORCA GTO INTEGRAL CALCULATION
------------------------------------------------------------------------------
------------------------------------------------------------------------------
                   ___                                                        
                  /   \      - P O W E R E D   B Y -                         
                 /     \                                                     
                 |  |  |   _    _      __       _____    __    __             
                 |  |  |  | |  | |    /  \     |  _  \  |  |  /  |          
                  \  \/   | |  | |   /    \    | | | |  |  | /  /          
                 / \  \   | |__| |  /  /\  \   | |_| |  |  |/  /          
                |  |  |   |  __  | /  /__\  \  |    /   |      \           
                |  |  |   | |  | | |   __   |  |    \   |  |\   \          
                \     /   | |  | | |  |  |  |  | |\  \  |  | \   \       
                 \___/    |_|  |_| |__|  |__|  |_| \__\ |__|  \__/        
                                                                              
                      - O R C A' S   B I G   F R I E N D -                    
                                      &                                       
                       - I N T E G R A L  F E E D E R -                       
                                                                              
 v1 FN, 2020, v2 2021                                                         
------------------------------------------------------------------------------


Reading SHARK input file /scratch/RC2-flipspin_555/RC2-flipspin.SHARKINP.tmp ... ok
----------------------
SHARK INTEGRAL PACKAGE
----------------------

Number of atoms                             ...     79
Number of basis functions                   ...   1627
Number of shells                            ...    639
Maximum angular momentum                    ...      3
Integral batch strategy                     ... SHARK/LIBINT Hybrid
RI-J (if used) integral strategy            ... SPLIT-RIJ (Revised 2003 algorithm where possible)
Printlevel                                  ...      1
Contraction scheme used                     ... SEGMENTED contraction
Coulomb Range Separation                    ... NOT USED
Exchange Range Separation                   ... NOT USED
Finite Nucleus Model                        ... NOT USED
Auxiliary Coulomb fitting basis             ... NOT available
Auxiliary J/K fitting basis                 ... NOT available
Auxiliary Correlation fitting basis         ... NOT available
Auxiliary 'external' fitting basis          ... NOT available
Integral threshold                          ...     1.000000e-12
Primitive cut-off                           ...     1.000000e-14
Primitive pair pre-selection threshold      ...     1.000000e-14

Calculating pre-screening integrals         ... done (  1.1 sec) Dimension = 639
Organizing shell pair data                  ... done (  0.8 sec)
Shell pair information
Total number of shell pairs                 ...    204480
Shell pairs after pre-screening             ...    119768
Total number of primitive shell pairs       ...    646982
Primitive shell pairs kept                  ...    232939
          la=0 lb=0:  31441 shell pairs
          la=1 lb=0:  35147 shell pairs
          la=1 lb=1:   9903 shell pairs
          la=2 lb=0:  17109 shell pairs
          la=2 lb=1:   9842 shell pairs
          la=2 lb=2:   2440 shell pairs
          la=3 lb=0:   7264 shell pairs
          la=3 lb=1:   4265 shell pairs
          la=3 lb=2:   1956 shell pairs
          la=3 lb=3:    401 shell pairs

Calculating one electron integrals          ... done (  0.2 sec)
Calculating Nuclear repulsion               ... done (  0.0 sec) ENN=   8199.259930178932 Eh

SHARK setup successfully completed in   2.2 seconds

Maximum memory used throughout the entire GTOINT-calculation: 175.0 MB
[cnode16:18949] 15 more processes have sent help message help-mpi-btl-openib.txt / error in device init
[cnode16:18949] Set MCA parameter "orte_base_help_aggregate" to 0 to see all help / error messages
--------------------------------------------------------------------------
WARNING: There was an error initializing an OpenFabrics device.

  Local host:   cnode16
  Local device: mlx5_0
--------------------------------------------------------------------------


           ************************************************************
           *        Program running with 16 parallel MPI-processes    *
           *              working on a common directory               *
           ************************************************************
-------------------------------------------------------------------------------
                                 ORCA SCF
-------------------------------------------------------------------------------

------------
SCF SETTINGS
------------
Hamiltonian:
 Density Functional     Method          .... DFT(GTOs)
 Exchange Functional    Exchange        .... B88
   X-Alpha parameter    XAlpha          ....  0.666667
   Becke's b parameter  XBeta           ....  0.004200
 Correlation Functional Correlation     .... P86
 LDA part of GGA corr.  LDAOpt          .... PW91-LDA
 Gradients option       PostSCFGGA      .... off
   Density functional embedding theory  .... OFF


General Settings:
 Integral files         IntName         .... /scratch/RC2-flipspin_555/RC2-flipspin
 Hartree-Fock type      HFTyp           .... UHF
 Total Charge           Charge          ....    1
 Multiplicity           Mult            ....   12
 Number of Electrons    NEL             ....  377
 Basis Dimension        Dim             .... 1627
 Nuclear Repulsion      ENuc            ....   8199.2599301789 Eh

Convergence Acceleration:
 DIIS                   CNVDIIS         .... on
   Start iteration      DIISMaxIt       ....     0
   Startup error        DIISStart       ....  0.200000
   # of expansion vecs  DIISMaxEq       ....     5
   Bias factor          DIISBfac        ....   1.050
   Max. coefficient     DIISMaxC        ....  10.000
 Trust-Rad. Augm. Hess. CNVTRAH         .... auto
   Auto Start mean grad. ratio tolernc. ....  1.125000
   Auto Start start iteration           ....     1
   Auto Start num. interpolation iter.  ....    10
   Max. Number of Micro iterations      ....    16
   Max. Number of Macro iterations      .... Maxiter - #DIIS iter
   Number of Davidson start vectors     ....     2
   Converg. threshold I  (grad. norm)   ....   2.000e-06
   Converg. threshold II (energy diff.) ....   1.000e-09
   Grad. Scal. Fac. for Micro threshold ....   0.100
   Minimum threshold for Micro iter.    ....   0.010
   NR start threshold (gradient norm)   ....   0.001
   Initial trust radius                 ....   0.400
   Minimum AH scaling param. (alpha)    ....   1.000
   Maximum AH scaling param. (alpha)    .... 1000.000
   Orbital update algorithm             .... Taylor
   White noise on init. David. guess    .... on
   Maximum white noise                  ....   0.010
   Quad. conv. algorithm                .... NR
 SOSCF                  CNVSOSCF        .... off
 Level Shifting         CNVShift        .... on
   Level shift para.    LevelShift      ....    0.2500
   Turn off err/grad.   ShiftErr        ....    0.0000
 Zerner damping         CNVZerner       .... off
 Static damping         CNVDamp         .... on
   Fraction old density DampFac         ....    0.8500
   Max. Damping (<1)    DampMax         ....    0.9800
   Min. Damping (>=0)   DampMin         ....    0.0000
   Turn off err/grad.   DampErr         ....    0.0300
 Fernandez-Rico         CNVRico         .... off

SCF Procedure:
 Maximum # iterations   MaxIter         ....   500
 SCF integral mode      SCFMode         .... Direct
   Integral package                     .... SHARK and LIBINT hybrid scheme
 Reset frequency        DirectResetFreq ....    20
 Integral Threshold     Thresh          ....  1.000e-12 Eh
 Primitive CutOff       TCut            ....  1.000e-14 Eh

Convergence Tolerance:
 Convergence Check Mode ConvCheckMode   .... Total+1el-Energy
 Convergence forced     ConvForced      .... 1
 Energy Change          TolE            ....  1.000e-09 Eh
 1-El. energy change                    ....  1.000e-06 Eh
 DIIS Error             TolErr          ....  1.000e-08


The Flip-Spin feature is operative for generating broken symmetry solutions
 Fe44
We will now do a high-spin calculation with                 Ms=  5.5
and then try to converge to the broken symmetry state with Ms=  0.5


Diagonalization of the overlap matrix:
Smallest eigenvalue                        ... 3.228e-05
Time for diagonalization                   ...    0.326 sec
Threshold for overlap eigenvalues          ... 1.000e-08
Number of eigenvalues below threshold      ... 0
Time for construction of square roots      ...    0.656 sec
Total time needed                          ...    0.991 sec

---------------------
INITIAL GUESS: MOREAD
---------------------
Guess MOs are being read from file: RC2-highspin.gbw
Input Geometry matches current geometry (good)
Input basis set matches current basis set (good)
MOs were renormalized
[cnode16:19073] 15 more processes have sent help message help-mpi-btl-openib.txt / error in device init
[cnode16:19073] Set MCA parameter "orte_base_help_aggregate" to 0 to see all help / error messages
MOs were reorthogonalized (Cholesky)
                      ------------------
                      INITIAL GUESS DONE (   3.6 sec)
                      ------------------
-------------------
DFT GRID GENERATION
-------------------

General Integration Accuracy     IntAcc      ... 4.388
Radial Grid Type                 RadialGrid  ... OptM3 with GC (2021)
Angular Grid (max. ang.)         AngularGrid ... 4 (Lebedev-302)
Angular grid pruning method      GridPruning ... 4 (adaptive)
Weight generation scheme         WeightScheme... Becke
Basis function cutoff            BFCut       ... 1.0000e-12
Integration weight cutoff        WCut        ... 1.0000e-14
Angular grids for H and He will be reduced by one unit
Partially contracted basis set               ... off
Rotationally invariant grid construction     ... off

Total number of grid points                  ...   385150
Total number of batches                      ...     6059
Average number of points per batch           ...       63
Average number of grid points per atom       ...     4875
Time for grid setup =    2.873 sec

--------------
SCF ITERATIONS
--------------
ITER       Energy         Delta-E        Max-DP      RMS-DP      [F,P]     Damp
               ***  Starting incremental Fock matrix formation  ***
  0  -4803.4847386161   0.000000000000 0.00000001  0.00000000  0.0000000 0.8500
  1  -4803.4847386171  -0.000000001011 0.00000002  0.00000000  0.0000000 0.8500
                               ***Turning on DIIS***
  2  -4803.4847386200  -0.000000002885 0.00000021  0.00000000  0.0000000 0.0000
  3  -4803.4847386255  -0.000000005531 0.00000020  0.00000000  0.0000000 0.0000
                            ***DIIS convergence achieved***

               *****************************************************
               *                     SUCCESS                       *
               *           SCF CONVERGED AFTER   4 CYCLES          *
               *****************************************************


----------------
TOTAL SCF ENERGY
----------------

Total Energy       :        -4803.48473861 Eh         -130709.46488 eV

Components:
Nuclear Repulsion  :         8199.25993018 Eh          223113.20556 eV
Electronic Energy  :       -13002.74466879 Eh         -353822.67043 eV
One Electron Energy:       -22926.12688773 Eh         -623851.62862 eV
Two Electron Energy:         9923.38221894 Eh          270028.95818 eV

Virial components:
Potential Energy   :        -9593.08481497 Eh         -261041.10889 eV
Kinetic Energy     :         4789.60007636 Eh          130331.64401 eV
Virial Ratio       :            2.00289892


DFT components:
N(Alpha)           :      194.000212620389 electrons
N(Beta)            :      183.000186274914 electrons
N(Total)           :      377.000398895303 electrons
E(X)               :     -396.148276882446 Eh       
E(C)               :      -14.758026355174 Eh       
E(XC)              :     -410.906303237620 Eh       
DFET-embed. en.    :        0.000000000000 Eh       

---------------
SCF CONVERGENCE
---------------

  Last Energy change         ...    1.8142e-08  Tolerance :   1.0000e-09
  Last MAX-Density change    ...    6.1858e-07  Tolerance :   1.0000e-08
  Last RMS-Density change    ...    1.8527e-09  Tolerance :   1.0000e-09
  Last DIIS Error            ...    1.7678e-08  Tolerance :   1.0000e-08

             **** THE GBW FILE WAS UPDATED (/scratch/RC2-flipspin_555/RC2-flipspin.gbw) ****
             **** DENSITY /scratch/RC2-flipspin_555/RC2-flipspin.scfp WAS UPDATED ****
             **** ENERGY FILE WAS UPDATED (/scratch/RC2-flipspin_555/RC2-flipspin.en.tmp) ****
----------------------
UHF SPIN CONTAMINATION
----------------------

Warning: in a DFT calculation there is little theoretical justification to 
         calculate <S**2> as in Hartree-Fock theory. We will do it anyways
         but you should keep in mind that the values have only limited relevance

Expectation value of <S**2>     :    35.767433
Ideal value S*(S+1) for S=5.5   :    35.750000
Deviation                       :     0.017433

             **** THE GBW FILE WAS UPDATED (/scratch/RC2-flipspin_555/RC2-flipspin.gbw) ****
             **** DENSITY /scratch/RC2-flipspin_555/RC2-flipspin.scfp WAS UPDATED ****
----------------
ORBITAL ENERGIES
----------------
                 SPIN UP ORBITALS
  NO   OCC          E(Eh)            E(eV) 
   0   1.0000    -254.938683     -6937.2342 
   1   1.0000    -254.912614     -6936.5249 
   2   1.0000     -29.718790      -808.6894 
   3   1.0000     -29.688779      -807.8728 
   4   1.0000     -25.654114      -698.0839 
   5   1.0000     -25.649263      -697.9519 
   6   1.0000     -25.646217      -697.8690 
   7   1.0000     -25.627104      -697.3490 
   8   1.0000     -25.617592      -697.0901 
   9   1.0000     -25.616338      -697.0560 
  10   1.0000     -18.909671      -514.5583 
  11   1.0000     -18.908722      -514.5325 
  12   1.0000     -18.902486      -514.3628 
  13   1.0000     -18.859365      -513.1894 
  14   1.0000     -18.843860      -512.7675 
  15   1.0000     -18.839915      -512.6601 
  16   1.0000     -18.839708      -512.6545 
  17   1.0000     -18.831511      -512.4315 
  18   1.0000     -18.829428      -512.3748 
  19   1.0000     -18.823043      -512.2010 
  20   1.0000     -18.814543      -511.9698 
  21   1.0000     -18.810476      -511.8591 
  22   1.0000     -18.789154      -511.2789 
  23   1.0000     -14.175641      -385.7388 
  24   1.0000     -14.174895      -385.7185 
  25   1.0000     -14.161719      -385.3600 
  26   1.0000     -14.159447      -385.2981 
  27   1.0000     -14.118260      -384.1774 
  28   1.0000     -14.117852      -384.1663 
  29   1.0000     -14.103343      -383.7715 
  30   1.0000     -14.096999      -383.5988 
  31   1.0000     -10.085872      -274.4505 
  32   1.0000     -10.067207      -273.9426 
  33   1.0000     -10.065807      -273.9045 
  34   1.0000     -10.054101      -273.5860 
  35   1.0000     -10.049864      -273.4707 
  36   1.0000     -10.048122      -273.4233 
  37   1.0000     -10.038444      -273.1599 
  38   1.0000     -10.034343      -273.0484 
  39   1.0000     -10.032331      -272.9936 
  40   1.0000     -10.025588      -272.8101 
  41   1.0000     -10.023234      -272.7460 
  42   1.0000     -10.022055      -272.7140 
  43   1.0000     -10.021974      -272.7118 
  44   1.0000     -10.016866      -272.5728 
  45   1.0000     -10.015299      -272.5301 
  46   1.0000     -10.014537      -272.5094 
  47   1.0000     -10.013277      -272.4751 
  48   1.0000     -10.012043      -272.4415 
  49   1.0000     -10.009430      -272.3704 
  50   1.0000     -10.003664      -272.2135 
  51   1.0000      -9.971580      -271.3405 
  52   1.0000      -9.948831      -270.7214 
  53   1.0000      -3.490830       -94.9903 
  54   1.0000      -3.462270       -94.2131 
  55   1.0000      -2.311838       -62.9083 
  56   1.0000      -2.301379       -62.6237 
  57   1.0000      -2.295738       -62.4702 
  58   1.0000      -2.289142       -62.2907 
  59   1.0000      -2.269088       -61.7450 
  60   1.0000      -2.266302       -61.6692 
  61   1.0000      -1.157649       -31.5012 
  62   1.0000      -1.061319       -28.8800 
  63   1.0000      -1.059343       -28.8262 
  64   1.0000      -1.055995       -28.7351 
  65   1.0000      -1.055388       -28.7186 
  66   1.0000      -1.041452       -28.3393 
  67   1.0000      -1.038491       -28.2588 
  68   1.0000      -1.031185       -28.0600 
  69   1.0000      -1.027715       -27.9656 
  70   1.0000      -1.015048       -27.6209 
  71   1.0000      -1.002293       -27.2738 
  72   1.0000      -0.987688       -26.8764 
  73   1.0000      -0.975088       -26.5335 
  74   1.0000      -0.967128       -26.3169 
  75   1.0000      -0.944076       -25.6896 
  76   1.0000      -0.933011       -25.3885 
  77   1.0000      -0.919790       -25.0288 
  78   1.0000      -0.917349       -24.9623 
  79   1.0000      -0.904377       -24.6093 
  80   1.0000      -0.901156       -24.5217 
  81   1.0000      -0.813081       -22.1251 
  82   1.0000      -0.795040       -21.6341 
  83   1.0000      -0.791355       -21.5339 
  84   1.0000      -0.779020       -21.1982 
  85   1.0000      -0.777417       -21.1546 
  86   1.0000      -0.776692       -21.1349 
  87   1.0000      -0.741660       -20.1816 
  88   1.0000      -0.736706       -20.0468 
  89   1.0000      -0.720189       -19.5973 
  90   1.0000      -0.715395       -19.4669 
  91   1.0000      -0.678959       -18.4754 
  92   1.0000      -0.677840       -18.4450 
  93   1.0000      -0.663677       -18.0596 
  94   1.0000      -0.662601       -18.0303 
  95   1.0000      -0.653597       -17.7853 
  96   1.0000      -0.651253       -17.7215 
  97   1.0000      -0.646862       -17.6020 
  98   1.0000      -0.639816       -17.4103 
  99   1.0000      -0.635227       -17.2854 
 100   1.0000      -0.628763       -17.1095 
 101   1.0000      -0.622659       -16.9434 
 102   1.0000      -0.617484       -16.8026 
 103   1.0000      -0.610709       -16.6182 
 104   1.0000      -0.606789       -16.5116 
 105   1.0000      -0.597483       -16.2583 
 106   1.0000      -0.578586       -15.7441 
 107   1.0000      -0.571977       -15.5643 
 108   1.0000      -0.564200       -15.3527 
 109   1.0000      -0.547251       -14.8915 
 110   1.0000      -0.545998       -14.8574 
 111   1.0000      -0.535784       -14.5794 
 112   1.0000      -0.530466       -14.4347 
 113   1.0000      -0.519638       -14.1401 
 114   1.0000      -0.517724       -14.0880 
 115   1.0000      -0.514775       -14.0077 
 116   1.0000      -0.512978       -13.9588 
 117   1.0000      -0.511901       -13.9295 
 118   1.0000      -0.510925       -13.9030 
 119   1.0000      -0.507846       -13.8192 
 120   1.0000      -0.507610       -13.8128 
 121   1.0000      -0.504615       -13.7313 
 122   1.0000      -0.502616       -13.6769 
 123   1.0000      -0.499672       -13.5968 
 124   1.0000      -0.498755       -13.5718 
 125   1.0000      -0.497972       -13.5505 
 126   1.0000      -0.495298       -13.4777 
 127   1.0000      -0.489534       -13.3209 
 128   1.0000      -0.488974       -13.3057 
 129   1.0000      -0.488204       -13.2847 
 130   1.0000      -0.487912       -13.2768 
 131   1.0000      -0.486947       -13.2505 
 132   1.0000      -0.485439       -13.2095 
 133   1.0000      -0.481124       -13.0921 
 134   1.0000      -0.480557       -13.0766 
 135   1.0000      -0.477627       -12.9969 
 136   1.0000      -0.470311       -12.7978 
 137   1.0000      -0.467048       -12.7090 
 138   1.0000      -0.466688       -12.6992 
 139   1.0000      -0.465280       -12.6609 
 140   1.0000      -0.458986       -12.4896 
 141   1.0000      -0.454867       -12.3776 
 142   1.0000      -0.453787       -12.3482 
 143   1.0000      -0.451533       -12.2869 
 144   1.0000      -0.449760       -12.2386 
 145   1.0000      -0.437753       -11.9119 
 146   1.0000      -0.434831       -11.8323 
 147   1.0000      -0.431743       -11.7483 
 148   1.0000      -0.424452       -11.5499 
 149   1.0000      -0.421312       -11.4645 
 150   1.0000      -0.417907       -11.3718 
 151   1.0000      -0.416409       -11.3311 
 152   1.0000      -0.409119       -11.1327 
 153   1.0000      -0.408261       -11.1093 
 154   1.0000      -0.406103       -11.0506 
 155   1.0000      -0.402626       -10.9560 
 156   1.0000      -0.400347       -10.8940 
 157   1.0000      -0.399121       -10.8606 
 158   1.0000      -0.387468       -10.5435 
 159   1.0000      -0.382507       -10.4085 
 160   1.0000      -0.381120       -10.3708 
 161   1.0000      -0.377208       -10.2644 
 162   1.0000      -0.375937       -10.2298 
 163   1.0000      -0.371529       -10.1098 
 164   1.0000      -0.370633       -10.0854 
 165   1.0000      -0.367514       -10.0006 
 166   1.0000      -0.364900        -9.9294 
 167   1.0000      -0.361401        -9.8342 
 168   1.0000      -0.359487        -9.7821 
 169   1.0000      -0.356849        -9.7103 
 170   1.0000      -0.350459        -9.5365 
 171   1.0000      -0.342688        -9.3250 
 172   1.0000      -0.337654        -9.1880 
 173   1.0000      -0.333457        -9.0738 
 174   1.0000      -0.326489        -8.8842 
 175   1.0000      -0.323057        -8.7908 
 176   1.0000      -0.320340        -8.7169 
 177   1.0000      -0.317987        -8.6529 
 178   1.0000      -0.312331        -8.4990 
 179   1.0000      -0.311239        -8.4692 
 180   1.0000      -0.308762        -8.4018 
 181   1.0000      -0.307683        -8.3725 
 182   1.0000      -0.304958        -8.2983 
 183   1.0000      -0.299670        -8.1544 
 184   1.0000      -0.297196        -8.0871 
 185   1.0000      -0.292717        -7.9652 
 186   1.0000      -0.290290        -7.8992 
 187   1.0000      -0.287699        -7.8287 
 188   1.0000      -0.274361        -7.4657 
 189   1.0000      -0.272215        -7.4074 
 190   1.0000      -0.271351        -7.3838 
 191   1.0000      -0.263011        -7.1569 
 192   1.0000      -0.250289        -6.8107 
 193   1.0000      -0.244145        -6.6435 
 194   0.0000      -0.136879        -3.7247 
 195   0.0000      -0.132356        -3.6016 
 196   0.0000      -0.120535        -3.2799 
 197   0.0000      -0.112505        -3.0614 
 198   0.0000      -0.105642        -2.8747 
 199   0.0000      -0.103602        -2.8191 
 200   0.0000      -0.101209        -2.7540 
 201   0.0000      -0.099147        -2.6979 
 202   0.0000      -0.091868        -2.4998 
 203   0.0000      -0.088340        -2.4039 
 204   0.0000      -0.083428        -2.2702 
 205   0.0000      -0.080392        -2.1876 
 206   0.0000      -0.079772        -2.1707 
 207   0.0000      -0.077638        -2.1126 
 208   0.0000      -0.071783        -1.9533 
 209   0.0000      -0.068028        -1.8511 
 210   0.0000      -0.066916        -1.8209 
 211   0.0000      -0.049272        -1.3408 
 212   0.0000      -0.044955        -1.2233 
 213   0.0000      -0.040926        -1.1136 
 214   0.0000      -0.036596        -0.9958 
 215   0.0000      -0.034453        -0.9375 
 216   0.0000      -0.029437        -0.8010 
 217   0.0000      -0.025598        -0.6965 
 218   0.0000      -0.023044        -0.6271 
 219   0.0000      -0.022025        -0.5993 
 220   0.0000      -0.017496        -0.4761 
 221   0.0000      -0.011652        -0.3171 
 222   0.0000      -0.005031        -0.1369 
 223   0.0000      -0.003960        -0.1077 
 224   0.0000      -0.001615        -0.0439 
 225   0.0000       0.006674         0.1816 
 226   0.0000       0.009162         0.2493 
 227   0.0000       0.010661         0.2901 
 228   0.0000       0.016342         0.4447 
 229   0.0000       0.019101         0.5198 
 230   0.0000       0.022957         0.6247 
 231   0.0000       0.023490         0.6392 
 232   0.0000       0.025605         0.6968 
 233   0.0000       0.027372         0.7448 
 234   0.0000       0.030609         0.8329 
 235   0.0000       0.033428         0.9096 
 236   0.0000       0.035314         0.9609 
 237   0.0000       0.036869         1.0033 
 238   0.0000       0.039425         1.0728 
 239   0.0000       0.041781         1.1369 
 240   0.0000       0.043381         1.1805 
 241   0.0000       0.045063         1.2262 
 242   0.0000       0.047934         1.3043 
 243   0.0000       0.049478         1.3464 
 244   0.0000       0.052950         1.4408 
 245   0.0000       0.056265         1.5311 
 246   0.0000       0.057389         1.5616 
 247   0.0000       0.058250         1.5851 
 248   0.0000       0.060703         1.6518 
 249   0.0000       0.064414         1.7528 
 250   0.0000       0.068046         1.8516 
 251   0.0000       0.069320         1.8863 
 252   0.0000       0.073389         1.9970 
 253   0.0000       0.074060         2.0153 
 254   0.0000       0.077046         2.0965 
 255   0.0000       0.078436         2.1343 
 256   0.0000       0.081160         2.2085 
 257   0.0000       0.082521         2.2455 
 258   0.0000       0.084664         2.3038 
 259   0.0000       0.086236         2.3466 
 260   0.0000       0.086641         2.3576 
 261   0.0000       0.093974         2.5572 
 262   0.0000       0.096240         2.6188 
 263   0.0000       0.097734         2.6595 
 264   0.0000       0.099203         2.6995 
 265   0.0000       0.102616         2.7923 
 266   0.0000       0.106267         2.8917 
 267   0.0000       0.108687         2.9575 
 268   0.0000       0.109613         2.9827 
 269   0.0000       0.115020         3.1298 
 270   0.0000       0.116599         3.1728 
 271   0.0000       0.119778         3.2593 
 272   0.0000       0.121365         3.3025 
 273   0.0000       0.123565         3.3624 
 274   0.0000       0.127041         3.4570 
 275   0.0000       0.134579         3.6621 
 276   0.0000       0.138076         3.7572 
 277   0.0000       0.138336         3.7643 
 278   0.0000       0.140253         3.8165 
 279   0.0000       0.141474         3.8497 
 280   0.0000       0.145933         3.9710 
 281   0.0000       0.148271         4.0347 
 282   0.0000       0.151486         4.1221 
 283   0.0000       0.152929         4.1614 
 284   0.0000       0.153808         4.1853 
 285   0.0000       0.157306         4.2805 
 286   0.0000       0.158605         4.3159 
 287   0.0000       0.161364         4.3909 
 288   0.0000       0.163279         4.4431 
 289   0.0000       0.164785         4.4840 
 290   0.0000       0.168107         4.5744 
 291   0.0000       0.172644         4.6979 
 292   0.0000       0.176696         4.8082 
 293   0.0000       0.177728         4.8362 
 294   0.0000       0.182556         4.9676 
 295   0.0000       0.185669         5.0523 
 296   0.0000       0.186550         5.0763 
 297   0.0000       0.194618         5.2958 
 298   0.0000       0.197003         5.3607 
 299   0.0000       0.198703         5.4070 
 300   0.0000       0.199955         5.4410 
 301   0.0000       0.200611         5.4589 
 302   0.0000       0.205116         5.5815 
 303   0.0000       0.208703         5.6791 
 304   0.0000       0.211009         5.7418 
 305   0.0000       0.212259         5.7759 
 306   0.0000       0.213361         5.8058 
 307   0.0000       0.218350         5.9416 
 308   0.0000       0.220458         5.9990 
 309   0.0000       0.224448         6.1075 
 310   0.0000       0.224980         6.1220 
 311   0.0000       0.226479         6.1628 
 312   0.0000       0.227260         6.1841 
 313   0.0000       0.233028         6.3410 
 314   0.0000       0.234520         6.3816 
 315   0.0000       0.237535         6.4636 
 316   0.0000       0.241710         6.5773 
 317   0.0000       0.243887         6.6365 
 318   0.0000       0.246065         6.6958 
 319   0.0000       0.248463         6.7610 
 320   0.0000       0.250846         6.8259 
 321   0.0000       0.253491         6.8978 
 322   0.0000       0.254259         6.9187 
 323   0.0000       0.257871         7.0170 
 324   0.0000       0.259933         7.0731 
 325   0.0000       0.260863         7.0984 
 326   0.0000       0.264951         7.2097 
 327   0.0000       0.265373         7.2212 
 328   0.0000       0.267567         7.2809 
 329   0.0000       0.268404         7.3036 
 330   0.0000       0.270139         7.3509 
 331   0.0000       0.275298         7.4912 
 332   0.0000       0.276492         7.5237 
 333   0.0000       0.280812         7.6413 
 334   0.0000       0.281102         7.6492 
 335   0.0000       0.282291         7.6815 
 336   0.0000       0.286565         7.7978 
 337   0.0000       0.289024         7.8647 
 338   0.0000       0.289412         7.8753 
 339   0.0000       0.292200         7.9512 
 340   0.0000       0.293150         7.9770 
 341   0.0000       0.294301         8.0083 
 342   0.0000       0.296707         8.0738 
 343   0.0000       0.298994         8.1360 
 344   0.0000       0.302896         8.2422 
 345   0.0000       0.304220         8.2783 
 346   0.0000       0.307319         8.3626 
 347   0.0000       0.307738         8.3740 
 348   0.0000       0.309752         8.4288 
 349   0.0000       0.313382         8.5275 
 350   0.0000       0.314135         8.5480 
 351   0.0000       0.317848         8.6491 
 352   0.0000       0.320467         8.7203 
 353   0.0000       0.322058         8.7636 
 354   0.0000       0.325216         8.8496 
 355   0.0000       0.327167         8.9027 
 356   0.0000       0.330740         8.9999 
 357   0.0000       0.331969         9.0333 
 358   0.0000       0.334786         9.1100 
 359   0.0000       0.336991         9.1700 
 360   0.0000       0.338783         9.2188 
 361   0.0000       0.340447         9.2640 
 362   0.0000       0.341617         9.2959 
 363   0.0000       0.344350         9.3702 
 364   0.0000       0.347229         9.4486 
 365   0.0000       0.349440         9.5087 
 366   0.0000       0.351200         9.5566 
 367   0.0000       0.352611         9.5950 
 368   0.0000       0.355472         9.6729 
 369   0.0000       0.356590         9.7033 
 370   0.0000       0.359818         9.7911 
 371   0.0000       0.361511         9.8372 
 372   0.0000       0.363507         9.8915 
 373   0.0000       0.364542         9.9197 
 374   0.0000       0.368118        10.0170 
 375   0.0000       0.371727        10.1152 
 376   0.0000       0.371943        10.1211 
 377   0.0000       0.373490        10.1632 
 378   0.0000       0.375854        10.2275 
 379   0.0000       0.376868        10.2551 
 380   0.0000       0.379869        10.3368 
 381   0.0000       0.380656        10.3582 
 382   0.0000       0.383106        10.4248 
 383   0.0000       0.388193        10.5633 
 384   0.0000       0.391072        10.6416 
 385   0.0000       0.394368        10.7313 
 386   0.0000       0.395609        10.7651 
 387   0.0000       0.397353        10.8125 
 388   0.0000       0.399754        10.8778 
 389   0.0000       0.402588        10.9550 
 390   0.0000       0.404407        11.0045 
 391   0.0000       0.406704        11.0670 
 392   0.0000       0.410001        11.1567 
 393   0.0000       0.414464        11.2781 
 394   0.0000       0.416921        11.3450 
 395   0.0000       0.421294        11.4640 
 396   0.0000       0.422958        11.5093 
 397   0.0000       0.425078        11.5670 
 398   0.0000       0.425783        11.5862 
 399   0.0000       0.428929        11.6718 
 400   0.0000       0.432141        11.7591 
 401   0.0000       0.436164        11.8686 
 402   0.0000       0.437162        11.8958 
 403   0.0000       0.440133        11.9766 
 404   0.0000       0.444460        12.0944 
 405   0.0000       0.444918        12.1068 
 406   0.0000       0.447785        12.1849 
 407   0.0000       0.449991        12.2449 
 408   0.0000       0.455374        12.3913 
 409   0.0000       0.457682        12.4542 
 410   0.0000       0.458828        12.4853 
 411   0.0000       0.462001        12.5717 
 412   0.0000       0.465863        12.6768 
 413   0.0000       0.472308        12.8522 
 414   0.0000       0.473329        12.8799 
 415   0.0000       0.474905        12.9228 
 416   0.0000       0.478975        13.0336 
 417   0.0000       0.481837        13.1114 
 418   0.0000       0.484376        13.1805 
 419   0.0000       0.486742        13.2449 
 420   0.0000       0.487376        13.2622 
 421   0.0000       0.494199        13.4478 
 422   0.0000       0.498447        13.5634 
 423   0.0000       0.498706        13.5705 
 424   0.0000       0.500233        13.6120 
 425   0.0000       0.503630        13.7045 
 426   0.0000       0.509206        13.8562 
 427   0.0000       0.511469        13.9178 
 428   0.0000       0.514427        13.9983 
 429   0.0000       0.518521        14.1097 
 430   0.0000       0.523546        14.2464 
 431   0.0000       0.524025        14.2594 
 432   0.0000       0.527694        14.3593 
 433   0.0000       0.530914        14.4469 
 434   0.0000       0.533632        14.5209 
 435   0.0000       0.540052        14.6956 
 436   0.0000       0.540812        14.7162 
 437   0.0000       0.543099        14.7785 
 438   0.0000       0.549654        14.9568 
 439   0.0000       0.553637        15.0652 
 440   0.0000       0.555545        15.1172 
 441   0.0000       0.563218        15.3259 
 442   0.0000       0.563936        15.3455 
 443   0.0000       0.565961        15.4006 
 444   0.0000       0.572313        15.5734 
 445   0.0000       0.574567        15.6348 
 446   0.0000       0.576901        15.6983 
 447   0.0000       0.580719        15.8022 
 448   0.0000       0.585091        15.9211 
 449   0.0000       0.587817        15.9953 
 450   0.0000       0.593446        16.1485 
 451   0.0000       0.599432        16.3114 
 452   0.0000       0.600923        16.3519 
 453   0.0000       0.604590        16.4517 
 454   0.0000       0.610090        16.6014 
 455   0.0000       0.615538        16.7496 
 456   0.0000       0.617427        16.8010 
 457   0.0000       0.620825        16.8935 
 458   0.0000       0.623433        16.9645 
 459   0.0000       0.624224        16.9860 
 460   0.0000       0.630022        17.1438 
 461   0.0000       0.633809        17.2468 
 462   0.0000       0.635036        17.2802 
 463   0.0000       0.639994        17.4151 
 464   0.0000       0.643115        17.5000 
 465   0.0000       0.647652        17.6235 
 466   0.0000       0.650650        17.7051 
 467   0.0000       0.652689        17.7606 
 468   0.0000       0.657155        17.8821 
 469   0.0000       0.661522        18.0009 
 470   0.0000       0.662507        18.0277 
 471   0.0000       0.665192        18.1008 
 472   0.0000       0.667288        18.1578 
 473   0.0000       0.674977        18.3671 
 474   0.0000       0.676535        18.4094 
 475   0.0000       0.677893        18.4464 
 476   0.0000       0.681730        18.5508 
 477   0.0000       0.690592        18.7920 
 478   0.0000       0.692291        18.8382 
 479   0.0000       0.694210        18.8904 
 480   0.0000       0.700520        19.0621 
 481   0.0000       0.702571        19.1179 
 482   0.0000       0.706526        19.2255 
 483   0.0000       0.709994        19.3199 
 484   0.0000       0.714222        19.4350 
 485   0.0000       0.717834        19.5332 
 486   0.0000       0.720416        19.6035 
 487   0.0000       0.724871        19.7247 
 488   0.0000       0.728400        19.8208 
 489   0.0000       0.732453        19.9311 
 490   0.0000       0.736191        20.0328 
 491   0.0000       0.739187        20.1143 
 492   0.0000       0.741759        20.1843 
 493   0.0000       0.747260        20.3340 
 494   0.0000       0.750858        20.4319 
 495   0.0000       0.752100        20.4657 
 496   0.0000       0.757789        20.6205 
 497   0.0000       0.762428        20.7467 
 498   0.0000       0.764812        20.8116 
 499   0.0000       0.768617        20.9151 
 500   0.0000       0.771612        20.9966 
 501   0.0000       0.773651        21.0521 
 502   0.0000       0.780002        21.2249 
 503   0.0000       0.785075        21.3630 
 504   0.0000       0.788762        21.4633 
 505   0.0000       0.791813        21.5463 
 506   0.0000       0.795003        21.6331 
 507   0.0000       0.797779        21.7087 
 508   0.0000       0.802030        21.8244 
 509   0.0000       0.803752        21.8712 
 510   0.0000       0.807041        21.9607 
 511   0.0000       0.808589        22.0028 
 512   0.0000       0.814379        22.1604 
 513   0.0000       0.816911        22.2293 
 514   0.0000       0.821188        22.3457 
 515   0.0000       0.823736        22.4150 
 516   0.0000       0.827047        22.5051 
 517   0.0000       0.834848        22.7174 
 518   0.0000       0.838797        22.8248 
 519   0.0000       0.843279        22.9468 
 520   0.0000       0.846227        23.0270 
 521   0.0000       0.849294        23.1105 
 522   0.0000       0.850515        23.1437 
 523   0.0000       0.855578        23.2815 
 524   0.0000       0.857490        23.3335 
 525   0.0000       0.860886        23.4259 
 526   0.0000       0.866546        23.5799 
 527   0.0000       0.869417        23.6580 
 528   0.0000       0.870679        23.6924 
 529   0.0000       0.874419        23.7941 
 530   0.0000       0.875843        23.8329 
 531   0.0000       0.880693        23.9649 
 532   0.0000       0.883864        24.0512 
 533   0.0000       0.887569        24.1520 
 534   0.0000       0.890125        24.2215 
 535   0.0000       0.893590        24.3158 
 536   0.0000       0.895688        24.3729 
 537   0.0000       0.897430        24.4203 
 538   0.0000       0.899926        24.4882 
 539   0.0000       0.910156        24.7666 
 540   0.0000       0.914641        24.8886 
 541   0.0000       0.919781        25.0285 
 542   0.0000       0.924158        25.1476 
 543   0.0000       0.928111        25.2552 
 544   0.0000       0.930658        25.3245 
 545   0.0000       0.934925        25.4406 
 546   0.0000       0.937132        25.5007 
 547   0.0000       0.940442        25.5907 
 548   0.0000       0.949044        25.8248 
 549   0.0000       0.950754        25.8713 
 550   0.0000       0.954351        25.9692 
 551   0.0000       0.957340        26.0506 
 552   0.0000       0.960230        26.1292 
 553   0.0000       0.968392        26.3513 
 554   0.0000       0.969203        26.3734 
 555   0.0000       0.973648        26.4943 
 556   0.0000       0.975994        26.5581 
 557   0.0000       0.977426        26.5971 
 558   0.0000       0.979839        26.6628 
 559   0.0000       0.991217        26.9724 
 560   0.0000       0.993093        27.0234 
 561   0.0000       0.996754        27.1231 
 562   0.0000       1.001033        27.2395 
 563   0.0000       1.002930        27.2911 
 564   0.0000       1.004617        27.3370 
 565   0.0000       1.006005        27.3748 
 566   0.0000       1.010184        27.4885 
 567   0.0000       1.015557        27.6347 
 568   0.0000       1.017419        27.6854 
 569   0.0000       1.022311        27.8185 
 570   0.0000       1.025987        27.9185 
 571   0.0000       1.030505        28.0415 
 572   0.0000       1.036465        28.2036 
 573   0.0000       1.040539        28.3145 
 574   0.0000       1.042891        28.3785 
 575   0.0000       1.048420        28.5290 
 576   0.0000       1.052439        28.6383 
 577   0.0000       1.060335        28.8532 
 578   0.0000       1.064782        28.9742 
 579   0.0000       1.068563        29.0771 
 580   0.0000       1.076891        29.3037 
 581   0.0000       1.079752        29.3816 
 582   0.0000       1.081005        29.4157 
 583   0.0000       1.085654        29.5422 
 584   0.0000       1.089680        29.6517 
 585   0.0000       1.092084        29.7171 
 586   0.0000       1.093227        29.7482 
 587   0.0000       1.100217        29.9384 
 588   0.0000       1.105718        30.0881 
 589   0.0000       1.112151        30.2632 
 590   0.0000       1.114913        30.3383 
 591   0.0000       1.117465        30.4078 
 592   0.0000       1.118921        30.4474 
 593   0.0000       1.123806        30.5803 
 594   0.0000       1.129203        30.7272 
 595   0.0000       1.134782        30.8790 
 596   0.0000       1.136845        30.9351 
 597   0.0000       1.141219        31.0541 
 598   0.0000       1.141552        31.0632 
 599   0.0000       1.143633        31.1198 
 600   0.0000       1.147695        31.2304 
 601   0.0000       1.152797        31.3692 
 602   0.0000       1.154422        31.4134 
 603   0.0000       1.158923        31.5359 
 604   0.0000       1.167032        31.7566 
 605   0.0000       1.171810        31.8866 
 606   0.0000       1.176163        32.0050 
 607   0.0000       1.177296        32.0358 
 608   0.0000       1.179519        32.0963 
 609   0.0000       1.185559        32.2607 
 610   0.0000       1.190025        32.3822 
 611   0.0000       1.196992        32.5718 
 612   0.0000       1.197350        32.5815 
 613   0.0000       1.208456        32.8837 
 614   0.0000       1.218188        33.1486 
 615   0.0000       1.221192        33.2303 
 616   0.0000       1.222844        33.2753 
 617   0.0000       1.228837        33.4384 
 618   0.0000       1.232553        33.5395 
 619   0.0000       1.235104        33.6089 
 620   0.0000       1.237371        33.6706 
 621   0.0000       1.243478        33.8368 
 622   0.0000       1.250298        34.0223 
 623   0.0000       1.253354        34.1055 
 624   0.0000       1.261481        34.3266 
 625   0.0000       1.262493        34.3542 
 626   0.0000       1.264629        34.4123 
 627   0.0000       1.268955        34.5300 
 628   0.0000       1.271002        34.5857 
 629   0.0000       1.277120        34.7522 
 630   0.0000       1.280998        34.8577 
 631   0.0000       1.285561        34.9819 
 632   0.0000       1.291744        35.1501 
 633   0.0000       1.295338        35.2479 
 634   0.0000       1.297349        35.3027 
 635   0.0000       1.298342        35.3297 
 636   0.0000       1.303894        35.4808 
 637   0.0000       1.309416        35.6310 
 638   0.0000       1.311351        35.6837 
 639   0.0000       1.314415        35.7670 
 640   0.0000       1.317865        35.8609 
 641   0.0000       1.318769        35.8855 
 642   0.0000       1.323898        36.0251 
 643   0.0000       1.326145        36.0862 
 644   0.0000       1.331935        36.2438 
 645   0.0000       1.338670        36.4271 
 646   0.0000       1.340267        36.4705 
[...]
 37 H      0.7857     1.0000     0.2143     0.9923     0.9923     0.0000
 38 C      6.3733     6.0000    -0.3733     3.8824     3.8824     0.0000
 39 H      0.8773     1.0000     0.1227     0.9709     0.9709     0.0000
 40 H      0.8567     1.0000     0.1433     0.9803     0.9803     0.0000
 41 C      5.6353     6.0000     0.3647     4.1134     4.1134     0.0000
 42 O      8.3732     8.0000    -0.3732     2.0650     2.0644     0.0006
 43 O      8.4855     8.0000    -0.4855     2.0182     2.0182     0.0000
 44 Fe    25.6194    26.0000     0.3806     5.3169     4.0773     1.2397
 45 Fe    25.6387    26.0000     0.3613     4.8601     4.0446     0.8156
 46 O      8.6332     8.0000    -0.6332     1.8989     1.8918     0.0070
 47 H      0.6521     1.0000     0.3479     0.9752     0.9752     0.0000
 48 C      5.8362     6.0000     0.1638     3.5974     3.5973     0.0001
 49 C      6.0216     6.0000    -0.0216     4.0435     4.0435     0.0000
 50 C      5.9328     6.0000     0.0672     3.8389     3.8389     0.0000
 51 C      5.9856     6.0000     0.0144     4.0116     4.0116     0.0000
 52 C      5.9994     6.0000     0.0006     4.1483     4.1483     0.0000
 53 C      5.9710     6.0000     0.0290     3.7545     3.7544     0.0000
 54 O      8.4021     8.0000    -0.4021     2.0821     2.0641     0.0180
 55 O      8.4204     8.0000    -0.4204     2.0280     2.0280     0.0000
 56 O      8.3843     8.0000    -0.3843     2.0483     2.0483     0.0000
 57 O      8.3590     8.0000    -0.3590     2.0499     2.0499     0.0000
 58 O      8.4063     8.0000    -0.4063     1.9883     1.9883     0.0000
 59 O      8.3692     8.0000    -0.3692     2.0419     2.0417     0.0002
 60 H      0.8908     1.0000     0.1092     0.9856     0.9855     0.0001
 61 H      0.8938     1.0000     0.1062     0.9626     0.9626     0.0000
 62 H      0.9108     1.0000     0.0892     0.9802     0.9802     0.0000
 63 H      0.9144     1.0000     0.0856     0.9942     0.9942     0.0000
 64 H      0.9034     1.0000     0.0966     0.9951     0.9951    -0.0000
 65 H      0.9125     1.0000     0.0875     0.9917     0.9917    -0.0000
 66 H      0.6826     1.0000     0.3174     0.9112     0.9112     0.0000
 67 H      0.6972     1.0000     0.3028     0.9208     0.9208     0.0000
 68 H      0.7304     1.0000     0.2696     0.9504     0.9504     0.0000
 69 H      0.7208     1.0000     0.2792     0.9534     0.9534     0.0000
 70 H      0.6586     1.0000     0.3414     0.8997     0.8997     0.0000
 71 O      8.0469     8.0000    -0.0469     2.2676     2.0140     0.2536
 72 O      8.0778     8.0000    -0.0778     2.1838     1.9240     0.2598
 73 H      0.8314     1.0000     0.1686     0.9703     0.9703     0.0000
 74 H      0.8435     1.0000     0.1565     0.9742     0.9742     0.0000
 75 H      0.8712     1.0000     0.1288     0.9724     0.9724     0.0000
 76 H      0.8260     1.0000     0.1740     0.9695     0.9695     0.0000
 77 H      0.8251     1.0000     0.1749     0.9676     0.9676     0.0000
 78 H      0.8769     1.0000     0.1231     0.9694     0.9694     0.0000

  Mayer bond orders larger than 0.100000
B(  0-C ,  1-N ) :   1.1603 B(  0-C ,  6-C ) :   1.6024 B(  0-C , 73-H ) :   0.9383 
B(  1-N ,  2-H ) :   0.9018 B(  1-N ,  3-C ) :   1.2846 B(  3-C ,  4-H ) :   0.9295 
B(  3-C ,  5-N ) :   1.4458 B(  5-N ,  6-C ) :   1.2111 B(  5-N , 44-Fe) :   0.5944 
B(  6-C ,  7-H ) :   0.9564 B(  8-C ,  9-N ) :   1.1648 B(  8-C , 11-C ) :   0.1010 
B(  8-C , 14-C ) :   1.6079 B(  8-C , 74-H ) :   0.9441 B(  9-N , 10-H ) :   0.9051 
B(  9-N , 11-C ) :   1.2877 B( 11-C , 12-H ) :   0.9368 B( 11-C , 13-N ) :   1.4849 
B( 13-N , 14-C ) :   1.2358 B( 13-N , 44-Fe) :   0.4436 B( 14-C , 15-H ) :   0.9400 
B( 16-C , 17-H ) :   0.9749 B( 16-C , 18-H ) :   0.9466 B( 16-C , 19-C ) :   0.9321 
B( 16-C , 75-H ) :   0.9631 B( 19-C , 20-O ) :   1.4479 B( 19-C , 21-O ) :   1.5764 
B( 20-O , 45-Fe) :   0.5576 B( 21-O , 44-Fe) :   0.4021 B( 22-C , 23-N ) :   1.1555 
B( 22-C , 28-C ) :   1.6077 B( 22-C , 76-H ) :   0.9397 B( 23-N , 24-H ) :   0.9019 
B( 23-N , 25-C ) :   1.3110 B( 25-C , 26-H ) :   0.9271 B( 25-C , 27-N ) :   1.4356 
B( 27-N , 28-C ) :   1.2253 B( 27-N , 45-Fe) :   0.4898 B( 28-C , 29-H ) :   0.9530 
B( 30-C , 31-N ) :   1.1661 B( 30-C , 36-C ) :   1.6273 B( 30-C , 77-H ) :   0.9345 
B( 31-N , 32-H ) :   0.9030 B( 31-N , 33-C ) :   1.2961 B( 33-C , 34-H ) :   0.9337 
B( 33-C , 35-N ) :   1.4483 B( 35-N , 36-C ) :   1.1837 B( 35-N , 45-Fe) :   0.5159 
B( 36-C , 37-H ) :   0.9145 B( 38-C , 39-H ) :   0.9392 B( 38-C , 40-H ) :   0.9710 
B( 38-C , 41-C ) :   0.9642 B( 38-C , 78-H ) :   0.9630 B( 41-C , 42-O ) :   1.4689 
B( 41-C , 43-O ) :   1.6197 B( 42-O , 44-Fe) :   0.5234 B( 43-O , 47-H ) :   0.1783 
B( 44-Fe, 45-Fe) :   0.1468 B( 44-Fe, 46-O ) :   0.5081 B( 44-Fe, 71-O ) :   0.6283 
B( 44-Fe, 72-O ) :   0.5272 B( 45-Fe, 46-O ) :   0.6160 B( 45-Fe, 54-O ) :   0.9464 
B( 45-Fe, 59-O ) :   0.3264 B( 46-O , 47-H ) :   0.7370 B( 48-C , 49-C ) :   0.8268 
B( 48-C , 53-C ) :   0.9254 B( 48-C , 54-O ) :   0.9227 B( 48-C , 55-O ) :  -0.1367 
B( 48-C , 60-H ) :   0.9330 B( 49-C , 50-C ) :   0.8897 B( 49-C , 55-O ) :   1.2394 
B( 49-C , 61-H ) :   0.9501 B( 50-C , 51-C ) :   0.9264 B( 50-C , 56-O ) :   1.1061 
B( 50-C , 62-H ) :   0.9508 B( 51-C , 52-C ) :   0.9512 B( 51-C , 57-O ) :   1.0611 
B( 51-C , 63-H ) :   0.9537 B( 52-C , 53-C ) :   0.9196 B( 52-C , 58-O ) :   1.0496 
B( 52-C , 64-H ) :   0.9606 B( 53-C , 59-O ) :   0.8099 B( 53-C , 65-H ) :   0.9483 
B( 55-O , 66-H ) :   0.8843 B( 56-O , 67-H ) :   0.8868 B( 57-O , 68-H ) :   0.8882 
B( 58-O , 69-H ) :   0.8798 B( 59-O , 70-H ) :   0.8473 B( 71-O , 72-O ) :   1.3376 


-------
TIMINGS
-------

Total SCF time: 0 days 21 hours 24 min 13 sec 

Total time                  ....   77053.786 sec
Sum of individual times     ....   77566.328 sec  (100.7%)

Fock matrix formation       ....   77343.239 sec  (100.4%)
  XC integration            ....     431.808 sec  (  0.6% of F)
    Basis function eval.    ....      33.923 sec  (  7.9% of XC)
    Density eval.           ....     168.520 sec  ( 39.0% of XC)
    XC-Functional eval.     ....       1.826 sec  (  0.4% of XC)
    XC-Potential eval.      ....     169.191 sec  ( 39.2% of XC)
Diagonalization             ....      24.620 sec  (  0.0%)
Density matrix formation    ....      20.170 sec  (  0.0%)
Population analysis         ....       1.805 sec  (  0.0%)
Initial guess               ....       3.598 sec  (  0.0%)
Orbital Transformation      ....     141.979 sec  (  0.2%)
Orbital Orthonormalization  ....       3.321 sec  (  0.0%)
DIIS solution               ....      25.025 sec  (  0.0%)
Grid generation             ....       5.730 sec  (  0.0%)
--------------------------
UHF CORRESPONDING ORBITALS
--------------------------
Transforming orbitals                         ... done
Choosing virtual orbitals in the orth. comp.  ... done

                ***UHF Corresponding Orbitals were saved in /scratch/RC2-flipspin_555/RC2-flipspin.uco***


Now the overlap between the corresponding orbitals will be plotted
Since there are an equal number of alpha and beta orbitals each orbital in the
alpha set is matched by an orbital in the beta set. If all overlaps are close to
one you have a normal UHF solution with some spin polarization
If you have a broken symmetry solution there will be overlaps that are
significantly smaller than one. These orbitals are the non-orthogonal magnetic
orbitals of the broken symmetry UHF solution.

----------------------
 Orbital    Overlap(*)
----------------------
   0:      1.00000
   1:      1.00000
   2:      1.00000
   3:      1.00000
   4:      1.00000
   5:      1.00000
   6:      1.00000
   7:      1.00000
   8:      1.00000
   9:      1.00000
  10:      1.00000
  11:      1.00000
  12:      1.00000
  13:      1.00000
  14:      1.00000
  15:      1.00000
  16:      1.00000
  17:      1.00000
  18:      1.00000
  19:      1.00000
  20:      1.00000
  21:      1.00000
  22:      1.00000
  23:      1.00000
  24:      1.00000
  25:      1.00000
  26:      1.00000
  27:      1.00000
  28:      1.00000
  29:      1.00000
  30:      1.00000
  31:      1.00000
  32:      1.00000
  33:      1.00000
  34:      1.00000
  35:      1.00000
  36:      1.00000
  37:      1.00000
  38:      1.00000
  39:      1.00000
  40:      1.00000
  41:      1.00000
  42:      1.00000
  43:      1.00000
  44:      1.00000
  45:      1.00000
  46:      1.00000
  47:      1.00000
  48:      1.00000
  49:      1.00000
  50:      1.00000
  51:      1.00000
  52:      1.00000
  53:      1.00000
  54:      1.00000
  55:      1.00000
  56:      1.00000
  57:      1.00000
  58:      1.00000
  59:      1.00000
  60:      1.00000
  61:      1.00000
  62:      1.00000
  63:      1.00000
  64:      1.00000
  65:      1.00000
  66:      1.00000
  67:      1.00000
  68:      1.00000
  69:      1.00000
  70:      1.00000
  71:      1.00000
  72:      1.00000
  73:      1.00000
  74:      1.00000
  75:      1.00000
  76:      1.00000
  77:      1.00000
  78:      1.00000
  79:      1.00000
  80:      1.00000
  81:      1.00000
  82:      1.00000
  83:      1.00000
  84:      1.00000
  85:      1.00000
  86:      1.00000
  87:      1.00000
  88:      1.00000
  89:      1.00000
  90:      1.00000
  91:      1.00000
  92:      1.00000
  93:      1.00000
  94:      1.00000
  95:      1.00000
  96:      1.00000
  97:      1.00000
  98:      1.00000
  99:      1.00000
 100:      1.00000
 101:      1.00000
 102:      1.00000
 103:      1.00000
 104:      1.00000
 105:      1.00000
 106:      1.00000
 107:      1.00000
 108:      1.00000
 109:      1.00000
 110:      1.00000
 111:      1.00000
 112:      1.00000
 113:      1.00000
 114:      1.00000
 115:      1.00000
 116:      1.00000
 117:      1.00000
 118:      1.00000
 119:      1.00000
 120:      1.00000
 121:      1.00000
 122:      1.00000
 123:      1.00000
 124:      1.00000
 125:      1.00000
 126:      1.00000
 127:      1.00000
 128:      1.00000
 129:      1.00000
 130:      1.00000
 131:      1.00000
 132:      1.00000
 133:      1.00000
 134:      1.00000
 135:      1.00000
 136:      1.00000
 137:      1.00000
 138:      1.00000
 139:      1.00000
 140:      1.00000
 141:      1.00000
 142:      1.00000
 143:      1.00000
 144:      1.00000
 145:      1.00000
 146:      1.00000
 147:      1.00000
 148:      1.00000
 149:      1.00000
 150:      1.00000
 151:      1.00000
 152:      1.00000
 153:      1.00000
 154:      1.00000
 155:      1.00000
 156:      1.00000
 157:      0.99999
 158:      0.99999
 159:      0.99999
 160:      0.99999
 161:      0.99999
 162:      0.99999
 163:      0.99999
 164:      0.99999
 165:      0.99999
 166:      0.99998
 167:      0.99998
 168:      0.99998
 169:      0.99998
 170:      0.99997
 171:      0.99997
 172:      0.99996
 173:      0.99995
 174:      0.99994
 175:      0.99993
 176:      0.99993
 177:      0.99988
 178:      0.99986
 179:      0.99979
 180:      0.99974
 181:      0.99964
 182:      0.99933
 183:      0.98972
 184:      0.98607
 185:      0.88466
 186:      0.71643
 187:      0.12186
 188:      0.00000
(*)  the overlap is weighted by the product of occupation numbers
     NOTE: the whole analysis is not valid for fractional occupations

------------------------------------------
BROKEN SYMMETRY MAGNETIC COUPLING ANALYSIS
------------------------------------------

S(High-Spin)      =   5.5    
<S**2>(High-Spin) =  35.7674    
<S**2>(BrokenSym) =   2.4919    
E(High-Spin)      = -4803.484739 Eh
E(BrokenSym)      = -4803.443930 Eh
E(High-Spin)-E(BrokenSym)= -1.1104 eV  -8955.542 cm**-1 (FERROMAGNETIC coupling)

          ---------------------------------------------------------
          | Spin-Hamiltonian Analysis based on H(HDvV)= -2J*SA*SB |
    -------                                                       -----------
    | J(1) =     296.05 cm**-1    (from -(E[HS]-E[BS])/Smax**2)             |
    | J(2) =     250.50 cm**-1    (from -(E[HS]-E[BS])/(Smax*(Smax+1))      |
    | J(3) =     269.13 cm**-1    (from -(E[HS]-E[BS])/(<S**2>HS-<S**2>BS)) |
    -------------------------------------------------------------------------

  J(1): (a) A.P. Ginsberg J. Am. Chem. Soc. 102 (1980), 111
        (b) L. Noodleman J. Chem. Phys. 74 (1981), 5737
        (c) L. Noodleman E.R. Davidson Chem. Phys. 109 (1985), 131
  J(2)  (d) A. Bencini D. Gatteschi J. Am. Chem. Soc. 108 (1980), 5763
  J(3)  (e) K. Yamaguchi Y. Takahara T. Fueno in: V.H. Smith (Ed.)
            Applied Quantum Chemistry. Reidel, Dordrecht (1986), pp 155
        (f) T.Soda et al. Chem. Phys. Lett., 319, (2000), 223

-------
TIMINGS
-------

Total SCF time: 0 days 21 hours 33 min 51 sec 

Total time                  ....   77631.959 sec
Sum of individual times     ....   77069.028 sec  ( 99.3%)

Fock matrix formation       ....       0.000 sec  (  0.0%)
Diagonalization             ....       0.000 sec  (  0.0%)
Density matrix formation    ....       0.000 sec  (  0.0%)
Population analysis         ....   77069.028 sec  ( 99.3%)
Initial guess               ....       0.000 sec  (  0.0%)
Orbital Transformation      ....       0.000 sec  (  0.0%)
Orbital Orthonormalization  ....       0.000 sec  (  0.0%)
DIIS solution               ....       0.000 sec  (  0.0%)
Grid generation             ....       0.000 sec  (  0.0%)

Maximum memory used throughout the entire SCF-calculation: 3061.7 MB

-------------------------   --------------------
FINAL SINGLE POINT ENERGY     -4803.443930373149
-------------------------   --------------------


                            ***************************************
                            *     ORCA property calculations      *
                            ***************************************

                                    ---------------------
                                    Active property flags
                                    ---------------------
   (+) Dipole Moment


------------------------------------------------------------------------------
                       ORCA ELECTRIC PROPERTIES CALCULATION
------------------------------------------------------------------------------

Dipole Moment Calculation                       ... on
Quadrupole Moment Calculation                   ... off
Polarizability Calculation                      ... off
GBWName                                         ... /scratch/RC2-flipspin_555/RC2-flipspin.gbw
Electron density file                           ... /scratch/RC2-flipspin_555/RC2-flipspin.scfp
The origin for moment calculation is the CENTER OF MASS  = (80.282014, 89.286797 72.193302)

-------------
DIPOLE MOMENT
-------------
                                X             Y             Z
Electronic contribution:     -6.37039       7.11010      -5.73000
Nuclear contribution   :      2.82395      -8.54805       3.28465
                        -----------------------------------------
Total Dipole Moment    :     -3.54644      -1.43796      -2.44535
                        -----------------------------------------
Magnitude (a.u.)       :      4.54145
Magnitude (Debye)      :     11.54344



--------------------
Rotational spectrum 
--------------------
 
Rotational constants in cm-1:     0.002821     0.001898     0.001592 
Rotational constants in MHz :    84.561491    56.909288    47.739255 

 Dipole components along the rotational axes: 
x,y,z [a.u.] :    -1.753206    -4.085336     0.927911 
x,y,z [Debye]:    -4.456295   -10.384100     2.358562 

 
--------------------------------------------------------------------------
WARNING: There was an error initializing an OpenFabrics device.

  Local host:   cnode16
  Local device: mlx5_0
--------------------------------------------------------------------------
[cnode16:185203] 15 more processes have sent help message help-mpi-btl-openib.txt / error in device init
[cnode16:185203] Set MCA parameter "orte_base_help_aggregate" to 0 to see all help / error messages

Timings for individual modules:

Sum of individual times         ...    77641.695 sec (=1294.028 min)
GTO integral calculation        ...        2.947 sec (=   0.049 min)   0.0 %
SCF iterations                  ...    77638.748 sec (=1293.979 min) 100.0 %
                             ****ORCA TERMINATED NORMALLY****
TOTAL RUN TIME: 0 days 21 hours 34 minutes 3 seconds 68 msec

Sender: Unischeduler System <lcz@mgt01>
Subject: Job 132781: <#!/bin/bash
#BSUB -J intel
#BSUB -o RC2-flipspin.out
#BSUB -n 16
#BSUB -q cqueue
export LD_LIBRARY_PATH=/apps/software/openmpi-4.1.1/lib:/apps/software/orca_5_0_0:$LD_LIBRARY_PATH
export PATH=/apps/software/openmpi-4.1.1/bin:/apps/software/orca_5_0_0:$PATH
mkdir /scratch/RC2-flipspin_555
scp $USER@mgt01:/apps/users/lcz/newexe8/exe8/task3/RC2/BP86/autoTrah/RC2-flipspin.inp /scratch/RC2-flipspin_555
scp $USER@mgt01:/apps/users/lcz/newexe8/exe8/task3/RC2/BP86/autoTrah/RC2-highspin.gbw /scratch/RC2-flipspin_555
/apps/software/orca_5_0_0/orca /scratch/RC2-flipspin_555/RC2-flipspin.inp >& RC2-flipspin.out
scp /scratch/RC2-flipspin_555/*.gbw $USER@mgt01:/apps/users/lcz/newexe8/exe8/task3/RC2/BP86/autoTrah
scp /scratch/RC2-flipspin_555/*.xyz $USER@mgt01:/apps/users/lcz/newexe8/exe8/task3/RC2/BP86/autoTrah
scp /scratch/RC2-flipspin_555/*.trj $USER@mgt01:/apps/users/lcz/newexe8/exe8/task3/RC2/BP86/autoTrah> Exited

Job <#!/bin/bash
#BSUB -J intel
#BSUB -o RC2-flipspin.out
#BSUB -n 16
#BSUB -q cqueue
export LD_LIBRARY_PATH=/apps/software/openmpi-4.1.1/lib:/apps/software/orca_5_0_0:$LD_LIBRARY_PATH
export PATH=/apps/software/openmpi-4.1.1/bin:/apps/software/orca_5_0_0:$PATH
mkdir /scratch/RC2-flipspin_555
scp $USER@mgt01:/apps/users/lcz/newexe8/exe8/task3/RC2/BP86/autoTrah/RC2-flipspin.inp /scratch/RC2-flipspin_555
scp $USER@mgt01:/apps/users/lcz/newexe8/exe8/task3/RC2/BP86/autoTrah/RC2-highspin.gbw /scratch/RC2-flipspin_555
/apps/software/orca_5_0_0/orca /scratch/RC2-flipspin_555/RC2-flipspin.inp >& RC2-flipspin.out
scp /scratch/RC2-flipspin_555/*.gbw $USER@mgt01:/apps/users/lcz/newexe8/exe8/task3/RC2/BP86/autoTrah
scp /scratch/RC2-flipspin_555/*.xyz $USER@mgt01:/apps/users/lcz/newexe8/exe8/task3/RC2/BP86/autoTrah
scp /scratch/RC2-flipspin_555/*.trj $USER@mgt01:/apps/users/lcz/newexe8/exe8/task3/RC2/BP86/autoTrah> was submitted from host <mgt01> by user <lcz>.
Job was executed on host(s) <16*cnode16>, in queue <cqueue>, as user <lcz>.
</apps/users/lcz> was used as the home directory.
</apps/users/lcz/newexe8/exe8/task3/RC2/BP86/autoTrah> was used as the working directory.
Started at 2022-05-17 11:05:09
Results reported at 2022-05-18 08:39:15

Your job looked like:

------------------------------------------------------------
# User input
#!/bin/bash
#BSUB -J intel
#BSUB -o RC2-flipspin.out
#BSUB -n 16
#BSUB -q cqueue
export LD_LIBRARY_PATH=/apps/software/openmpi-4.1.1/lib:/apps/software/orca_5_0_0:$LD_LIBRARY_PATH
export PATH=/apps/software/openmpi-4.1.1/bin:/apps/software/orca_5_0_0:$PATH
mkdir /scratch/RC2-flipspin_555
scp $USER@mgt01:/apps/users/lcz/newexe8/exe8/task3/RC2/BP86/autoTrah/RC2-flipspin.inp /scratch/RC2-flipspin_555
scp $USER@mgt01:/apps/users/lcz/newexe8/exe8/task3/RC2/BP86/autoTrah/RC2-highspin.gbw /scratch/RC2-flipspin_555
/apps/software/orca_5_0_0/orca /scratch/RC2-flipspin_555/RC2-flipspin.inp >& RC2-flipspin.out
scp /scratch/RC2-flipspin_555/*.gbw $USER@mgt01:/apps/users/lcz/newexe8/exe8/task3/RC2/BP86/autoTrah
scp /scratch/RC2-flipspin_555/*.xyz $USER@mgt01:/apps/users/lcz/newexe8/exe8/task3/RC2/BP86/autoTrah
scp /scratch/RC2-flipspin_555/*.trj $USER@mgt01:/apps/users/lcz/newexe8/exe8/task3/RC2/BP86/autoTrah
------------------------------------------------------------

Exited with exit code 1.

Resource usage summary:

    CPU time   :       1239705.5 sec.
    Max Memory :             55815 MB
    Max Processes  :              21


The output (if any) follows:

/scratch/RC2-flipspin_555/*.xyz: No such file or directory
/scratch/RC2-flipspin_555/*.trj: No such file or directory
