[Molden Format]
[N_ATOMS]
            8
[Atoms]  AU
C     1    6      -2.186061        2.809142        1.071215
H     2    1      -4.200693        2.816180        0.898813
C     3    6      -0.915475        5.017362        1.331738
H     4    1      -1.926912        6.767904        1.365027
H     5    1       1.099156        5.010323        1.504146
N     6    7      -0.796515        0.404192        1.025476
H     7    1      -0.633404       -0.262641        2.786099
H     8    1      -1.734985       -0.845428       -0.036970
[5D7F9G]
[GTO]
    1
    s    8
   0.823600000E+04   0.542430189E-03
   0.123500000E+04   0.419642790E-02
   0.280800000E+03   0.215409141E-01
   0.792700000E+02   0.836149496E-01
   0.255900000E+02   0.239871619E+00
   0.899700000E+01   0.443751820E+00
   0.331900000E+01   0.353579696E+00
   0.364300000E+00  -0.917636608E-02
    s    8
   0.823600000E+04  -0.196392234E-03
   0.123500000E+04  -0.152595027E-02
   0.280800000E+03  -0.789044903E-02
   0.792700000E+02  -0.315148705E-01
   0.255900000E+02  -0.969100083E-01
   0.899700000E+01  -0.220541526E+00
   0.331900000E+01  -0.296069113E+00
   0.364300000E+00   0.104050343E+01
    s    1
   0.905900000E+00   0.100000000E+01
    s    1
   0.128500000E+00   0.100000000E+01
    p    3
   0.187100000E+02   0.394263872E-01
   0.413300000E+01   0.244088985E+00
   0.120000000E+01   0.815492009E+00
    p    1
   0.382700000E+00   0.100000000E+01
    p    1
   0.120900000E+00   0.100000000E+01
    d    1
   0.109700000E+01   0.100000000E+01
    d    1
   0.318000000E+00   0.100000000E+01
    f    1
   0.761000000E+00   0.100000000E+01
 
    2
    s    3
   0.338700000E+02   0.254948632E-01
   0.509500000E+01   0.190362766E+00
   0.115900000E+01   0.852162022E+00
    s    1
   0.325800000E+00   0.100000000E+01
    s    1
   0.102700000E+00   0.100000000E+01
    p    1
   0.140700000E+01   0.100000000E+01
    p    1
   0.388000000E+00   0.100000000E+01
    d    1
   0.105700000E+01   0.100000000E+01
 
    3
    s    8
   0.823600000E+04   0.542430189E-03
   0.123500000E+04   0.419642790E-02
   0.280800000E+03   0.215409141E-01
   0.792700000E+02   0.836149496E-01
   0.255900000E+02   0.239871619E+00
   0.899700000E+01   0.443751820E+00
   0.331900000E+01   0.353579696E+00
   0.364300000E+00  -0.917636608E-02
    s    8
   0.823600000E+04  -0.196392234E-03
   0.123500000E+04  -0.152595027E-02
   0.280800000E+03  -0.789044903E-02
   0.792700000E+02  -0.315148705E-01
   0.255900000E+02  -0.969100083E-01
   0.899700000E+01  -0.220541526E+00
   0.331900000E+01  -0.296069113E+00
   0.364300000E+00   0.104050343E+01
    s    1
   0.905900000E+00   0.100000000E+01
    s    1
   0.128500000E+00   0.100000000E+01
    p    3
   0.187100000E+02   0.394263872E-01
   0.413300000E+01   0.244088985E+00
   0.120000000E+01   0.815492009E+00
    p    1
   0.382700000E+00   0.100000000E+01
    p    1
   0.120900000E+00   0.100000000E+01
    d    1
   0.109700000E+01   0.100000000E+01
    d    1
   0.318000000E+00   0.100000000E+01
    f    1
   0.761000000E+00   0.100000000E+01
 
    4
    s    3
   0.338700000E+02   0.254948632E-01
   0.509500000E+01   0.190362766E+00
   0.115900000E+01   0.852162022E+00
    s    1
   0.325800000E+00   0.100000000E+01
    s    1
   0.102700000E+00   0.100000000E+01
    p    1
   0.140700000E+01   0.100000000E+01
    p    1
   0.388000000E+00   0.100000000E+01
    d    1
   0.105700000E+01   0.100000000E+01
 
    5
    s    3
   0.338700000E+02   0.254948632E-01
   0.509500000E+01   0.190362766E+00
   0.115900000E+01   0.852162022E+00
    s    1
   0.325800000E+00   0.100000000E+01
    s    1
   0.102700000E+00   0.100000000E+01
    p    1
   0.140700000E+01   0.100000000E+01
    p    1
   0.388000000E+00   0.100000000E+01
    d    1
   0.105700000E+01   0.100000000E+01
 
    6
    s    8
   0.114200000E+05   0.534980914E-03
   0.171200000E+04   0.413766310E-02
   0.389300000E+03   0.212509149E-01
   0.110000000E+03   0.825762988E-01
   0.355700000E+02   0.238413273E+00
   0.125400000E+02   0.443431666E+00
   0.464400000E+01   0.355431909E+00
   0.511800000E+00  -0.870290176E-02
    s    8
   0.114200000E+05  -0.198776985E-03
   0.171200000E+04  -0.154700349E-02
   0.389300000E+03  -0.799256330E-02
   0.110000000E+03  -0.320255651E-01
   0.355700000E+02  -0.991102048E-01
   0.125400000E+02  -0.228292775E+00
   0.464400000E+01  -0.298182763E+00
   0.511800000E+00   0.103700052E+01
    s    1
   0.129300000E+01   0.100000000E+01
    s    1
   0.178700000E+00   0.100000000E+01
    p    3
   0.266300000E+02   0.398072123E-01
   0.594800000E+01   0.249002660E+00
   0.174200000E+01   0.810479727E+00
    p    1
   0.555000000E+00   0.100000000E+01
    p    1
   0.172500000E+00   0.100000000E+01
    d    1
   0.165400000E+01   0.100000000E+01
    d    1
   0.469000000E+00   0.100000000E+01
    f    1
   0.109300000E+01   0.100000000E+01
 
    7
    s    3
   0.338700000E+02   0.254948632E-01
   0.509500000E+01   0.190362766E+00
   0.115900000E+01   0.852162022E+00
    s    1
   0.325800000E+00   0.100000000E+01
    s    1
   0.102700000E+00   0.100000000E+01
    p    1
   0.140700000E+01   0.100000000E+01
    p    1
   0.388000000E+00   0.100000000E+01
    d    1
   0.105700000E+01   0.100000000E+01
 
    8
    s    3
   0.338700000E+02   0.254948632E-01
   0.509500000E+01   0.190362766E+00
   0.115900000E+01   0.852162022E+00
    s    1
   0.325800000E+00   0.100000000E+01
    s    1
   0.102700000E+00   0.100000000E+01
    p    1
   0.140700000E+01   0.100000000E+01
    p    1
   0.388000000E+00   0.100000000E+01
    d    1
   0.105700000E+01   0.100000000E+01
 
[MO]
 Sym= A   
 Ene=         0.000000
 Spin= Alpha
 Occup=       1.999362
   1        0.004933409
   2        0.001186038
   3        0.000229278
   4        0.000520760
   5       -0.000011092
   6       -0.000201339
   7        0.000075517
   8        0.000455820
   9       -0.001516439
  10        0.000061803
  11       -0.000212356
  12        0.000671474
  13        0.000061374
  14       -0.000112901
  15        0.000007733
  16       -0.000011540
  17       -0.000085763
  18       -0.000116661
  19       -0.000260807
  20       -0.000044714
  21       -0.000049294
  22       -0.000661287
  23       -0.000943183
  24       -0.000019182
  25       -0.000035023
  26        0.000077045
  27        0.000022009
  28       -0.000021937
  29        0.000001233
  30        0.000117609
  31        0.000211825
  32        0.000321898
  33       -0.000197345
  34        0.000052867
  35       -0.000007810
  36        0.000003149
  37        0.000054893
  38       -0.000289329
  39       -0.000010185
  40        0.000053735
  41       -0.000011663
  42       -0.000012512
  43        0.000027308
  44       -0.000028326
  45       -0.000057637
  46        0.000453075
  47        0.000096502
  48       -0.000742618
  49        0.000055056
  50       -0.000124154
  51       -0.000027581
  52       -0.000367078
  53       -0.000400408
  54       -0.000100586
  55        0.000448735
  56        0.000084779
  57       -0.000032477
  58       -0.000056408
  59        0.000012710
  60        0.000001778
  61        0.000007946
  62        0.000037635
  63        0.000185032
  64       -0.000090000
  65        0.000033178
  66       -0.000553780
  67        0.000031562
  68        0.000000534
  69        0.000009270
  70       -0.000028181
  71       -0.000007104
  72       -0.000006049
  73        0.000042675
  74       -0.000072161
  75       -0.000070366
  76       -0.000229324
  77       -0.000007758
  78       -0.000029104
  79       -0.000002229
  80       -0.000001278
  81       -0.000175607
  82        0.000063023
  83       -0.000027249
  84        0.000012900
  85       -0.000001358
  86        0.000004136
  87       -0.000019267
  88        0.000042123
  89        0.000065281
  90        0.000797917
  91       -0.000235818
  92       -0.000010506
  93        0.000008540
  94        0.000000744
  95       -0.000259402
  96        0.000023348
  97       -0.000016217
  98       -0.000001321
  99       -0.000003739
 100       -0.000003252
 101        0.000004405
 102       -0.000020913
 103        0.976756455
 104       -0.000186794
 105        0.042528554
 106        0.002783601
 107       -0.002744047
 108       -0.000238195
 109        0.001053827
 110       -0.000079436
 111       -0.001247454
 112        0.000324499
 113       -0.001563257
 114       -0.000129820
 115        0.000657249
 116        0.000155976
 117        0.000117156
 118        0.000009743
 119       -0.000035477
 120        0.000113865
 121        0.000227367
 122       -0.000045766
 123        0.000030608
 124        0.000266383
 125        0.000370686
 126        0.000162862
 127        0.000006736
 128       -0.000166114
 129        0.000040229
 130       -0.000149275
 131        0.000029487
 132       -0.000032450
 133        0.000483734
 134       -0.000234312
 135       -0.000155506
 136       -0.000068114
 137       -0.000078543
 138        0.000230203
 139       -0.000059792
 140       -0.000133478
 141        0.000109987
 142       -0.000336599
 143        0.000024214
 144        0.000254901
 145        0.000040665
 146       -0.000004873
 147        0.000496939
 148       -0.000043236
 149       -0.000085018
 150       -0.000182557
 151       -0.000140246
 152       -0.000083179
 153       -0.000111870
 154       -0.000055542
 155        0.000038581
 156        0.000058129
 157       -0.000199174
 158       -0.000226070
 159        0.000009834
 160       -0.000281547
 Sym= A   
 Ene=         0.000000
 Spin= Alpha
 Occup=       1.999168
   1       -0.973489742
   2       -0.000154876
   3       -0.040700745
   4       -0.003785551
   5       -0.000384236
   6        0.000958924
   7        0.000028487
   8       -0.001399130
   9       -0.002817178
  10       -0.000305496
  11       -0.000536157
  12       -0.001724860
  13       -0.000148499
  14        0.000574231
  15       -0.000116913
  16       -0.000088785
  17       -0.000002610
  18       -0.000207771
  19       -0.000144365
  20        0.000004673
  21       -0.000186872
  22        0.000735357
  23       -0.000962647
  24        0.000007816
  25       -0.000027068
  26        0.000099357
  27        0.000094052
  28       -0.000071567
  29        0.000600436
  30        0.000007007
  31        0.000345247
  32       -0.000554140
  33        0.000604600
  34        0.000331277
  35       -0.000007136
  36        0.000021819
  37       -0.000363297
  38        0.000041410
  39       -0.000033992
  40       -0.000060928
  41        0.000019272
  42       -0.000003221
  43        0.000188824
  44        0.000019011
  45       -0.097628941
  46       -0.000196651
  47       -0.004424606
  48        0.001354987
  49        0.000004613
  50        0.000021721
  51       -0.000028240
  52       -0.001174771
  53       -0.001881074
  54       -0.000213817
  55       -0.000908525
  56       -0.001326081
  57       -0.000186995
  58       -0.000099533
  59        0.000016102
  60        0.000040068
  61       -0.000118840
  62        0.000188750
  63        0.000038380
  64        0.000051008
  65        0.000090566
  66       -0.000352387
  67        0.001373814
  68        0.000037482
  69        0.000095883
  70        0.000132088
  71        0.000019394
  72       -0.000033721
  73        0.000175149
  74       -0.000003519
  75       -0.000188232
  76        0.000778081
  77        0.000285717
  78       -0.000005588
  79       -0.000014075
  80       -0.000002801
  81        0.000056488
  82       -0.000433539
  83       -0.000010387
  84        0.000004214
  85        0.000000292
  86       -0.000002354
  87       -0.000019867
  88       -0.000011990
  89       -0.000207576
  90        0.000498908
  91        0.000427560
  92       -0.000019708
  93       -0.000014993
  94       -0.000006205
  95       -0.000317489
  96       -0.000332899
  97       -0.000049568
  98       -0.000022479
  99        0.000011024
 100        0.000007804
 101        0.000016051
 102        0.000057650
 103        0.004717285
 104       -0.001185775
 105       -0.000040889
 106       -0.003163727
 107       -0.000084362
 108       -0.000000180
 109        0.000028968
 110        0.000119932
 111       -0.000178050
 112       -0.000133474
 113        0.000569602
 114       -0.000260938
 115       -0.000341524
 116        0.000015796
 117        0.000011923
 118        0.000018070
 119        0.000017605
 120        0.000033907
 121       -0.000105346
 122       -0.000104627
 123       -0.000054860
 124        0.000064288
 125       -0.000087645
 126       -0.000046732
 127        0.000064898
 128       -0.000086785
 129        0.000023601
 130        0.000007070
 131        0.000192458
 132        0.000029764
 133       -0.000224542
 134        0.000752387
 135        0.000192658
 136       -0.000000225
 137        0.000029005
 138        0.000025285
 139       -0.000152490
 140        0.000200959
 141       -0.000204137
 142       -0.000019116
 143        0.000019477
 144       -0.000027060
 145        0.000006695
 146        0.000018719
 147       -0.000198381
 148        0.000514146
 149       -0.000086138
 150       -0.000048638
 151        0.000037373
 152       -0.000035839
 153       -0.000051448
 154        0.000155191
 155        0.000144321
 156        0.000008723
 157       -0.000056333
 158       -0.000006525
 159       -0.000023662
 160       -0.000023886
 Sym= A   
 Ene=         0.000000
 Spin= Alpha
 Occup=       1.999151
   1        0.098652044
   2       -0.000179296
   3        0.003778998
   4        0.001149081
   5        0.000000994
   6       -0.000315438
   7       -0.000040873
   8        0.001688719
   9        0.001756390
  10        0.000233291
  11        0.000944834
  12        0.000985239
  13        0.000127615
  14       -0.000240358
  15        0.000044485
  16        0.000044157
  17       -0.000112410
  18        0.000192736
  19        0.000119007
  20       -0.000042871
  21        0.000169176
  22       -0.001101289
  23        0.001366078
  24       -0.000044971
  25       -0.000094218
  26       -0.000153266
  27       -0.000044490
  28        0.000060884
  29       -0.000362671
  30       -0.000016393
  31       -0.000299608
  32        0.001272168
  33        0.000275450
  34       -0.000059373
  35        0.000017999
  36       -0.000004561
  37        0.000621591
  38        0.000338176
  39        0.000068528
  40       -0.000000942
  41        0.000002372
  42        0.000005684
  43       -0.000018020
  44        0.000064586
  45       -0.973450521
  46       -0.000146028
  47       -0.040992158
  48       -0.004107865
  49        0.000118095
  50       -0.000035050
  51       -0.000136134
  52        0.001405625
  53        0.002879340
  54        0.000351139
  55        0.000428014
  56        0.001140683
  57        0.000056754
  58        0.000747247
  59       -0.000115351
  60       -0.000109717
  61        0.000087513
  62       -0.000129428
  63       -0.000161282
  64       -0.000021219
  65       -0.000145289
  66        0.000447434
  67       -0.001359620
  68       -0.000009327
  69       -0.000004531
  70       -0.000019180
  71       -0.000092401
  72        0.000075053
  73       -0.000833669
  74       -0.000006689
  75        0.000317287
  76       -0.001083354
  77        0.000443496
  78        0.000198331
  79       -0.000328419
  80       -0.000008510
  81       -0.000139309
  82        0.000547512
  83        0.000024367
  84       -0.000067569
  85       -0.000016416
  86       -0.000002339
  87       -0.000119506
  88       -0.000222879
  89        0.000358520
  90       -0.000326597
  91        0.000557216
  92       -0.000396167
  93        0.000011643
  94       -0.000035079
  95        0.000283772
  96        0.000235202
  97        0.000029243
  98       -0.000055695
  99        0.000031959
 100       -0.000013081
 101        0.000265147
 102       -0.000025989
 103       -0.000617654
 104       -0.000031674
 105       -0.000101889
 106       -0.000031989
 107       -0.000087018
 108       -0.000241714
 109        0.000031999
 110       -0.000058149
 111        0.000177150
 112       -0.000206488
 113       -0.000143319
 114        0.000178409
 115       -0.000146122
 116       -0.000014063
 117       -0.000005392
 118        0.000003321
 119        0.000025603
 120        0.000002398
 121       -0.000086990
 122        0.000011900
 123        0.000075455
 124       -0.000190804
 125        0.000096753
 126       -0.000014785
 127       -0.000018063
 128        0.000024645
 129       -0.000011920
 130        0.000003026
 131       -0.000057912
 132       -0.000028495
 133        0.000009136
 134        0.000565914
 135        0.000163302
 136       -0.000000730
 137       -0.000010913
 138       -0.000035605
 139       -0.000063944
 140        0.000133469
 141       -0.000270083
 142        0.000046198
 143        0.000012106
 144       -0.000039110
 145       -0.000012000
 146       -0.000010699
 147        0.000101833
 148        0.000064747
 149        0.000124923
 150        0.000015209
 151        0.000018595
 152        0.000014036
 153       -0.000022852
 154       -0.000079451
 155        0.000019025
 156        0.000019918
 157        0.000014187
 158        0.000007617
 159        0.000018103
 160        0.000019537
 Sym= A   
 Ene=         0.000000
 Spin= Alpha
 Occup=       1.981913
   1       -0.011919060
   2        0.249383164
   3        0.050897831
   4        0.073788456
   5       -0.001284095
   6       -0.000900627
   7       -0.001796418
   8       -0.009091109
   9       -0.008051973
  10       -0.002808213
  11       -0.019219587
  12       -0.002216291
  13       -0.003187566
  14       -0.009326606
  15        0.001313875
  16        0.001375172
  17       -0.000847452
  18       -0.001592410
  19       -0.010641015
  20        0.001961198
  21        0.000689211
  22        0.003299763
  23        0.002371990
  24        0.000125351
  25       -0.000222834
  26        0.000576658
  27       -0.000525580
  28        0.000412827
  29       -0.006418349
  30       -0.000105218
  31        0.052919563
  32        0.053643671
  33        0.014587183
  34        0.004358415
  35        0.000225327
  36        0.000333639
  37       -0.002685276
  38        0.001461304
  39       -0.000447909
  40       -0.000260518
  41       -0.000014303
  42        0.000152880
  43       -0.000007040
  44        0.000331385
  45       -0.009263376
  46        0.195575476
  47        0.039397995
  48        0.076923266
  49        0.003152588
  50       -0.014651248
  51        0.000213119
  52        0.013347283
  53       -0.003640365
  54        0.002876088
  55        0.008048486
  56       -0.000616844
  57        0.003906602
  58       -0.006403416
  59        0.001129255
  60        0.001006856
  61        0.000100511
  62        0.001699669
  63       -0.008008079
  64        0.001742778
  65       -0.000306094
  66        0.007093790
  67        0.000613895
  68       -0.000174018
  69       -0.000237128
  70        0.000026642
  71        0.000415245
  72       -0.000279329
  73        0.004142487
  74        0.000140441
  75        0.029934984
  76        0.023630808
  77        0.001308429
  78        0.001178463
  79       -0.002498179
  80       -0.000050396
  81        0.000846743
  82        0.003807338
  83        0.000652080
  84        0.000086648
  85        0.000041550
  86       -0.000028451
  87        0.000277483
  88        0.000104039
  89        0.043864765
  90        0.036492239
  91        0.016154757
  92       -0.003697576
  93       -0.000431557
  94       -0.000329521
  95        0.004412843
  96        0.000518442
  97        0.000740947
  98       -0.000083396
  99        0.000003503
 100        0.000035627
 101       -0.000084289
 102        0.000244162
 103       -0.010856068
 104        0.372503606
 105        0.088481140
 106        0.159507756
 107        0.005374559
 108       -0.007263127
 109        0.001885657
 110        0.002065444
 111       -0.004572684
 112        0.002792991
 113        0.041536168
 114       -0.010130193
 115       -0.012472465
 116        0.000877263
 117        0.002271035
 118        0.000270404
 119       -0.002654377
 120       -0.000967330
 121        0.001278167
 122        0.003436399
 123       -0.000618223
 124       -0.003817632
 125       -0.001546208
 126        0.001269540
 127        0.000679327
 128       -0.002469902
 129       -0.000143703
 130       -0.001157283
 131        0.002135607
 132       -0.000028455
 133        0.066030843
 134        0.072115054
 135        0.007530262
 136       -0.000060300
 137        0.002842784
 138       -0.007692372
 139       -0.001697403
 140        0.004520255
 141       -0.009098926
 142        0.001255381
 143        0.000034004
 144       -0.001235558
 145       -0.000242756
 146       -0.000236690
 147        0.063719727
 148        0.067557676
 149        0.003743736
 150        0.004420611
 151        0.005203818
 152        0.004219634
 153        0.004076544
 154        0.006672605
 155        0.005524062
 156       -0.000292435
 157        0.000784939
 158        0.000999044
 159       -0.000151949
 160        0.000936396
 Sym= A   
 Ene=         0.000000
 Spin= Alpha
 Occup=       1.978077
   1       -0.006005987
   2        0.146255779
   3        0.030685005
   4        0.045885982
   5       -0.014769729
   6        0.058988909
   7        0.002556444
   8       -0.025520041
   9        0.058816549
  10        0.001793524
  11       -0.010297043
  12       -0.003749949
  13       -0.001261423
  14       -0.003389475
  15        0.001104949
  16        0.000885651
  17        0.001935924
  18        0.007448587
  19       -0.000008692
  20        0.002001480
  21        0.001020324
  22        0.004814827
  23        0.007982413
  24       -0.000066863
  25        0.000780725
  26       -0.000813866
  27       -0.000423297
  28        0.000119201
  29       -0.002879967
  30       -0.000701409
  31        0.039485643
  32        0.042087641
  33        0.010980009
  34        0.003537223
  35        0.000987099
  36        0.000333660
  37       -0.001437360
  38        0.000600083
  39        0.000307143
  40       -0.000220251
  41        0.000090458
  42        0.000041896
  43       -0.000021840
  44        0.000605925
  45       -0.011057402
  46        0.342946789
  47        0.069214109
  48        0.161307756
  49       -0.002323504
  50        0.022522639
  51        0.000830410
  52        0.005407676
  53        0.039466052
  54        0.002071170
  55        0.004334066
  56        0.018709382
  57        0.001588283
  58       -0.010625381
  59        0.001612708
  60        0.001422606
  61        0.000135942
  62        0.000234151
  63       -0.015599942
  64        0.002776226
  65        0.001210252
  66        0.003108354
  67       -0.004258440
  68       -0.000023171
  69        0.000046997
  70       -0.000367437
  71        0.000743232
  72       -0.000701721
  73        0.007291872
  74       -0.000714378
  75        0.082977809
  76        0.087054595
  77        0.017548575
  78        0.003840232
  79       -0.006631387
  80       -0.000125905
  81        0.000949253
  82        0.001576097
  83        0.000389707
  84       -0.000529396
  85        0.000042657
  86        0.000003869
  87       -0.000428630
  88       -0.000400098
  89        0.069646643
  90        0.065471091
  91        0.011361971
  92       -0.006287085
  93        0.000558622
  94       -0.000526168
  95        0.003382873
  96        0.003706668
  97        0.000624318
  98       -0.000120746
  99        0.000021234
 100       -0.000073310
 101        0.000215687
 102       -0.000484086
 103        0.007227080
 104       -0.277642955
 105       -0.066290566
 106       -0.157656552
 107        0.000359600
 108        0.044403744
 109       -0.004139157
 110        0.004771240
 111        0.055789851
 112       -0.007482950
 113       -0.010457673
 114        0.015767217
 115        0.000973090
 116       -0.002560285
 117       -0.002260695
 118       -0.000161538
 119        0.001099211
 120       -0.002118997
 121       -0.003395362
 122       -0.003582334
 123       -0.000068135
 124        0.003557962
 125       -0.002909088
 126       -0.001377447
 127       -0.000392454
 128        0.001890698
 129        0.000049861
 130        0.001253755
 131       -0.001860020
 132       -0.000261474
 133       -0.061152538
 134       -0.059175515
 135       -0.006654201
 136        0.000354057
 137       -0.001971150
 138        0.006943787
 139        0.001335753
 140        0.001379912
 141        0.004683574
 142       -0.001162417
 143       -0.000069117
 144        0.000449185
 145       -0.000200615
 146       -0.000147009
 147       -0.066237730
 148       -0.070577995
 149       -0.012926292
 150       -0.004177471
 151       -0.004708008
 152       -0.004451738
 153       -0.002766107
 154       -0.002411561
 155       -0.004621522
 156       -0.000063127
 157       -0.000611737
 158       -0.000895029
 159        0.000043220
 160       -0.000918107
 Sym= A   
 Ene=         0.000000
 Spin= Alpha
 Occup=       1.970360
   1        0.003144015
   2       -0.295091523
   3       -0.061794238
   4       -0.179872230
   5        0.128362826
   6        0.006330852
   7        0.010414848
   8        0.157778069
   9        0.008902981
  10        0.012357352
  11        0.052003300
  12       -0.002733570
  13        0.002725838
  14        0.007030314
  15       -0.001999171
  16       -0.000344558
  17       -0.007506269
  18       -0.001407662
  19        0.013701459
  20       -0.004059567
  21       -0.001511454
  22       -0.012085011
  23       -0.003359206
  24       -0.000197440
  25       -0.001632776
  26        0.000622160
  27        0.000847700
  28       -0.000080948
  29        0.005188380
  30       -0.000200982
  31       -0.143247110
  32       -0.181985172
  33       -0.045924479
  34       -0.013541282
  35        0.000330432
  36       -0.001208113
  37       -0.006935636
  38        0.000790653
  39       -0.000307732
  40        0.001388639
  41       -0.000392567
  42       -0.000009219
  43       -0.002455933
  44        0.000249695
  45       -0.001030494
  46        0.192459603
  47        0.039796086
  48        0.129890571
  49        0.070956707
  50        0.050097138
  51        0.009455881
  52        0.080992996
  53        0.056034100
  54        0.011039254
  55        0.014263338
  56        0.012401561
  57        0.003207207
  58       -0.005060344
  59        0.000538423
  60        0.000177545
  61        0.001330533
  62       -0.006138548
  63       -0.010794554
  64        0.001464287
  65       -0.000120317
  66        0.000253801
  67       -0.008946479
  68       -0.000172224
  69       -0.000583051
  70       -0.000117893
  71        0.000591679
  72        0.000040658
  73        0.002850444
  74        0.002522400
  75        0.050334599
  76        0.057929853
  77        0.015322264
  78        0.004126263
  79       -0.002932565
  80        0.000147593
  81        0.004328860
  82        0.000804317
  83        0.000691388
  84       -0.000225839
  85        0.000052893
  86       -0.000182712
  87        0.000989034
  88       -0.001393521
  89        0.082566955
  90        0.108397158
  91        0.023678183
  92       -0.008342594
  93        0.000337426
  94       -0.000715102
  95       -0.007615281
  96        0.002196165
  97       -0.000181704
  98       -0.000992277
  99        0.000321502
 100       -0.000011444
 101        0.001807110
 102        0.000151163
 103        0.000299619
 104        0.101892058
 105        0.025598337
 106        0.098213750
 107        0.046044257
 108       -0.022615564
 109        0.003809212
 110        0.058615258
 111       -0.028341273
 112        0.003356241
 113        0.028620631
 114       -0.003414871
 115       -0.005212477
 116        0.002643543
 117        0.000847000
 118       -0.000406643
 119       -0.001671038
 120        0.002853683
 121        0.003198563
 122        0.002375744
 123        0.000574599
 124       -0.005599979
 125        0.006831170
 126        0.000213023
 127       -0.000132733
 128       -0.000357516
 129        0.000148762
 130       -0.000372549
 131       -0.000035620
 132       -0.001283363
 133        0.029331494
 134        0.030792211
 135        0.003186976
 136        0.000917271
 137        0.000990097
 138       -0.003813652
 139        0.002955982
 140        0.000406102
 141       -0.003012444
 142        0.001055034
 143       -0.000481817
 144       -0.000421086
 145       -0.000002091
 146        0.000419328
 147        0.014481462
 148        0.007520610
 149        0.003056248
 150        0.002283769
 151        0.000234295
 152        0.000791967
 153        0.002345096
 154       -0.002061872
 155       -0.002003359
 156       -0.000104833
 157        0.000304401
 158       -0.000178658
 159        0.000516413
 160        0.000768750
 Sym= A   
 Ene=         0.000000
 Spin= Alpha
 Occup=       1.965835
   1        0.000348058
   2       -0.078005321
   3       -0.015919538
   4       -0.061276207
   5       -0.016385681
   6        0.004466595
   7        0.001524233
   8       -0.020287083
   9        0.006741298
  10        0.002483901
  11        0.010205620
  12       -0.027426717
  13        0.002039506
  14        0.001850631
  15       -0.001203856
  16       -0.000141377
  17       -0.009764454
  18       -0.004269631
  19        0.002514283
  20       -0.002395069
  21       -0.000622304
  22       -0.014295607
  23       -0.005754197
  24        0.000030677
  25        0.000666978
  26        0.000184543
  27       -0.000340951
  28       -0.000682330
  29        0.001841623
  30       -0.003128290
  31       -0.021315197
  32       -0.030557186
  33       -0.026093341
  34       -0.000780862