
                                        *****************
                                        * O   R   C   A *
                                        *****************

                                            #,                                       
                                            ###                                      
                                            ####                                     
                                            #####                                    
                                            ######                                   
                                           ########,                                 
                                     ,,################,,,,,                         
                               ,,#################################,,                 
                          ,,##########################################,,             
                       ,#########################################, ''#####,          
                    ,#############################################,,   '####,        
                  ,##################################################,,,,####,       
                ,###########''''           ''''###############################       
              ,#####''   ,,,,##########,,,,          '''####'''          '####       
            ,##' ,,,,###########################,,,                        '##       
           ' ,,###''''                  '''############,,,                           
         ,,##''                                '''############,,,,        ,,,,,,###''
      ,#''                                            '''#######################'''  
     '                                                          ''''####''''         
             ,#######,   #######,   ,#######,      ##                                
            ,#'     '#,  ##    ##  ,#'     '#,    #''#        ######   ,####,        
            ##       ##  ##   ,#'  ##            #'  '#       #        #'  '#        
            ##       ##  #######   ##           ,######,      #####,   #    #        
            '#,     ,#'  ##    ##  '#,     ,#' ,#      #,         ##   #,  ,#        
             '#######'   ##     ##  '#######'  #'      '#     #####' # '####'        



                  #######################################################
                  #                        -***-                        #
                  #          Department of theory and spectroscopy      #
                  #    Directorship and core code : Frank Neese         #
                  #        Max Planck Institute fuer Kohlenforschung    #
                  #                Kaiser Wilhelm Platz 1               #
                  #                 D-45470 Muelheim/Ruhr               #
                  #                      Germany                        #
                  #                                                     #
                  #                  All rights reserved                #
                  #                        -***-                        #
                  #######################################################


                         Program Version 5.0.0 -  RELEASE  -
                                (SVN: $Rev: 19529$)
                ($Date: 2021-06-28 11:36:33 +0200 (Mo, 28 Jun 2021) $)


 With contributions from (in alphabetic order):
   Daniel Aravena         : Magnetic Suceptibility
   Michael Atanasov       : Ab Initio Ligand Field Theory (pilot matlab implementation)
   Alexander A. Auer      : GIAO ZORA, VPT2 properties, NMR spectrum
   Ute Becker             : Parallelization
   Giovanni Bistoni       : ED, misc. LED, open-shell LED, HFLD
   Martin Brehm           : Molecular dynamics
   Dmytro Bykov           : SCF Hessian
   Vijay G. Chilkuri      : MRCI spin determinant printing, contributions to CSF-ICE
   Dipayan Datta          : RHF DLPNO-CCSD density
   Achintya Kumar Dutta   : EOM-CC, STEOM-CC
   Dmitry Ganyushin       : Spin-Orbit,Spin-Spin,Magnetic field MRCI
   Miquel Garcia          : C-PCM Hessian, Gaussian charge scheme
   Yang Guo               : DLPNO-NEVPT2, F12-NEVPT2, CIM, IAO-localization
   Andreas Hansen         : Spin unrestricted coupled pair/coupled cluster methods
   Benjamin Helmich-Paris : MC-RPA, TRAH-SCF, COSX integrals
   Lee Huntington         : MR-EOM, pCC
   Robert Izsak           : Overlap fitted RIJCOSX, COSX-SCS-MP3, EOM
   Marcus Kettner         : VPT2
   Christian Kollmar      : KDIIS, OOCD, Brueckner-CCSD(T), CCSD density, CASPT2, CASPT2-K
   Simone Kossmann        : Meta GGA functionals, TD-DFT gradient, OOMP2, MP2 Hessian
   Martin Krupicka        : Initial AUTO-CI
   Lucas Lang             : DCDCAS
   Marvin Lechner         : AUTO-CI (C++ implementation), FIC-MRCC
   Dagmar Lenk            : GEPOL surface, SMD
   Dimitrios Liakos       : Extrapolation schemes; Compound Job, initial MDCI parallelization
   Dimitrios Manganas     : Further ROCIS development; embedding schemes
   Dimitrios Pantazis     : SARC Basis sets
   Anastasios Papadopoulos: AUTO-CI, single reference methods and gradients
   Taras Petrenko         : DFT Hessian,TD-DFT gradient, ASA, ECA, R-Raman, ABS, FL, XAS/XES, NRVS
   Peter Pinski           : DLPNO-MP2, DLPNO-MP2 Gradient
   Christoph Reimann      : Effective Core Potentials
   Marius Retegan         : Local ZFS, SOC
   Christoph Riplinger    : Optimizer, TS searches, QM/MM, DLPNO-CCSD(T), (RO)-DLPNO pert. Triples
   Tobias Risthaus        : Range-separated hybrids, TD-DFT gradient, RPA, STAB
   Michael Roemelt        : Original ROCIS implementation
   Masaaki Saitow         : Open-shell DLPNO-CCSD energy and density
   Barbara Sandhoefer     : DKH picture change effects
   Avijit Sen             : IP-ROCIS
   Kantharuban Sivalingam : CASSCF convergence, NEVPT2, FIC-MRCI
   Bernardo de Souza      : ESD, SOC TD-DFT
   Georgi Stoychev        : AutoAux, RI-MP2 NMR
   Willem Van den Heuvel  : Paramagnetic NMR
   Boris Wezisla          : Elementary symmetry handling
   Frank Wennmohs         : Technical directorship


 We gratefully acknowledge several colleagues who have allowed us to
 interface, adapt or use parts of their codes:
   Stefan Grimme, W. Hujo, H. Kruse, P. Pracht,  : VdW corrections, initial TS optimization,
                  C. Bannwarth, S. Ehlert          DFT functionals, gCP, sTDA/sTD-DF
   Ed Valeev, F. Pavosevic, A. Kumar             : LibInt (2-el integral package), F12 methods
   Garnet Chan, S. Sharma, J. Yang, R. Olivares  : DMRG
   Ulf Ekstrom                                   : XCFun DFT Library
   Mihaly Kallay                                 : mrcc  (arbitrary order and MRCC methods)
   Jiri Pittner, Ondrej Demel                    : Mk-CCSD
   Frank Weinhold                                : gennbo (NPA and NBO analysis)
   Christopher J. Cramer and Donald G. Truhlar   : smd solvation model
   Lars Goerigk                                  : TD-DFT with DH, B97 family of functionals
   V. Asgeirsson, H. Jonsson                     : NEB implementation
   FAccTs GmbH                                   : IRC, NEB, NEB-TS, DLPNO-Multilevel, CI-OPT
                                                   MM, QMMM, 2- and 3-layer-ONIOM, Crystal-QMMM,
                                                   LR-CPCM, SF, NACMEs, symmetry and pop. for TD-DFT,
                                                   nearIR, NL-DFT gradient (VV10), updates on ESD,
                                                   ML-optimized integration grids
   S Lehtola, MJT Oliveira, MAL Marques          : LibXC Library
   Liviu Ungur et al                             : ANISO software


 Your calculation uses the libint2 library for the computation of 2-el integrals
 For citations please refer to: http://libint.valeyev.net

 Your ORCA version has been built with support for libXC version: 5.1.0
 For citations please refer to: https://tddft.org/programs/libxc/

 This ORCA versions uses:
   CBLAS   interface :  Fast vector & matrix operations
   LAPACKE interface :  Fast linear algebra routines
   SCALAPACK package :  Parallel linear algebra routines
   Shared memory     :  Shared parallel matrices
   BLAS/LAPACK       :  OpenBLAS 0.3.15  USE64BITINT DYNAMIC_ARCH NO_AFFINITY SkylakeX SINGLE_THREADED
        Core in use  :  SkylakeX
   Copyright (c) 2011-2014, The OpenBLAS Project


ERROR: found a coordinate defintion line (* ctyp charge mult)
[file orca_main/maininp1.cpp, line 17159]:   but could not read ctyp, charge and multiplicity

[file orca_main/maininp1.cpp, line 17159]:   but could not read ctyp, charge and multiplicity

                                                                                                                                                                                                                                                                                                                                                                                                                                                                                                                                                                                                                                                                                                                                                                                                                                                                                                                                                                                                                                                                                                                                                                                                                                                                                                                                                                                                                                                                                                                                                                                                                                                                                                                                                                                                                                                                                                                                                                                                                                                                                                                                                                                                                                                                                                                                                                                                                                                                                                                                                                                                                                                                                                                                                                                                                                                                                                                                                                                                                                                                                                                                                                                                                                                                                                                                                                                                                                                                                                                                                                                                                                                                                                                                                                                                                                                                                                                                                                                                                                                                                                                                                                                                                                                                                                                                                                                                                                                                                                                                                                                                                                                                                                                                                                                                                                                                                                                                                                                                                                                                                                                                                                                                                                                                                                                                                                                                                                                                                                                                                                                                                                                                                                                                                                                                                                                                                                                                                                                                                                                                                                                                                                                                                                                                                                                                                                                                                                                                                                                                                                                                                                                                                                                                                                                                                                                                                                                                                                                                                                                                                                                                                                                                                                                                                                                                                                                                                                                                                                                                                                                                                                                                                                                                                                                                                                                                                                                                                                                                                                                                                                                                                                                                                                                                                                                                                                                                                                                                                                                                                                                                                                                                                                                                                                                                                                                                                                                                                                                                                                                                                                                                                                                                                                                                                                                                                                                                                                                                                                                                                                                                                                                                                                                                                                                                                                                                                                                                                                                                                                                                                                                                                                                                                                                                                                                                                                                                                                                                                                                                                                                                                                                                                                                                                                                                                                                                                                                                                                                                                                                                                                                                                                                                                                                                                                                                                                                                                                                                                                                                                                                                                                                                                                                                                                                                                                                                                                                                                                                                                                                                                                                                                                                                                                                                                                                                                                                                                                                                                                                                                                                                                                                                                                                                                                                                                                                                                                                                                                                                                                                                                                                                                                                                                                                                                                                                                                                                                                                                                                                                                                                                                                                                                                                                                                                                                                                                                                                                                                                                                                                                                                                                                                                                                                                                                                                                                                                                                                                                                                                                                                                                                                                                                                                                                                                                                                                                                                                                                                                                                                                                                                                                                                                                                                                                                                                                                                                                                                                                                                                                                                                                                                                                                                                                                                                                                                                                                                                                                                                                                                                                                                                                                                                                                                                                                                                                                                                                                                                                                                                                                                                                                                                                                                                                                                                                                                                                                                                                                                                                                                                                                                                                                                                                                                                                                                                                                                                                                                                                                                                                                                                                                                                                                                                                                                                                                                                                                                                                                                                                                                                                                                                                                                                                                                                                                                                                                                                                                                                                                                                                                                                                                                                                                                                                                                                                                                                                                                                                                                                                                                                                                                                                                                                                                                                                                                                                                                                                                                                                                                                                                                                                                                                                                                                                                                                                                                                                                                                                                                                                                                                                                                                                                                                                                                                                                                                                                                                                                                                                                                                                                                                                                                                                                                                                                                                                                                                                                                                                                                                                                                                                                                                                                                                                                                                                                                                                                                                                                                                                                                                                                                                                                                                                                                                                                                                                                                                                                                                                                                                                                                                                                                                                                                                                                                                                                                                                                                                                                                                                                                                                                                                                                                                                                                                                                                                                                                                                                                                                                                                                                                                                                                                                                                                                                                                                                                                                                                                                                                                                                                                                                                                                                                                                                                                                                                                                                                                                                                                                                                                                                                                                                                                                                                                                                                                                                                                                                                                                                                                                                                                                                                                                                                                                                                                                                                                                                                                                                                                                                                                                                                                                                                                                                                                                                                                                                                                                                                                                                                                                                                                                                                                                                                                                                                                                                                                                                                                                                                                                                                                                                                                                                                                                                                                                                                                                                                                                                                                                                                                                                                                                                                                                                                                                                                                                                                                                                                                                                                                                                                                                                                                                                                                                                                                                                                                                                                                                                                                                                                                                                                                                                                                                                                                                                                                                                                                                                                                                                                                                                                                                                                                                                                                                                                                                                                                                                                                                                                                                                                                                                                                                                                                                                                                                                                                                                                                                                                                                                                                                                                                                                                                                                                                                                                                                                                                                                                                                                                                                                                                                                                                                                                                                                                                                                                                                                                                                                                                                                                                                                                                                                                                                                                                                                                                                                                                                                                                                                                                                                                                                                                                                                                                                                                                                                                                                                                                                                                                                                                                                                                                                                                                                                                                                                                                                                                                                                                                                                                                                                                                                                                                                                                                                                                                                                                                                                                                                                                                                                                                                                                                                                                                                                                                                                                                                                                                                                                                                                                                                                                                                                                                                                                                                                                                                                                                                                                                                                                                                                                                                                                                                                                                                                                                                                                                                                                                                                                                                                                                                                                                                                                                                                                                                  sorting integrals
IBATCH = 1 of  2
IBATCH = 2 of  2
Closing buffer JAO ( 0.47 GB; CompressionRatio= 1.00)
Collecting buffer JAO 
TOTAL TIME for half transformation         ...     7.076 sec
AO-integral generation                     ...     2.172 sec
Half transformation                        ...     1.628 sec
J-integral sorting                         ...     3.231 sec

-------------------------- SECOND HALF TRANSFORMATION -------------------------
Formation of (pq|rs)                       ... ok (     1.578 sec)
Integral sorting                           ... ok (     1.864 sec)

------------------
CLOSED SHELL GUESS
------------------

Initial guess performed in     0.000 sec
E(0)                                       ...    -24.978335009
E(MP2)                                     ...     -0.078764473
Initial E(tot)                             ...    -25.057099482
<T|T>                                      ...      0.033371380
Number of pairs included                   ... 3
Total number of pairs                      ... 3

------------------------------------------------
                  RHF COUPLED CLUSTER ITERATIONS
------------------------------------------------

Number of amplitudes to be optimized       ... 45633

Iter       E(tot)           E(Corr)          Delta-E          Residual     Time
  0    -25.057099482     -0.078764473      0.000000000      0.010525837    0.55
                           *** Turning on DIIS ***
  1    -25.068027251     -0.089692242     -0.010927769      0.008056704    1.86
  2    -25.074719767     -0.096384758     -0.006692516      0.004962718    1.86
  3    -25.077289278     -0.098954269     -0.002569512      0.002791298    1.87
  4    -25.078546218     -0.100211209     -0.001256939      0.001092161    1.87
  5    -25.078930886     -0.100595877     -0.000384668      0.000365434    1.86
  6    -25.079038621     -0.100703612     -0.000107736      0.000136430    1.86
  7    -25.079059820     -0.100724811     -0.000021199      0.000042444    1.87
  8    -25.079061003     -0.100725994     -0.000001182      0.000008073    1.88
  9    -25.079060779     -0.100725770      0.000000224      0.000003490    1.87
 10    -25.079060495     -0.100725486      0.000000285      0.000001465    1.86
 11    -25.079060382     -0.100725373      0.000000113      0.000000630    1.86
               --- The Coupled-Cluster iterations have converged ---

----------------------
COUPLED CLUSTER ENERGY
----------------------

E(0)                                       ...    -24.978335009
E(CORR)                                    ...     -0.100725373
E(TOT)                                     ...    -25.079060382
Singles Norm <S|S>**1/2                    ...      0.026007961  
T1 diagnostic                              ...      0.013003980  

------------------
LARGEST AMPLITUDES
------------------
   2->  8   2->  8       0.065763
   2->  7   2->  7       0.065763
   2->  8   2->  4       0.058088
   2->  4   2->  8       0.058088
   2->  3   2->  7       0.058088
   2->  7   2->  3       0.058088
   2->  4   2->  4       0.052200
   2->  3   2->  3       0.052200
   2-> 21   2-> 21       0.033460
   2-> 19   2->  7       0.031737
   2->  7   2-> 19       0.031737
   2-> 20   2->  8       0.031737
   2->  8   2-> 20       0.031737
   2->  3   2-> 19       0.029585
   2-> 19   2->  3       0.029585
   2->  4   2-> 20       0.029585


        !!!!!!!!!!!!!!!!!!!!!!!!!!!!!!!!!!!!!!!!!!!!!!!!!!!!!!!!!!!!!!!!!!!!!!!!!! 
        !  Warning: Densities are linearized densities !                         !
        !!!!!!!!!!!!!!!!!!!!!!!!!!!!!!!!!!!!!!!!!!!!!!!!!!!!!!!!!!!!!!!!!!!!!!!!!! 

Trace of internal density part =     -0.180293004
Trace of external density part =      0.180293004
NORM  =      1.090822916 sqrt=     1.044424682
W(HF) =      0.916739083
------------------------------------------------------------------------------
                           ORCA POPULATION ANALYSIS
------------------------------------------------------------------------------
Input electron density              ... /scratch/BH-0.8-CCSD-O_624/BH-0.8-CCSD-O.mdcip
BaseName (.gbw .S,...)              ... /scratch/BH-0.8-CCSD-O_624/BH-0.8-CCSD-O

                    ********************************
                    * MULLIKEN POPULATION ANALYSIS *
                    ********************************

-----------------------
MULLIKEN ATOMIC CHARGES
-----------------------
   0 B :   -0.076739
   1 H :    0.076739
Sum of atomic charges:   -0.0000000

--------------------------------
MULLIKEN REDUCED ORBITAL CHARGES
--------------------------------
  0 B s       :     3.758652  s :     3.758652
      pz      :     0.058066  p :     1.255672
      px      :     1.139541
      py      :     0.058066
      dz2     :     0.010688  d :     0.058503
      dxz     :     0.007985
      dyz     :     0.000221
      dx2y2   :     0.031624
      dxy     :     0.007985
      f0      :     0.000212  f :     0.003394
      f+1     :     0.000845
      f-1     :     0.000049
      f+2     :     0.000343
      f-2     :     0.000087
      f+3     :     0.001351
      f-3     :     0.000506
      g0      :     0.000053  g :     0.000518
      g+1     :     0.000040
      g-1     :     0.000005
      g+2     :     0.000107
      g-2     :     0.000018
      g+3     :     0.000034
      g-3     :     0.000020
      g+4     :     0.000186
      g-4     :     0.000056
  1 H s       :     0.930041  s :     0.930041
      pz      :     0.007130  p :    -0.003776
      px      :    -0.018036
      py      :     0.007130
      dz2     :    -0.001332  d :    -0.002904
      dxz     :     0.001264
      dyz     :     0.000104
      dx2y2   :    -0.004204
      dxy     :     0.001264
      f0      :     0.000046  f :    -0.000100
      f+1     :    -0.000126
      f-1     :     0.000016
      f+2     :     0.000070
      f-2     :     0.000008
      f+3     :    -0.000215
      f-3     :     0.000100


                     *******************************
                     * LOEWDIN POPULATION ANALYSIS *
                     *******************************

----------------------
LOEWDIN ATOMIC CHARGES
----------------------
   0 B :    0.756235
   1 H :   -0.756235

-------------------------------
LOEWDIN REDUCED ORBITAL CHARGES
-------------------------------
  0 B s       :     2.932326  s :     2.932326
      pz      :     0.040685  p :     1.225353
      px      :     1.143984
      py      :     0.040685
      dz2     :     0.014441  d :     0.073819
      dxz     :     0.008107
      dyz     :     0.000158
      dx2y2   :     0.043007
      dxy     :     0.008107
      f0      :     0.000323  f :     0.010143
      f+1     :     0.003151
      f-1     :     0.000068
      f+2     :     0.000528
      f-2     :     0.000113
      f+3     :     0.005176
      f-3     :     0.000784
      g0      :     0.000269  g :     0.002124
      g+1     :     0.000060
      g-1     :     0.000005
      g+2     :     0.000584
      g-2     :     0.000022
      g+3     :     0.000049
      g-3     :     0.000025
      g+4     :     0.001021
      g-4     :     0.000087
  1 H s       :     1.154046  s :     1.154046
      pz      :     0.013701  p :     0.390898
      px      :     0.363497
      py      :     0.013701
      dz2     :     0.031054  d :     0.142330
      dxz     :     0.009112
      dyz     :     0.000110
      dx2y2   :     0.092942
      dxy     :     0.009112
      f0      :     0.000987  f :     0.068960
      f+1     :     0.023888
      f-1     :     0.000173
      f+2     :     0.001637
      f-2     :     0.000033
      f+3     :     0.039791
      f-3     :     0.002451


                      *****************************
                      * MAYER POPULATION ANALYSIS *
                      *****************************

  NA   - Mulliken gross atomic population
  ZA   - Total nuclear charge
  QA   - Mulliken gross atomic charge
  VA   - Mayer's total valence
  BVA  - Mayer's bonded valence
  FA   - Mayer's free valence

  ATOM       NA         ZA         QA         VA         BVA        FA
  0 B      5.0767     5.0000    -0.0767     1.3709     0.7434     0.6275
  1 H      0.9233     1.0000     0.0767     0.7995     0.7434     0.0560

  Mayer bond orders larger than 0.100000
B(  0-B ,  1-H ) :   0.7434 



------------------------------------------------------------------------------- 
                                     TIMINGS                                   
------------------------------------------------------------------------------- 


Total execution time                   ...       33.096 sec

Fock Matrix Formation                  ...        1.269 sec (  3.8%)
Initial Guess                          ...        0.000 sec (  0.0%)
DIIS Solver                            ...        0.027 sec (  0.1%)
State Vector Update                    ...        0.001 sec (  0.0%)
Sigma-vector construction              ...       21.049 sec ( 63.6%)
  <0|H|D>                              ...        0.003 sec (  0.0% of sigma)
  <D|H|D>(0-ext)                       ...        0.006 sec (  0.0% of sigma)
  <D|H|D>(2-ext Fock)                  ...        0.006 sec (  0.0% of sigma)
  <D|H|D>(2-ext)                       ...        0.040 sec (  0.2% of sigma)
  <D|H|D>(4-ext)                       ...        4.712 sec ( 22.4% of sigma)
  <D|H|D>(4-ext-corr)                  ...        0.972 sec (  4.6% of sigma)
  <S|H|0>                              ...        0.002 sec (  0.0% of sigma)
  <S|H|S>                              ...        0.003 sec (  0.0% of sigma)
  <S|H|D>(1-ext)                       ...        0.004 sec (  0.0% of sigma)
  <D|H|S>(1-ext)                       ...        0.008 sec (  0.0% of sigma)
  <S|H|D>(3-ext)                       ...        0.153 sec (  0.7% of sigma)
  Fock-dressing                        ...       14.860 sec ( 70.6% of sigma)
  (ik|jl)-dressing                     ...        0.004 sec (  0.0% of sigma)
  (ij|ab),(ia|jb)-dressing             ...        0.230 sec (  1.1% of sigma)
  Pair energies                        ...        0.003 sec (  0.0% of sigma)
One-particle density matrix            ...        0.001 sec (  0.0%)


Maximum memory used throughout the entire MDCI-calculation: 400.0 MB

-------------------------   --------------------
FINAL SINGLE POINT ENERGY       -25.079060381995
-------------------------   --------------------


                            ***************************************
                            *     ORCA property calculations      *
                            ***************************************

                                    ---------------------
                                    Active property flags
                                    ---------------------
   (+) Dipole Moment


------------------------------------------------------------------------------
                       ORCA ELECTRIC PROPERTIES CALCULATION
------------------------------------------------------------------------------

Dipole Moment Calculation                       ... on
Quadrupole Moment Calculation                   ... off
Polarizability Calculation                      ... off
GBWName                                         ... /scratch/BH-0.8-CCSD-O_624/BH-0.8-CCSD-O.gbw
Electron density file                           ... /scratch/BH-0.8-CCSD-O_624/BH-0.8-CCSD-O.scfp
The origin for moment calculation is the CENTER OF MASS  = ( 0.128945,  0.000000  0.000000)

-------------
DIPOLE MOMENT
-------------
                                X             Y             Z
Electronic contribution:      0.29994       0.00000      -0.00000
Nuclear contribution   :      0.73811       0.00000       0.00000
                        -----------------------------------------
Total Dipole Moment    :      1.03805       0.00000      -0.00000
                        -----------------------------------------
Magnitude (a.u.)       :      1.03805
Magnitude (Debye)      :      2.63852



--------------------
Rotational spectrum 
--------------------
 
Rotational constants in cm-1:     0.000000    28.567661    28.567661 
Rotational constants in MHz :     0.000000 856436.936940 856436.936940 

 Dipole components along the rotational axes: 
x,y,z [a.u.] :     1.038052     0.000000    -0.000000 
x,y,z [Debye]:     2.638520     0.000000    -0.000000 

 

                           *** MDCI DENSITY ***

------------------------------------------------------------------------------
                       ORCA ELECTRIC PROPERTIES CALCULATION
------------------------------------------------------------------------------

Dipole Moment Calculation                       ... on
Quadrupole Moment Calculation                   ... off
Polarizability Calculation                      ... off
GBWName                                         ... /scratch/BH-0.8-CCSD-O_624/BH-0.8-CCSD-O.gbw
Electron density file                           ... /scratch/BH-0.8-CCSD-O_624/BH-0.8-CCSD-O.mdcip
The origin for moment calculation is the CENTER OF MASS  = ( 0.128945,  0.000000  0.000000)

-------------
DIPOLE MOMENT
-------------
                                X             Y             Z
Electronic contribution:      0.15458       0.00000      -0.00000
Nuclear contribution   :      0.73811       0.00000       0.00000
                        -----------------------------------------
Total Dipole Moment    :      0.89269       0.00000      -0.00000
                        -----------------------------------------
Magnitude (a.u.)       :      0.89269
Magnitude (Debye)      :      2.26903



--------------------
Rotational spectrum 
--------------------
 
Rotational constants in cm-1:     0.000000    28.567661    28.567661 
Rotational constants in MHz :     0.000000 856436.936940 856436.936940 

 Dipole components along the rotational axes: 
x,y,z [a.u.] :     0.892687     0.000000    -0.000000 
x,y,z [Debye]:     2.269030     0.000000    -0.000000 

 

Timings for individual modules:

Sum of individual times         ...       44.463 sec (=   0.741 min)
GTO integral calculation        ...        0.164 sec (=   0.003 min)   0.4 %
SCF iterations                  ...       10.992 sec (=   0.183 min)  24.7 %
MDCI module                     ...       33.308 sec (=   0.555 min)  74.9 %
                             ****ORCA TERMINATED NORMALLY****
TOTAL RUN TIME: 0 days 0 hours 0 minutes 44 seconds 596 msec

Sender: Unischeduler System <lcz@mgt01>
Subject: Job 134076: <#!/bin/bash
#BSUB -J intel
#BSUB -o BH-0.8-CCSD-O.out
#BSUB -n 1
#BSUB -q cqueue
export LD_LIBRARY_PATH=/apps/software/openmpi-4.1.1/lib:/apps/software/orca_5_0_0:$LD_LIBRARY_PATH
export PATH=/apps/software/openmpi-4.1.1/bin:/apps/software/orca_5_0_0:$PATH
mkdir /scratch/BH-0.8-CCSD-O_624
scp $USER@mgt01:/apps/users/lcz/exe13/CCSD/BH-0.8-CCSD-O.inp /scratch/BH-0.8-CCSD-O_624
/apps/software/orca_5_0_0/orca /scratch/BH-0.8-CCSD-O_624/BH-0.8-CCSD-O.inp >& BH-0.8-CCSD-O.out
scp /scratch/BH-0.8-CCSD-O_624/*.gbw $USER@mgt01:/apps/users/lcz/exe13/CCSD
scp /scratch/BH-0.8-CCSD-O_624/*.xyz $USER@mgt01:/apps/users/lcz/exe13/CCSD
scp /scratch/BH-0.8-CCSD-O_624/*.trj $USER@mgt01:/apps/users/lcz/exe13/CCSD> Exited

Job <#!/bin/bash
#BSUB -J intel
#BSUB -o BH-0.8-CCSD-O.out
#BSUB -n 1
#BSUB -q cqueue
export LD_LIBRARY_PATH=/apps/software/openmpi-4.1.1/lib:/apps/software/orca_5_0_0:$LD_LIBRARY_PATH
export PATH=/apps/software/openmpi-4.1.1/bin:/apps/software/orca_5_0_0:$PATH
mkdir /scratch/BH-0.8-CCSD-O_624
scp $USER@mgt01:/apps/users/lcz/exe13/CCSD/BH-0.8-CCSD-O.inp /scratch/BH-0.8-CCSD-O_624
/apps/software/orca_5_0_0/orca /scratch/BH-0.8-CCSD-O_624/BH-0.8-CCSD-O.inp >& BH-0.8-CCSD-O.out
scp /scratch/BH-0.8-CCSD-O_624/*.gbw $USER@mgt01:/apps/users/lcz/exe13/CCSD
scp /scratch/BH-0.8-CCSD-O_624/*.xyz $USER@mgt01:/apps/users/lcz/exe13/CCSD
scp /scratch/BH-0.8-CCSD-O_624/*.trj $USER@mgt01:/apps/users/lcz/exe13/CCSD> was submitted from host <mgt01> by user <lcz>.
Job was executed on host(s) <1*cnode12>, in queue <cqueue>, as user <lcz>.
</apps/users/lcz> was used as the home directory.
</apps/users/lcz/exe13/CCSD> was used as the working directory.
Started at 2022-05-22 16:22:13
Results reported at 2022-05-22 16:22:59

Your job looked like:

------------------------------------------------------------
# User input
#!/bin/bash
#BSUB -J intel
#BSUB -o BH-0.8-CCSD-O.out
#BSUB -n 1
#BSUB -q cqueue
export LD_LIBRARY_PATH=/apps/software/openmpi-4.1.1/lib:/apps/software/orca_5_0_0:$LD_LIBRARY_PATH
export PATH=/apps/software/openmpi-4.1.1/bin:/apps/software/orca_5_0_0:$PATH
mkdir /scratch/BH-0.8-CCSD-O_624
scp $USER@mgt01:/apps/users/lcz/exe13/CCSD/BH-0.8-CCSD-O.inp /scratch/BH-0.8-CCSD-O_624
/apps/software/orca_5_0_0/orca /scratch/BH-0.8-CCSD-O_624/BH-0.8-CCSD-O.inp >& BH-0.8-CCSD-O.out
scp /scratch/BH-0.8-CCSD-O_624/*.gbw $USER@mgt01:/apps/users/lcz/exe13/CCSD
scp /scratch/BH-0.8-CCSD-O_624/*.xyz $USER@mgt01:/apps/users/lcz/exe13/CCSD
scp /scratch/BH-0.8-CCSD-O_624/*.trj $USER@mgt01:/apps/users/lcz/exe13/CCSD
------------------------------------------------------------

Exited with exit code 1.

Resource usage summary:

    CPU time   :           39.14 sec.
    Max Memory :               417 MB
    Max Processes  :               5


The output (if any) follows:

/scratch/BH-0.8-CCSD-O_624/*.xyz: No such file or directory
/scratch/BH-0.8-CCSD-O_624/*.trj: No such file or directory
