 Entering Gaussian System, Link 0=/apps/software/g16/g16
 Initial command:
 /apps/software/g16/l1.exe "/scratch/Gau-254558.inp" -scrdir="/scratch/"
 Entering Link 1 = /apps/software/g16/l1.exe PID=    254559.
  
 Copyright (c) 1988,1990,1992,1993,1995,1998,2003,2009,2016,
            Gaussian, Inc.  All Rights Reserved.
  
 This is part of the Gaussian(R) 16 program.  It is based on
 the Gaussian(R) 09 system (copyright 2009, Gaussian, Inc.),
 the Gaussian(R) 03 system (copyright 2003, Gaussian, Inc.),
 the Gaussian(R) 98 system (copyright 1998, Gaussian, Inc.),
 the Gaussian(R) 94 system (copyright 1995, Gaussian, Inc.),
 the Gaussian 92(TM) system (copyright 1992, Gaussian, Inc.),
 the Gaussian 90(TM) system (copyright 1990, Gaussian, Inc.),
 the Gaussian 88(TM) system (copyright 1988, Gaussian, Inc.),
 the Gaussian 86(TM) system (copyright 1986, Carnegie Mellon
 University), and the Gaussian 82(TM) system (copyright 1983,
 Carnegie Mellon University). Gaussian is a federally registered
 trademark of Gaussian, Inc.
  
 This software contains proprietary and confidential information,
 including trade secrets, belonging to Gaussian, Inc.
  
 This software is provided under written license and may be
 used, copied, transmitted, or stored only in accord with that
 written license.
  
 The following legend is applicable only to US Government
 contracts under FAR:
  
                    RESTRICTED RIGHTS LEGEND
  
 Use, reproduction and disclosure by the US Government is
 subject to restrictions as set forth in subparagraphs (a)
 and (c) of the Commercial Computer Software - Restricted
 Rights clause in FAR 52.227-19.
  
 Gaussian, Inc.
 340 Quinnipiac St., Bldg. 40, Wallingford CT 06492
  
  
 ---------------------------------------------------------------
 Warning -- This program may not be used in any manner that
 competes with the business of Gaussian, Inc. or will provide
 assistance to any competitor of Gaussian, Inc.  The licensee
 of this program is prohibited from giving any competitor of
 Gaussian, Inc. access to this program.  By using this program,
 the user acknowledges that Gaussian, Inc. is engaged in the
 business of creating and licensing software in the field of
 computational chemistry and represents and warrants to the
 licensee that it is not a competitor of Gaussian, Inc. and that
 it will not use this program in any manner prohibited above.
 ---------------------------------------------------------------
  

 Cite this work as:
 Gaussian 16, Revision A.03,
 M. J. Frisch, G. W. Trucks, H. B. Schlegel, G. E. Scuseria, 
 M. A. Robb, J. R. Cheeseman, G. Scalmani, V. Barone, 
 G. A. Petersson, H. Nakatsuji, X. Li, M. Caricato, A. V. Marenich, 
 J. Bloino, B. G. Janesko, R. Gomperts, B. Mennucci, H. P. Hratchian, 
 J. V. Ortiz, A. F. Izmaylov, J. L. Sonnenberg, D. Williams-Young, 
 F. Ding, F. Lipparini, F. Egidi, J. Goings, B. Peng, A. Petrone, 
 T. Henderson, D. Ranasinghe, V. G. Zakrzewski, J. Gao, N. Rega, 
 G. Zheng, W. Liang, M. Hada, M. Ehara, K. Toyota, R. Fukuda, 
 J. Hasegawa, M. Ishida, T. Nakajima, Y. Honda, O. Kitao, H. Nakai, 
 T. Vreven, K. Throssell, J. A. Montgomery, Jr., J. E. Peralta, 
 F. Ogliaro, M. J. Bearpark, J. J. Heyd, E. N. Brothers, K. N. Kudin, 
 V. N. Staroverov, T. A. Keith, R. Kobayashi, J. Normand, 
 K. Raghavachari, A. P. Rendell, J. C. Burant, S. S. Iyengar, 
 J. Tomasi, M. Cossi, J. M. Millam, M. Klene, C. Adamo, R. Cammi, 
 J. W. Ochterski, R. L. Martin, K. Morokuma, O. Farkas, 
 J. B. Foresman, and D. J. Fox, Gaussian, Inc., Wallingford CT, 2016.
 
 ******************************************
 Gaussian 16:  ES64L-G16RevA.03 25-Dec-2016
                22-May-2022 
 ******************************************
 %oldchk=BH-0.9-RHF-G.chk
 %chk=BH-0.9-CCSD-G.chk
 Copying data from "BH-0.9-RHF-G.chk" to current chk file "BH-0.9-CCSD-G.chk"
 IOpt=  2 FromEx=T IUOpen= 4 IOptOp= 5 NList=   0 IFRang= 0 IUIn= 4 IUOut= 2.
 -------------------------------------
 #p RHF/aug-cc-pVQZ guess=read CCSD=FC
 -------------------------------------
 1/38=1,172=1/1;
 2/12=2,17=6,18=5,40=1/2;
 3/5=16,6=2,7=10,11=1,25=1,30=1,116=1/1,2,3;
 4/5=1/1;
 5/5=2,38=6/2;
 8/6=4,9=120000,10=1/1,4;
 9/5=7/13;
 6/7=2,8=2,9=2,10=2/1;
 99/5=1,9=1/99;
 Leave Link    1 at Sun May 22 15:50:40 2022, MaxMem=   104857600 cpu:               0.0 elap:               0.0
 (Enter /apps/software/g16/l101.exe)
 ----------------------
 BH RHF at 0.9 Angstrom
 ----------------------
 Symbolic Z-matrix:
 Charge =  0 Multiplicity = 1
 B                     0.        0.        0. 
 H                     0.9       0.        0. 
 
 ITRead=  0  0
 MicOpt= -1 -1
 NAtoms=      2 NQM=        2 NQMF=       0 NMMI=      0 NMMIF=      0
                NMic=       0 NMicF=      0.
                    Isotopes and Nuclear Properties:
 (Nuclear quadrupole moments (NQMom) in fm**2, nuclear magnetic moments (NMagM)
  in nuclear magnetons)

  Atom         1           2
 IAtWgt=          11           1
 AtmWgt=  11.0093053   1.0078250
 NucSpn=           3           1
 AtZEff=  -0.0000000  -0.0000000
 NQMom=    4.0590000   0.0000000
 NMagM=    2.6886370   2.7928460
 AtZNuc=   5.0000000   1.0000000
 Leave Link  101 at Sun May 22 15:50:40 2022, MaxMem=   104857600 cpu:               0.1 elap:               0.1
 (Enter /apps/software/g16/l202.exe)
                          Input orientation:                          
 ---------------------------------------------------------------------
 Center     Atomic      Atomic             Coordinates (Angstroms)
 Number     Number       Type             X           Y           Z
 ---------------------------------------------------------------------
      1          5           0        0.000000    0.000000    0.000000
      2          1           0        0.900000    0.000000    0.000000
 ---------------------------------------------------------------------
 Stoichiometry    BH
 Framework group  C*V[C*(HB)]
 Deg. of freedom     1
 Full point group                 C*V     NOp   4
 Largest Abelian subgroup         C2V     NOp   4
 Largest concise Abelian subgroup C1      NOp   1
                         Standard orientation:                         
 ---------------------------------------------------------------------
 Center     Atomic      Atomic             Coordinates (Angstroms)
 Number     Number       Type             X           Y           Z
 ---------------------------------------------------------------------
      1          5           0        0.000000    0.000000    0.150000
      2          1           0        0.000000    0.000000   -0.750000
 ---------------------------------------------------------------------
 Rotational constants (GHZ):           0.0000000         675.7528621         675.7528621
 Leave Link  202 at Sun May 22 15:50:40 2022, MaxMem=   104857600 cpu:               0.0 elap:               0.0
 (Enter /apps/software/g16/l301.exe)
 Standard basis: Aug-CC-pVQZ (5D, 7F)
 Ernie: Thresh=  0.10000D-02 Tol=  0.10000D-05 Strict=F.
 Ernie:  4 primitive shells out of 54 were deleted.
 There are    68 symmetry adapted cartesian basis functions of A1  symmetry.
 There are    18 symmetry adapted cartesian basis functions of A2  symmetry.
 There are    37 symmetry adapted cartesian basis functions of B1  symmetry.
 There are    37 symmetry adapted cartesian basis functions of B2  symmetry.
 There are    50 symmetry adapted basis functions of A1  symmetry.
 There are    16 symmetry adapted basis functions of A2  symmetry.
 There are    30 symmetry adapted basis functions of B1  symmetry.
 There are    30 symmetry adapted basis functions of B2  symmetry.
   126 basis functions,   180 primitive gaussians,   160 cartesian basis functions
     3 alpha electrons        3 beta electrons
       nuclear repulsion energy         2.9398733940 Hartrees.
 IExCor=    0 DFT=F Ex=HF Corr=None ExCW=0 ScaHFX=  1.000000
 ScaDFX=  1.000000  1.000000  1.000000  1.000000 ScalE2=  1.000000  1.000000
 IRadAn=      5 IRanWt=     -1 IRanGd=            0 ICorTp=0 IEmpDi=  4
 NAtoms=    2 NActive=    2 NUniq=    2 SFac= 1.00D+00 NAtFMM=   60 NAOKFM=F Big=F
 Integral buffers will be    131072 words long.
 Raffenetti 1 integral format.
 Two-electron integral symmetry is turned on.
 Leave Link  301 at Sun May 22 15:50:40 2022, MaxMem=   104857600 cpu:               0.1 elap:               0.1
 (Enter /apps/software/g16/l302.exe)
 NPDir=0 NMtPBC=     1 NCelOv=     1 NCel=       1 NClECP=     1 NCelD=      1
         NCelK=      1 NCelE2=     1 NClLst=     1 CellRange=     0.0.
 One-electron integrals computed using PRISM.
 One-electron integral symmetry used in STVInt
 NBasis=   126 RedAO= T EigKep=  4.25D-05  NBF=    50    16    30    30
 NBsUse=   126 1.00D-06 EigRej= -1.00D+00 NBFU=    50    16    30    30
 Leave Link  302 at Sun May 22 15:50:41 2022, MaxMem=   104857600 cpu:               0.1 elap:               0.1
 (Enter /apps/software/g16/l303.exe)
 DipDrv:  MaxL=1.
 Leave Link  303 at Sun May 22 15:50:41 2022, MaxMem=   104857600 cpu:               0.0 elap:               0.0
 (Enter /apps/software/g16/l401.exe)
 Initial guess from the checkpoint file:  "BH-0.9-CCSD-G.chk"
 B after Tr=     0.000000    0.000000    0.000000
         Rot=    1.000000    0.000000    0.000000    0.000000 Ang=   0.00 deg.
 Guess basis will be translated and rotated to current coordinates.
 JPrj=2 DoOrth=T DoCkMO=T.
 Initial guess orbital symmetries:
       Occupied  (SG) (SG) (SG)
       Virtual   (PI) (PI) (SG) (SG) (PI) (PI) (SG) (PI) (PI) (SG)
                 (DLTA) (DLTA) (SG) (PI) (PI) (SG) (PI) (PI) (SG)
                 (DLTA) (DLTA) (SG) (PHI) (PHI) (PI) (PI) (SG)
                 (DLTA) (DLTA) (SG) (PI) (PI) (SG) (PI) (PI) (DLTA)
                 (DLTA) (SG) (SG) (PI) (PI) (PI) (PI) (?A) (?A)
                 (PHI) (PHI) (SG) (DLTA) (DLTA) (DLTA) (DLTA) (PHI)
                 (PHI) (PI) (PI) (SG) (SG) (PI) (PI) (DLTA) (DLTA)
                 (SG) (PI) (PI) (SG) (PHI) (PHI) (DLTA) (DLTA)
                 (SG) (PI) (PI) (SG) (PI) (PI) (SG) (PI) (PI) (DLTA)
                 (DLTA) (?A) (?A) (PHI) (PHI) (SG) (DLTA) (DLTA)
                 (PI) (PI) (DLTA) (DLTA) (SG) (PHI) (PHI) (PI)
                 (PI) (SG) (PI) (PI) (DLTA) (DLTA) (SG) (SG) (PI)
                 (PI) (PHI) (PHI) (SG) (DLTA) (DLTA) (PI) (PI)
                 (SG) (DLTA) (DLTA) (PI) (PI) (SG) (PI) (PI) (SG)
                 (SG)
 The electronic state of the initial guess is 1-SG.
 Leave Link  401 at Sun May 22 15:50:41 2022, MaxMem=   104857600 cpu:               0.1 elap:               0.1
 (Enter /apps/software/g16/l502.exe)
 Keep R1 ints in memory in symmetry-blocked form, NReq=40143665.
 FoFCou: FMM=F IPFlag=           0 FMFlag=           0 FMFlg1=           0
         NFxFlg=           0 DoJE=F BraDBF=F KetDBF=F FulRan=T
         wScrn=  0.000000 ICntrl=       600 IOpCl=  0 I1Cent=           0 NGrid=           0
         NMat0=    1 NMatS0=   8001 NMatT0=    0 NMatD0=    1 NMtDS0=    0 NMtDT0=    0
 Petite list used in FoFCou.
 Closed shell SCF:
 Using DIIS extrapolation, IDIIS=  1040.
 NGot=   104857600 LenX=    96673173 LenY=    96647132
 Requested convergence on RMS density matrix=1.00D-08 within 128 cycles.
 Requested convergence on MAX density matrix=1.00D-06.
 Requested convergence on             energy=1.00D-06.
 No special actions if energy rises.

 Cycle   1  Pass 1  IDiag  1:
 E= -25.0597383631998    
 DIIS: error= 3.63D-10 at cycle   1 NSaved=   1.
 NSaved= 1 IEnMin= 1 EnMin= -25.0597383631998     IErMin= 1 ErrMin= 3.63D-10
 ErrMax= 3.63D-10  0.00D+00 EMaxC= 1.00D-01 BMatC= 6.30D-18 BMatP= 6.30D-18
 IDIUse=1 WtCom= 1.00D+00 WtEn= 0.00D+00
 Coeff-Com:  0.100D+01
 Coeff:      0.100D+01
 Gap=     0.365 Goal=   None    Shift=    0.000
 RMSDP=1.86D-10 MaxDP=6.42D-09              OVMax= 4.55D-09

 SCF Done:  E(RHF) =  -25.0597383632     A.U. after    1 cycles
            NFock=  1  Conv=0.19D-09     -V/T= 1.9791
 KE= 2.559411554716D+01 PE=-6.411972615726D+01 EE= 1.052599885291D+01
 Leave Link  502 at Sun May 22 15:50:44 2022, MaxMem=   104857600 cpu:               3.5 elap:               3.6
 (Enter /apps/software/g16/l801.exe)
 Windowed orbitals will be sorted by symmetry type.
 ExpMin= 1.88D-02 ExpMax= 2.39D+04 ExpMxC= 2.30D+02 IAcc=3 IRadAn=         5 AccDes= 0.00D+00
 HarFok:  IExCor=  205 AccDes= 0.00D+00 IRadAn=         5 IDoV=-2 UseB2=F ITyADJ=14
 ICtDFT= 12500011 ScaDFX=  1.000000  1.000000  1.000000  1.000000
 Largest valence mixing into a core orbital is  2.97D-04
 Largest core mixing into a valence orbital is  5.74D-05
 Range of M.O.s used for correlation:     2   126
 NBasis=   126 NAE=     3 NBE=     3 NFC=     1 NFV=     0
 NROrb=    125 NOA=     2 NOB=     2 NVA=   123 NVB=   123

 **** Warning!!: The largest alpha MO coefficient is  0.44370054D+02

 Leave Link  801 at Sun May 22 15:50:44 2022, MaxMem=   104857600 cpu:               0.1 elap:               0.1
 (Enter /apps/software/g16/l804.exe)
 Closed-shell transformation, MDV=   104857600 ITran=4 ISComp=2.
 Unit  1 TFree=        535169 TCopy=        350885.
 Semi-Direct transformation.
 ModeAB=           2 MOrb=             2 LenV=     104239820
 LASXX=       493564 LTotXX=      493564 LenRXX=      493564
 LTotAB=      509833 MaxLAS=     3220000 LenRXY=     3220000
 NonZer=     3361750 LenScr=     5758976 LnRSAI=           0
 LnScr1=           0 LExtra=           0 Total=      9472540
 MaxDsk=          -1 SrtSym=           F ITran=            4
 DoSDTr:  NPSUse=  1
 JobTyp=0 Pass  1:  I=   1 to   2.
 (rs|ai) integrals will be sorted in core.
 Complete sort for first half transformation.
 First half transformation complete.
 Complete sort for second half transformation.
 Second half transformation complete.
 Spin components of T(2) and E(2):
     alpha-alpha T2 =       0.9830922505D-03 E2=     -0.2475220537D-02
     alpha-beta  T2 =       0.3199170521D-01 E2=     -0.7340763554D-01
     beta-beta   T2 =       0.9830922505D-03 E2=     -0.2475220537D-02
 ANorm=    0.1016837199D+01
 E2 =    -0.7835807662D-01 EUMP2 =    -0.25138096439815D+02
 Leave Link  804 at Sun May 22 15:50:49 2022, MaxMem=   104857600 cpu:               5.0 elap:               5.0
 (Enter /apps/software/g16/l913.exe)
 CIDS:  MDV=   104857600.
 Frozen-core window:  NFC=   1 NFV=   0.
 IFCWin=0 IBDFC=1 NFBD=     0     0 NFCmp=     0     0 NFFFC=     0     0
 Using DD3R+UMP44R for 1st iteration.
 Using DD4RQ for 2nd and later iterations.
 Keep R2 and R3 ints in memory in symmetry-blocked form, NReq=40146875.
 FoFCou: FMM=F IPFlag=           0 FMFlag=           0 FMFlg1=           0
         NFxFlg=           0 DoJE=F BraDBF=F KetDBF=F FulRan=T
         wScrn=  0.000000 ICntrl=       600 IOpCl=  0 I1Cent=           0 NGrid=           0
         NMat0=    1 NMatS0=   8001 NMatT0=    0 NMatD0=    1 NMtDS0=    0 NMtDT0=    0
 Petite list used in FoFCou.
 CIDS: In Core Option IDoMem=           1.
 Coupled Cluster theory with single and double substitutions
 ===========================================================
 Iterations=  50 Convergence= 0.100D-06
 Produce multiple copies of IABC intergrals
 Iteration Nr.   1
 **********************
 DD1Dir will call FoFMem   1 times, MxPair=         6
 NAB=     3 NAA=     0 NBB=     0.
 MP4(R+Q)=  0.16623768D-02
 Maximum subspace dimension=  5
 A-vector RMS=  1.7895169D-03 Max=  1.2502847D-02 conv= 1.00D-05.
 RLE energy=       -0.0930787796
 E3=       -0.14067312D-01        EUMP3=      -0.25152163752D+02
 E4(DQ)=   -0.40142839D-02        UMP4(DQ)=   -0.25156178036D+02
 E4(SDQ)=  -0.42470999D-02        UMP4(SDQ)=  -0.25156410852D+02
 VARIATIONAL ENERGIES WITH THE FIRST-ORDER WAVEFUNCTION:
 DE(Corr)= -0.90750656E-01 E(Corr)=     -25.150489019    
 NORM(A)=   0.10289466D+01
 Iteration Nr.   2
 **********************
 DD1Dir will call FoFMem   1 times, MxPair=         6
 NAB=     3 NAA=     0 NBB=     0.
 A-vector RMS=  6.8958599D-04 Max=  7.9276865D-03 conv= 1.00D-05.
 RLE energy=       -0.0992410584
 DE(Corr)= -0.96326419E-01 E(CORR)=     -25.156064782     Delta=-5.58D-03
 NORM(A)=   0.10386209D+01
 Iteration Nr.   3
 **********************
 DD1Dir will call FoFMem   1 times, MxPair=         6
 NAB=     3 NAA=     0 NBB=     0.
 A-vector RMS=  3.2585743D-04 Max=  3.1522029D-03 conv= 1.00D-05.
 RLE energy=       -0.1001731503
 DE(Corr)= -0.99224764E-01 E(CORR)=     -25.158963127     Delta=-2.90D-03
 NORM(A)=   0.10431650D+01
 Iteration Nr.   4
 **********************
 DD1Dir will call FoFMem   1 times, MxPair=         6
 NAB=     3 NAA=     0 NBB=     0.
 A-vector RMS=  9.3281788D-05 Max=  1.0590815D-03 conv= 1.00D-05.
 RLE energy=       -0.1003829820
 DE(Corr)= -0.10022020     E(CORR)=     -25.159958562     Delta=-9.95D-04
 NORM(A)=   0.10443147D+01
 Iteration Nr.   5
 **********************
 DD1Dir will call FoFMem   1 times, MxPair=         6
 NAB=     3 NAA=     0 NBB=     0.
 A-vector RMS=  2.6569946D-05 Max=  2.3540407D-04 conv= 1.00D-05.
 RLE energy=       -0.1003792695
 DE(Corr)= -0.10036527     E(CORR)=     -25.160103630     Delta=-1.45D-04
 NORM(A)=   0.10445034D+01
 Iteration Nr.   6
 **********************
 DD1Dir will call FoFMem   1 times, MxPair=         6
 NAB=     3 NAA=     0 NBB=     0.
 A-vector RMS=  1.3348426D-05 Max=  1.0049816D-04 conv= 1.00D-05.
 RLE energy=       -0.1003774264
 DE(Corr)= -0.10037828     E(CORR)=     -25.160116645     Delta=-1.30D-05
 NORM(A)=   0.10445317D+01
 Iteration Nr.   7
 **********************
 DD1Dir will call FoFMem   1 times, MxPair=         6
 NAB=     3 NAA=     0 NBB=     0.
 A-vector RMS=  6.3707972D-06 Max=  4.5230073D-05 conv= 1.00D-05.
 RLE energy=       -0.1003827962
 DE(Corr)= -0.10037921     E(CORR)=     -25.160117572     Delta=-9.27D-07
 NORM(A)=   0.10445424D+01
 Iteration Nr.   8
 **********************
 DD1Dir will call FoFMem   1 times, MxPair=         6
 NAB=     3 NAA=     0 NBB=     0.
 A-vector RMS=  2.4497563D-06 Max=  2.0686534D-05 conv= 1.00D-05.
 RLE energy=       -0.1003805432
 DE(Corr)= -0.10038106     E(CORR)=     -25.160119428     Delta=-1.86D-06
 NORM(A)=   0.10445396D+01
 Iteration Nr.   9
 **********************
 DD1Dir will call FoFMem   1 times, MxPair=         6
 NAB=     3 NAA=     0 NBB=     0.
 A-vector RMS=  9.1555095D-07 Max=  6.1374156D-06 conv= 1.00D-05.
 RLE energy=       -0.1003807124
 DE(Corr)= -0.10038064     E(CORR)=     -25.160119007     Delta= 4.21D-07
 NORM(A)=   0.10445400D+01
 Iteration Nr.  10
 **********************
 DD1Dir will call FoFMem   1 times, MxPair=         6
 NAB=     3 NAA=     0 NBB=     0.
 A-vector RMS=  3.5300958D-07 Max=  1.6499555D-06 conv= 1.00D-05.
 RLE energy=       -0.1003806736
 DE(Corr)= -0.10038066     E(CORR)=     -25.160119025     Delta=-1.81D-08
 NORM(A)=   0.10445401D+01
 CI/CC converged in   10 iterations to DelEn=-1.81D-08 Conv= 1.00D-07 ErrA1= 3.53D-07 Conv= 1.00D-05
 Wavefunction amplitudes converged. E(Corr)=     -25.160119025    
 Largest amplitude= 6.51D-02
 Discarding MO integrals.
 Leave Link  913 at Sun May 22 15:50:53 2022, MaxMem=   104857600 cpu:               3.9 elap:               4.0
 (Enter /apps/software/g16/l601.exe)
 Copying SCF densities to generalized density rwf, IOpCl= 0 IROHF=0.

 **********************************************************************

            Population analysis using the SCF density.

 **********************************************************************

 Orbital symmetries:
       Occupied  (SG) (SG) (SG)
       Virtual   (PI) (PI) (SG) (SG) (PI) (PI) (SG) (PI) (PI) (SG)
                 (DLTA) (DLTA) (SG) (PI) (PI) (SG) (PI) (PI) (SG)
                 (DLTA) (DLTA) (SG) (PHI) (PHI) (PI) (PI) (SG)
                 (DLTA) (DLTA) (SG) (PI) (PI) (SG) (PI) (PI) (DLTA)
                 (DLTA) (SG) (SG) (PI) (PI) (PI) (PI) (?A) (?A)
                 (PHI) (PHI) (SG) (DLTA) (DLTA) (DLTA) (DLTA) (PHI)
                 (PHI) (PI) (PI) (SG) (SG) (PI) (PI) (DLTA) (DLTA)
                 (SG) (PI) (PI) (SG) (PHI) (PHI) (DLTA) (DLTA)
                 (SG) (PI) (PI) (SG) (PI) (PI) (SG) (PI) (PI) (DLTA)
                 (DLTA) (?A) (?A) (PHI) (PHI) (SG) (DLTA) (DLTA)
                 (PI) (PI) (DLTA) (DLTA) (SG) (PHI) (PHI) (PI)
                 (PI) (SG) (PI) (PI) (DLTA) (DLTA) (SG) (SG) (PI)
                 (PI) (PHI) (PHI) (SG) (DLTA) (DLTA) (PI) (PI)
                 (SG) (DLTA) (DLTA) (PI) (PI) (SG) (PI) (PI) (SG)
                 (SG)
 The electronic state is 1-SG.
 Alpha  occ. eigenvalues --   -7.64826  -0.74828  -0.34027
 Alpha virt. eigenvalues --    0.02479   0.02479   0.02772   0.04449   0.07945
 Alpha virt. eigenvalues --    0.07945   0.11984   0.13197   0.13197   0.14402
 Alpha virt. eigenvalues --    0.14531   0.14531   0.17693   0.27095   0.27095
 Alpha virt. eigenvalues --    0.28471   0.33066   0.33066   0.41420   0.43310
 Alpha virt. eigenvalues --    0.43310   0.43958   0.46182   0.46182   0.47732
 Alpha virt. eigenvalues --    0.47732   0.50343   0.50412   0.50412   0.58487
 Alpha virt. eigenvalues --    0.60600   0.60600   0.77564   0.77703   0.77703
 Alpha virt. eigenvalues --    0.81644   0.81644   1.00907   1.03853   1.04232
 Alpha virt. eigenvalues --    1.04232   1.20833   1.20833   1.37062   1.37062
 Alpha virt. eigenvalues --    1.37508   1.37508   1.37646   1.40300   1.40300
 Alpha virt. eigenvalues --    1.43814   1.43814   1.44297   1.44297   1.46950
 Alpha virt. eigenvalues --    1.46950   1.47972   1.63322   1.64583   1.64583
 Alpha virt. eigenvalues --    1.72781   1.72781   1.88328   1.90571   1.90571
 Alpha virt. eigenvalues --    1.98684   2.01595   2.01595   2.02421   2.02421
 Alpha virt. eigenvalues --    2.14140   2.22467   2.22467   2.99665   3.16365
 Alpha virt. eigenvalues --    3.16365   3.32105   3.33169   3.33169   3.42253
 Alpha virt. eigenvalues --    3.42253   3.92418   3.92418   3.94312   3.94312
 Alpha virt. eigenvalues --    3.94790   3.97267   3.97267   4.05889   4.05889
 Alpha virt. eigenvalues --    4.07905   4.07905   4.08631   4.10132   4.10132
 Alpha virt. eigenvalues --    4.37331   4.37331   4.58971   4.68214   4.68214
 Alpha virt. eigenvalues --    4.81108   4.81108   5.70244   5.86315   6.02626
 Alpha virt. eigenvalues --    6.02626   6.97219   6.97219   7.95913   7.96482
 Alpha virt. eigenvalues --    7.96482   7.98085   7.98085   8.80047   9.11622
 Alpha virt. eigenvalues --    9.11622   9.24966   9.24966  10.30476  10.44929
 Alpha virt. eigenvalues --   10.44929  12.19583  18.21062
          Condensed to atoms (all electrons):
               1          2
     1  B    4.944835   0.084382
     2  H    0.084382   0.886400
 Mulliken charges:
               1
     1  B   -0.029217
     2  H    0.029217
 Sum of Mulliken charges =  -0.00000
 Mulliken charges with hydrogens summed into heavy atoms:
               1
     1  B   -0.000000
 Electronic spatial extent (au):  <R**2>=             19.6665
 Charge=             -0.0000 electrons
 Dipole moment (field-independent basis, Debye):
    X=              0.0000    Y=              0.0000    Z=             -2.5150  Tot=              2.5150
 Quadrupole moment (field-independent basis, Debye-Ang):
   XX=             -6.5407   YY=             -6.5407   ZZ=            -10.1286
   XY=              0.0000   XZ=              0.0000   YZ=              0.0000
 Traceless Quadrupole moment (field-independent basis, Debye-Ang):
   XX=              1.1960   YY=              1.1960   ZZ=             -2.3919
   XY=              0.0000   XZ=              0.0000   YZ=              0.0000
 Octapole moment (field-independent basis, Debye-Ang**2):
  XXX=              0.0000  YYY=              0.0000  ZZZ=             -7.2387  XYY=              0.0000
  XXY=              0.0000  XXZ=             -2.3496  XZZ=              0.0000  YZZ=              0.0000
  YYZ=             -2.3496  XYZ=              0.0000
 Hexadecapole moment (field-independent basis, Debye-Ang**3):
 XXXX=            -10.3540 YYYY=            -10.3540 ZZZZ=            -23.7359 XXXY=              0.0000
 XXXZ=              0.0000 YYYX=              0.0000 YYYZ=              0.0000 ZZZX=              0.0000
 ZZZY=              0.0000 XXYY=             -3.4513 XXZZ=             -5.7362 YYZZ=             -5.7362
 XXYZ=              0.0000 YYXZ=              0.0000 ZZXY=              0.0000
 N-N= 2.939873394000D+00 E-N=-6.411972615893D+01  KE= 2.559411554716D+01
 Symmetry A1   KE= 2.559411554716D+01
 Symmetry A2   KE= 4.771951591053D-51
 Symmetry B1   KE= 0.000000000000D+00
 Symmetry B2   KE= 0.000000000000D+00
 Leave Link  601 at Sun May 22 15:50:53 2022, MaxMem=   104857600 cpu:               0.1 elap:               0.1
 (Enter /apps/software/g16/l9999.exe)
 1\1\GINC-CNODE08\SP\RCCSD-FC\Aug-CC-pVQZ\B1H1\LCZ\22-May-2022\0\\#p RH
 F/aug-cc-pVQZ guess=read CCSD=FC\\BH RHF at 0.9 Angstrom\\0,1\B,0,0.,0
 .,0.\H,0,0.9,0.,0.\\Version=ES64L-G16RevA.03\State=1-SG\HF=-25.0597384
 \MP2=-25.1380964\MP3=-25.1521638\MP4D=-25.1578404\MP4DQ=-25.156178\MP4
 SDQ=-25.1564109\CCSD=-25.160119\RMSD=1.862e-10\PG=C*V [C*(H1B1)]\\@


 THERE IS AN OLD, OLD RECIPE IN MAINE FOR STEWING COOT. PLACE THE
 BIRD IN A KETTLE OF WATER WITH A RED BUILDING BRICK FREE OF MORTAR AND
 BLEMISHES. PARBOIL THE COOT AND BRICK TOGETHER FOR THREE HOURS.
 POUR OFF THE WATER, REFILL THE KETTLE, AND AGAIN PARBOIL FOR THREE HOURS.
 ONCE AGAIN POUR OFF THE WATER, FOR THE LAST TIME ADD FRESH WATER,
 AND LET THE COOT AND BRICK SIMMER TOGETHER OVERNIGHT. IN THE MORNING,
 THROW AWAY THE COOT AND EAT THE BRICK.
 Job cpu time:       0 days  0 hours  0 minutes 13.2 seconds.
 Elapsed time:       0 days  0 hours  0 minutes 13.2 seconds.
 File lengths (MBytes):  RWF=     81 Int=      0 D2E=      0 Chk=     67 Scr=      1
 Normal termination of Gaussian 16 at Sun May 22 15:50:54 2022.

Sender: Unischeduler System <lcz@mgt01>
Subject: Job 134041: <#!/bin/bash
#BSUB -J intel
#BSUB -o BH-0.9-CCSD-G.out
#BSUB -n 8
#BSUB -q cqueue
#BSUB -R span[hosts=1]
export g16root=/apps/software
source /apps/software/g16/bsd/g16.profile
export GAUSS_SCRDIR=/scratch
/apps/software/g16/g16 < BH-0.9-CCSD-G.inp > BH-0.9-CCSD-G.out> Done

Job <#!/bin/bash
#BSUB -J intel
#BSUB -o BH-0.9-CCSD-G.out
#BSUB -n 8
#BSUB -q cqueue
#BSUB -R span[hosts=1]
export g16root=/apps/software
source /apps/software/g16/bsd/g16.profile
export GAUSS_SCRDIR=/scratch
/apps/software/g16/g16 < BH-0.9-CCSD-G.inp > BH-0.9-CCSD-G.out> was submitted from host <mgt01> by user <lcz>.
Job was executed on host(s) <8*cnode08>, in queue <cqueue>, as user <lcz>.
</apps/users/lcz> was used as the home directory.
</apps/users/lcz/exe13/CCSD> was used as the working directory.
Started at 2022-05-22 15:50:40
Results reported at 2022-05-22 15:50:54

Your job looked like:

------------------------------------------------------------
# User input
#!/bin/bash
#BSUB -J intel
#BSUB -o BH-0.9-CCSD-G.out
#BSUB -n 8
#BSUB -q cqueue
#BSUB -R span[hosts=1]
export g16root=/apps/software
source /apps/software/g16/bsd/g16.profile
export GAUSS_SCRDIR=/scratch
/apps/software/g16/g16 < BH-0.9-CCSD-G.inp > BH-0.9-CCSD-G.out
------------------------------------------------------------

Successfully completed.

Resource usage summary:

    CPU time   :            3.82 sec.
    Max Memory :               479 MB
    Max Processes  :               5


The output (if any) follows:

