 Entering Gaussian System, Link 0=/apps/software/g16/g16
 Initial command:
 /apps/software/g16/l1.exe "/scratch/Gau-82608.inp" -scrdir="/scratch/"
 Entering Link 1 = /apps/software/g16/l1.exe PID=     82609.
  
 Copyright (c) 1988,1990,1992,1993,1995,1998,2003,2009,2016,
            Gaussian, Inc.  All Rights Reserved.
  
 This is part of the Gaussian(R) 16 program.  It is based on
 the Gaussian(R) 09 system (copyright 2009, Gaussian, Inc.),
 the Gaussian(R) 03 system (copyright 2003, Gaussian, Inc.),
 the Gaussian(R) 98 system (copyright 1998, Gaussian, Inc.),
 the Gaussian(R) 94 system (copyright 1995, Gaussian, Inc.),
 the Gaussian 92(TM) system (copyright 1992, Gaussian, Inc.),
 the Gaussian 90(TM) system (copyright 1990, Gaussian, Inc.),
 the Gaussian 88(TM) system (copyright 1988, Gaussian, Inc.),
 the Gaussian 86(TM) system (copyright 1986, Carnegie Mellon
 University), and the Gaussian 82(TM) system (copyright 1983,
 Carnegie Mellon University). Gaussian is a federally registered
 trademark of Gaussian, Inc.
  
 This software contains proprietary and confidential information,
 including trade secrets, belonging to Gaussian, Inc.
  
 This software is provided under written license and may be
 used, copied, transmitted, or stored only in accord with that
 written license.
  
 The following legend is applicable only to US Government
 contracts under FAR:
  
                    RESTRICTED RIGHTS LEGEND
  
 Use, reproduction and disclosure by the US Government is
 subject to restrictions as set forth in subparagraphs (a)
 and (c) of the Commercial Computer Software - Restricted
 Rights clause in FAR 52.227-19.
  
 Gaussian, Inc.
 340 Quinnipiac St., Bldg. 40, Wallingford CT 06492
  
  
 ---------------------------------------------------------------
 Warning -- This program may not be used in any manner that
 competes with the business of Gaussian, Inc. or will provide
 assistance to any competitor of Gaussian, Inc.  The licensee
 of this program is prohibited from giving any competitor of
 Gaussian, Inc. access to this program.  By using this program,
 the user acknowledges that Gaussian, Inc. is engaged in the
 business of creating and licensing software in the field of
 computational chemistry and represents and warrants to the
 licensee that it is not a competitor of Gaussian, Inc. and that
 it will not use this program in any manner prohibited above.
 ---------------------------------------------------------------
  

 Cite this work as:
 Gaussian 16, Revision A.03,
 M. J. Frisch, G. W. Trucks, H. B. Schlegel, G. E. Scuseria, 
 M. A. Robb, J. R. Cheeseman, G. Scalmani, V. Barone, 
 G. A. Petersson, H. Nakatsuji, X. Li, M. Caricato, A. V. Marenich, 
 J. Bloino, B. G. Janesko, R. Gomperts, B. Mennucci, H. P. Hratchian, 
 J. V. Ortiz, A. F. Izmaylov, J. L. Sonnenberg, D. Williams-Young, 
 F. Ding, F. Lipparini, F. Egidi, J. Goings, B. Peng, A. Petrone, 
 T. Henderson, D. Ranasinghe, V. G. Zakrzewski, J. Gao, N. Rega, 
 G. Zheng, W. Liang, M. Hada, M. Ehara, K. Toyota, R. Fukuda, 
 J. Hasegawa, M. Ishida, T. Nakajima, Y. Honda, O. Kitao, H. Nakai, 
 T. Vreven, K. Throssell, J. A. Montgomery, Jr., J. E. Peralta, 
 F. Ogliaro, M. J. Bearpark, J. J. Heyd, E. N. Brothers, K. N. Kudin, 
 V. N. Staroverov, T. A. Keith, R. Kobayashi, J. Normand, 
 K. Raghavachari, A. P. Rendell, J. C. Burant, S. S. Iyengar, 
 J. Tomasi, M. Cossi, J. M. Millam, M. Klene, C. Adamo, R. Cammi, 
 J. W. Ochterski, R. L. Martin, K. Morokuma, O. Farkas, 
 J. B. Foresman, and D. J. Fox, Gaussian, Inc., Wallingford CT, 2016.
 
 ******************************************
 Gaussian 16:  ES64L-G16RevA.03 25-Dec-2016
                22-May-2022 
 ******************************************
 %chk=BH-0.8-RHF-G.chk
 ------------------
 #p RHF/aug-cc-pVQZ
 ------------------
 1/38=1,172=1/1;
 2/12=2,17=6,18=5,40=1/2;
 3/5=16,6=2,7=10,11=1,25=1,30=1,116=1/1,2,3;
 4//1;
 5/5=2,38=5/2;
 6/7=2,8=2,9=2,10=2,28=1/1;
 99/5=1,9=1/99;
 Leave Link    1 at Sun May 22 15:45:29 2022, MaxMem=           0 cpu:               0.0 elap:               0.0
 (Enter /apps/software/g16/l101.exe)
 ----------------------
 BH RHF at 0.8 Angstrom
 ----------------------
 Symbolic Z-matrix:
 Charge =  0 Multiplicity = 1
 B                     0.        0.        0. 
 H                     0.8       0.        0. 
 
 ITRead=  0  0
 MicOpt= -1 -1
 NAtoms=      2 NQM=        2 NQMF=       0 NMMI=      0 NMMIF=      0
                NMic=       0 NMicF=      0.
                    Isotopes and Nuclear Properties:
 (Nuclear quadrupole moments (NQMom) in fm**2, nuclear magnetic moments (NMagM)
  in nuclear magnetons)

  Atom         1           2
 IAtWgt=          11           1
 AtmWgt=  11.0093053   1.0078250
 NucSpn=           3           1
 AtZEff=  -0.0000000  -0.0000000
 NQMom=    4.0590000   0.0000000
 NMagM=    2.6886370   2.7928460
 AtZNuc=   5.0000000   1.0000000
 Leave Link  101 at Sun May 22 15:45:29 2022, MaxMem=   104857600 cpu:               0.1 elap:               0.1
 (Enter /apps/software/g16/l202.exe)
                          Input orientation:                          
 ---------------------------------------------------------------------
 Center     Atomic      Atomic             Coordinates (Angstroms)
 Number     Number       Type             X           Y           Z
 ---------------------------------------------------------------------
      1          5           0        0.000000    0.000000    0.000000
      2          1           0        0.800000    0.000000    0.000000
 ---------------------------------------------------------------------
 Stoichiometry    BH
 Framework group  C*V[C*(HB)]
 Deg. of freedom     1
 Full point group                 C*V     NOp   4
 Largest Abelian subgroup         C2V     NOp   4
 Largest concise Abelian subgroup C1      NOp   1
                         Standard orientation:                         
 ---------------------------------------------------------------------
 Center     Atomic      Atomic             Coordinates (Angstroms)
 Number     Number       Type             X           Y           Z
 ---------------------------------------------------------------------
      1          5           0        0.000000    0.000000    0.133333
      2          1           0        0.000000    0.000000   -0.666667
 ---------------------------------------------------------------------
 Rotational constants (GHZ):           0.0000000         855.2497161         855.2497161
 Leave Link  202 at Sun May 22 15:45:29 2022, MaxMem=   104857600 cpu:               0.0 elap:               0.0
 (Enter /apps/software/g16/l301.exe)
 Standard basis: Aug-CC-pVQZ (5D, 7F)
 Ernie: Thresh=  0.10000D-02 Tol=  0.10000D-05 Strict=F.
 Ernie:  4 primitive shells out of 54 were deleted.
 There are    68 symmetry adapted cartesian basis functions of A1  symmetry.
 There are    18 symmetry adapted cartesian basis functions of A2  symmetry.
 There are    37 symmetry adapted cartesian basis functions of B1  symmetry.
 There are    37 symmetry adapted cartesian basis functions of B2  symmetry.
 There are    50 symmetry adapted basis functions of A1  symmetry.
 There are    16 symmetry adapted basis functions of A2  symmetry.
 There are    30 symmetry adapted basis functions of B1  symmetry.
 There are    30 symmetry adapted basis functions of B2  symmetry.
   126 basis functions,   180 primitive gaussians,   160 cartesian basis functions
     3 alpha electrons        3 beta electrons
       nuclear repulsion energy         3.3073575683 Hartrees.
 IExCor=    0 DFT=F Ex=HF Corr=None ExCW=0 ScaHFX=  1.000000
 ScaDFX=  1.000000  1.000000  1.000000  1.000000 ScalE2=  1.000000  1.000000
 IRadAn=      5 IRanWt=     -1 IRanGd=            0 ICorTp=0 IEmpDi=  4
 NAtoms=    2 NActive=    2 NUniq=    2 SFac= 1.00D+00 NAtFMM=   60 NAOKFM=F Big=F
 Integral buffers will be    131072 words long.
 Raffenetti 1 integral format.
 Two-electron integral symmetry is turned on.
 Leave Link  301 at Sun May 22 15:45:29 2022, MaxMem=   104857600 cpu:               0.1 elap:               0.1
 (Enter /apps/software/g16/l302.exe)
 NPDir=0 NMtPBC=     1 NCelOv=     1 NCel=       1 NClECP=     1 NCelD=      1
         NCelK=      1 NCelE2=     1 NClLst=     1 CellRange=     0.0.
 One-electron integrals computed using PRISM.
 One-electron integral symmetry used in STVInt
 NBasis=   126 RedAO= T EigKep=  3.13D-05  NBF=    50    16    30    30
 NBsUse=   126 1.00D-06 EigRej= -1.00D+00 NBFU=    50    16    30    30
 Leave Link  302 at Sun May 22 15:45:29 2022, MaxMem=   104857600 cpu:               0.1 elap:               0.1
 (Enter /apps/software/g16/l303.exe)
 DipDrv:  MaxL=1.
 Leave Link  303 at Sun May 22 15:45:29 2022, MaxMem=   104857600 cpu:               0.0 elap:               0.0
 (Enter /apps/software/g16/l401.exe)
 ExpMin= 1.88D-02 ExpMax= 2.39D+04 ExpMxC= 2.30D+02 IAcc=3 IRadAn=         5 AccDes= 0.00D+00
 Harris functional with IExCor=  205 and IRadAn=       5 diagonalized for initial guess.
 HarFok:  IExCor=  205 AccDes= 0.00D+00 IRadAn=         5 IDoV= 1 UseB2=F ITyADJ=14
 ICtDFT=  3500011 ScaDFX=  1.000000  1.000000  1.000000  1.000000
 FoFCou: FMM=F IPFlag=           0 FMFlag=      100000 FMFlg1=           0
         NFxFlg=           0 DoJE=T BraDBF=F KetDBF=T FulRan=T
         wScrn=  0.000000 ICntrl=       500 IOpCl=  0 I1Cent=   200000004 NGrid=           0
         NMat0=    1 NMatS0=      1 NMatT0=    0 NMatD0=    1 NMtDS0=    0 NMtDT0=    0
 Petite list used in FoFCou.
 Harris En= -24.9824301044623    
 JPrj=0 DoOrth=F DoCkMO=F.
 Initial guess orbital symmetries:
       Occupied  (SG) (SG) (SG)
       Virtual   (PI) (PI) (SG) (SG) (PI) (PI) (SG) (PI) (PI) (SG)
                 (DLTA) (DLTA) (SG) (PI) (PI) (SG) (PI) (PI) (SG)
                 (DLTA) (DLTA) (SG) (PI) (PI) (SG) (DLTA) (DLTA)
                 (PHI) (PHI) (PI) (PI) (SG) (PI) (PI) (SG) (DLTA)
                 (DLTA) (SG) (PI) (PI) (SG) (PI) (PI) (SG) (DLTA)
                 (DLTA) (PHI) (PHI) (DLTA) (DLTA) (?A) (?A) (SG)
                 (PI) (PI) (PHI) (PHI) (PI) (PI) (SG) (DLTA) (DLTA)
                 (SG) (PI) (PI) (SG) (DLTA) (DLTA) (PHI) (PHI)
                 (SG) (PI) (PI) (SG) (PI) (PI) (PI) (PI) (SG) (DLTA)
                 (DLTA) (SG) (DLTA) (DLTA) (PI) (PI) (PHI) (PHI)
                 (?A) (?A) (SG) (DLTA) (DLTA) (PHI) (PHI) (PI)
                 (PI) (SG) (PI) (PI) (DLTA) (DLTA) (SG) (PI) (PI)
                 (SG) (PHI) (PHI) (SG) (PI) (PI) (DLTA) (DLTA)
                 (SG) (DLTA) (DLTA) (PI) (PI) (SG) (PI) (PI) (SG)
                 (SG)
 The electronic state of the initial guess is 1-SG.
 Leave Link  401 at Sun May 22 15:45:29 2022, MaxMem=   104857600 cpu:               0.2 elap:               0.2
 (Enter /apps/software/g16/l502.exe)
 Keep R1 ints in memory in symmetry-blocked form, NReq=40143665.
 FoFCou: FMM=F IPFlag=           0 FMFlag=           0 FMFlg1=           0
         NFxFlg=           0 DoJE=F BraDBF=F KetDBF=F FulRan=T
         wScrn=  0.000000 ICntrl=       600 IOpCl=  0 I1Cent=           0 NGrid=           0
         NMat0=    1 NMatS0=   8001 NMatT0=    0 NMatD0=    1 NMtDS0=    0 NMtDT0=    0
 Petite list used in FoFCou.
 Closed shell SCF:
 Using DIIS extrapolation, IDIIS=  1040.
 NGot=   104857600 LenX=    96673173 LenY=    96647132
 Requested convergence on RMS density matrix=1.00D-08 within 128 cycles.
 Requested convergence on MAX density matrix=1.00D-06.
 Requested convergence on             energy=1.00D-06.
 No special actions if energy rises.

 Cycle   1  Pass 1  IDiag  1:
 E= -24.9584121215401    
 DIIS: error= 2.61D-02 at cycle   1 NSaved=   1.
 NSaved= 1 IEnMin= 1 EnMin= -24.9584121215401     IErMin= 1 ErrMin= 2.61D-02
 ErrMax= 2.61D-02  0.00D+00 EMaxC= 1.00D-01 BMatC= 4.25D-02 BMatP= 4.25D-02
 IDIUse=3 WtCom= 7.39D-01 WtEn= 2.61D-01
 Coeff-Com:  0.100D+01
 Coeff-En:   0.100D+01
 Coeff:      0.100D+01
 Gap=     0.367 Goal=   None    Shift=    0.000
 GapD=    0.367 DampG=1.000 DampE=0.500 DampFc=0.5000 IDamp=-1.
 Damping current iteration by 5.00D-01
 RMSDP=2.07D-03 MaxDP=7.56D-02              OVMax= 6.06D-02

 Cycle   2  Pass 1  IDiag  1:
 E= -24.9679718372585     Delta-E=       -0.009559715718 Rises=F Damp=T
 DIIS: error= 1.35D-02 at cycle   2 NSaved=   2.
 NSaved= 2 IEnMin= 2 EnMin= -24.9679718372585     IErMin= 2 ErrMin= 1.35D-02
 ErrMax= 1.35D-02  0.00D+00 EMaxC= 1.00D-01 BMatC= 1.23D-02 BMatP= 4.25D-02
 IDIUse=3 WtCom= 8.65D-01 WtEn= 1.35D-01
 Coeff-Com: -0.115D+01 0.215D+01
 Coeff-En:   0.000D+00 0.100D+01
 Coeff:     -0.994D+00 0.199D+01
 Gap=     0.365 Goal=   None    Shift=    0.000
 RMSDP=1.21D-03 MaxDP=4.44D-02 DE=-9.56D-03 OVMax= 6.51D-03

 Cycle   3  Pass 1  IDiag  1:
 E= -24.9783189499767     Delta-E=       -0.010347112718 Rises=F Damp=F
 DIIS: error= 4.02D-04 at cycle   3 NSaved=   3.
 NSaved= 3 IEnMin= 3 EnMin= -24.9783189499767     IErMin= 3 ErrMin= 4.02D-04
 ErrMax= 4.02D-04  0.00D+00 EMaxC= 1.00D-01 BMatC= 7.34D-06 BMatP= 1.23D-02
 IDIUse=3 WtCom= 9.96D-01 WtEn= 4.02D-03
 Coeff-Com:  0.189D+00-0.365D+00 0.118D+01
 Coeff-En:   0.000D+00 0.000D+00 0.100D+01
 Coeff:      0.188D+00-0.364D+00 0.118D+01
 Gap=     0.364 Goal=   None    Shift=    0.000
 RMSDP=4.92D-05 MaxDP=2.08D-03 DE=-1.03D-02 OVMax= 2.73D-03

 Cycle   4  Pass 1  IDiag  1:
 E= -24.9783335561373     Delta-E=       -0.000014606161 Rises=F Damp=F
 DIIS: error= 1.23D-04 at cycle   4 NSaved=   4.
 NSaved= 4 IEnMin= 4 EnMin= -24.9783335561373     IErMin= 4 ErrMin= 1.23D-04
 ErrMax= 1.23D-04  0.00D+00 EMaxC= 1.00D-01 BMatC= 2.84D-07 BMatP= 7.34D-06
 IDIUse=3 WtCom= 9.99D-01 WtEn= 1.23D-03
 Coeff-Com: -0.234D-01 0.468D-01-0.329D+00 0.131D+01
 Coeff-En:   0.000D+00 0.000D+00 0.000D+00 0.100D+01
 Coeff:     -0.234D-01 0.467D-01-0.328D+00 0.130D+01
 Gap=     0.364 Goal=   None    Shift=    0.000
 RMSDP=2.34D-05 MaxDP=1.49D-03 DE=-1.46D-05 OVMax= 1.03D-03

 Cycle   5  Pass 1  IDiag  1:
 E= -24.9783347278458     Delta-E=       -0.000001171709 Rises=F Damp=F
 DIIS: error= 2.61D-05 at cycle   5 NSaved=   5.
 NSaved= 5 IEnMin= 5 EnMin= -24.9783347278458     IErMin= 5 ErrMin= 2.61D-05
 ErrMax= 2.61D-05  0.00D+00 EMaxC= 1.00D-01 BMatC= 7.64D-09 BMatP= 2.84D-07
 IDIUse=1 WtCom= 1.00D+00 WtEn= 0.00D+00
 Coeff-Com:  0.114D-02-0.244D-02 0.436D-01-0.315D+00 0.127D+01
 Coeff:      0.114D-02-0.244D-02 0.436D-01-0.315D+00 0.127D+01
 Gap=     0.364 Goal=   None    Shift=    0.000
 RMSDP=7.42D-06 MaxDP=4.65D-04 DE=-1.17D-06 OVMax= 2.43D-04

 Cycle   6  Pass 1  IDiag  1:
 E= -24.9783347735484     Delta-E=       -0.000000045703 Rises=F Damp=F
 DIIS: error= 4.24D-06 at cycle   6 NSaved=   6.
 NSaved= 6 IEnMin= 6 EnMin= -24.9783347735484     IErMin= 6 ErrMin= 4.24D-06
 ErrMax= 4.24D-06  0.00D+00 EMaxC= 1.00D-01 BMatC= 2.56D-10 BMatP= 7.64D-09
 IDIUse=1 WtCom= 1.00D+00 WtEn= 0.00D+00
 Coeff-Com: -0.504D-04 0.137D-03-0.820D-02 0.766D-01-0.448D+00 0.138D+01
 Coeff:     -0.504D-04 0.137D-03-0.820D-02 0.766D-01-0.448D+00 0.138D+01
 Gap=     0.364 Goal=   None    Shift=    0.000
 RMSDP=1.56D-06 MaxDP=8.68D-05 DE=-4.57D-08 OVMax= 4.92D-05

 Cycle   7  Pass 1  IDiag  1:
 E= -24.9783347750636     Delta-E=       -0.000000001515 Rises=F Damp=F
 DIIS: error= 3.52D-07 at cycle   7 NSaved=   7.
 NSaved= 7 IEnMin= 7 EnMin= -24.9783347750636     IErMin= 7 ErrMin= 3.52D-07
 ErrMax= 3.52D-07  0.00D+00 EMaxC= 1.00D-01 BMatC= 5.10D-12 BMatP= 2.56D-10
 IDIUse=1 WtCom= 1.00D+00 WtEn= 0.00D+00
 Coeff-Com: -0.564D-04 0.101D-03 0.138D-02-0.175D-01 0.123D+00-0.475D+00
 Coeff-Com:  0.137D+01
 Coeff:     -0.564D-04 0.101D-03 0.138D-02-0.175D-01 0.123D+00-0.475D+00
 Coeff:      0.137D+01
 Gap=     0.364 Goal=   None    Shift=    0.000
 RMSDP=6.69D-08 MaxDP=2.58D-06 DE=-1.52D-09 OVMax= 5.01D-06

 Cycle   8  Pass 1  IDiag  1:
 E= -24.9783347750833     Delta-E=       -0.000000000020 Rises=F Damp=F
 DIIS: error= 4.18D-08 at cycle   8 NSaved=   8.
 NSaved= 8 IEnMin= 8 EnMin= -24.9783347750833     IErMin= 8 ErrMin= 4.18D-08
 ErrMax= 4.18D-08  0.00D+00 EMaxC= 1.00D-01 BMatC= 6.37D-14 BMatP= 5.10D-12
 IDIUse=1 WtCom= 1.00D+00 WtEn= 0.00D+00
 Coeff-Com:  0.955D-05-0.166D-04-0.358D-03 0.428D-02-0.299D-01 0.120D+00
 Coeff-Com: -0.403D+00 0.131D+01
 Coeff:      0.955D-05-0.166D-04-0.358D-03 0.428D-02-0.299D-01 0.120D+00
 Coeff:     -0.403D+00 0.131D+01
 Gap=     0.364 Goal=   None    Shift=    0.000
 RMSDP=3.12D-08 MaxDP=1.59D-06 DE=-1.96D-11 OVMax= 3.97D-07

 Cycle   9  Pass 1  IDiag  1:
 E= -24.9783347750835     Delta-E=       -0.000000000000 Rises=F Damp=F
 DIIS: error= 2.93D-09 at cycle   9 NSaved=   9.
 NSaved= 9 IEnMin= 9 EnMin= -24.9783347750835     IErMin= 9 ErrMin= 2.93D-09
 ErrMax= 2.93D-09  0.00D+00 EMaxC= 1.00D-01 BMatC= 5.13D-16 BMatP= 6.37D-14
 IDIUse=1 WtCom= 1.00D+00 WtEn= 0.00D+00
 Coeff-Com: -0.200D-05 0.352D-05 0.650D-04-0.793D-03 0.562D-02-0.228D-01
 Coeff-Com:  0.804D-01-0.308D+00 0.125D+01
 Coeff:     -0.200D-05 0.352D-05 0.650D-04-0.793D-03 0.562D-02-0.228D-01
 Coeff:      0.804D-01-0.308D+00 0.125D+01
 Gap=     0.364 Goal=   None    Shift=    0.000
 RMSDP=2.73D-09 MaxDP=8.61D-08 DE=-1.99D-13 OVMax= 5.04D-08

 SCF Done:  E(RHF) =  -24.9783347751     A.U. after    9 cycles
            NFock=  9  Conv=0.27D-08     -V/T= 1.9669
 KE= 2.583246649358D+01 PE=-6.487731337637D+01 EE= 1.075915453945D+01
 Leave Link  502 at Sun May 22 15:45:33 2022, MaxMem=   104857600 cpu:               3.6 elap:               3.6
 (Enter /apps/software/g16/l601.exe)
 Copying SCF densities to generalized density rwf, IOpCl= 0 IROHF=0.

 **********************************************************************

            Population analysis using the SCF density.

 **********************************************************************

 Orbital symmetries:
       Occupied  (SG) (SG) (SG)
       Virtual   (PI) (PI) (SG) (SG) (PI) (PI) (SG) (PI) (PI) (SG)
                 (DLTA) (DLTA) (SG) (PI) (PI) (SG) (PI) (PI) (SG)
                 (DLTA) (DLTA) (SG) (PHI) (PHI) (PI) (PI) (SG)
                 (DLTA) (DLTA) (SG) (PI) (PI) (PI) (PI) (SG) (DLTA)
                 (DLTA) (SG) (PI) (PI) (SG) (PI) (PI) (PHI) (PHI)
                 (?A) (?A) (SG) (DLTA) (DLTA) (DLTA) (DLTA) (PHI)
                 (PHI) (PI) (PI) (SG) (PI) (PI) (SG) (DLTA) (DLTA)
                 (SG) (PI) (PI) (SG) (DLTA) (DLTA) (PHI) (PHI)
                 (PI) (PI) (SG) (SG) (PI) (PI) (PI) (PI) (SG) (DLTA)
                 (DLTA) (SG) (?A) (?A) (DLTA) (DLTA) (PHI) (PHI)
                 (PI) (PI) (SG) (DLTA) (DLTA) (PHI) (PHI) (PI)
                 (PI) (SG) (PI) (PI) (DLTA) (DLTA) (SG) (PI) (PI)
                 (SG) (PHI) (PHI) (SG) (PI) (PI) (DLTA) (DLTA)
                 (SG) (DLTA) (DLTA) (PI) (PI) (SG) (PI) (PI) (SG)
                 (SG)
 The electronic state is 1-SG.
 Alpha  occ. eigenvalues --   -7.64397  -0.77976  -0.33954
 Alpha virt. eigenvalues --    0.02480   0.02480   0.02693   0.04400   0.07883
 Alpha virt. eigenvalues --    0.07883   0.12232   0.13138   0.13138   0.14047
 Alpha virt. eigenvalues --    0.14512   0.14512   0.17338   0.26708   0.26708
 Alpha virt. eigenvalues --    0.29304   0.33726   0.33726   0.41319   0.42495
 Alpha virt. eigenvalues --    0.42495   0.43726   0.46206   0.46206   0.47514
 Alpha virt. eigenvalues --    0.47514   0.49724   0.50454   0.50454   0.60547
 Alpha virt. eigenvalues --    0.60662   0.60662   0.78079   0.78079   0.78761
 Alpha virt. eigenvalues --    0.83231   0.83231   0.98686   1.02925   1.02925
 Alpha virt. eigenvalues --    1.08568   1.24955   1.24955   1.36948   1.36948
 Alpha virt. eigenvalues --    1.37090   1.37090   1.37573   1.40449   1.40449
 Alpha virt. eigenvalues --    1.43035   1.43035   1.44476   1.44476   1.45803
 Alpha virt. eigenvalues --    1.45803   1.46820   1.66823   1.66823   1.67280
 Alpha virt. eigenvalues --    1.76374   1.76374   1.91394   1.93175   1.93175
 Alpha virt. eigenvalues --    1.98714   2.03913   2.03913   2.06282   2.06282
 Alpha virt. eigenvalues --    2.19043   2.19043   2.19078   3.09722   3.26381
 Alpha virt. eigenvalues --    3.26381   3.35900   3.35900   3.42113   3.47836
 Alpha virt. eigenvalues --    3.47836   3.82833   3.92504   3.92504   3.93199
 Alpha virt. eigenvalues --    3.93199   3.95025   3.95025   4.05522   4.05522
 Alpha virt. eigenvalues --    4.08954   4.09592   4.09592   4.10129   4.10129
 Alpha virt. eigenvalues --    4.34267   4.34267   4.71256   4.85761   4.85761
 Alpha virt. eigenvalues --    4.99019   4.99019   5.69208   6.15660   6.15660
 Alpha virt. eigenvalues --    6.39710   7.11182   7.11182   7.94782   8.05463
 Alpha virt. eigenvalues --    8.05463   8.30401   8.30401   8.95087   9.18962
 Alpha virt. eigenvalues --    9.18962   9.33541   9.33541  10.58706  10.93245
 Alpha virt. eigenvalues --   10.93245  12.40420  19.57995
          Condensed to atoms (all electrons):
               1          2
     1  B    5.114802  -0.002510
     2  H   -0.002510   0.890218
 Mulliken charges:
               1
     1  B   -0.112292
     2  H    0.112292
 Sum of Mulliken charges =   0.00000
 Mulliken charges with hydrogens summed into heavy atoms:
               1
     1  B    0.000000
 Electronic spatial extent (au):  <R**2>=             18.9241
 Charge=              0.0000 electrons
 Dipole moment (field-independent basis, Debye):
    X=              0.0000    Y=              0.0000    Z=             -2.6385  Tot=              2.6385
 Quadrupole moment (field-independent basis, Debye-Ang):
   XX=             -6.4810   YY=             -6.4810   ZZ=             -9.9299
   XY=              0.0000   XZ=              0.0000   YZ=              0.0000
 Traceless Quadrupole moment (field-independent basis, Debye-Ang):
   XX=              1.1496   YY=              1.1496   ZZ=             -2.2992
   XY=              0.0000   XZ=              0.0000   YZ=              0.0000
 Octapole moment (field-independent basis, Debye-Ang**2):
  XXX=              0.0000  YYY=              0.0000  ZZZ=             -7.3670  XYY=              0.0000
  XXY=              0.0000  XXZ=             -2.4471  XZZ=              0.0000  YZZ=              0.0000
  YYZ=             -2.4471  XYZ=              0.0000
 Hexadecapole moment (field-independent basis, Debye-Ang**3):
 XXXX=            -10.4768 YYYY=            -10.4768 ZZZZ=            -22.2078 XXXY=              0.0000
 XXXZ=              0.0000 YYYX=              0.0000 YYYZ=              0.0000 ZZZX=              0.0000
 ZZZY=              0.0000 XXYY=             -3.4923 XXZZ=             -5.4890 YYZZ=             -5.4890
 XXYZ=              0.0000 YYXZ=              0.0000 ZZXY=              0.0000
 N-N= 3.307357568250D+00 E-N=-6.487731339960D+01  KE= 2.583246649358D+01
 Symmetry A1   KE= 2.583246649358D+01
 Symmetry A2   KE= 1.554371705709D-51
 Symmetry B1   KE= 0.000000000000D+00
 Symmetry B2   KE= 0.000000000000D+00
 No NMR shielding tensors so no spin-rotation constants.
 Leave Link  601 at Sun May 22 15:45:33 2022, MaxMem=   104857600 cpu:               0.1 elap:               0.1
 (Enter /apps/software/g16/l9999.exe)
 1\1\GINC-CNODE07\SP\RHF\Aug-CC-pVQZ\B1H1\LCZ\22-May-2022\0\\#p RHF/aug
 -cc-pVQZ\\BH RHF at 0.8 Angstrom\\0,1\B,0,0.,0.,0.\H,0,0.8,0.,0.\\Vers
 ion=ES64L-G16RevA.03\State=1-SG\HF=-24.9783348\RMSD=2.734e-09\Dipole=1
 .0380507,0.,0.\Quadrupole=-1.7094328,0.8547164,0.8547164,0.,0.,0.\PG=C
 *V [C*(H1B1)]\\@


 NOBODY LOSES ALL THE TIME
 I HAD AN UNCLE NAMED
 SOL WHO WAS A BORN FAILURE AND
 NEARLY EVERYBODY SAID HE SHOULD HAVE GONE
 INTO VAUDEVILLE PERHAPS BECAUSE MY UNCLE SOL COULD
 SING MCCANN HE WAS A DIVER ON XMAS EVE LIKE HELL ITSELF WHICH
 MAY OR MAY NOT ACCOUNT FOR THE FACT THAT MY UNCLE
 SOL INDULGED IN THAT POSSIBLY MOST INEXCUSABLE
 OF ALL TO USE A HIGHFALOOTIN PHRASE
 LUXURIES THAT IS OR TO
 WIT FARMING AND BE
 IT NEEDLESSLY
 ADDED
 MY UNCLE SOL'S FARM     
 FAILED BECAUSE THE CHICKENS
 ATE THE VEGETABLES SO
 MY UNCLE SOL HAD A
 CHICKEN FARM TILL THE
 SKUNKS ATE THE CHICKENS WHEN 
 MY UNCLE SOL
 HAD A SKUNK FARM BUT
 THE SKUNKS CAUGHT COLD AND
 DIED AND SO
 MY UNCLE SOL IMITATED THE
 SKUNKS IN A SUBTLE MANNER
 OR BY DROWNING HIMSELF IN THE WATERTANK
 BUT SOMEBODY WHO'D GIVEN MY UNCLE SOL A VICTOR     
 VICTROLA AND RECORDS WHILE HE LIVED PRESENTED TO
 HIM UPON THE AUSPICIOUS OCCASION OF HIS DECEASE A
 SCRUMPTIOUS NOT TO MENTION SPLENDIFEROUS FUNERAL WITH
 TALL BOYS IN BLACK GLOVES AND FLOWERS AND EVERYTHING AND
 I REMEMBER WE ALL CRIED LIKE THE MISSOURI
 WHEN MY UNCLE SOL'S COFFIN LURCHED BECAUSE     
 SOMEBODY PRESSED A BUTTON
 (AND DOWN WENT
 MY UNCLE
 SOL
 AND STARTED A WORM FARM)
           E. E. CUMMINGS
 Job cpu time:       0 days  0 hours  0 minutes  4.4 seconds.
 Elapsed time:       0 days  0 hours  0 minutes  4.4 seconds.
 File lengths (MBytes):  RWF=     10 Int=      0 D2E=      0 Chk=      3 Scr=      1
 Normal termination of Gaussian 16 at Sun May 22 15:45:33 2022.

Sender: Unischeduler System <lcz@mgt01>
Subject: Job 134009: <#!/bin/bash
#BSUB -J intel
#BSUB -o BH-0.8-RHF-G.out
#BSUB -n 8
#BSUB -q cqueue
#BSUB -R span[hosts=1]
export g16root=/apps/software
source /apps/software/g16/bsd/g16.profile
export GAUSS_SCRDIR=/scratch
/apps/software/g16/g16 < BH-0.8-RHF-G.inp > BH-0.8-RHF-G.out> Done

Job <#!/bin/bash
#BSUB -J intel
#BSUB -o BH-0.8-RHF-G.out
#BSUB -n 8
#BSUB -q cqueue
#BSUB -R span[hosts=1]
export g16root=/apps/software
source /apps/software/g16/bsd/g16.profile
export GAUSS_SCRDIR=/scratch
/apps/software/g16/g16 < BH-0.8-RHF-G.inp > BH-0.8-RHF-G.out> was submitted from host <mgt01> by user <lcz>.
Job was executed on host(s) <8*cnode07>, in queue <cqueue>, as user <lcz>.
</apps/users/lcz> was used as the home directory.
</apps/users/lcz/exe13/CCSD> was used as the working directory.
Started at 2022-05-22 15:45:29
Results reported at 2022-05-22 15:45:33

Your job looked like:

------------------------------------------------------------
# User input
#!/bin/bash
#BSUB -J intel
#BSUB -o BH-0.8-RHF-G.out
#BSUB -n 8
#BSUB -q cqueue
#BSUB -R span[hosts=1]
export g16root=/apps/software
source /apps/software/g16/bsd/g16.profile
export GAUSS_SCRDIR=/scratch
/apps/software/g16/g16 < BH-0.8-RHF-G.inp > BH-0.8-RHF-G.out
------------------------------------------------------------

Successfully completed.

Resource usage summary:

    CPU time   :            0.05 sec.
    Max Memory :                14 MB
    Max Processes  :               2


The output (if any) follows:

