 Entering Gaussian System, Link 0=/apps/software/g16/g16
 Initial command:
 /apps/software/g16/l1.exe "/scratch/Gau-254577.inp" -scrdir="/scratch/"
 Entering Link 1 = /apps/software/g16/l1.exe PID=    254578.
  
 Copyright (c) 1988,1990,1992,1993,1995,1998,2003,2009,2016,
            Gaussian, Inc.  All Rights Reserved.
  
 This is part of the Gaussian(R) 16 program.  It is based on
 the Gaussian(R) 09 system (copyright 2009, Gaussian, Inc.),
 the Gaussian(R) 03 system (copyright 2003, Gaussian, Inc.),
 the Gaussian(R) 98 system (copyright 1998, Gaussian, Inc.),
 the Gaussian(R) 94 system (copyright 1995, Gaussian, Inc.),
 the Gaussian 92(TM) system (copyright 1992, Gaussian, Inc.),
 the Gaussian 90(TM) system (copyright 1990, Gaussian, Inc.),
 the Gaussian 88(TM) system (copyright 1988, Gaussian, Inc.),
 the Gaussian 86(TM) system (copyright 1986, Carnegie Mellon
 University), and the Gaussian 82(TM) system (copyright 1983,
 Carnegie Mellon University). Gaussian is a federally registered
 trademark of Gaussian, Inc.
  
 This software contains proprietary and confidential information,
 including trade secrets, belonging to Gaussian, Inc.
  
 This software is provided under written license and may be
 used, copied, transmitted, or stored only in accord with that
 written license.
  
 The following legend is applicable only to US Government
 contracts under FAR:
  
                    RESTRICTED RIGHTS LEGEND
  
 Use, reproduction and disclosure by the US Government is
 subject to restrictions as set forth in subparagraphs (a)
 and (c) of the Commercial Computer Software - Restricted
 Rights clause in FAR 52.227-19.
  
 Gaussian, Inc.
 340 Quinnipiac St., Bldg. 40, Wallingford CT 06492
  
  
 ---------------------------------------------------------------
 Warning -- This program may not be used in any manner that
 competes with the business of Gaussian, Inc. or will provide
 assistance to any competitor of Gaussian, Inc.  The licensee
 of this program is prohibited from giving any competitor of
 Gaussian, Inc. access to this program.  By using this program,
 the user acknowledges that Gaussian, Inc. is engaged in the
 business of creating and licensing software in the field of
 computational chemistry and represents and warrants to the
 licensee that it is not a competitor of Gaussian, Inc. and that
 it will not use this program in any manner prohibited above.
 ---------------------------------------------------------------
  

 Cite this work as:
 Gaussian 16, Revision A.03,
 M. J. Frisch, G. W. Trucks, H. B. Schlegel, G. E. Scuseria, 
 M. A. Robb, J. R. Cheeseman, G. Scalmani, V. Barone, 
 G. A. Petersson, H. Nakatsuji, X. Li, M. Caricato, A. V. Marenich, 
 J. Bloino, B. G. Janesko, R. Gomperts, B. Mennucci, H. P. Hratchian, 
 J. V. Ortiz, A. F. Izmaylov, J. L. Sonnenberg, D. Williams-Young, 
 F. Ding, F. Lipparini, F. Egidi, J. Goings, B. Peng, A. Petrone, 
 T. Henderson, D. Ranasinghe, V. G. Zakrzewski, J. Gao, N. Rega, 
 G. Zheng, W. Liang, M. Hada, M. Ehara, K. Toyota, R. Fukuda, 
 J. Hasegawa, M. Ishida, T. Nakajima, Y. Honda, O. Kitao, H. Nakai, 
 T. Vreven, K. Throssell, J. A. Montgomery, Jr., J. E. Peralta, 
 F. Ogliaro, M. J. Bearpark, J. J. Heyd, E. N. Brothers, K. N. Kudin, 
 V. N. Staroverov, T. A. Keith, R. Kobayashi, J. Normand, 
 K. Raghavachari, A. P. Rendell, J. C. Burant, S. S. Iyengar, 
 J. Tomasi, M. Cossi, J. M. Millam, M. Klene, C. Adamo, R. Cammi, 
 J. W. Ochterski, R. L. Martin, K. Morokuma, O. Farkas, 
 J. B. Foresman, and D. J. Fox, Gaussian, Inc., Wallingford CT, 2016.
 
 ******************************************
 Gaussian 16:  ES64L-G16RevA.03 25-Dec-2016
                22-May-2022 
 ******************************************
 %oldchk=BH-1.0-RHF-G.chk
 %chk=BH-1.0-CCSD-G.chk
 Copying data from "BH-1.0-RHF-G.chk" to current chk file "BH-1.0-CCSD-G.chk"
 IOpt=  2 FromEx=T IUOpen= 4 IOptOp= 5 NList=   0 IFRang= 0 IUIn= 4 IUOut= 2.
 -------------------------------------
 #p RHF/aug-cc-pVQZ guess=read CCSD=FC
 -------------------------------------
 1/38=1,172=1/1;
 2/12=2,17=6,18=5,40=1/2;
 3/5=16,6=2,7=10,11=1,25=1,30=1,116=1/1,2,3;
 4/5=1/1;
 5/5=2,38=6/2;
 8/6=4,9=120000,10=1/1,4;
 9/5=7/13;
 6/7=2,8=2,9=2,10=2/1;
 99/5=1,9=1/99;
 Leave Link    1 at Sun May 22 15:50:44 2022, MaxMem=   104857600 cpu:               0.0 elap:               0.0
 (Enter /apps/software/g16/l101.exe)
 ----------------------
 BH RHF at 1.0 Angstrom
 ----------------------
 Symbolic Z-matrix:
 Charge =  0 Multiplicity = 1
 B                     0.        0.        0. 
 H                     1.        0.        0. 
 
 ITRead=  0  0
 MicOpt= -1 -1
 NAtoms=      2 NQM=        2 NQMF=       0 NMMI=      0 NMMIF=      0
                NMic=       0 NMicF=      0.
                    Isotopes and Nuclear Properties:
 (Nuclear quadrupole moments (NQMom) in fm**2, nuclear magnetic moments (NMagM)
  in nuclear magnetons)

  Atom         1           2
 IAtWgt=          11           1
 AtmWgt=  11.0093053   1.0078250
 NucSpn=           3           1
 AtZEff=  -0.0000000  -0.0000000
 NQMom=    4.0590000   0.0000000
 NMagM=    2.6886370   2.7928460
 AtZNuc=   5.0000000   1.0000000
 Leave Link  101 at Sun May 22 15:50:44 2022, MaxMem=   104857600 cpu:               0.1 elap:               0.1
 (Enter /apps/software/g16/l202.exe)
                          Input orientation:                          
 ---------------------------------------------------------------------
 Center     Atomic      Atomic             Coordinates (Angstroms)
 Number     Number       Type             X           Y           Z
 ---------------------------------------------------------------------
      1          5           0        0.000000    0.000000    0.000000
      2          1           0        1.000000    0.000000    0.000000
 ---------------------------------------------------------------------
 Stoichiometry    BH
 Framework group  C*V[C*(HB)]
 Deg. of freedom     1
 Full point group                 C*V     NOp   4
 Largest Abelian subgroup         C2V     NOp   4
 Largest concise Abelian subgroup C1      NOp   1
                         Standard orientation:                         
 ---------------------------------------------------------------------
 Center     Atomic      Atomic             Coordinates (Angstroms)
 Number     Number       Type             X           Y           Z
 ---------------------------------------------------------------------
      1          5           0        0.000000    0.000000    0.166667
      2          1           0        0.000000    0.000000   -0.833333
 ---------------------------------------------------------------------
 Rotational constants (GHZ):           0.0000000         547.3598183         547.3598183
 Leave Link  202 at Sun May 22 15:50:44 2022, MaxMem=   104857600 cpu:               0.0 elap:               0.0
 (Enter /apps/software/g16/l301.exe)
 Standard basis: Aug-CC-pVQZ (5D, 7F)
 Ernie: Thresh=  0.10000D-02 Tol=  0.10000D-05 Strict=F.
 Ernie:  4 primitive shells out of 54 were deleted.
 There are    68 symmetry adapted cartesian basis functions of A1  symmetry.
 There are    18 symmetry adapted cartesian basis functions of A2  symmetry.
 There are    37 symmetry adapted cartesian basis functions of B1  symmetry.
 There are    37 symmetry adapted cartesian basis functions of B2  symmetry.
 There are    50 symmetry adapted basis functions of A1  symmetry.
 There are    16 symmetry adapted basis functions of A2  symmetry.
 There are    30 symmetry adapted basis functions of B1  symmetry.
 There are    30 symmetry adapted basis functions of B2  symmetry.
   126 basis functions,   180 primitive gaussians,   160 cartesian basis functions
     3 alpha electrons        3 beta electrons
       nuclear repulsion energy         2.6458860546 Hartrees.
 IExCor=    0 DFT=F Ex=HF Corr=None ExCW=0 ScaHFX=  1.000000
 ScaDFX=  1.000000  1.000000  1.000000  1.000000 ScalE2=  1.000000  1.000000
 IRadAn=      5 IRanWt=     -1 IRanGd=            0 ICorTp=0 IEmpDi=  4
 NAtoms=    2 NActive=    2 NUniq=    2 SFac= 1.00D+00 NAtFMM=   60 NAOKFM=F Big=F
 Integral buffers will be    131072 words long.
 Raffenetti 1 integral format.
 Two-electron integral symmetry is turned on.
 Leave Link  301 at Sun May 22 15:50:44 2022, MaxMem=   104857600 cpu:               0.1 elap:               0.1
 (Enter /apps/software/g16/l302.exe)
 NPDir=0 NMtPBC=     1 NCelOv=     1 NCel=       1 NClECP=     1 NCelD=      1
         NCelK=      1 NCelE2=     1 NClLst=     1 CellRange=     0.0.
 One-electron integrals computed using PRISM.
 One-electron integral symmetry used in STVInt
 NBasis=   126 RedAO= T EigKep=  5.99D-05  NBF=    50    16    30    30
 NBsUse=   126 1.00D-06 EigRej= -1.00D+00 NBFU=    50    16    30    30
 Leave Link  302 at Sun May 22 15:50:45 2022, MaxMem=   104857600 cpu:               0.1 elap:               0.1
 (Enter /apps/software/g16/l303.exe)
 DipDrv:  MaxL=1.
 Leave Link  303 at Sun May 22 15:50:45 2022, MaxMem=   104857600 cpu:               0.0 elap:               0.0
 (Enter /apps/software/g16/l401.exe)
 Initial guess from the checkpoint file:  "BH-1.0-CCSD-G.chk"
 B after Tr=     0.000000    0.000000    0.000000
         Rot=    1.000000    0.000000    0.000000    0.000000 Ang=   0.00 deg.
 Guess basis will be translated and rotated to current coordinates.
 JPrj=2 DoOrth=T DoCkMO=T.
 Initial guess orbital symmetries:
       Occupied  (SG) (SG) (SG)
       Virtual   (PI) (PI) (SG) (SG) (PI) (PI) (SG) (PI) (PI) (DLTA)
                 (DLTA) (SG) (SG) (PI) (PI) (SG) (PI) (PI) (SG)
                 (SG) (DLTA) (DLTA) (PHI) (PHI) (PI) (PI) (DLTA)
                 (DLTA) (SG) (SG) (PI) (PI) (SG) (PI) (PI) (DLTA)
                 (DLTA) (SG) (PI) (PI) (SG) (PI) (PI) (?A) (?A)
                 (SG) (PHI) (PHI) (DLTA) (DLTA) (PHI) (PHI) (DLTA)
                 (DLTA) (PI) (PI) (SG) (SG) (PI) (PI) (DLTA) (DLTA)
                 (SG) (PI) (PI) (SG) (PHI) (PHI) (DLTA) (DLTA)
                 (SG) (PI) (PI) (SG) (PI) (PI) (PI) (PI) (SG) (DLTA)
                 (DLTA) (SG) (?A) (?A) (PHI) (PHI) (DLTA) (DLTA)
                 (PI) (PI) (DLTA) (DLTA) (PHI) (PHI) (SG) (PI)
                 (PI) (SG) (PI) (PI) (DLTA) (DLTA) (SG) (SG) (PI)
                 (PI) (PHI) (PHI) (DLTA) (DLTA) (SG) (PI) (PI)
                 (SG) (DLTA) (DLTA) (PI) (PI) (PI) (PI) (SG) (SG)
                 (SG)
 The electronic state of the initial guess is 1-SG.
 Leave Link  401 at Sun May 22 15:50:45 2022, MaxMem=   104857600 cpu:               0.1 elap:               0.1
 (Enter /apps/software/g16/l502.exe)
 Keep R1 ints in memory in symmetry-blocked form, NReq=40143665.
 FoFCou: FMM=F IPFlag=           0 FMFlag=           0 FMFlg1=           0
         NFxFlg=           0 DoJE=F BraDBF=F KetDBF=F FulRan=T
         wScrn=  0.000000 ICntrl=       600 IOpCl=  0 I1Cent=           0 NGrid=           0
         NMat0=    1 NMatS0=   8001 NMatT0=    0 NMatD0=    1 NMtDS0=    0 NMtDT0=    0
 Petite list used in FoFCou.
 Closed shell SCF:
 Using DIIS extrapolation, IDIIS=  1040.
 NGot=   104857600 LenX=    96673173 LenY=    96647132
 Requested convergence on RMS density matrix=1.00D-08 within 128 cycles.
 Requested convergence on MAX density matrix=1.00D-06.
 Requested convergence on             energy=1.00D-06.
 No special actions if energy rises.

 Cycle   1  Pass 1  IDiag  1:
 E= -25.1036652579669    
 DIIS: error= 2.34D-10 at cycle   1 NSaved=   1.
 NSaved= 1 IEnMin= 1 EnMin= -25.1036652579669     IErMin= 1 ErrMin= 2.34D-10
 ErrMax= 2.34D-10  0.00D+00 EMaxC= 1.00D-01 BMatC= 4.67D-18 BMatP= 4.67D-18
 IDIUse=1 WtCom= 1.00D+00 WtEn= 0.00D+00
 Coeff-Com:  0.100D+01
 Coeff:      0.100D+01
 Gap=     0.367 Goal=   None    Shift=    0.000
 RMSDP=1.48D-10 MaxDP=4.79D-09              OVMax= 3.80D-09

 SCF Done:  E(RHF) =  -25.1036652580     A.U. after    1 cycles
            NFock=  1  Conv=0.15D-09     -V/T= 1.9880
 KE= 2.540770600434D+01 PE=-6.347490838213D+01 EE= 1.031765106523D+01
 Leave Link  502 at Sun May 22 15:50:48 2022, MaxMem=   104857600 cpu:               3.6 elap:               3.6
 (Enter /apps/software/g16/l801.exe)
 Windowed orbitals will be sorted by symmetry type.
 ExpMin= 1.88D-02 ExpMax= 2.39D+04 ExpMxC= 2.30D+02 IAcc=3 IRadAn=         5 AccDes= 0.00D+00
 HarFok:  IExCor=  205 AccDes= 0.00D+00 IRadAn=         5 IDoV=-2 UseB2=F ITyADJ=14
 ICtDFT= 12500011 ScaDFX=  1.000000  1.000000  1.000000  1.000000
 Largest valence mixing into a core orbital is  3.13D-04
 Largest core mixing into a valence orbital is  5.68D-05
 Range of M.O.s used for correlation:     2   126
 NBasis=   126 NAE=     3 NBE=     3 NFC=     1 NFV=     0
 NROrb=    125 NOA=     2 NOB=     2 NVA=   123 NVB=   123

 **** Warning!!: The largest alpha MO coefficient is  0.31476874D+02

 Leave Link  801 at Sun May 22 15:50:48 2022, MaxMem=   104857600 cpu:               0.1 elap:               0.1
 (Enter /apps/software/g16/l804.exe)
 Closed-shell transformation, MDV=   104857600 ITran=4 ISComp=2.
 Unit  1 TFree=        535169 TCopy=        350885.
 Semi-Direct transformation.
 ModeAB=           2 MOrb=             2 LenV=     104239862
 LASXX=       493564 LTotXX=      493564 LenRXX=      493564
 LTotAB=      509833 MaxLAS=     3220000 LenRXY=     3220000
 NonZer=     3361750 LenScr=     5758976 LnRSAI=           0
 LnScr1=           0 LExtra=           0 Total=      9472540
 MaxDsk=          -1 SrtSym=           F ITran=            4
 DoSDTr:  NPSUse=  1
 JobTyp=0 Pass  1:  I=   1 to   2.
 (rs|ai) integrals will be sorted in core.
 Complete sort for first half transformation.
 First half transformation complete.
 Complete sort for second half transformation.
 Second half transformation complete.
 Spin components of T(2) and E(2):
     alpha-alpha T2 =       0.1031325556D-02 E2=     -0.2484043116D-02
     alpha-beta  T2 =       0.3265574015D-01 E2=     -0.7324279871D-01
     beta-beta   T2 =       0.1031325556D-02 E2=     -0.2484043116D-02
 ANorm=    0.1017211085D+01
 E2 =    -0.7821088494D-01 EUMP2 =    -0.25181876142907D+02
 Leave Link  804 at Sun May 22 15:50:54 2022, MaxMem=   104857600 cpu:               5.1 elap:               5.1
 (Enter /apps/software/g16/l913.exe)
 CIDS:  MDV=   104857600.
 Frozen-core window:  NFC=   1 NFV=   0.
 IFCWin=0 IBDFC=1 NFBD=     0     0 NFCmp=     0     0 NFFFC=     0     0
 Using DD3R+UMP44R for 1st iteration.
 Using DD4RQ for 2nd and later iterations.
 Keep R2 and R3 ints in memory in symmetry-blocked form, NReq=40146875.
 FoFCou: FMM=F IPFlag=           0 FMFlag=           0 FMFlg1=           0
         NFxFlg=           0 DoJE=F BraDBF=F KetDBF=F FulRan=T
         wScrn=  0.000000 ICntrl=       600 IOpCl=  0 I1Cent=           0 NGrid=           0
         NMat0=    1 NMatS0=   8001 NMatT0=    0 NMatD0=    1 NMtDS0=    0 NMtDT0=    0
 Petite list used in FoFCou.
 CIDS: In Core Option IDoMem=           1.
 Coupled Cluster theory with single and double substitutions
 ===========================================================
 Iterations=  50 Convergence= 0.100D-06
 Produce multiple copies of IABC intergrals
 Iteration Nr.   1
 **********************
 DD1Dir will call FoFMem   1 times, MxPair=         6
 NAB=     3 NAA=     0 NBB=     0.
 MP4(R+Q)=  0.17030421D-02
 Maximum subspace dimension=  5
 A-vector RMS=  1.8245949D-03 Max=  1.2315088D-02 conv= 1.00D-05.
 RLE energy=       -0.0930862791
 E3=       -0.14214833D-01        EUMP3=      -0.25196090976D+02
 E4(DQ)=   -0.40711805D-02        UMP4(DQ)=   -0.25200162157D+02
 E4(SDQ)=  -0.43157119D-02        UMP4(SDQ)=  -0.25200406688D+02
 VARIATIONAL ENERGIES WITH THE FIRST-ORDER WAVEFUNCTION:
 DE(Corr)= -0.90709161E-01 E(Corr)=     -25.194374419    
 NORM(A)=   0.10295600D+01
 Iteration Nr.   2
 **********************
 DD1Dir will call FoFMem   1 times, MxPair=         6
 NAB=     3 NAA=     0 NBB=     0.
 A-vector RMS=  6.9666667D-04 Max=  7.7826320D-03 conv= 1.00D-05.
 RLE energy=       -0.0993084389
 DE(Corr)= -0.96388902E-01 E(CORR)=     -25.200054160     Delta=-5.68D-03
 NORM(A)=   0.10391493D+01
 Iteration Nr.   3
 **********************
 DD1Dir will call FoFMem   1 times, MxPair=         6
 NAB=     3 NAA=     0 NBB=     0.
 A-vector RMS=  3.3663519D-04 Max=  3.1019641D-03 conv= 1.00D-05.
 RLE energy=       -0.1002070855
 DE(Corr)= -0.99290613E-01 E(CORR)=     -25.202955871     Delta=-2.90D-03
 NORM(A)=   0.10434645D+01
 Iteration Nr.   4
 **********************
 DD1Dir will call FoFMem   1 times, MxPair=         6
 NAB=     3 NAA=     0 NBB=     0.
 A-vector RMS=  9.5135792D-05 Max=  1.0592752D-03 conv= 1.00D-05.
 RLE energy=       -0.1004128360
 DE(Corr)= -0.10025590     E(CORR)=     -25.203921155     Delta=-9.65D-04
 NORM(A)=   0.10445531D+01
 Iteration Nr.   5
 **********************
 DD1Dir will call FoFMem   1 times, MxPair=         6
 NAB=     3 NAA=     0 NBB=     0.
 A-vector RMS=  2.8369920D-05 Max=  2.5830024D-04 conv= 1.00D-05.
 RLE energy=       -0.1004097545
 DE(Corr)= -0.10039539     E(CORR)=     -25.204060646     Delta=-1.39D-04
 NORM(A)=   0.10447428D+01
 Iteration Nr.   6
 **********************
 DD1Dir will call FoFMem   1 times, MxPair=         6
 NAB=     3 NAA=     0 NBB=     0.
 A-vector RMS=  1.5089171D-05 Max=  9.6551258D-05 conv= 1.00D-05.
 RLE energy=       -0.1004066454
 DE(Corr)= -0.10040815     E(CORR)=     -25.204073405     Delta=-1.28D-05
 NORM(A)=   0.10447722D+01
 Iteration Nr.   7
 **********************
 DD1Dir will call FoFMem   1 times, MxPair=         6
 NAB=     3 NAA=     0 NBB=     0.
 A-vector RMS=  6.6224636D-06 Max=  3.9546696D-05 conv= 1.00D-05.
 RLE energy=       -0.1004124888
 DE(Corr)= -0.10040874     E(CORR)=     -25.204074001     Delta=-5.96D-07
 NORM(A)=   0.10447840D+01
 Iteration Nr.   8
 **********************
 DD1Dir will call FoFMem   1 times, MxPair=         6
 NAB=     3 NAA=     0 NBB=     0.
 A-vector RMS=  2.6768875D-06 Max=  1.8080877D-05 conv= 1.00D-05.
 RLE energy=       -0.1004101986
 DE(Corr)= -0.10041072     E(CORR)=     -25.204075981     Delta=-1.98D-06
 NORM(A)=   0.10447813D+01
 Iteration Nr.   9
 **********************
 DD1Dir will call FoFMem   1 times, MxPair=         6
 NAB=     3 NAA=     0 NBB=     0.
 A-vector RMS=  9.6945308D-07 Max=  5.5441979D-06 conv= 1.00D-05.
 RLE energy=       -0.1004103787
 DE(Corr)= -0.10041030     E(CORR)=     -25.204075562     Delta= 4.19D-07
 NORM(A)=   0.10447817D+01
 Iteration Nr.  10
 **********************
 DD1Dir will call FoFMem   1 times, MxPair=         6
 NAB=     3 NAA=     0 NBB=     0.
 A-vector RMS=  3.6809593D-07 Max=  1.7120756D-06 conv= 1.00D-05.
 RLE energy=       -0.1004103278
 DE(Corr)= -0.10041032     E(CORR)=     -25.204075578     Delta=-1.54D-08
 NORM(A)=   0.10447818D+01
 CI/CC converged in   10 iterations to DelEn=-1.54D-08 Conv= 1.00D-07 ErrA1= 3.68D-07 Conv= 1.00D-05
 Wavefunction amplitudes converged. E(Corr)=     -25.204075578    
 Largest amplitude= 6.38D-02
 Discarding MO integrals.
 Leave Link  913 at Sun May 22 15:50:58 2022, MaxMem=   104857600 cpu:               4.1 elap:               4.1
 (Enter /apps/software/g16/l601.exe)
 Copying SCF densities to generalized density rwf, IOpCl= 0 IROHF=0.

 **********************************************************************

            Population analysis using the SCF density.

 **********************************************************************

 Orbital symmetries:
       Occupied  (SG) (SG) (SG)
       Virtual   (PI) (PI) (SG) (SG) (PI) (PI) (SG) (PI) (PI) (DLTA)
                 (DLTA) (SG) (SG) (PI) (PI) (SG) (PI) (PI) (SG)
                 (SG) (DLTA) (DLTA) (PHI) (PHI) (PI) (PI) (DLTA)
                 (DLTA) (SG) (SG) (PI) (PI) (SG) (PI) (PI) (DLTA)
                 (DLTA) (SG) (PI) (PI) (SG) (PI) (PI) (?A) (?A)
                 (SG) (PHI) (PHI) (DLTA) (DLTA) (PHI) (PHI) (DLTA)
                 (DLTA) (PI) (PI) (SG) (SG) (PI) (PI) (DLTA) (DLTA)
                 (SG) (PI) (PI) (SG) (PHI) (PHI) (DLTA) (DLTA)
                 (SG) (PI) (PI) (SG) (PI) (PI) (PI) (PI) (SG) (DLTA)
                 (DLTA) (SG) (?A) (?A) (PHI) (PHI) (DLTA) (DLTA)
                 (PI) (PI) (DLTA) (DLTA) (PHI) (PHI) (SG) (PI)
                 (PI) (SG) (PI) (PI) (DLTA) (DLTA) (SG) (SG) (PI)
                 (PI) (PHI) (PHI) (DLTA) (DLTA) (SG) (PI) (PI)
                 (SG) (DLTA) (DLTA) (PI) (PI) (PI) (PI) (SG) (SG)
                 (SG)
 The electronic state is 1-SG.
 Alpha  occ. eigenvalues --   -7.65747  -0.71635  -0.34213
 Alpha virt. eigenvalues --    0.02471   0.02471   0.02864   0.04488   0.07967
 Alpha virt. eigenvalues --    0.07967   0.11720   0.13285   0.13285   0.14540
 Alpha virt. eigenvalues --    0.14540   0.14707   0.18060   0.27312   0.27312
 Alpha virt. eigenvalues --    0.27700   0.32509   0.32509   0.41160   0.43788
 Alpha virt. eigenvalues --    0.44063   0.44063   0.46162   0.46162   0.47901
 Alpha virt. eigenvalues --    0.47901   0.50338   0.50338   0.51023   0.56728
 Alpha virt. eigenvalues --    0.60362   0.60362   0.76871   0.77653   0.77653
 Alpha virt. eigenvalues --    0.80552   0.80552   0.96459   1.05417   1.05417
 Alpha virt. eigenvalues --    1.05828   1.18340   1.18340   1.37032   1.37032
 Alpha virt. eigenvalues --    1.37240   1.37627   1.37627   1.39574   1.39574
 Alpha virt. eigenvalues --    1.44170   1.44170   1.44862   1.44862   1.47428
 Alpha virt. eigenvalues --    1.47428   1.48506   1.60439   1.62530   1.62530
 Alpha virt. eigenvalues --    1.69326   1.69326   1.87627   1.88388   1.88388
 Alpha virt. eigenvalues --    1.91896   1.97403   1.97403   2.02011   2.02011
 Alpha virt. eigenvalues --    2.16006   2.25132   2.25132   2.88470   3.12312
 Alpha virt. eigenvalues --    3.12312   3.27965   3.27965   3.28248   3.33550
 Alpha virt. eigenvalues --    3.33550   3.91272   3.92298   3.92298   3.93668
 Alpha virt. eigenvalues --    3.93668   4.00816   4.00816   4.04654   4.04654
 Alpha virt. eigenvalues --    4.06867   4.06867   4.10061   4.10061   4.13976
 Alpha virt. eigenvalues --    4.33197   4.33197   4.49949   4.52481   4.52481
 Alpha virt. eigenvalues --    4.64224   4.64224   5.46045   5.67627   5.83465
 Alpha virt. eigenvalues --    5.83465   6.86305   6.86305   7.66975   7.66975
 Alpha virt. eigenvalues --    7.93108   7.95840   7.95840   8.64307   9.03389
 Alpha virt. eigenvalues --    9.03389   9.24521   9.24521   9.90427   9.90427
 Alpha virt. eigenvalues --   10.24449  11.31833  17.65609
          Condensed to atoms (all electrons):
               1          2
     1  B    4.837921   0.135270
     2  H    0.135270   0.891539
 Mulliken charges:
               1
     1  B    0.026809
     2  H   -0.026809
 Sum of Mulliken charges =  -0.00000
 Mulliken charges with hydrogens summed into heavy atoms:
               1
     1  B   -0.000000
 Electronic spatial extent (au):  <R**2>=             20.4532
 Charge=             -0.0000 electrons
 Dipole moment (field-independent basis, Debye):
    X=              0.0000    Y=              0.0000    Z=             -2.3360  Tot=              2.3360
 Quadrupole moment (field-independent basis, Debye-Ang):
   XX=             -6.5992   YY=             -6.5992   ZZ=            -10.3091
   XY=              0.0000   XZ=              0.0000   YZ=              0.0000
 Traceless Quadrupole moment (field-independent basis, Debye-Ang):
   XX=              1.2366   YY=              1.2366   ZZ=             -2.4732
   XY=              0.0000   XZ=              0.0000   YZ=              0.0000
 Octapole moment (field-independent basis, Debye-Ang**2):
  XXX=              0.0000  YYY=              0.0000  ZZZ=             -6.9531  XYY=              0.0000
  XXY=              0.0000  XXZ=             -2.1922  XZZ=              0.0000  YZZ=              0.0000
  YYZ=             -2.1922  XYZ=              0.0000
 Hexadecapole moment (field-independent basis, Debye-Ang**3):
 XXXX=            -10.2059 YYYY=            -10.2059 ZZZZ=            -25.3451 XXXY=              0.0000
 XXXZ=              0.0000 YYYX=              0.0000 YYYZ=              0.0000 ZZZX=              0.0000
 ZZZY=              0.0000 XXYY=             -3.4020 XXZZ=             -5.9961 YYZZ=             -5.9961
 XXYZ=              0.0000 YYXZ=              0.0000 ZZXY=              0.0000
 N-N= 2.645886054600D+00 E-N=-6.347490838330D+01  KE= 2.540770600434D+01
 Symmetry A1   KE= 2.540770600434D+01
 Symmetry A2   KE=-2.688527271566D-51
 Symmetry B1   KE= 0.000000000000D+00
 Symmetry B2   KE= 0.000000000000D+00
 Leave Link  601 at Sun May 22 15:50:58 2022, MaxMem=   104857600 cpu:               0.0 elap:               0.1
 (Enter /apps/software/g16/l9999.exe)
 1\1\GINC-CNODE08\SP\RCCSD-FC\Aug-CC-pVQZ\B1H1\LCZ\22-May-2022\0\\#p RH
 F/aug-cc-pVQZ guess=read CCSD=FC\\BH RHF at 1.0 Angstrom\\0,1\B,0,0.,0
 .,0.\H,0,1.,0.,0.\\Version=ES64L-G16RevA.03\State=1-SG\HF=-25.1036653\
 MP2=-25.1818761\MP3=-25.196091\MP4D=-25.2018652\MP4DQ=-25.2001622\MP4S
 DQ=-25.2004067\CCSD=-25.2040756\RMSD=1.480e-10\PG=C*V [C*(H1B1)]\\@


 AN OPTIMIST IS A GUY
 THAT HAS NEVER HAD
 MUCH EXPERIENCE
   (CERTAIN MAXIMS OF ARCHY  -- DON MARQUIS)
 Job cpu time:       0 days  0 hours  0 minutes 13.4 seconds.
 Elapsed time:       0 days  0 hours  0 minutes 13.4 seconds.
 File lengths (MBytes):  RWF=     81 Int=      0 D2E=      0 Chk=     67 Scr=      1
 Normal termination of Gaussian 16 at Sun May 22 15:50:58 2022.

Sender: Unischeduler System <lcz@mgt01>
Subject: Job 134042: <#!/bin/bash
#BSUB -J intel
#BSUB -o BH-1.0-CCSD-G.out
#BSUB -n 8
#BSUB -q cqueue
#BSUB -R span[hosts=1]
export g16root=/apps/software
source /apps/software/g16/bsd/g16.profile
export GAUSS_SCRDIR=/scratch
/apps/software/g16/g16 < BH-1.0-CCSD-G.inp > BH-1.0-CCSD-G.out> Done

Job <#!/bin/bash
#BSUB -J intel
#BSUB -o BH-1.0-CCSD-G.out
#BSUB -n 8
#BSUB -q cqueue
#BSUB -R span[hosts=1]
export g16root=/apps/software
source /apps/software/g16/bsd/g16.profile
export GAUSS_SCRDIR=/scratch
/apps/software/g16/g16 < BH-1.0-CCSD-G.inp > BH-1.0-CCSD-G.out> was submitted from host <mgt01> by user <lcz>.
Job was executed on host(s) <8*cnode08>, in queue <cqueue>, as user <lcz>.
</apps/users/lcz> was used as the home directory.
</apps/users/lcz/exe13/CCSD> was used as the working directory.
Started at 2022-05-22 15:50:44
Results reported at 2022-05-22 15:50:58

Your job looked like:

------------------------------------------------------------
# User input
#!/bin/bash
#BSUB -J intel
#BSUB -o BH-1.0-CCSD-G.out
#BSUB -n 8
#BSUB -q cqueue
#BSUB -R span[hosts=1]
export g16root=/apps/software
source /apps/software/g16/bsd/g16.profile
export GAUSS_SCRDIR=/scratch
/apps/software/g16/g16 < BH-1.0-CCSD-G.inp > BH-1.0-CCSD-G.out
------------------------------------------------------------

Successfully completed.

Resource usage summary:

    CPU time   :            9.85 sec.
    Max Memory :               454 MB
    Max Processes  :               5


The output (if any) follows:

