 Entering Gaussian System, Link 0=/apps/software/g16/g16
 Initial command:
 /apps/software/g16/l1.exe "/scratch/Gau-288704.inp" -scrdir="/scratch/"
 Entering Link 1 = /apps/software/g16/l1.exe PID=    288705.
  
 Copyright (c) 1988,1990,1992,1993,1995,1998,2003,2009,2016,
            Gaussian, Inc.  All Rights Reserved.
  
 This is part of the Gaussian(R) 16 program.  It is based on
 the Gaussian(R) 09 system (copyright 2009, Gaussian, Inc.),
 the Gaussian(R) 03 system (copyright 2003, Gaussian, Inc.),
 the Gaussian(R) 98 system (copyright 1998, Gaussian, Inc.),
 the Gaussian(R) 94 system (copyright 1995, Gaussian, Inc.),
 the Gaussian 92(TM) system (copyright 1992, Gaussian, Inc.),
 the Gaussian 90(TM) system (copyright 1990, Gaussian, Inc.),
 the Gaussian 88(TM) system (copyright 1988, Gaussian, Inc.),
 the Gaussian 86(TM) system (copyright 1986, Carnegie Mellon
 University), and the Gaussian 82(TM) system (copyright 1983,
 Carnegie Mellon University). Gaussian is a federally registered
 trademark of Gaussian, Inc.
  
 This software contains proprietary and confidential information,
 including trade secrets, belonging to Gaussian, Inc.
  
 This software is provided under written license and may be
 used, copied, transmitted, or stored only in accord with that
 written license.
  
 The following legend is applicable only to US Government
 contracts under FAR:
  
                    RESTRICTED RIGHTS LEGEND
  
 Use, reproduction and disclosure by the US Government is
 subject to restrictions as set forth in subparagraphs (a)
 and (c) of the Commercial Computer Software - Restricted
 Rights clause in FAR 52.227-19.
  
 Gaussian, Inc.
 340 Quinnipiac St., Bldg. 40, Wallingford CT 06492
  
  
 ---------------------------------------------------------------
 Warning -- This program may not be used in any manner that
 competes with the business of Gaussian, Inc. or will provide
 assistance to any competitor of Gaussian, Inc.  The licensee
 of this program is prohibited from giving any competitor of
 Gaussian, Inc. access to this program.  By using this program,
 the user acknowledges that Gaussian, Inc. is engaged in the
 business of creating and licensing software in the field of
 computational chemistry and represents and warrants to the
 licensee that it is not a competitor of Gaussian, Inc. and that
 it will not use this program in any manner prohibited above.
 ---------------------------------------------------------------
  

 Cite this work as:
 Gaussian 16, Revision A.03,
 M. J. Frisch, G. W. Trucks, H. B. Schlegel, G. E. Scuseria, 
 M. A. Robb, J. R. Cheeseman, G. Scalmani, V. Barone, 
 G. A. Petersson, H. Nakatsuji, X. Li, M. Caricato, A. V. Marenich, 
 J. Bloino, B. G. Janesko, R. Gomperts, B. Mennucci, H. P. Hratchian, 
 J. V. Ortiz, A. F. Izmaylov, J. L. Sonnenberg, D. Williams-Young, 
 F. Ding, F. Lipparini, F. Egidi, J. Goings, B. Peng, A. Petrone, 
 T. Henderson, D. Ranasinghe, V. G. Zakrzewski, J. Gao, N. Rega, 
 G. Zheng, W. Liang, M. Hada, M. Ehara, K. Toyota, R. Fukuda, 
 J. Hasegawa, M. Ishida, T. Nakajima, Y. Honda, O. Kitao, H. Nakai, 
 T. Vreven, K. Throssell, J. A. Montgomery, Jr., J. E. Peralta, 
 F. Ogliaro, M. J. Bearpark, J. J. Heyd, E. N. Brothers, K. N. Kudin, 
 V. N. Staroverov, T. A. Keith, R. Kobayashi, J. Normand, 
 K. Raghavachari, A. P. Rendell, J. C. Burant, S. S. Iyengar, 
 J. Tomasi, M. Cossi, J. M. Millam, M. Klene, C. Adamo, R. Cammi, 
 J. W. Ochterski, R. L. Martin, K. Morokuma, O. Farkas, 
 J. B. Foresman, and D. J. Fox, Gaussian, Inc., Wallingford CT, 2016.
 
 ******************************************
 Gaussian 16:  ES64L-G16RevA.03 25-Dec-2016
                22-May-2022 
 ******************************************
 %oldchk=BH-1.8-RHF-G.chk
 %chk=BH-1.8-CCSD-G.chk
 Copying data from "BH-1.8-RHF-G.chk" to current chk file "BH-1.8-CCSD-G.chk"
 IOpt=  2 FromEx=T IUOpen= 4 IOptOp= 5 NList=   0 IFRang= 0 IUIn= 4 IUOut= 2.
 -------------------------------------
 #p RHF/aug-cc-pVQZ guess=read CCSD=FC
 -------------------------------------
 1/38=1,172=1/1;
 2/12=2,17=6,18=5,40=1/2;
 3/5=16,6=2,7=10,11=1,25=1,30=1,116=1/1,2,3;
 4/5=1/1;
 5/5=2,38=6/2;
 8/6=4,9=120000,10=1/1,4;
 9/5=7/13;
 6/7=2,8=2,9=2,10=2/1;
 99/5=1,9=1/99;
 Leave Link    1 at Sun May 22 15:47:01 2022, MaxMem=   104857600 cpu:               0.0 elap:               0.0
 (Enter /apps/software/g16/l101.exe)
 ----------------------
 BH RHF at 1.8 Angstrom
 ----------------------
 Symbolic Z-matrix:
 Charge =  0 Multiplicity = 1
 B                     0.        0.        0. 
 H                     1.8       0.        0. 
 
 ITRead=  0  0
 MicOpt= -1 -1
 NAtoms=      2 NQM=        2 NQMF=       0 NMMI=      0 NMMIF=      0
                NMic=       0 NMicF=      0.
                    Isotopes and Nuclear Properties:
 (Nuclear quadrupole moments (NQMom) in fm**2, nuclear magnetic moments (NMagM)
  in nuclear magnetons)

  Atom         1           2
 IAtWgt=          11           1
 AtmWgt=  11.0093053   1.0078250
 NucSpn=           3           1
 AtZEff=  -0.0000000  -0.0000000
 NQMom=    4.0590000   0.0000000
 NMagM=    2.6886370   2.7928460
 AtZNuc=   5.0000000   1.0000000
 Leave Link  101 at Sun May 22 15:47:01 2022, MaxMem=   104857600 cpu:               0.1 elap:               0.1
 (Enter /apps/software/g16/l202.exe)
                          Input orientation:                          
 ---------------------------------------------------------------------
 Center     Atomic      Atomic             Coordinates (Angstroms)
 Number     Number       Type             X           Y           Z
 ---------------------------------------------------------------------
      1          5           0        0.000000    0.000000    0.000000
      2          1           0        1.800000    0.000000    0.000000
 ---------------------------------------------------------------------
 Stoichiometry    BH
 Framework group  C*V[C*(HB)]
 Deg. of freedom     1
 Full point group                 C*V     NOp   4
 Largest Abelian subgroup         C2V     NOp   4
 Largest concise Abelian subgroup C1      NOp   1
                         Standard orientation:                         
 ---------------------------------------------------------------------
 Center     Atomic      Atomic             Coordinates (Angstroms)
 Number     Number       Type             X           Y           Z
 ---------------------------------------------------------------------
      1          5           0        0.000000    0.000000    0.300000
      2          1           0        0.000000    0.000000   -1.500000
 ---------------------------------------------------------------------
 Rotational constants (GHZ):           0.0000000         168.9382155         168.9382155
 Leave Link  202 at Sun May 22 15:47:01 2022, MaxMem=   104857600 cpu:               0.0 elap:               0.0
 (Enter /apps/software/g16/l301.exe)
 Standard basis: Aug-CC-pVQZ (5D, 7F)
 Ernie: Thresh=  0.10000D-02 Tol=  0.10000D-05 Strict=F.
 Ernie:  4 primitive shells out of 54 were deleted.
 There are    68 symmetry adapted cartesian basis functions of A1  symmetry.
 There are    18 symmetry adapted cartesian basis functions of A2  symmetry.
 There are    37 symmetry adapted cartesian basis functions of B1  symmetry.
 There are    37 symmetry adapted cartesian basis functions of B2  symmetry.
 There are    50 symmetry adapted basis functions of A1  symmetry.
 There are    16 symmetry adapted basis functions of A2  symmetry.
 There are    30 symmetry adapted basis functions of B1  symmetry.
 There are    30 symmetry adapted basis functions of B2  symmetry.
   126 basis functions,   180 primitive gaussians,   160 cartesian basis functions
     3 alpha electrons        3 beta electrons
       nuclear repulsion energy         1.4699366970 Hartrees.
 IExCor=    0 DFT=F Ex=HF Corr=None ExCW=0 ScaHFX=  1.000000
 ScaDFX=  1.000000  1.000000  1.000000  1.000000 ScalE2=  1.000000  1.000000
 IRadAn=      5 IRanWt=     -1 IRanGd=            0 ICorTp=0 IEmpDi=  4
 NAtoms=    2 NActive=    2 NUniq=    2 SFac= 1.00D+00 NAtFMM=   60 NAOKFM=F Big=F
 Integral buffers will be    131072 words long.
 Raffenetti 1 integral format.
 Two-electron integral symmetry is turned on.
 Leave Link  301 at Sun May 22 15:47:01 2022, MaxMem=   104857600 cpu:               0.0 elap:               0.0
 (Enter /apps/software/g16/l302.exe)
 NPDir=0 NMtPBC=     1 NCelOv=     1 NCel=       1 NClECP=     1 NCelD=      1
         NCelK=      1 NCelE2=     1 NClLst=     1 CellRange=     0.0.
 One-electron integrals computed using PRISM.
 One-electron integral symmetry used in STVInt
 NBasis=   126 RedAO= T EigKep=  3.76D-04  NBF=    50    16    30    30
 NBsUse=   126 1.00D-06 EigRej= -1.00D+00 NBFU=    50    16    30    30
 Leave Link  302 at Sun May 22 15:47:01 2022, MaxMem=   104857600 cpu:               0.1 elap:               0.1
 (Enter /apps/software/g16/l303.exe)
 DipDrv:  MaxL=1.
 Leave Link  303 at Sun May 22 15:47:01 2022, MaxMem=   104857600 cpu:               0.0 elap:               0.0
 (Enter /apps/software/g16/l401.exe)
 Initial guess from the checkpoint file:  "BH-1.8-CCSD-G.chk"
 B after Tr=     0.000000    0.000000    0.000000
         Rot=    1.000000    0.000000    0.000000    0.000000 Ang=   0.00 deg.
 Guess basis will be translated and rotated to current coordinates.
 JPrj=2 DoOrth=T DoCkMO=T.
 Initial guess orbital symmetries:
       Occupied  (SG) (SG) (SG)
       Virtual   (PI) (PI) (SG) (SG) (PI) (PI) (SG) (SG) (PI) (PI)
                 (DLTA) (DLTA) (SG) (SG) (PI) (PI) (PI) (PI) (SG)
                 (SG) (PHI) (PHI) (DLTA) (DLTA) (PI) (PI) (DLTA)
                 (DLTA) (SG) (PI) (PI) (SG) (SG) (DLTA) (DLTA)
                 (PI) (PI) (SG) (PI) (PI) (SG) (PI) (PI) (SG) (PHI)
                 (PHI) (?A) (?A) (PI) (PI) (DLTA) (DLTA) (SG) (PHI)
                 (PHI) (DLTA) (DLTA) (SG) (PI) (PI) (DLTA) (DLTA)
                 (SG) (PHI) (PHI) (PI) (PI) (SG) (SG) (PI) (PI)
                 (DLTA) (DLTA) (SG) (DLTA) (DLTA) (PI) (PI) (SG)
                 (PI) (PI) (SG) (PI) (PI) (?A) (?A) (PHI) (PHI)
                 (DLTA) (DLTA) (DLTA) (DLTA) (PI) (PI) (SG) (PHI)
                 (PHI) (SG) (DLTA) (DLTA) (PI) (PI) (PI) (PI) (SG)
                 (SG) (PHI) (PHI) (DLTA) (DLTA) (PI) (PI) (SG)
                 (SG) (PI) (PI) (DLTA) (DLTA) (SG) (PI) (PI) (SG)
                 (SG)
 The electronic state of the initial guess is 1-SG.
 Leave Link  401 at Sun May 22 15:47:01 2022, MaxMem=   104857600 cpu:               0.1 elap:               0.1
 (Enter /apps/software/g16/l502.exe)
 Keep R1 ints in memory in symmetry-blocked form, NReq=40143665.
 FoFCou: FMM=F IPFlag=           0 FMFlag=           0 FMFlg1=           0
         NFxFlg=           0 DoJE=F BraDBF=F KetDBF=F FulRan=T
         wScrn=  0.000000 ICntrl=       600 IOpCl=  0 I1Cent=           0 NGrid=           0
         NMat0=    1 NMatS0=   8001 NMatT0=    0 NMatD0=    1 NMtDS0=    0 NMtDT0=    0
 Petite list used in FoFCou.
 Closed shell SCF:
 Using DIIS extrapolation, IDIIS=  1040.
 NGot=   104857600 LenX=    96673173 LenY=    96647132
 Requested convergence on RMS density matrix=1.00D-08 within 128 cycles.
 Requested convergence on MAX density matrix=1.00D-06.
 Requested convergence on             energy=1.00D-06.
 No special actions if energy rises.

 Cycle   1  Pass 1  IDiag  1:
 E= -25.0743797577135    
 DIIS: error= 1.26D-09 at cycle   1 NSaved=   1.
 NSaved= 1 IEnMin= 1 EnMin= -25.0743797577135     IErMin= 1 ErrMin= 1.26D-09
 ErrMax= 1.26D-09  0.00D+00 EMaxC= 1.00D-01 BMatC= 5.73D-17 BMatP= 5.73D-17
 IDIUse=1 WtCom= 1.00D+00 WtEn= 0.00D+00
 Coeff-Com:  0.100D+01
 Coeff:      0.100D+01
 Gap=     0.364 Goal=   None    Shift=    0.000
 RMSDP=2.27D-10 MaxDP=8.16D-09              OVMax= 1.52D-08

 SCF Done:  E(RHF) =  -25.0743797577     A.U. after    1 cycles
            NFock=  1  Conv=0.23D-09     -V/T= 2.0093
 KE= 2.484365695141D+01 PE=-6.060129850169D+01 EE= 9.213325095573D+00
 Leave Link  502 at Sun May 22 15:47:05 2022, MaxMem=   104857600 cpu:               3.6 elap:               3.7
 (Enter /apps/software/g16/l801.exe)
 Windowed orbitals will be sorted by symmetry type.
 ExpMin= 1.88D-02 ExpMax= 2.39D+04 ExpMxC= 2.30D+02 IAcc=3 IRadAn=         5 AccDes= 0.00D+00
 HarFok:  IExCor=  205 AccDes= 0.00D+00 IRadAn=         5 IDoV=-2 UseB2=F ITyADJ=14
 ICtDFT= 12500011 ScaDFX=  1.000000  1.000000  1.000000  1.000000
 DSYEVD-2 returned Info=        3401 IAlg= 4 N=    80 NDim=    80 NE2=     1309686 trying  DSYEV.
 Largest valence mixing into a core orbital is  3.83D-04
 Largest core mixing into a valence orbital is  1.13D-04
 Range of M.O.s used for correlation:     2   126
 NBasis=   126 NAE=     3 NBE=     3 NFC=     1 NFV=     0
 NROrb=    125 NOA=     2 NOB=     2 NVA=   123 NVB=   123

 **** Warning!!: The largest alpha MO coefficient is  0.18518455D+02

 Leave Link  801 at Sun May 22 15:47:05 2022, MaxMem=   104857600 cpu:               0.1 elap:               0.1
 (Enter /apps/software/g16/l804.exe)
 Closed-shell transformation, MDV=   104857600 ITran=4 ISComp=2.
 Unit  1 TFree=        535169 TCopy=        350885.
 Semi-Direct transformation.
 ModeAB=           2 MOrb=             2 LenV=     104240114
 LASXX=       493564 LTotXX=      493564 LenRXX=      493564
 LTotAB=      509833 MaxLAS=     3220000 LenRXY=     3220000
 NonZer=     3361750 LenScr=     5758976 LnRSAI=           0
 LnScr1=           0 LExtra=           0 Total=      9472540
 MaxDsk=          -1 SrtSym=           F ITran=            4
 DoSDTr:  NPSUse=  1
 JobTyp=0 Pass  1:  I=   1 to   2.
 (rs|ai) integrals will be sorted in core.
 Complete sort for first half transformation.
 First half transformation complete.
 Complete sort for second half transformation.
 Second half transformation complete.
 Spin components of T(2) and E(2):
     alpha-alpha T2 =       0.1454214122D-02 E2=     -0.2662079816D-02
     alpha-beta  T2 =       0.4446011265D-01 E2=     -0.7694599218D-01
     beta-beta   T2 =       0.1454214122D-02 E2=     -0.2662079816D-02
 ANorm=    0.1023410251D+01
 E2 =    -0.8227015182D-01 EUMP2 =    -0.25156649909529D+02
 Leave Link  804 at Sun May 22 15:47:10 2022, MaxMem=   104857600 cpu:               5.0 elap:               5.0
 (Enter /apps/software/g16/l913.exe)
 CIDS:  MDV=   104857600.
 Frozen-core window:  NFC=   1 NFV=   0.
 IFCWin=0 IBDFC=1 NFBD=     0     0 NFCmp=     0     0 NFFFC=     0     0
 Using DD3R+UMP44R for 1st iteration.
 Using DD4RQ for 2nd and later iterations.
 Keep R2 and R3 ints in memory in symmetry-blocked form, NReq=40146875.
 FoFCou: FMM=F IPFlag=           0 FMFlag=           0 FMFlg1=           0
         NFxFlg=           0 DoJE=F BraDBF=F KetDBF=F FulRan=T
         wScrn=  0.000000 ICntrl=       600 IOpCl=  0 I1Cent=           0 NGrid=           0
         NMat0=    1 NMatS0=   8001 NMatT0=    0 NMatD0=    1 NMtDS0=    0 NMtDT0=    0
 Petite list used in FoFCou.
 CIDS: In Core Option IDoMem=           1.
 Coupled Cluster theory with single and double substitutions
 ===========================================================
 Iterations=  50 Convergence= 0.100D-06
 Produce multiple copies of IABC intergrals
 Iteration Nr.   1
 **********************
 DD1Dir will call FoFMem   1 times, MxPair=         6
 NAB=     3 NAA=     0 NBB=     0.
 MP4(R+Q)=  0.25210069D-02
 Maximum subspace dimension=  5
 A-vector RMS=  3.0895790D-03 Max=  1.6154060D-02 conv= 1.00D-05.
 RLE energy=       -0.1003612925
 E3=       -0.17396005D-01        EUMP3=      -0.25174045914D+02
 E4(DQ)=   -0.55655834D-02        UMP4(DQ)=   -0.25179611498D+02
 E4(SDQ)=  -0.63050912D-02        UMP4(SDQ)=  -0.25180351006D+02
 VARIATIONAL ENERGIES WITH THE FIRST-ORDER WAVEFUNCTION:
 DE(Corr)= -0.97100211E-01 E(Corr)=     -25.171479969    
 NORM(A)=   0.10419092D+01
 Iteration Nr.   2
 **********************
 DD1Dir will call FoFMem   1 times, MxPair=         6
 NAB=     3 NAA=     0 NBB=     0.
 A-vector RMS=  1.0210026D-03 Max=  8.1296416D-03 conv= 1.00D-05.
 RLE energy=       -0.1095926173
 DE(Corr)= -0.10535982     E(CORR)=     -25.179739577     Delta=-8.26D-03
 NORM(A)=   0.10557171D+01
 Iteration Nr.   3
 **********************
 DD1Dir will call FoFMem   1 times, MxPair=         6
 NAB=     3 NAA=     0 NBB=     0.
 A-vector RMS=  4.6767172D-04 Max=  1.9957711D-03 conv= 1.00D-05.
 RLE energy=       -0.1102823671
 DE(Corr)= -0.10946636     E(CORR)=     -25.183846120     Delta=-4.11D-03
 NORM(A)=   0.10588446D+01
 Iteration Nr.   4
 **********************
 DD1Dir will call FoFMem   1 times, MxPair=         6
 NAB=     3 NAA=     0 NBB=     0.
 A-vector RMS=  8.6251814D-05 Max=  6.4179688D-04 conv= 1.00D-05.
 RLE energy=       -0.1105275809
 DE(Corr)= -0.11038418     E(CORR)=     -25.184763937     Delta=-9.18D-04
 NORM(A)=   0.10596081D+01
 Iteration Nr.   5
 **********************
 DD1Dir will call FoFMem   1 times, MxPair=         6
 NAB=     3 NAA=     0 NBB=     0.
 A-vector RMS=  3.6407585D-05 Max=  1.8274319D-04 conv= 1.00D-05.
 RLE energy=       -0.1105342518
 DE(Corr)= -0.11051831     E(CORR)=     -25.184898066     Delta=-1.34D-04
 NORM(A)=   0.10596957D+01
 Iteration Nr.   6
 **********************
 DD1Dir will call FoFMem   1 times, MxPair=         6
 NAB=     3 NAA=     0 NBB=     0.
 A-vector RMS=  1.0678260D-05 Max=  8.0055961D-05 conv= 1.00D-05.
 RLE energy=       -0.1105186039
 DE(Corr)= -0.11052699     E(CORR)=     -25.184906750     Delta=-8.68D-06
 NORM(A)=   0.10596882D+01
 Iteration Nr.   7
 **********************
 DD1Dir will call FoFMem   1 times, MxPair=         6
 NAB=     3 NAA=     0 NBB=     0.
 A-vector RMS=  5.6993488D-06 Max=  2.9412660D-05 conv= 1.00D-05.
 RLE energy=       -0.1105244408
 DE(Corr)= -0.11052222     E(CORR)=     -25.184901979     Delta= 4.77D-06
 NORM(A)=   0.10596975D+01
 Iteration Nr.   8
 **********************
 DD1Dir will call FoFMem   1 times, MxPair=         6
 NAB=     3 NAA=     0 NBB=     0.
 A-vector RMS=  1.5992866D-06 Max=  1.0999838D-05 conv= 1.00D-05.
 RLE energy=       -0.1105227689
 DE(Corr)= -0.11052333     E(CORR)=     -25.184903087     Delta=-1.11D-06
 NORM(A)=   0.10596968D+01
 Iteration Nr.   9
 **********************
 DD1Dir will call FoFMem   1 times, MxPair=         6
 NAB=     3 NAA=     0 NBB=     0.
 A-vector RMS=  6.7352009D-07 Max=  3.2214028D-06 conv= 1.00D-05.
 RLE energy=       -0.1105234164
 DE(Corr)= -0.11052317     E(CORR)=     -25.184902923     Delta= 1.64D-07
 NORM(A)=   0.10596980D+01
 Iteration Nr.  10
 **********************
 DD1Dir will call FoFMem   1 times, MxPair=         6
 NAB=     3 NAA=     0 NBB=     0.
 A-vector RMS=  1.5767697D-07 Max=  1.0558426D-06 conv= 1.00D-05.
 RLE energy=       -0.1105233792
 DE(Corr)= -0.11052334     E(CORR)=     -25.184903099     Delta=-1.76D-07
 NORM(A)=   0.10596982D+01
 Iteration Nr.  11
 **********************
 DD1Dir will call FoFMem   1 times, MxPair=         6
 NAB=     3 NAA=     0 NBB=     0.
 A-vector RMS=  1.0516246D-07 Max=  4.6007376D-07 conv= 1.00D-05.
 RLE energy=       -0.1105234698
 DE(Corr)= -0.11052342     E(CORR)=     -25.184903180     Delta=-8.07D-08
 NORM(A)=   0.10596984D+01
 CI/CC converged in   11 iterations to DelEn=-8.07D-08 Conv= 1.00D-07 ErrA1= 1.05D-07 Conv= 1.00D-05
 Wavefunction amplitudes converged. E(Corr)=     -25.184903180    
 Largest amplitude= 8.55D-02
 Discarding MO integrals.
 Leave Link  913 at Sun May 22 15:47:14 2022, MaxMem=   104857600 cpu:               4.0 elap:               4.0
 (Enter /apps/software/g16/l601.exe)
 Copying SCF densities to generalized density rwf, IOpCl= 0 IROHF=0.

 **********************************************************************

            Population analysis using the SCF density.

 **********************************************************************

 Orbital symmetries:
       Occupied  (SG) (SG) (SG)
       Virtual   (PI) (PI) (SG) (SG) (PI) (PI) (SG) (SG) (PI) (PI)
                 (DLTA) (DLTA) (SG) (SG) (PI) (PI) (PI) (PI) (SG)
                 (SG) (PHI) (PHI) (DLTA) (DLTA) (PI) (PI) (DLTA)
                 (DLTA) (SG) (PI) (PI) (SG) (SG) (DLTA) (DLTA)
                 (PI) (PI) (SG) (PI) (PI) (SG) (PI) (PI) (SG) (PHI)
                 (PHI) (?A) (?A) (PI) (PI) (DLTA) (DLTA) (SG) (PHI)
                 (PHI) (DLTA) (DLTA) (SG) (PI) (PI) (DLTA) (DLTA)
                 (SG) (PHI) (PHI) (PI) (PI) (SG) (SG) (PI) (PI)
                 (DLTA) (DLTA) (SG) (DLTA) (DLTA) (PI) (PI) (SG)
                 (PI) (PI) (SG) (PI) (PI) (?A) (?A) (PHI) (PHI)
                 (DLTA) (DLTA) (DLTA) (DLTA) (PI) (PI) (SG) (PHI)
                 (PHI) (SG) (DLTA) (DLTA) (PI) (PI) (PI) (PI) (SG)
                 (SG) (PHI) (PHI) (DLTA) (DLTA) (PI) (PI) (SG)
                 (SG) (PI) (PI) (DLTA) (DLTA) (SG) (PI) (PI) (SG)
                 (SG)
 The electronic state is 1-SG.
 Alpha  occ. eigenvalues --   -7.75676  -0.56146  -0.34727
 Alpha virt. eigenvalues --    0.01673   0.01673   0.03175   0.05037   0.06977
 Alpha virt. eigenvalues --    0.06977   0.09723   0.12037   0.14005   0.14005
 Alpha virt. eigenvalues --    0.14316   0.14316   0.20392   0.23380   0.27192
 Alpha virt. eigenvalues --    0.27192   0.29984   0.29984   0.32926   0.37255
 Alpha virt. eigenvalues --    0.45639   0.45639   0.46177   0.46177   0.48383
 Alpha virt. eigenvalues --    0.48383   0.48926   0.48926   0.51700   0.55068
 Alpha virt. eigenvalues --    0.55068   0.58431   0.67081   0.78492   0.78492
 Alpha virt. eigenvalues --    0.79907   0.79907   0.80534   0.96703   0.96703
 Alpha virt. eigenvalues --    1.12807   1.16828   1.16828   1.28419   1.34283
 Alpha virt. eigenvalues --    1.34283   1.35838   1.35838   1.36056   1.36056
 Alpha virt. eigenvalues --    1.37751   1.37751   1.39382   1.42312   1.42312
 Alpha virt. eigenvalues --    1.42623   1.42623   1.49443   1.50340   1.50340
 Alpha virt. eigenvalues --    1.52743   1.52743   1.60251   1.74540   1.74540
 Alpha virt. eigenvalues --    1.81601   1.81601   1.95363   2.02886   2.10521
 Alpha virt. eigenvalues --    2.10521   2.12971   2.12971   2.22915   2.60416
 Alpha virt. eigenvalues --    2.60416   2.81496   2.81496   3.17085   3.17890
 Alpha virt. eigenvalues --    3.17890   3.34745   3.73478   3.73478   3.89355
 Alpha virt. eigenvalues --    3.89355   3.92599   3.92599   3.92667   3.92667
 Alpha virt. eigenvalues --    3.99682   3.99682   3.99744   3.99744   4.04334
 Alpha virt. eigenvalues --    4.05567   4.05567   4.09309   4.11886   4.11886
 Alpha virt. eigenvalues --    4.23272   4.23272   4.44250   4.44250   4.60519
 Alpha virt. eigenvalues --    4.98698   6.65073   6.65073   6.76783   6.76783
 Alpha virt. eigenvalues --    6.85261   6.85261   7.12447   7.82829   8.32042
 Alpha virt. eigenvalues --    8.32042   8.53269   8.53269   8.83361   8.87808
 Alpha virt. eigenvalues --    8.87808   9.46377  13.69764
          Condensed to atoms (all electrons):
               1          2
     1  B    4.542824   0.286340
     2  H    0.286340   0.884497
 Mulliken charges:
               1
     1  B    0.170836
     2  H   -0.170836
 Sum of Mulliken charges =  -0.00000
 Mulliken charges with hydrogens summed into heavy atoms:
               1
     1  B   -0.000000
 Electronic spatial extent (au):  <R**2>=             29.4830
 Charge=             -0.0000 electrons
 Dipole moment (field-independent basis, Debye):
    X=              0.0000    Y=              0.0000    Z=              0.4239  Tot=              0.4239
 Quadrupole moment (field-independent basis, Debye-Ang):
   XX=             -7.2998   YY=             -7.2998   ZZ=            -12.0873
   XY=              0.0000   XZ=              0.0000   YZ=              0.0000
 Traceless Quadrupole moment (field-independent basis, Debye-Ang):
   XX=              1.5958   YY=              1.5958   ZZ=             -3.1916
   XY=              0.0000   XZ=              0.0000   YZ=              0.0000
 Octapole moment (field-independent basis, Debye-Ang**2):
  XXX=              0.0000  YYY=              0.0000  ZZZ=              0.3746  XYY=              0.0000
  XXY=              0.0000  XXZ=              0.4226  XZZ=              0.0000  YZZ=              0.0000
  YYZ=              0.4226  XYZ=              0.0000
 Hexadecapole moment (field-independent basis, Debye-Ang**3):
 XXXX=            -10.5896 YYYY=            -10.5896 ZZZZ=            -48.8368 XXXY=              0.0000
 XXXZ=              0.0000 YYYX=              0.0000 YYYZ=              0.0000 ZZZX=              0.0000
 ZZZY=              0.0000 XXYY=             -3.5299 XXZZ=            -10.0582 YYZZ=            -10.0582
 XXYZ=              0.0000 YYXZ=              0.0000 ZZXY=              0.0000
 N-N= 1.469936697000D+00 E-N=-6.060129850359D+01  KE= 2.484365695141D+01
 Symmetry A1   KE= 2.484365695141D+01
 Symmetry A2   KE= 1.124891911047D-51
 Symmetry B1   KE= 0.000000000000D+00
 Symmetry B2   KE= 0.000000000000D+00
 Leave Link  601 at Sun May 22 15:47:14 2022, MaxMem=   104857600 cpu:               0.1 elap:               0.0
 (Enter /apps/software/g16/l9999.exe)
 1\1\GINC-CNODE10\SP\RCCSD-FC\Aug-CC-pVQZ\B1H1\LCZ\22-May-2022\0\\#p RH
 F/aug-cc-pVQZ guess=read CCSD=FC\\BH RHF at 1.8 Angstrom\\0,1\B,0,0.,0
 .,0.\H,0,1.8,0.,0.\\Version=ES64L-G16RevA.03\State=1-SG\HF=-25.0743798
 \MP2=-25.1566499\MP3=-25.1740459\MP4D=-25.1821325\MP4DQ=-25.1796115\MP
 4SDQ=-25.180351\CCSD=-25.1849032\RMSD=2.266e-10\PG=C*V [C*(H1B1)]\\@


 It is also a good rule not to put too much confidence in
 experimental results until they have been confirmed by
 Theory.
                             -- Sir Arthur Eddington
 Job cpu time:       0 days  0 hours  0 minutes 13.4 seconds.
 Elapsed time:       0 days  0 hours  0 minutes 13.4 seconds.
 File lengths (MBytes):  RWF=     81 Int=      0 D2E=      0 Chk=     67 Scr=      1
 Normal termination of Gaussian 16 at Sun May 22 15:47:14 2022.

Sender: Unischeduler System <lcz@mgt01>
Subject: Job 134048: <#!/bin/bash
#BSUB -J intel
#BSUB -o BH-1.8-CCSD-G.out
#BSUB -n 8
#BSUB -q cqueue
#BSUB -R span[hosts=1]
export g16root=/apps/software
source /apps/software/g16/bsd/g16.profile
export GAUSS_SCRDIR=/scratch
/apps/software/g16/g16 < BH-1.8-CCSD-G.inp > BH-1.8-CCSD-G.out> Done

Job <#!/bin/bash
#BSUB -J intel
#BSUB -o BH-1.8-CCSD-G.out
#BSUB -n 8
#BSUB -q cqueue
#BSUB -R span[hosts=1]
export g16root=/apps/software
source /apps/software/g16/bsd/g16.profile
export GAUSS_SCRDIR=/scratch
/apps/software/g16/g16 < BH-1.8-CCSD-G.inp > BH-1.8-CCSD-G.out> was submitted from host <mgt01> by user <lcz>.
Job was executed on host(s) <8*cnode10>, in queue <cqueue>, as user <lcz>.
</apps/users/lcz> was used as the home directory.
</apps/users/lcz/exe13/CCSD> was used as the working directory.
Started at 2022-05-22 15:47:00
Results reported at 2022-05-22 15:47:14

Your job looked like:

------------------------------------------------------------
# User input
#!/bin/bash
#BSUB -J intel
#BSUB -o BH-1.8-CCSD-G.out
#BSUB -n 8
#BSUB -q cqueue
#BSUB -R span[hosts=1]
export g16root=/apps/software
source /apps/software/g16/bsd/g16.profile
export GAUSS_SCRDIR=/scratch
/apps/software/g16/g16 < BH-1.8-CCSD-G.inp > BH-1.8-CCSD-G.out
------------------------------------------------------------

Successfully completed.

Resource usage summary:

    CPU time   :            8.11 sec.
    Max Memory :               118 MB
    Max Processes  :               5


The output (if any) follows:

