 Entering Gaussian System, Link 0=/apps/software/g16/g16
 Initial command:
 /apps/software/g16/l1.exe "/scratch/Gau-312284.inp" -scrdir="/scratch/"
 Entering Link 1 = /apps/software/g16/l1.exe PID=    312285.
  
 Copyright (c) 1988,1990,1992,1993,1995,1998,2003,2009,2016,
            Gaussian, Inc.  All Rights Reserved.
  
 This is part of the Gaussian(R) 16 program.  It is based on
 the Gaussian(R) 09 system (copyright 2009, Gaussian, Inc.),
 the Gaussian(R) 03 system (copyright 2003, Gaussian, Inc.),
 the Gaussian(R) 98 system (copyright 1998, Gaussian, Inc.),
 the Gaussian(R) 94 system (copyright 1995, Gaussian, Inc.),
 the Gaussian 92(TM) system (copyright 1992, Gaussian, Inc.),
 the Gaussian 90(TM) system (copyright 1990, Gaussian, Inc.),
 the Gaussian 88(TM) system (copyright 1988, Gaussian, Inc.),
 the Gaussian 86(TM) system (copyright 1986, Carnegie Mellon
 University), and the Gaussian 82(TM) system (copyright 1983,
 Carnegie Mellon University). Gaussian is a federally registered
 trademark of Gaussian, Inc.
  
 This software contains proprietary and confidential information,
 including trade secrets, belonging to Gaussian, Inc.
  
 This software is provided under written license and may be
 used, copied, transmitted, or stored only in accord with that
 written license.
  
 The following legend is applicable only to US Government
 contracts under FAR:
  
                    RESTRICTED RIGHTS LEGEND
  
 Use, reproduction and disclosure by the US Government is
 subject to restrictions as set forth in subparagraphs (a)
 and (c) of the Commercial Computer Software - Restricted
 Rights clause in FAR 52.227-19.
  
 Gaussian, Inc.
 340 Quinnipiac St., Bldg. 40, Wallingford CT 06492
  
  
 ---------------------------------------------------------------
 Warning -- This program may not be used in any manner that
 competes with the business of Gaussian, Inc. or will provide
 assistance to any competitor of Gaussian, Inc.  The licensee
 of this program is prohibited from giving any competitor of
 Gaussian, Inc. access to this program.  By using this program,
 the user acknowledges that Gaussian, Inc. is engaged in the
 business of creating and licensing software in the field of
 computational chemistry and represents and warrants to the
 licensee that it is not a competitor of Gaussian, Inc. and that
 it will not use this program in any manner prohibited above.
 ---------------------------------------------------------------
  

 Cite this work as:
 Gaussian 16, Revision A.03,
 M. J. Frisch, G. W. Trucks, H. B. Schlegel, G. E. Scuseria, 
 M. A. Robb, J. R. Cheeseman, G. Scalmani, V. Barone, 
 G. A. Petersson, H. Nakatsuji, X. Li, M. Caricato, A. V. Marenich, 
 J. Bloino, B. G. Janesko, R. Gomperts, B. Mennucci, H. P. Hratchian, 
 J. V. Ortiz, A. F. Izmaylov, J. L. Sonnenberg, D. Williams-Young, 
 F. Ding, F. Lipparini, F. Egidi, J. Goings, B. Peng, A. Petrone, 
 T. Henderson, D. Ranasinghe, V. G. Zakrzewski, J. Gao, N. Rega, 
 G. Zheng, W. Liang, M. Hada, M. Ehara, K. Toyota, R. Fukuda, 
 J. Hasegawa, M. Ishida, T. Nakajima, Y. Honda, O. Kitao, H. Nakai, 
 T. Vreven, K. Throssell, J. A. Montgomery, Jr., J. E. Peralta, 
 F. Ogliaro, M. J. Bearpark, J. J. Heyd, E. N. Brothers, K. N. Kudin, 
 V. N. Staroverov, T. A. Keith, R. Kobayashi, J. Normand, 
 K. Raghavachari, A. P. Rendell, J. C. Burant, S. S. Iyengar, 
 J. Tomasi, M. Cossi, J. M. Millam, M. Klene, C. Adamo, R. Cammi, 
 J. W. Ochterski, R. L. Martin, K. Morokuma, O. Farkas, 
 J. B. Foresman, and D. J. Fox, Gaussian, Inc., Wallingford CT, 2016.
 
 ******************************************
 Gaussian 16:  ES64L-G16RevA.03 25-Dec-2016
                22-May-2022 
 ******************************************
 %oldchk=BH-1.3-RHF-G.chk
 %chk=BH-1.3-CCSD-G.chk
 Copying data from "BH-1.3-RHF-G.chk" to current chk file "BH-1.3-CCSD-G.chk"
 IOpt=  2 FromEx=T IUOpen= 4 IOptOp= 5 NList=   0 IFRang= 0 IUIn= 4 IUOut= 2.
 -------------------------------------
 #p RHF/aug-cc-pVQZ guess=read CCSD=FC
 -------------------------------------
 1/38=1,172=1/1;
 2/12=2,17=6,18=5,40=1/2;
 3/5=16,6=2,7=10,11=1,25=1,30=1,116=1/1,2,3;
 4/5=1/1;
 5/5=2,38=6/2;
 8/6=4,9=120000,10=1/1,4;
 9/5=7/13;
 6/7=2,8=2,9=2,10=2/1;
 99/5=1,9=1/99;
 Leave Link    1 at Sun May 22 16:02:32 2022, MaxMem=   104857600 cpu:               0.0 elap:               0.0
 (Enter /apps/software/g16/l101.exe)
 ----------------------
 BH RHF at 1.3 Angstrom
 ----------------------
 Symbolic Z-matrix:
 Charge =  0 Multiplicity = 1
 B                     0.        0.        0. 
 H                     1.3       0.        0. 
 
 ITRead=  0  0
 MicOpt= -1 -1
 NAtoms=      2 NQM=        2 NQMF=       0 NMMI=      0 NMMIF=      0
                NMic=       0 NMicF=      0.
                    Isotopes and Nuclear Properties:
 (Nuclear quadrupole moments (NQMom) in fm**2, nuclear magnetic moments (NMagM)
  in nuclear magnetons)

  Atom         1           2
 IAtWgt=          11           1
 AtmWgt=  11.0093053   1.0078250
 NucSpn=           3           1
 AtZEff=  -0.0000000  -0.0000000
 NQMom=    4.0590000   0.0000000
 NMagM=    2.6886370   2.7928460
 AtZNuc=   5.0000000   1.0000000
 Leave Link  101 at Sun May 22 16:02:32 2022, MaxMem=   104857600 cpu:               0.1 elap:               0.1
 (Enter /apps/software/g16/l202.exe)
                          Input orientation:                          
 ---------------------------------------------------------------------
 Center     Atomic      Atomic             Coordinates (Angstroms)
 Number     Number       Type             X           Y           Z
 ---------------------------------------------------------------------
      1          5           0        0.000000    0.000000    0.000000
      2          1           0        1.300000    0.000000    0.000000
 ---------------------------------------------------------------------
 Stoichiometry    BH
 Framework group  C*V[C*(HB)]
 Deg. of freedom     1
 Full point group                 C*V     NOp   4
 Largest Abelian subgroup         C2V     NOp   4
 Largest concise Abelian subgroup C1      NOp   1
                         Standard orientation:                         
 ---------------------------------------------------------------------
 Center     Atomic      Atomic             Coordinates (Angstroms)
 Number     Number       Type             X           Y           Z
 ---------------------------------------------------------------------
      1          5           0        0.000000    0.000000    0.216667
      2          1           0        0.000000    0.000000   -1.083333
 ---------------------------------------------------------------------
 Rotational constants (GHZ):           0.0000000         323.8815493         323.8815493
 Leave Link  202 at Sun May 22 16:02:32 2022, MaxMem=   104857600 cpu:               0.0 elap:               0.0
 (Enter /apps/software/g16/l301.exe)
 Standard basis: Aug-CC-pVQZ (5D, 7F)
 Ernie: Thresh=  0.10000D-02 Tol=  0.10000D-05 Strict=F.
 Ernie:  4 primitive shells out of 54 were deleted.
 There are    68 symmetry adapted cartesian basis functions of A1  symmetry.
 There are    18 symmetry adapted cartesian basis functions of A2  symmetry.
 There are    37 symmetry adapted cartesian basis functions of B1  symmetry.
 There are    37 symmetry adapted cartesian basis functions of B2  symmetry.
 There are    50 symmetry adapted basis functions of A1  symmetry.
 There are    16 symmetry adapted basis functions of A2  symmetry.
 There are    30 symmetry adapted basis functions of B1  symmetry.
 There are    30 symmetry adapted basis functions of B2  symmetry.
   126 basis functions,   180 primitive gaussians,   160 cartesian basis functions
     3 alpha electrons        3 beta electrons
       nuclear repulsion energy         2.0352969651 Hartrees.
 IExCor=    0 DFT=F Ex=HF Corr=None ExCW=0 ScaHFX=  1.000000
 ScaDFX=  1.000000  1.000000  1.000000  1.000000 ScalE2=  1.000000  1.000000
 IRadAn=      5 IRanWt=     -1 IRanGd=            0 ICorTp=0 IEmpDi=  4
 NAtoms=    2 NActive=    2 NUniq=    2 SFac= 1.00D+00 NAtFMM=   60 NAOKFM=F Big=F
 Integral buffers will be    131072 words long.
 Raffenetti 1 integral format.
 Two-electron integral symmetry is turned on.
 Leave Link  301 at Sun May 22 16:02:32 2022, MaxMem=   104857600 cpu:               0.1 elap:               0.1
 (Enter /apps/software/g16/l302.exe)
 NPDir=0 NMtPBC=     1 NCelOv=     1 NCel=       1 NClECP=     1 NCelD=      1
         NCelK=      1 NCelE2=     1 NClLst=     1 CellRange=     0.0.
 One-electron integrals computed using PRISM.
 One-electron integral symmetry used in STVInt
 NBasis=   126 RedAO= T EigKep=  1.36D-04  NBF=    50    16    30    30
 NBsUse=   126 1.00D-06 EigRej= -1.00D+00 NBFU=    50    16    30    30
 Leave Link  302 at Sun May 22 16:02:32 2022, MaxMem=   104857600 cpu:               0.1 elap:               0.1
 (Enter /apps/software/g16/l303.exe)
 DipDrv:  MaxL=1.
 Leave Link  303 at Sun May 22 16:02:33 2022, MaxMem=   104857600 cpu:               0.0 elap:               0.0
 (Enter /apps/software/g16/l401.exe)
 Initial guess from the checkpoint file:  "BH-1.3-CCSD-G.chk"
 B after Tr=     0.000000    0.000000    0.000000
         Rot=    1.000000    0.000000    0.000000    0.000000 Ang=   0.00 deg.
 Guess basis will be translated and rotated to current coordinates.
 JPrj=2 DoOrth=T DoCkMO=T.
 Initial guess orbital symmetries:
       Occupied  (SG) (SG) (SG)
       Virtual   (PI) (PI) (SG) (SG) (PI) (PI) (SG) (PI) (PI) (DLTA)
                 (DLTA) (SG) (SG) (SG) (PI) (PI) (PI) (PI) (SG)
                 (SG) (DLTA) (DLTA) (PHI) (PHI) (PI) (PI) (DLTA)
                 (DLTA) (SG) (SG) (PI) (PI) (SG) (PI) (PI) (DLTA)
                 (DLTA) (SG) (PI) (PI) (SG) (PI) (PI) (SG) (PHI)
                 (PHI) (?A) (?A) (DLTA) (DLTA) (PHI) (PHI) (SG)
                 (PI) (PI) (DLTA) (DLTA) (SG) (PI) (PI) (DLTA)
                 (DLTA) (SG) (PI) (PI) (PHI) (PHI) (SG) (DLTA)
                 (DLTA) (PI) (PI) (SG) (SG) (DLTA) (DLTA) (PI)
                 (PI) (PI) (PI) (SG) (SG) (?A) (?A) (PI) (PI) (PHI)
                 (PHI) (DLTA) (DLTA) (PHI) (PHI) (DLTA) (DLTA)
                 (SG) (PI) (PI) (DLTA) (DLTA) (PI) (PI) (SG) (SG)
                 (PI) (PI) (SG) (PHI) (PHI) (DLTA) (DLTA) (SG)
                 (PI) (PI) (SG) (PI) (PI) (DLTA) (DLTA) (PI) (PI)
                 (SG) (SG) (SG)
 The electronic state of the initial guess is 1-SG.
 Leave Link  401 at Sun May 22 16:02:33 2022, MaxMem=   104857600 cpu:               0.1 elap:               0.1
 (Enter /apps/software/g16/l502.exe)
 Keep R1 ints in memory in symmetry-blocked form, NReq=40143665.
 FoFCou: FMM=F IPFlag=           0 FMFlag=           0 FMFlg1=           0
         NFxFlg=           0 DoJE=F BraDBF=F KetDBF=F FulRan=T
         wScrn=  0.000000 ICntrl=       600 IOpCl=  0 I1Cent=           0 NGrid=           0
         NMat0=    1 NMatS0=   8001 NMatT0=    0 NMatD0=    1 NMtDS0=    0 NMtDT0=    0
 Petite list used in FoFCou.
 Closed shell SCF:
 Using DIIS extrapolation, IDIIS=  1040.
 NGot=   104857600 LenX=    96673173 LenY=    96647132
 Requested convergence on RMS density matrix=1.00D-08 within 128 cycles.
 Requested convergence on MAX density matrix=1.00D-06.
 Requested convergence on             energy=1.00D-06.
 No special actions if energy rises.

 Cycle   1  Pass 1  IDiag  1:
 E= -25.1292620378920    
 DIIS: error= 3.66D-09 at cycle   1 NSaved=   1.
 NSaved= 1 IEnMin= 1 EnMin= -25.1292620378920     IErMin= 1 ErrMin= 3.66D-09
 ErrMax= 3.66D-09  0.00D+00 EMaxC= 1.00D-01 BMatC= 4.38D-16 BMatP= 4.38D-16
 IDIUse=1 WtCom= 1.00D+00 WtEn= 0.00D+00
 Coeff-Com:  0.100D+01
 Coeff:      0.100D+01
 Gap=     0.374 Goal=   None    Shift=    0.000
 RMSDP=4.64D-10 MaxDP=2.09D-08              OVMax= 2.22D-08

 SCF Done:  E(RHF) =  -25.1292620379     A.U. after    1 cycles
            NFock=  1  Conv=0.46D-09     -V/T= 2.0027
 KE= 2.506235243923D+01 PE=-6.203711273972D+01 EE= 9.810201297526D+00
 Leave Link  502 at Sun May 22 16:02:36 2022, MaxMem=   104857600 cpu:               3.6 elap:               3.6
 (Enter /apps/software/g16/l801.exe)
 Windowed orbitals will be sorted by symmetry type.
 ExpMin= 1.88D-02 ExpMax= 2.39D+04 ExpMxC= 2.30D+02 IAcc=3 IRadAn=         5 AccDes= 0.00D+00
 HarFok:  IExCor=  205 AccDes= 0.00D+00 IRadAn=         5 IDoV=-2 UseB2=F ITyADJ=14
 ICtDFT= 12500011 ScaDFX=  1.000000  1.000000  1.000000  1.000000
 DSYEVD-2 returned Info=        3401 IAlg= 4 N=    80 NDim=    80 NE2=     1309686 trying  DSYEV.
 Largest valence mixing into a core orbital is  3.51D-04
 Largest core mixing into a valence orbital is  6.20D-05
 Range of M.O.s used for correlation:     2   126
 NBasis=   126 NAE=     3 NBE=     3 NFC=     1 NFV=     0
 NROrb=    125 NOA=     2 NOB=     2 NVA=   123 NVB=   123

 **** Warning!!: The largest alpha MO coefficient is  0.23531069D+02

 Leave Link  801 at Sun May 22 16:02:36 2022, MaxMem=   104857600 cpu:               0.1 elap:               0.1
 (Enter /apps/software/g16/l804.exe)
 Closed-shell transformation, MDV=   104857600 ITran=4 ISComp=2.
 Unit  1 TFree=        535169 TCopy=        350885.
 Semi-Direct transformation.
 ModeAB=           2 MOrb=             2 LenV=     104239918
 LASXX=       493564 LTotXX=      493564 LenRXX=      493564
 LTotAB=      509833 MaxLAS=     3220000 LenRXY=     3220000
 NonZer=     3361750 LenScr=     5758976 LnRSAI=           0
 LnScr1=           0 LExtra=           0 Total=      9472540
 MaxDsk=          -1 SrtSym=           F ITran=            4
 DoSDTr:  NPSUse=  1
 JobTyp=0 Pass  1:  I=   1 to   2.
 (rs|ai) integrals will be sorted in core.
 Complete sort for first half transformation.
 First half transformation complete.
 Complete sort for second half transformation.
 Second half transformation complete.
 Spin components of T(2) and E(2):
     alpha-alpha T2 =       0.1202867773D-02 E2=     -0.2569671837D-02
     alpha-beta  T2 =       0.3567394904D-01 E2=     -0.7377462845D-01
     beta-beta   T2 =       0.1202867773D-02 E2=     -0.2569671837D-02
 ANorm=    0.1018861956D+01
 E2 =    -0.7891397213D-01 EUMP2 =    -0.25208176010020D+02
 Leave Link  804 at Sun May 22 16:02:42 2022, MaxMem=   104857600 cpu:               5.2 elap:               5.2
 (Enter /apps/software/g16/l913.exe)
 CIDS:  MDV=   104857600.
 Frozen-core window:  NFC=   1 NFV=   0.
 IFCWin=0 IBDFC=1 NFBD=     0     0 NFCmp=     0     0 NFFFC=     0     0
 Using DD3R+UMP44R for 1st iteration.
 Using DD4RQ for 2nd and later iterations.
 Keep R2 and R3 ints in memory in symmetry-blocked form, NReq=40146875.
 FoFCou: FMM=F IPFlag=           0 FMFlag=           0 FMFlg1=           0
         NFxFlg=           0 DoJE=F BraDBF=F KetDBF=F FulRan=T
         wScrn=  0.000000 ICntrl=       600 IOpCl=  0 I1Cent=           0 NGrid=           0
         NMat0=    1 NMatS0=   8001 NMatT0=    0 NMatD0=    1 NMtDS0=    0 NMtDT0=    0
 Petite list used in FoFCou.
 CIDS: In Core Option IDoMem=           1.
 Coupled Cluster theory with single and double substitutions
 ===========================================================
 Iterations=  50 Convergence= 0.100D-06
 Produce multiple copies of IABC intergrals
 Iteration Nr.   1
 **********************
 DD1Dir will call FoFMem   1 times, MxPair=         6
 NAB=     3 NAA=     0 NBB=     0.
 MP4(R+Q)=  0.19087760D-02
 Maximum subspace dimension=  5
 A-vector RMS=  2.0564091D-03 Max=  1.0763539D-02 conv= 1.00D-05.
 RLE energy=       -0.0946604644
 E3=       -0.15055240D-01        EUMP3=      -0.25223231250D+02
 E4(DQ)=   -0.44240453D-02        UMP4(DQ)=   -0.25227655296D+02
 E4(SDQ)=  -0.47537067D-02        UMP4(SDQ)=  -0.25227984957D+02
 VARIATIONAL ENERGIES WITH THE FIRST-ORDER WAVEFUNCTION:
 DE(Corr)= -0.92041087E-01 E(Corr)=     -25.221303125    
 NORM(A)=   0.10325190D+01
 Iteration Nr.   2
 **********************
 DD1Dir will call FoFMem   1 times, MxPair=         6
 NAB=     3 NAA=     0 NBB=     0.
 A-vector RMS=  7.3566202D-04 Max=  6.6889165D-03 conv= 1.00D-05.
 RLE energy=       -0.1014336589
 DE(Corr)= -0.98327418E-01 E(CORR)=     -25.227589456     Delta=-6.29D-03
 NORM(A)=   0.10423546D+01
 Iteration Nr.   3
 **********************
 DD1Dir will call FoFMem   1 times, MxPair=         6
 NAB=     3 NAA=     0 NBB=     0.
 A-vector RMS=  3.6628060D-04 Max=  2.6278887D-03 conv= 1.00D-05.
 RLE energy=       -0.1022118054
 DE(Corr)= -0.10140139     E(CORR)=     -25.230663423     Delta=-3.07D-03
 NORM(A)=   0.10458577D+01
 Iteration Nr.   4
 **********************
 DD1Dir will call FoFMem   1 times, MxPair=         6
 NAB=     3 NAA=     0 NBB=     0.
 A-vector RMS=  1.0448059D-04 Max=  1.0466229D-03 conv= 1.00D-05.
 RLE energy=       -0.1024113570
 DE(Corr)= -0.10227068     E(CORR)=     -25.231532716     Delta=-8.69D-04
 NORM(A)=   0.10467525D+01
 Iteration Nr.   5
 **********************
 DD1Dir will call FoFMem   1 times, MxPair=         6
 NAB=     3 NAA=     0 NBB=     0.
 A-vector RMS=  3.9810792D-05 Max=  3.1426406D-04 conv= 1.00D-05.
 RLE energy=       -0.1024106993
 DE(Corr)= -0.10239556     E(CORR)=     -25.231657599     Delta=-1.25D-04
 NORM(A)=   0.10469249D+01
 Iteration Nr.   6
 **********************
 DD1Dir will call FoFMem   1 times, MxPair=         6
 NAB=     3 NAA=     0 NBB=     0.
 A-vector RMS=  1.7015712D-05 Max=  1.1317626D-04 conv= 1.00D-05.
 RLE energy=       -0.1024014595
 DE(Corr)= -0.10240646     E(CORR)=     -25.231668498     Delta=-1.09D-05
 NORM(A)=   0.10469519D+01
 Iteration Nr.   7
 **********************
 DD1Dir will call FoFMem   1 times, MxPair=         6
 NAB=     3 NAA=     0 NBB=     0.
 A-vector RMS=  7.0289434D-06 Max=  2.4492426D-05 conv= 1.00D-05.
 RLE energy=       -0.1024092471
 DE(Corr)= -0.10240498     E(CORR)=     -25.231667015     Delta= 1.48D-06
 NORM(A)=   0.10469671D+01
 Iteration Nr.   8
 **********************
 DD1Dir will call FoFMem   1 times, MxPair=         6
 NAB=     3 NAA=     0 NBB=     0.
 A-vector RMS=  3.3604390D-06 Max=  1.4686764D-05 conv= 1.00D-05.
 RLE energy=       -0.1024067804
 DE(Corr)= -0.10240734     E(CORR)=     -25.231669377     Delta=-2.36D-06
 NORM(A)=   0.10469648D+01
 Iteration Nr.   9
 **********************
 DD1Dir will call FoFMem   1 times, MxPair=         6
 NAB=     3 NAA=     0 NBB=     0.
 A-vector RMS=  1.2695932D-06 Max=  5.0218558D-06 conv= 1.00D-05.
 RLE energy=       -0.1024071075
 DE(Corr)= -0.10240697     E(CORR)=     -25.231669005     Delta= 3.71D-07
 NORM(A)=   0.10469653D+01
 Iteration Nr.  10
 **********************
 DD1Dir will call FoFMem   1 times, MxPair=         6
 NAB=     3 NAA=     0 NBB=     0.
 A-vector RMS=  4.6686283D-07 Max=  2.1716662D-06 conv= 1.00D-05.
 RLE energy=       -0.1024070197
 DE(Corr)= -0.10240702     E(CORR)=     -25.231669054     Delta=-4.86D-08
 NORM(A)=   0.10469654D+01
 CI/CC converged in   10 iterations to DelEn=-4.86D-08 Conv= 1.00D-07 ErrA1= 4.67D-07 Conv= 1.00D-05
 Wavefunction amplitudes converged. E(Corr)=     -25.231669054    
 Largest amplitude= 5.49D-02
 Discarding MO integrals.
 Leave Link  913 at Sun May 22 16:02:46 2022, MaxMem=   104857600 cpu:               4.0 elap:               4.0
 (Enter /apps/software/g16/l601.exe)
 Copying SCF densities to generalized density rwf, IOpCl= 0 IROHF=0.

 **********************************************************************

            Population analysis using the SCF density.

 **********************************************************************

 Orbital symmetries:
       Occupied  (SG) (SG) (SG)
       Virtual   (PI) (PI) (SG) (SG) (PI) (PI) (SG) (PI) (PI) (DLTA)
                 (DLTA) (SG) (SG) (SG) (PI) (PI) (PI) (PI) (SG)
                 (SG) (DLTA) (DLTA) (PHI) (PHI) (PI) (PI) (DLTA)
                 (DLTA) (SG) (SG) (PI) (PI) (SG) (PI) (PI) (DLTA)
                 (DLTA) (SG) (PI) (PI) (SG) (PI) (PI) (SG) (PHI)
                 (PHI) (?A) (?A) (DLTA) (DLTA) (PHI) (PHI) (SG)
                 (PI) (PI) (DLTA) (DLTA) (SG) (PI) (PI) (DLTA)
                 (DLTA) (SG) (PI) (PI) (PHI) (PHI) (SG) (DLTA)
                 (DLTA) (PI) (PI) (SG) (SG) (DLTA) (DLTA) (PI)
                 (PI) (PI) (PI) (SG) (SG) (?A) (?A) (PI) (PI) (PHI)
                 (PHI) (DLTA) (DLTA) (PHI) (PHI) (DLTA) (DLTA)
                 (SG) (PI) (PI) (DLTA) (DLTA) (PI) (PI) (SG) (SG)
                 (PI) (PI) (SG) (PHI) (PHI) (DLTA) (DLTA) (SG)
                 (PI) (PI) (SG) (PI) (PI) (DLTA) (DLTA) (PI) (PI)
                 (SG) (SG) (SG)
 The electronic state is 1-SG.
 Alpha  occ. eigenvalues --   -7.69465  -0.63255  -0.34999
 Alpha virt. eigenvalues --    0.02361   0.02361   0.03144   0.04588   0.07807
 Alpha virt. eigenvalues --    0.07807   0.10918   0.13619   0.13619   0.14520
 Alpha virt. eigenvalues --    0.14520   0.14995   0.19200   0.25845   0.27221
 Alpha virt. eigenvalues --    0.27221   0.31373   0.31373   0.38807   0.40341
 Alpha virt. eigenvalues --    0.45632   0.45632   0.46075   0.46075   0.48279
 Alpha virt. eigenvalues --    0.48279   0.49976   0.49976   0.53435   0.54292
 Alpha virt. eigenvalues --    0.58504   0.58504   0.74605   0.78174   0.78174
 Alpha virt. eigenvalues --    0.80249   0.80249   0.83320   1.02514   1.02514
 Alpha virt. eigenvalues --    1.14027   1.19472   1.19472   1.35384   1.36636
 Alpha virt. eigenvalues --    1.36636   1.36826   1.36826   1.38319   1.38319
 Alpha virt. eigenvalues --    1.43788   1.43788   1.44101   1.44802   1.44802
 Alpha virt. eigenvalues --    1.45835   1.45835   1.54896   1.57855   1.57855
 Alpha virt. eigenvalues --    1.61861   1.61861   1.70262   1.85254   1.85254
 Alpha virt. eigenvalues --    1.86940   1.86940   1.92531   2.07527   2.07527
 Alpha virt. eigenvalues --    2.20503   2.20503   2.30508   2.48923   2.98497
 Alpha virt. eigenvalues --    2.98497   3.06038   3.06038   3.26903   3.26903
 Alpha virt. eigenvalues --    3.30108   3.44122   3.91610   3.91610   3.91979
 Alpha virt. eigenvalues --    3.91979   3.93297   3.93297   3.99054   3.99054
 Alpha virt. eigenvalues --    4.09002   4.09002   4.10870   4.10870   4.13952
 Alpha virt. eigenvalues --    4.14750   4.14750   4.23967   4.23967   4.28933
 Alpha virt. eigenvalues --    4.28933   4.46205   4.92584   5.17808   5.17808
 Alpha virt. eigenvalues --    5.54636   6.69187   6.69187   7.09686   7.09686
 Alpha virt. eigenvalues --    7.61354   7.64380   7.64380   8.21679   8.72562
 Alpha virt. eigenvalues --    8.72562   8.73521   8.73521   9.25521   9.25521
 Alpha virt. eigenvalues --    9.47899  10.27776  15.59512
          Condensed to atoms (all electrons):
               1          2
     1  B    4.671753   0.193494
     2  H    0.193494   0.941259
 Mulliken charges:
               1
     1  B    0.134753
     2  H   -0.134753
 Sum of Mulliken charges =   0.00000
 Mulliken charges with hydrogens summed into heavy atoms:
               1
     1  B    0.000000
 Electronic spatial extent (au):  <R**2>=             23.1996
 Charge=              0.0000 electrons
 Dipole moment (field-independent basis, Debye):
    X=              0.0000    Y=              0.0000    Z=             -1.5274  Tot=              1.5274
 Quadrupole moment (field-independent basis, Debye-Ang):
   XX=             -6.8069   YY=             -6.8069   ZZ=            -10.8259
   XY=              0.0000   XZ=              0.0000   YZ=              0.0000
 Traceless Quadrupole moment (field-independent basis, Debye-Ang):
   XX=              1.3397   YY=              1.3397   ZZ=             -2.6794
   XY=              0.0000   XZ=              0.0000   YZ=              0.0000
 Octapole moment (field-independent basis, Debye-Ang**2):
  XXX=              0.0000  YYY=              0.0000  ZZZ=             -5.2490  XYY=              0.0000
  XXY=              0.0000  XXZ=             -1.4413  XZZ=              0.0000  YZZ=              0.0000
  YYZ=             -1.4413  XYZ=              0.0000
 Hexadecapole moment (field-independent basis, Debye-Ang**3):
 XXXX=             -9.9191 YYYY=             -9.9191 ZZZZ=            -31.2567 XXXY=              0.0000
 XXXZ=              0.0000 YYYX=              0.0000 YYYZ=              0.0000 ZZZX=              0.0000
 ZZZY=              0.0000 XXYY=             -3.3064 XXZZ=             -7.0050 YYZZ=             -7.0050
 XXYZ=              0.0000 YYXZ=              0.0000 ZZXY=              0.0000
 N-N= 2.035296965077D+00 E-N=-6.203711272942D+01  KE= 2.506235243923D+01
 Symmetry A1   KE= 2.506235243923D+01
 Symmetry A2   KE= 1.459330616985D-51
 Symmetry B1   KE= 0.000000000000D+00
 Symmetry B2   KE= 0.000000000000D+00
 Leave Link  601 at Sun May 22 16:02:46 2022, MaxMem=   104857600 cpu:               0.1 elap:               0.1
 (Enter /apps/software/g16/l9999.exe)
 1\1\GINC-CNODE12\SP\RCCSD-FC\Aug-CC-pVQZ\B1H1\LCZ\22-May-2022\0\\#p RH
 F/aug-cc-pVQZ guess=read CCSD=FC\\BH RHF at 1.3 Angstrom\\0,1\B,0,0.,0
 .,0.\H,0,1.3,0.,0.\\Version=ES64L-G16RevA.03\State=1-SG\HF=-25.129262\
 MP2=-25.208176\MP3=-25.2232313\MP4D=-25.2295641\MP4DQ=-25.2276553\MP4S
 DQ=-25.227985\CCSD=-25.2316691\RMSD=4.639e-10\PG=C*V [C*(H1B1)]\\@


 JUST WHEN YOU THINK YOU'VE GOT THE WORLD ON A STRING,
 YOU FIND OUT IT'S YOUR LEASH.
 Job cpu time:       0 days  0 hours  0 minutes 13.6 seconds.
 Elapsed time:       0 days  0 hours  0 minutes 13.6 seconds.
 File lengths (MBytes):  RWF=     81 Int=      0 D2E=      0 Chk=     67 Scr=      1
 Normal termination of Gaussian 16 at Sun May 22 16:02:46 2022.

Sender: Unischeduler System <lcz@mgt01>
Subject: Job 134045: <#!/bin/bash
#BSUB -J intel
#BSUB -o BH-1.3-CCSD-G.out
#BSUB -n 8
#BSUB -q cqueue
#BSUB -R span[hosts=1]
export g16root=/apps/software
source /apps/software/g16/bsd/g16.profile
export GAUSS_SCRDIR=/scratch
/apps/software/g16/g16 < BH-1.3-CCSD-G.inp > BH-1.3-CCSD-G.out> Done

Job <#!/bin/bash
#BSUB -J intel
#BSUB -o BH-1.3-CCSD-G.out
#BSUB -n 8
#BSUB -q cqueue
#BSUB -R span[hosts=1]
export g16root=/apps/software
source /apps/software/g16/bsd/g16.profile
export GAUSS_SCRDIR=/scratch
/apps/software/g16/g16 < BH-1.3-CCSD-G.inp > BH-1.3-CCSD-G.out> was submitted from host <mgt01> by user <lcz>.
Job was executed on host(s) <8*cnode12>, in queue <cqueue>, as user <lcz>.
</apps/users/lcz> was used as the home directory.
</apps/users/lcz/exe13/CCSD> was used as the working directory.
Started at 2022-05-22 16:02:32
Results reported at 2022-05-22 16:02:46

Your job looked like:

------------------------------------------------------------
# User input
#!/bin/bash
#BSUB -J intel
#BSUB -o BH-1.3-CCSD-G.out
#BSUB -n 8
#BSUB -q cqueue
#BSUB -R span[hosts=1]
export g16root=/apps/software
source /apps/software/g16/bsd/g16.profile
export GAUSS_SCRDIR=/scratch
/apps/software/g16/g16 < BH-1.3-CCSD-G.inp > BH-1.3-CCSD-G.out
------------------------------------------------------------

Successfully completed.

Resource usage summary:

    CPU time   :            7.75 sec.
    Max Memory :               216 MB
    Max Processes  :               5


The output (if any) follows:

