
                                        *****************
                                        * O   R   C   A *
                                        *****************

                                            #,                                       
                                            ###                                      
                                            ####                                     
                                            #####                                    
                                            ######                                   
                                           ########,                                 
                                     ,,################,,,,,                         
                               ,,#################################,,                 
                          ,,##########################################,,             
                       ,#########################################, ''#####,          
                    ,#############################################,,   '####,        
                  ,##################################################,,,,####,       
                ,###########''''           ''''###############################       
              ,#####''   ,,,,##########,,,,          '''####'''          '####       
            ,##' ,,,,###########################,,,                        '##       
           ' ,,###''''                  '''############,,,                           
         ,,##''                                '''############,,,,        ,,,,,,###''
      ,#''                                            '''#######################'''  
     '                                                          ''''####''''         
             ,#######,   #######,   ,#######,      ##                                
            ,#'     '#,  ##    ##  ,#'     '#,    #''#        ######   ,####,        
            ##       ##  ##   ,#'  ##            #'  '#       #        #'  '#        
            ##       ##  #######   ##           ,######,      #####,   #    #        
            '#,     ,#'  ##    ##  '#,     ,#' ,#      #,         ##   #,  ,#        
             '#######'   ##     ##  '#######'  #'      '#     #####' # '####'        



                  #######################################################
                  #                        -***-                        #
                  #          Department of theory and spectroscopy      #
                  #    Directorship and core code : Frank Neese         #
                  #        Max Planck Institute fuer Kohlenforschung    #
                  #                Kaiser Wilhelm Platz 1               #
                  #                 D-45470 Muelheim/Ruhr               #
                  #                      Germany                        #
                  #                                                     #
                  #                  All rights reserved                #
                  #                        -***-                        #
                  #######################################################


                         Program Version 5.0.0 -  RELEASE  -
                                (SVN: $Rev: 19529$)
                ($Date: 2021-06-28 11:36:33 +0200 (Mo, 28 Jun 2021) $)


 With contributions from (in alphabetic order):
   Daniel Aravena         : Magnetic Suceptibility
   Michael Atanasov       : Ab Initio Ligand Field Theory (pilot matlab implementation)
   Alexander A. Auer      : GIAO ZORA, VPT2 properties, NMR spectrum
   Ute Becker             : Parallelization
   Giovanni Bistoni       : ED, misc. LED, open-shell LED, HFLD
   Martin Brehm           : Molecular dynamics
   Dmytro Bykov           : SCF Hessian
   Vijay G. Chilkuri      : MRCI spin determinant printing, contributions to CSF-ICE
   Dipayan Datta          : RHF DLPNO-CCSD density
   Achintya Kumar Dutta   : EOM-CC, STEOM-CC
   Dmitry Ganyushin       : Spin-Orbit,Spin-Spin,Magnetic field MRCI
   Miquel Garcia          : C-PCM Hessian, Gaussian charge scheme
   Yang Guo               : DLPNO-NEVPT2, F12-NEVPT2, CIM, IAO-localization
   Andreas Hansen         : Spin unrestricted coupled pair/coupled cluster methods
   Benjamin Helmich-Paris : MC-RPA, TRAH-SCF, COSX integrals
   Lee Huntington         : MR-EOM, pCC
   Robert Izsak           : Overlap fitted RIJCOSX, COSX-SCS-MP3, EOM
   Marcus Kettner         : VPT2
   Christian Kollmar      : KDIIS, OOCD, Brueckner-CCSD(T), CCSD density, CASPT2, CASPT2-K
   Simone Kossmann        : Meta GGA functionals, TD-DFT gradient, OOMP2, MP2 Hessian
   Martin Krupicka        : Initial AUTO-CI
   Lucas Lang             : DCDCAS
   Marvin Lechner         : AUTO-CI (C++ implementation), FIC-MRCC
   Dagmar Lenk            : GEPOL surface, SMD
   Dimitrios Liakos       : Extrapolation schemes; Compound Job, initial MDCI parallelization
   Dimitrios Manganas     : Further ROCIS development; embedding schemes
   Dimitrios Pantazis     : SARC Basis sets
   Anastasios Papadopoulos: AUTO-CI, single reference methods and gradients
   Taras Petrenko         : DFT Hessian,TD-DFT gradient, ASA, ECA, R-Raman, ABS, FL, XAS/XES, NRVS
   Peter Pinski           : DLPNO-MP2, DLPNO-MP2 Gradient
   Christoph Reimann      : Effective Core Potentials
   Marius Retegan         : Local ZFS, SOC
   Christoph Riplinger    : Optimizer, TS searches, QM/MM, DLPNO-CCSD(T), (RO)-DLPNO pert. Triples
   Tobias Risthaus        : Range-separated hybrids, TD-DFT gradient, RPA, STAB
   Michael Roemelt        : Original ROCIS implementation
   Masaaki Saitow         : Open-shell DLPNO-CCSD energy and density
   Barbara Sandhoefer     : DKH picture change effects
   Avijit Sen             : IP-ROCIS
   Kantharuban Sivalingam : CASSCF convergence, NEVPT2, FIC-MRCI
   Bernardo de Souza      : ESD, SOC TD-DFT
   Georgi Stoychev        : AutoAux, RI-MP2 NMR
   Willem Van den Heuvel  : Paramagnetic NMR
   Boris Wezisla          : Elementary symmetry handling
   Frank Wennmohs         : Technical directorship


 We gratefully acknowledge several colleagues who have allowed us to
 interface, adapt or use parts of their codes:
   Stefan Grimme, W. Hujo, H. Kruse, P. Pracht,  : VdW corrections, initial TS optimization,
                  C. Bannwarth, S. Ehlert          DFT functionals, gCP, sTDA/sTD-DF
   Ed Valeev, F. Pavosevic, A. Kumar             : LibInt (2-el integral package), F12 methods
   Garnet Chan, S. Sharma, J. Yang, R. Olivares  : DMRG
   Ulf Ekstrom                                   : XCFun DFT Library
   Mihaly Kallay                                 : mrcc  (arbitrary order and MRCC methods)
   Jiri Pittner, Ondrej Demel                    : Mk-CCSD
   Frank Weinhold                                : gennbo (NPA and NBO analysis)
   Christopher J. Cramer and Donald G. Truhlar   : smd solvation model
   Lars Goerigk                                  : TD-DFT with DH, B97 family of functionals
   V. Asgeirsson, H. Jonsson                     : NEB implementation
   FAccTs GmbH                                   : IRC, NEB, NEB-TS, DLPNO-Multilevel, CI-OPT
                                                   MM, QMMM, 2- and 3-layer-ONIOM, Crystal-QMMM,
                                                   LR-CPCM, SF, NACMEs, symmetry and pop. for TD-DFT,
                                                   nearIR, NL-DFT gradient (VV10), updates on ESD,
                                                   ML-optimized integration grids
   S Lehtola, MJT Oliveira, MAL Marques          : LibXC Library
   Liviu Ungur et al                             : ANISO software


 Your calculation uses the libint2 library for the computation of 2-el integrals
 For citations please refer to: http://libint.valeyev.net

 Your ORCA version has been built with support for libXC version: 5.1.0
 For citations please refer to: https://tddft.org/programs/libxc/

 This ORCA versions uses:
   CBLAS   interface :  Fast vector & matrix operations
   LAPACKE interface :  Fast linear algebra routines
   SCALAPACK package :  Parallel linear algebra routines
   Shared memory     :  Shared parallel matrices
   BLAS/LAPACK       :  OpenBLAS 0.3.15  USE64BITINT DYNAMIC_ARCH NO_AFFINITY SkylakeX SINGLE_THREADED
        Core in use  :  SkylakeX
   Copyright (c) 2011-2014, The OpenBLAS Project


================================================================================

----- Orbital basis set information -----
Your calculation utilizes the basis: aug-cc-pVQZ 
    H, B-Ne : Obtained from the ccRepo (grant-hill.group.shef.ac.uk/ccrepo) Feb. 2017
              R. A. Kendall, T. H. Dunning, Jr., R. J. Harrison, J. Chem. Phys. 96, 6796 (1992)
         He : Obtained from the ccRepo (grant-hill.group.shef.ac.uk/ccrepo) Feb. 2017
              D. E. Woon, T. H. Dunning, Jr., J. Chem. Phys. 100, 2975 (1994)
  Li-Be, Na : Obtained from the ccRepo (grant-hill.group.shef.ac.uk/ccrepo) Feb. 2017
              B. P. Prascher, D. E. Woon, K. A. Peterson, T. H. Dunning, Jr., A. K. Wilson, Theor. Chem. Acc. 128, 69 (2011)
         Mg : Obtained from the Peterson Research Group Website (tyr0.chem.wsu.edu/~kipeters) Feb. 2017
              B. P. Prascher, D. E. Woon, K. A. Peterson, T. H. Dunning, Jr., A. K. Wilson, Theor. Chem. Acc. 128, 69 (2011)
      Al-Ar : Obtained from the ccRepo (grant-hill.group.shef.ac.uk/ccrepo) Feb. 2017
              D. E. Woon, T. H. Dunning, Jr., J. Chem. Phys. 98, 1358 (1993)
      Sc-Zn : Obtained from the ccRepo (grant-hill.group.shef.ac.uk/ccrepo) Feb. 2017
              N. B. Balabanov, K. A. Peterson, J. Chem. Phys. 123, 064107 (2005)
              N. B. Balabanov, K. A. Peterson, J. Chem. Phys. 125, 074110 (2006)
      Ga-Kr : Obtained from the ccRepo (grant-hill.group.shef.ac.uk/ccrepo) Feb. 2017
              A. K. Wilson, D. E. Woon, K. A. Peterson, T. H. Dunning, Jr., J. Chem. Phys. 110, 7667 (1999)

================================================================================
                                        WARNINGS
                       Please study these warnings very carefully!
================================================================================


WARNING: Post HF methods need fully converged wavefunctions
  ===> : Setting SCFConvForced true
         You can overwrite this default with %scf ConvForced false 


WARNING: MDCI localization with Augmented Hessian Foster-Boys
  ===> : Switching off randomization!

INFO   : the flag for use of the SHARK integral package has been found!

================================================================================
                                       INPUT FILE
================================================================================
NAME = /scratch/BH-1.1-CCSD-O_264/BH-1.1-CCSD-O.inp
|  1> ! RHF CCSD aug-cc-pVQZ VeryTightSCF
|  2> 
|  3> *xyz 0 1
|  4>  B	0.0	0.0	0.0
|  5>  H	1.1	0.0	0.0
|  6> **                         ****END OF INPUT****
================================================================================

                       ****************************
                       * Single Point Calculation *
                       ****************************

---------------------------------
CARTESIAN COORDINATES (ANGSTROEM)
---------------------------------
  B      0.000000    0.000000    0.000000
  H      1.100000    0.000000    0.000000

----------------------------
CARTESIAN COORDINATES (A.U.)
----------------------------
  NO LB      ZA    FRAG     MASS         X           Y           Z
   0 B     5.0000    0    10.810    0.000000    0.000000    0.000000
   1 H     1.0000    0     1.008    2.078699    0.000000    0.000000

--------------------------------
INTERNAL COORDINATES (ANGSTROEM)
--------------------------------
 B      0   0   0     0.000000000000     0.00000000     0.00000000
 H      1   0   0     1.100000000000     0.00000000     0.00000000

---------------------------
INTERNAL COORDINATES (A.U.)
---------------------------
 B      0   0   0     0.000000000000     0.00000000     0.00000000
 H      1   0   0     2.078698747313     0.00000000     0.00000000

---------------------
BASIS SET INFORMATION
---------------------
There are 2 groups of distinct atoms

 Group   1 Type B   : 22s7p4d3f2g contracted to 6s5p4d3f2g pattern {991111/31111/1111/111/11}
 Group   2 Type H   : 7s4p3d2f contracted to 5s4p3d2f pattern {31111/1111/111/11}

Atom   0B    basis set group =>   1
Atom   1H    basis set group =>   2
------------------------------------------------------------------------------
                           ORCA GTO INTEGRAL CALCULATION
------------------------------------------------------------------------------
------------------------------------------------------------------------------
                   ___                                                        
                  /   \      - P O W E R E D   B Y -                         
                 /     \                                                     
                 |  |  |   _    _      __       _____    __    __             
                 |  |  |  | |  | |    /  \     |  _  \  |  |  /  |          
                  \  \/   | |  | |   /    \    | | | |  |  | /  /          
                 / \  \   | |__| |  /  /\  \   | |_| |  |  |/  /          
                |  |  |   |  __  | /  /__\  \  |    /   |      \           
                |  |  |   | |  | | |   __   |  |    \   |  |\   \          
                \     /   | |  | | |  |  |  |  | |\  \  |  | \   \       
                 \___/    |_|  |_| |__|  |__|  |_| \__\ |__|  \__/        
                                                                              
                      - O R C A' S   B I G   F R I E N D -                    
                                      &                                       
                       - I N T E G R A L  F E E D E R -                       
                                                                              
 v1 FN, 2020, v2 2021                                                         
------------------------------------------------------------------------------


Reading SHARK input file /scratch/BH-1.1-CCSD-O_264/BH-1.1-CCSD-O.SHARKINP.tmp ... ok
----------------------
SHARK INTEGRAL PACKAGE
----------------------

Number of atoms                             ...      2
Number of basis functions                   ...    126
Number of shells                            ...     34
Maximum angular momentum                    ...      4
Integral batch strategy                     ... SHARK/LIBINT Hybrid
RI-J (if used) integral strategy            ... SPLIT-RIJ (Revised 2003 algorithm where possible)
Printlevel                                  ...      1
Contraction scheme used                     ... SEGMENTED contraction
Coulomb Range Separation                    ... NOT USED
Exchange Range Separation                   ... NOT USED
Finite Nucleus Model                        ... NOT USED
Auxiliary Coulomb fitting basis             ... NOT available
Auxiliary J/K fitting basis                 ... NOT available
Auxiliary Correlation fitting basis         ... NOT available
Auxiliary 'external' fitting basis          ... NOT available
Integral threshold                          ...     1.000000e-12
Primitive cut-off                           ...     1.000000e-14
Primitive pair pre-selection threshold      ...     1.000000e-14

Calculating pre-screening integrals         ... done (  0.1 sec) Dimension = 34
Organizing shell pair data                  ... done (  0.0 sec)
Shell pair information
Total number of shell pairs                 ...       595
Shell pairs after pre-screening             ...       595
Total number of primitive shell pairs       ...      1563
Primitive shell pairs kept                  ...      1536
          la=0 lb=0:     66 shell pairs
          la=1 lb=0:     99 shell pairs
          la=1 lb=1:     45 shell pairs
          la=2 lb=0:     77 shell pairs
          la=2 lb=1:     63 shell pairs
          la=2 lb=2:     28 shell pairs
          la=3 lb=0:     55 shell pairs
          la=3 lb=1:     45 shell pairs
          la=3 lb=2:     35 shell pairs
          la=3 lb=3:     15 shell pairs
          la=4 lb=0:     22 shell pairs
          la=4 lb=1:     18 shell pairs
          la=4 lb=2:     14 shell pairs
          la=4 lb=3:     10 shell pairs
          la=4 lb=4:      3 shell pairs

Calculating one electron integrals          ... done (  0.0 sec)
Calculating Nuclear repulsion               ... done (  0.0 sec) ENN=      2.405350946818 Eh

SHARK setup successfully completed in   0.1 seconds

Maximum memory used throughout the entire GTOINT-calculation: 33.3 MB
-------------------------------------------------------------------------------
                                 ORCA SCF
-------------------------------------------------------------------------------

------------
SCF SETTINGS
------------
Hamiltonian:
 Ab initio Hamiltonian  Method          .... Hartree-Fock(GTOs)


General Settings:
 Integral files         IntName         .... /scratch/BH-1.1-CCSD-O_264/BH-1.1-CCSD-O
 Hartree-Fock type      HFTyp           .... RHF
 Total Charge           Charge          ....    0
 Multiplicity           Mult            ....    1
 Number of Electrons    NEL             ....    6
 Basis Dimension        Dim             ....  126
 Nuclear Repulsion      ENuc            ....      2.4053509468 Eh

Convergence Acceleration:
 DIIS                   CNVDIIS         .... on
   Start iteration      DIISMaxIt       ....    12
   Startup error        DIISStart       ....  0.200000
   # of expansion vecs  DIISMaxEq       ....     5
   Bias factor          DIISBfac        ....   1.050
   Max. coefficient     DIISMaxC        ....  10.000
 Trust-Rad. Augm. Hess. CNVTRAH         .... auto
   Auto Start mean grad. ratio tolernc. ....  1.125000
   Auto Start start iteration           ....    20
   Auto Start num. interpolation iter.  ....    10
   Max. Number of Micro iterations      ....    16
   Max. Number of Macro iterations      .... Maxiter - #DIIS iter
   Number of Davidson start vectors     ....     2
   Converg. threshold I  (grad. norm)   ....   2.000e-06
   Converg. threshold II (energy diff.) ....   1.000e-09
   Grad. Scal. Fac. for Micro threshold ....   0.100
   Minimum threshold for Micro iter.    ....   0.010
   NR start threshold (gradient norm)   ....   0.001
   Initial trust radius                 ....   0.400
   Minimum AH scaling param. (alpha)    ....   1.000
   Maximum AH scaling param. (alpha)    .... 1000.000
   Orbital update algorithm             .... Taylor
   White noise on init. David. guess    .... on
   Maximum white noise                  ....   0.010
   Quad. conv. algorithm                .... NR
 SOSCF                  CNVSOSCF        .... on
   Start iteration      SOSCFMaxIt      ....   150
   Startup grad/error   SOSCFStart      ....  0.003300
 Level Shifting         CNVShift        .... on
   Level shift para.    LevelShift      ....    0.2500
   Turn off err/grad.   ShiftErr        ....    0.0010
 Zerner damping         CNVZerner       .... off
 Static damping         CNVDamp         .... on
   Fraction old density DampFac         ....    0.7000
   Max. Damping (<1)    DampMax         ....    0.9800
   Min. Damping (>=0)   DampMin         ....    0.0000
   Turn off err/grad.   DampErr         ....    0.1000
 Fernandez-Rico         CNVRico         .... off

SCF Procedure:
 Maximum # iterations   MaxIter         ....   125
 SCF integral mode      SCFMode         .... Direct
   Integral package                     .... SHARK and LIBINT hybrid scheme
 Reset frequency        DirectResetFreq ....    20
 Integral Threshold     Thresh          ....  1.000e-12 Eh
 Primitive CutOff       TCut            ....  1.000e-14 Eh

Convergence Tolerance:
 Convergence Check Mode ConvCheckMode   .... Total+1el-Energy
 Convergence forced     ConvForced      .... 1
 Energy Change          TolE            ....  1.000e-09 Eh
 1-El. energy change                    ....  1.000e-06 Eh
 Orbital Gradient       TolG            ....  2.000e-06
 Orbital Rotation angle TolX            ....  2.000e-06
 DIIS Error             TolErr          ....  1.000e-08


Diagonalization of the overlap matrix:
Smallest eigenvalue                        ... 8.246e-05
Time for diagonalization                   ...    0.001 sec
Threshold for overlap eigenvalues          ... 1.000e-08
Number of eigenvalues below threshold      ... 0
Time for construction of square roots      ...    0.000 sec
Total time needed                          ...    0.002 sec

Time for model grid setup =    0.012 sec

------------------------------
INITIAL GUESS: MODEL POTENTIAL
------------------------------
Loading Hartree-Fock densities                     ... done
Calculating cut-offs                               ... done
Initializing the effective Hamiltonian             ... done
Setting up the integral package (SHARK)            ... done
Starting the Coulomb interaction                   ... done (   0.0 sec)
Reading the grid                                   ... done
Mapping shells                                     ... done
Starting the XC term evaluation                    ... done (   0.0 sec)
Transforming the Hamiltonian                       ... done (   0.0 sec)
Diagonalizing the Hamiltonian                      ... done (   0.0 sec)
Back transforming the eigenvectors                 ... done (   0.0 sec)
Now organizing SCF variables                       ... done
                      ------------------
                      INITIAL GUESS DONE (   0.0 sec)
                      ------------------
--------------
SCF ITERATIONS
--------------
ITER       Energy         Delta-E        Max-DP      RMS-DP      [F,P]     Damp
               ***  Starting incremental Fock matrix formation  ***
  0    -25.1132912092   0.000000000000 0.04190467  0.00067550  0.1008527 0.7000
  1    -25.1163561040  -0.003064894772 0.03116589  0.00052890  0.0739978 0.7000
                               ***Turning on DIIS***
  2    -25.1186713643  -0.002315260340 0.07515869  0.00131105  0.0539036 0.0000
  3    -25.1292913506  -0.010619986283 0.01201670  0.00016572  0.0051794 0.0000
                      *** Initiating the SOSCF procedure ***
                           *** Shutting down DIIS ***
                      *** Re-Reading the Fockian *** 
                      *** Removing any level shift *** 
ITER      Energy       Delta-E        Grad      Rot      Max-DP    RMS-DP
  4    -25.12481689   0.0044744635  0.000631  0.000631  0.002928  0.000052
               *** Restarting incremental Fock matrix formation ***
  5    -25.12456559   0.0002512950  0.000251  0.000544  0.003819  0.000057
  6    -25.12456711  -0.0000015164  0.000088  0.000280  0.002222  0.000031
  7    -25.12456730  -0.0000001923  0.000008  0.000014  0.000089  0.000001
  8    -25.12456730  -0.0000000015  0.000003  0.000008  0.000022  0.000000
                 **** Energy Check signals convergence ****
              ***Rediagonalizing the Fockian in SOSCF/NRSCF***

               *****************************************************
               *                     SUCCESS                       *
               *           SCF CONVERGED AFTER   9 CYCLES          *
               *****************************************************


----------------
TOTAL SCF ENERGY
----------------

Total Energy       :          -25.12456730 Eh            -683.67423 eV

Components:
Nuclear Repulsion  :            2.40535095 Eh              65.45293 eV
Electronic Energy  :          -27.52991825 Eh            -749.12716 eV
One Electron Energy:          -37.66086193 Eh           -1024.80415 eV
Two Electron Energy:           10.13094368 Eh             275.67699 eV

Virial components:
Potential Energy   :          -50.38715204 Eh           -1371.10411 eV
Kinetic Energy     :           25.26258474 Eh             687.42988 eV
Virial Ratio       :            1.99453669


---------------
SCF CONVERGENCE
---------------

  Last Energy change         ...   -2.0433e-10  Tolerance :   1.0000e-09
  Last MAX-Density change    ...    3.5223e-06  Tolerance :   1.0000e-08
  Last RMS-Density change    ...    5.2554e-08  Tolerance :   1.0000e-09
  Last Orbital Gradient      ...    3.7445e-07  Tolerance :   2.0000e-06
  Last Orbital Rotation      ...    8.1024e-07  Tolerance :   2.0000e-06

             **** THE GBW FILE WAS UPDATED (/scratch/BH-1.1-CCSD-O_264/BH-1.1-CCSD-O.gbw) ****
             **** DENSITY /scratch/BH-1.1-CCSD-O_264/BH-1.1-CCSD-O.scfp WAS UPDATED ****
             **** ENERGY FILE WAS UPDATED (/scratch/BH-1.1-CCSD-O_264/BH-1.1-CCSD-O.en.tmp) ****
             **** THE GBW FILE WAS UPDATED (/scratch/BH-1.1-CCSD-O_264/BH-1.1-CCSD-O.gbw) ****
             **** DENSITY /scratch/BH-1.1-CCSD-O_264/BH-1.1-CCSD-O.scfp WAS UPDATED ****
----------------
ORBITAL ENERGIES
----------------

  NO   OCC          E(Eh)            E(eV) 
   0   2.0000      -7.669036      -208.6851 
   1   2.0000      -0.685795       -18.6614 
   2   2.0000      -0.344656        -9.3786 
   3   0.0000       0.024512         0.6670 
   4   0.0000       0.024512         0.6670 
   5   0.0000       0.029616         0.8059 
   6   0.0000       0.045217         1.2304 
   7   0.0000       0.079501         2.1633 
   8   0.0000       0.079501         2.1633 
   9   0.0000       0.114511         3.1160 
  10   0.0000       0.133908         3.6438 
  11   0.0000       0.133908         3.6438 
  12   0.0000       0.145399         3.9565 
  13   0.0000       0.145399         3.9565 
  14   0.0000       0.149282         4.0622 
  15   0.0000       0.184286         5.0147 
  16   0.0000       0.270282         7.3548 
  17   0.0000       0.273791         7.4502 
  18   0.0000       0.273791         7.4502 
  19   0.0000       0.320506         8.7214 
  20   0.0000       0.320506         8.7214 
  21   0.0000       0.406632        11.0650 
  22   0.0000       0.429803        11.6955 
  23   0.0000       0.447112        12.1665 
  24   0.0000       0.447112        12.1665 
  25   0.0000       0.461402        12.5554 
  26   0.0000       0.461402        12.5554 
  27   0.0000       0.480461        13.0740 
  28   0.0000       0.480461        13.0740 
  29   0.0000       0.502402        13.6711 
  30   0.0000       0.502402        13.6711 
  31   0.0000       0.517535        14.0828 
  32   0.0000       0.554697        15.0941 
  33   0.0000       0.599158        16.3039 
  34   0.0000       0.599158        16.3039 
  35   0.0000       0.764581        20.8053 
  36   0.0000       0.777980        21.1699 
  37   0.0000       0.777980        21.1699 
  38   0.0000       0.800636        21.7864 
  39   0.0000       0.800636        21.7864 
  40   0.0000       0.910999        24.7895 
  41   0.0000       1.051934        28.6246 
  42   0.0000       1.051934        28.6246 
  43   0.0000       1.088013        29.6063 
  44   0.0000       1.179987        32.1091 
  45   0.0000       1.179987        32.1091 
  46   0.0000       1.367830        37.2206 
  47   0.0000       1.369879        37.2763 
  48   0.0000       1.369879        37.2763 
  49   0.0000       1.374470        37.4012 
  50   0.0000       1.374470        37.4012 
  51   0.0000       1.389508        37.8104 
  52   0.0000       1.389508        37.8104 
  53   0.0000       1.440651        39.2021 
  54   0.0000       1.440651        39.2021 
  55   0.0000       1.455772        39.6136 
  56   0.0000       1.455772        39.6136 
  57   0.0000       1.472009        40.0554 
  58   0.0000       1.472009        40.0554 
  59   0.0000       1.480010        40.2731 
  60   0.0000       1.583662        43.0936 
  61   0.0000       1.608356        43.7656 
  62   0.0000       1.608356        43.7656 
  63   0.0000       1.663407        45.2636 
  64   0.0000       1.663407        45.2636 
  65   0.0000       1.833580        49.8942 
  66   0.0000       1.867521        50.8178 
  67   0.0000       1.867521        50.8178 
  68   0.0000       1.889381        51.4127 
  69   0.0000       1.936055        52.6827 
  70   0.0000       1.936055        52.6827 
  71   0.0000       2.027220        55.1635 
  72   0.0000       2.027220        55.1635 
  73   0.0000       2.204496        59.9874 
  74   0.0000       2.255896        61.3860 
  75   0.0000       2.255896        61.3860 
  76   0.0000       2.752653        74.9035 
  77   0.0000       3.132648        85.2437 
  78   0.0000       3.132648        85.2437 
  79   0.0000       3.223817        87.7245 
  80   0.0000       3.223817        87.7245 
  81   0.0000       3.228516        87.8524 
  82   0.0000       3.228516        87.8524 
  83   0.0000       3.300195        89.8029 
  84   0.0000       3.765815       102.4730 
  85   0.0000       3.921280       106.7034 
  86   0.0000       3.921280       106.7034 
  87   0.0000       3.932787       107.0166 
  88   0.0000       3.932787       107.0166 
  89   0.0000       4.016285       109.2887 
  90   0.0000       4.016285       109.2887 
  91   0.0000       4.021719       109.4365 
  92   0.0000       4.021719       109.4365 
  93   0.0000       4.078124       110.9714 
  94   0.0000       4.078124       110.9714 
  95   0.0000       4.098534       111.5268 
  96   0.0000       4.098534       111.5268 
  97   0.0000       4.164459       113.3207 
  98   0.0000       4.260311       115.9290 
  99   0.0000       4.260311       115.9290 
 100   0.0000       4.406512       119.9073 
 101   0.0000       4.406512       119.9073 
 102   0.0000       4.486244       122.0769 
 103   0.0000       4.486244       122.0769 
 104   0.0000       4.495021       122.3157 
 105   0.0000       5.209003       141.7442 
 106   0.0000       5.610307       152.6642 
 107   0.0000       5.610307       152.6642 
 108   0.0000       5.637034       153.3915 
 109   0.0000       6.782547       184.5625 
 110   0.0000       6.782547       184.5625 
 111   0.0000       7.432729       202.2548 
 112   0.0000       7.432729       202.2548 
 113   0.0000       7.851508       213.6504 
 114   0.0000       7.908800       215.2094 
 115   0.0000       7.908800       215.2094 
 116   0.0000       8.489597       231.0137 
 117   0.0000       8.933705       243.0985 
 118   0.0000       8.933705       243.0985 
 119   0.0000       9.263886       252.0832 
 120   0.0000       9.263886       252.0832 
 121   0.0000       9.399794       255.7814 
 122   0.0000       9.399794       255.7814 
 123   0.0000      10.094715       274.6912 
 124   0.0000      10.675671       290.4998 
 125   0.0000      17.110669       465.6050 

                    ********************************
                    * MULLIKEN POPULATION ANALYSIS *
                    ********************************

-----------------------
MULLIKEN ATOMIC CHARGES
-----------------------
   0 B :    0.074533
   1 H :   -0.074533
Sum of atomic charges:   -0.0000000

--------------------------------
MULLIKEN REDUCED ORBITAL CHARGES
--------------------------------
  0 B s       :     3.784206  s :     3.784206
      pz      :     0.000000  p :     1.100859
      px      :     1.100859
      py      :     0.000000
      dz2     :     0.009557  d :     0.038226
      dxz     :    -0.000000
      dyz     :    -0.000000
      dx2y2   :     0.028670
      dxy     :     0.000000
      f0      :    -0.000000  f :     0.001916
      f+1     :     0.000718
      f-1     :     0.000000
      f+2     :    -0.000000
      f-2     :     0.000000
      f+3     :     0.001197
      f-3     :    -0.000000
      g0      :     0.000036  g :     0.000259
      g+1     :     0.000000
      g-1     :     0.000000
      g+2     :     0.000081
      g-2     :    -0.000000
      g+3     :    -0.000000
      g-3     :     0.000000
      g+4     :     0.000142
      g-4     :    -0.000000
  1 H s       :     1.072912  s :     1.072912
      pz      :     0.000000  p :     0.002474
      px      :     0.002474
      py      :    -0.000000
      dz2     :    -0.000224  d :    -0.000895
      dxz     :    -0.000000
      dyz     :     0.000000
      dx2y2   :    -0.000671
      dxy     :    -0.000000
      f0      :    -0.000000  f :     0.000042
      f+1     :     0.000016
      f-1     :     0.000000
      f+2     :    -0.000000
      f-2     :     0.000000
      f+3     :     0.000026
      f-3     :    -0.000000


                     *******************************
                     * LOEWDIN POPULATION ANALYSIS *
                     *******************************

----------------------
LOEWDIN ATOMIC CHARGES
----------------------
   0 B :    0.555290
   1 H :   -0.555290

-------------------------------
LOEWDIN REDUCED ORBITAL CHARGES
-------------------------------
  0 B s       :     3.132750  s :     3.132750
      pz      :     0.000000  p :     1.229066
      px      :     1.229066
      py      :     0.000000
      dz2     :     0.016703  d :     0.066812
      dxz     :     0.000000
      dyz     :     0.000000
      dx2y2   :     0.050109
      dxy     :     0.000000
      f0      :     0.000000  f :     0.012626
      f+1     :     0.004735
      f-1     :     0.000000
      f+2     :     0.000000
      f-2     :     0.000000
      f+3     :     0.007891
      f-3     :     0.000000
      g0      :     0.000486  g :     0.003456
      g+1     :     0.000000
      g-1     :     0.000000
      g+2     :     0.001080
      g-2     :     0.000000
      g+3     :     0.000000
      g-3     :     0.000000
      g+4     :     0.001890
      g-4     :     0.000000
  1 H s       :     1.066882  s :     1.066882
      pz      :     0.000000  p :     0.353630
      px      :     0.353630
      py      :     0.000000
      dz2     :     0.025469  d :     0.101875
      dxz     :     0.000000
      dyz     :     0.000000
      dx2y2   :     0.076406
      dxy     :     0.000000
      f0      :     0.000000  f :     0.032903
      f+1     :     0.012339
      f-1     :     0.000000
      f+2     :     0.000000
      f-2     :     0.000000
      f+3     :     0.020565
      f-3     :     0.000000


                      *****************************
                      * MAYER POPULATION ANALYSIS *
                      *****************************

  NA   - Mulliken gross atomic population
  ZA   - Total nuclear charge
  QA   - Mulliken gross atomic charge
  VA   - Mayer's total valence
  BVA  - Mayer's bonded valence
  FA   - Mayer's free valence

  ATOM       NA         ZA         QA         VA         BVA        FA
  0 B      4.9255     5.0000     0.0745     0.8536     0.8536    -0.0000
  1 H      1.0745     1.0000    -0.0745     0.8536     0.8536     0.0000

  Mayer bond orders larger than 0.100000
B(  0-B ,  1-H ) :   0.8536 

-------
TIMINGS
-------

Total SCF time: 0 days 0 hours 0 min 10 sec 

Total time                  ....      10.336 sec
Sum of individual times     ....      10.212 sec  ( 98.8%)

Fock matrix formation       ....      10.161 sec  ( 98.3%)
Diagonalization             ....       0.007 sec  (  0.1%)
Density matrix formation    ....       0.001 sec  (  0.0%)
Population analysis         ....       0.001 sec  (  0.0%)
Initial guess               ....       0.023 sec  (  0.2%)
Orbital Transformation      ....       0.000 sec  (  0.0%)
Orbital Orthonormalization  ....       0.000 sec  (  0.0%)
DIIS solution               ....       0.002 sec  (  0.0%)
SOSCF solution              ....       0.005 sec  (  0.0%)

Maximum memory used throughout the entire SCF-calculation: 257.2 MB


------------------------------------------------------------------------------- 
                              ORCA-MATRIX DRIVEN CI                            
------------------------------------------------------------------------------- 

--------------------------------
AUTOMATIC CHOICE OF INCORE LEVEL
--------------------------------

Memory available                           ...    256.00 MB
Memory needed for S+T                      ...      1.04 MB
Memory needed for J+K                      ...      2.08 MB
Memory needed for DIIS                     ...     14.54 MB
Memory needed for 3-ext                    ...     28.39 MB
Memory needed for 4-ext                    ...    880.23 MB
Memory needed for triples                  ...      0.00 MB
 -> Final InCoreLevel    ... 4

Wavefunction type
-----------------
Correlation treatment                      ...      CCSD     
Single excitations                         ... ON
Orbital optimization                       ... OFF
Calculation of Z vector                    ... OFF
Calculation of Brueckner orbitals          ... OFF
Perturbative triple excitations            ... OFF
Calculation of F12 correction              ... OFF
Frozen core treatment                      ... chemical core (2 el)
Reference Wavefunction                     ... RHF
  Internal Orbitals:     1 ...    2 (  2 MO's/  4 electrons)
  Virtual  Orbitals:     3 ...  125 (123 MO's              )
Number of AO's                             ...    126
Number of electrons                        ...      6
Number of correlated electrons             ...      4

Algorithmic settings
--------------------
Integral transformation                    ... AO direct full transformation
K(C) Formation                             ... FULL-MO TRAFO
Maximum number of iterations               ...        50
Convergence tolerance (max. residuum)      ... 1.000e-06
Level shift for amplitude update           ... 2.000e-01
Maximum number of DIIS vectors             ...         7
DIIS turned on at iteration                ...         0
Damping before turning on DIIS             ...     0.500
Damping after turning on DIIS              ...     0.000
Pair specific amplitude update             ... OFF
Natural orbital iterations                 ... OFF
Perturbative natural orbital generation    ... OFF
Printlevel                                 ... 2

Memory handling:
----------------
Maximum memory for working arrays          ...    256 MB
Data storage in matrix containers          ... UNCOMPRESSED
Data type for integral storage             ... DOUBLE
In-Core Storage of quantities:
   Amplitudes+Sigma Vector      ... YES
   J+K operators                ... YES
   DIIS vectors                 ... YES
   3-external integrals         ... YES
   4-external integrals         ... NO


Initializing the integral package          ... done
Warning: reference  - re-canonicalizations have been set to INT 1 VIRT 1

--------------------------
CLOSED-SHELL FOCK OPERATOR
--------------------------

Restoring SHARK [2] ... ok
Recanonicalizing the internal orbitals
Recanonicalizing the virtual orbitals
Time needed for Fock operator              ...            1.217 sec
Reference energy                           ...    -25.124567302

------------------------------
PARTIAL COULOMB TRANSFORMATION
------------------------------

Transformation type                        ... one-operator
Dimension of the basis                     ...  126
Number of internal MOs                     ...  125 (1-125)
Pair cutoff                                ... 0.000e+00 Eh
Number of AO pairs included in the trafo   ... 8001
Total Number of distinct AO pairs          ... 8001
Memory devoted for trafo                   ...  256.0 MB 
Max. Number of MO pairs treated together   ... 4193      
Max. Number of MOs treated per batch       ...   33      
Number Format for Storage                  ... Double (8 Byte)
AO-integral source                         ... DIRECT
Integral package used                      ... LIBINT

Starting integral evaluation:
<ss|**>:        39270 b        0 skpd     0.079 s (  0.002 ms/b)
<sp|**>:        58905 b        0 skpd     0.146 s (  0.002 ms/b)
<sd|**>:        45815 b        0 skpd     0.194 s (  0.004 ms/b)
<sf|**>:        32725 b        0 skpd     0.242 s (  0.007 ms/b)
<sg|**>:        13090 b        0 skpd     0.153 s (  0.012 ms/b)
<pp|**>:        26775 b        0 skpd     0.133 s (  0.005 ms/b)
<pd|**>:        37485 b        0 skpd     0.327 s (  0.009 ms/b)
<pf|**>:        26775 b        0 skpd     0.359 s (  0.013 ms/b)
<pg|**>:        10710 b        0 skpd     0.217 s (  0.020 ms/b)
<dd|**>:        16660 b        0 skpd     0.244 s (  0.015 ms/b)
<df|**>:        20825 b        0 skpd     0.512 s (  0.025 ms/b)
<dg|**>:         8330 b        0 skpd     0.296 s (  0.035 ms/b)
<ff|**>:         8925 b        0 skpd     0.330 s (  0.037 ms/b)
<fg|**>:         5950 b        0 skpd     0.337 s (  0.057 ms/b)
<gg|**>:         1785 b        0 skpd     0.139 s (  0.078 ms/b)
Closing buffer AOJ ( 0.47 GB; CompressionRatio= 1.00)
Collecting buffer AOJ 
    ... done with AO integral generation
Number of MO pairs included in the trafo   ... 7875
    ... Now sorting integrals
IBATCH = 1 of  2
IBATCH = 2 of  2
Closing buffer JAO ( 0.47 GB; CompressionRatio= 1.00)
Collecting buffer JAO 
TOTAL TIME for half transformation         ...     6.983 sec
AO-integral generation                     ...     2.122 sec
Half transformation                        ...     1.588 sec
J-integral sorting                         ...     3.231 sec

-------------------------- SECOND HALF TRANSFORMATION -------------------------
Formation of (pq|rs)                       ... ok (     1.578 sec)
Integral sorting                           ... ok (     1.891 sec)

------------------
CLOSED SHELL GUESS
------------------

Initial guess performed in     0.000 sec
E(0)                                       ...    -25.124567302
E(MP2)                                     ...     -0.078277001
Initial E(tot)                             ...    -25.202844303
<T|T>                                      ...      0.035656047
Number of pairs included                   ... 3
Total number of pairs                      ... 3

------------------------------------------------
                  RHF COUPLED CLUSTER ITERATIONS
------------------------------------------------

Number of amplitudes to be optimized       ... 45633

Iter       E(tot)           E(Corr)          Delta-E          Residual     Time
  0    -25.202844303     -0.078277001      0.000000000      0.010165978    0.56
                           *** Turning on DIIS ***
  1    -25.213999218     -0.089431916     -0.011154915      0.007746955    1.91
  2    -25.221133375     -0.096566072     -0.007134157      0.004687341    1.89
  3    -25.223808776     -0.099241473     -0.002675401      0.002575662    1.92
  4    -25.224912729     -0.100345426     -0.001103953      0.001043998    1.88
  5    -25.225229310     -0.100662007     -0.000316581      0.000399938    1.91
  6    -25.225321479     -0.100754177     -0.000092170      0.000123676    1.91
  7    -25.225343518     -0.100776215     -0.000022038      0.000043184    1.88
  8    -25.225345654     -0.100778351     -0.000002136      0.000010168    1.88
  9    -25.225345538     -0.100778235      0.000000116      0.000004879    1.89
 10    -25.225345318     -0.100778016      0.000000219      0.000001870    1.87
 11    -25.225345220     -0.100777918      0.000000098      0.000000858    1.88
               --- The Coupled-Cluster iterations have converged ---

----------------------
COUPLED CLUSTER ENERGY
----------------------

E(0)                                       ...    -25.124567302
E(CORR)                                    ...     -0.100777918
E(TOT)                                     ...    -25.225345220
Singles Norm <S|S>**1/2                    ...      0.027002060  
T1 diagnostic                              ...      0.013501030  

------------------
LARGEST AMPLITUDES
------------------
   2->  8   2->  8       0.061784
   2->  7   2->  7       0.061784
   2->  3   2->  7       0.055080
   2->  7   2->  3       0.055080
   2->  4   2->  8       0.055080
   2->  8   2->  4       0.055080
   2->  3   2->  3       0.049068
   2->  4   2->  4       0.049068
   2-> 21   2-> 21       0.037374
   2->  8   2-> 19       0.035869
   2-> 19   2->  8       0.035869
   2-> 20   2->  7       0.035869
   2->  7   2-> 20       0.035869
   2-> 19   2->  4       0.031919
   2->  4   2-> 19       0.031919
   2->  3   2-> 20       0.031919


        !!!!!!!!!!!!!!!!!!!!!!!!!!!!!!!!!!!!!!!!!!!!!!!!!!!!!!!!!!!!!!!!!!!!!!!!!! 
        !  Warning: Densities are linearized densities !                         !
        !!!!!!!!!!!!!!!!!!!!!!!!!!!!!!!!!!!!!!!!!!!!!!!!!!!!!!!!!!!!!!!!!!!!!!!!!! 

Trace of internal density part =     -0.183528909
Trace of external density part =      0.183528909
NORM  =      1.092493566 sqrt=     1.045224170
W(HF) =      0.915337199
------------------------------------------------------------------------------
                           ORCA POPULATION ANALYSIS
------------------------------------------------------------------------------
Input electron density              ... /scratch/BH-1.1-CCSD-O_264/BH-1.1-CCSD-O.mdcip
BaseName (.gbw .S,...)              ... /scratch/BH-1.1-CCSD-O_264/BH-1.1-CCSD-O

                    ********************************
                    * MULLIKEN POPULATION ANALYSIS *
                    ********************************

-----------------------
MULLIKEN ATOMIC CHARGES
-----------------------
   0 B :    0.075825
   1 H :   -0.075825
Sum of atomic charges:   -0.0000000

--------------------------------
MULLIKEN REDUCED ORBITAL CHARGES
--------------------------------
  0 B s       :     3.691471  s :     3.691471
      pz      :     0.059654  p :     1.173398
      px      :     1.054090
      py      :     0.059654
      dz2     :     0.010502  d :     0.056099
      dxz     :     0.007158
      dyz     :     0.000226
      dx2y2   :     0.031055
      dxy     :     0.007158
      f0      :     0.000219  f :     0.002712
      f+1     :     0.000575
      f-1     :     0.000052
      f+2     :     0.000353
      f-2     :     0.000106
      f+3     :     0.000887
      f-3     :     0.000521
      g0      :     0.000048  g :     0.000496
      g+1     :     0.000046
      g-1     :     0.000005
      g+2     :     0.000093
      g-2     :     0.000018
      g+3     :     0.000038
      g-3     :     0.000022
      g+4     :     0.000161
      g-4     :     0.000065
  1 H s       :     1.054450  s :     1.054450
      pz      :     0.004599  p :     0.019496
      px      :     0.010299
      py      :     0.004599
      dz2     :    -0.000083  d :     0.001292
      dxz     :     0.000855
      dyz     :     0.000087
      dx2y2   :    -0.000422
      dxy     :     0.000855
      f0      :     0.000095  f :     0.000587
      f+1     :     0.000032
      f-1     :     0.000023
      f+2     :     0.000154
      f-2     :     0.000010
      f+3     :     0.000047
      f-3     :     0.000226


                     *******************************
                     * LOEWDIN POPULATION ANALYSIS *
                     *******************************

----------------------
LOEWDIN ATOMIC CHARGES
----------------------
   0 B :    0.555556
   1 H :   -0.555556

-------------------------------
LOEWDIN REDUCED ORBITAL CHARGES
-------------------------------
  0 B s       :     3.069238  s :     3.069238
      pz      :     0.044575  p :     1.264365
      px      :     1.175215
      py      :     0.044575
      dz2     :     0.018313  d :     0.091031
      dxz     :     0.008981
      dyz     :     0.000184
      dx2y2   :     0.054571
      dxy     :     0.008981
      f0      :     0.000343  f :     0.015441
      f+1     :     0.005099
      f-1     :     0.000072
      f+2     :     0.000560
      f-2     :     0.000117
      f+3     :     0.008420
      f-3     :     0.000830
      g0      :     0.000567  g :     0.004369
      g+1     :     0.000097
      g-1     :     0.000006
      g+2     :     0.001245
      g-2     :     0.000030
      g+3     :     0.000078
      g-3     :     0.000027
      g+4     :     0.002177
      g-4     :     0.000144
  1 H s       :     1.039719  s :     1.039719
      pz      :     0.008638  p :     0.362499
      px      :     0.345222
      py      :     0.008638
      dz2     :     0.025064  d :     0.114408
      dxz     :     0.007121
      dyz     :     0.000092
      dx2y2   :     0.075009
      dxy     :     0.007121
      f0      :     0.001044  f :     0.038930
      f+1     :     0.012512
      f-1     :     0.000181
      f+2     :     0.001734
      f-2     :     0.000030
      f+3     :     0.020833
      f-3     :     0.002596


                      *****************************
                      * MAYER POPULATION ANALYSIS *
                      *****************************

  NA   - Mulliken gross atomic population
  ZA   - Total nuclear charge
  QA   - Mulliken gross atomic charge
  VA   - Mayer's total valence
  BVA  - Mayer's bonded valence
  FA   - Mayer's free valence

  ATOM       NA         ZA         QA         VA         BVA        FA
  0 B      4.9242     5.0000     0.0758     1.4658     0.8477     0.6182
  1 H      1.0758     1.0000    -0.0758     0.9267     0.8477     0.0791

  Mayer bond orders larger than 0.100000
B(  0-B ,  1-H ) :   0.8477 



------------------------------------------------------------------------------- 
                                     TIMINGS                                   
------------------------------------------------------------------------------- 


Total execution time                   ...       33.275 sec

Fock Matrix Formation                  ...        1.217 sec (  3.7%)
Initial Guess                          ...        0.000 sec (  0.0%)
DIIS Solver                            ...        0.028 sec (  0.1%)
State Vector Update                    ...        0.001 sec (  0.0%)
Sigma-vector construction              ...       21.365 sec ( 64.2%)
  <0|H|D>                              ...        0.003 sec (  0.0% of sigma)
  <D|H|D>(0-ext)                       ...        0.006 sec (  0.0% of sigma)
  <D|H|D>(2-ext Fock)                  ...        0.006 sec (  0.0% of sigma)
  <D|H|D>(2-ext)                       ...        0.041 sec (  0.2% of sigma)
  <D|H|D>(4-ext)                       ...        4.779 sec ( 22.4% of sigma)
  <D|H|D>(4-ext-corr)                  ...        0.982 sec (  4.6% of sigma)
  <S|H|0>                              ...        0.002 sec (  0.0% of sigma)
  <S|H|S>                              ...        0.004 sec (  0.0% of sigma)
  <S|H|D>(1-ext)                       ...        0.005 sec (  0.0% of sigma)
  <D|H|S>(1-ext)                       ...        0.008 sec (  0.0% of sigma)
  <S|H|D>(3-ext)                       ...        0.161 sec (  0.8% of sigma)
  Fock-dressing                        ...       15.067 sec ( 70.5% of sigma)
  (ik|jl)-dressing                     ...        0.004 sec (  0.0% of sigma)
  (ij|ab),(ia|jb)-dressing             ...        0.246 sec (  1.2% of sigma)
  Pair energies                        ...        0.003 sec (  0.0% of sigma)
One-particle density matrix            ...        0.001 sec (  0.0%)


Maximum memory used throughout the entire MDCI-calculation: 400.0 MB

-------------------------   --------------------
FINAL SINGLE POINT ENERGY       -25.225345220435
-------------------------   --------------------


                            ***************************************
                            *     ORCA property calculations      *
                            ***************************************

                                    ---------------------
                                    Active property flags
                                    ---------------------
   (+) Dipole Moment


------------------------------------------------------------------------------
                       ORCA ELECTRIC PROPERTIES CALCULATION
------------------------------------------------------------------------------

Dipole Moment Calculation                       ... on
Quadrupole Moment Calculation                   ... off
Polarizability Calculation                      ... off
GBWName                                         ... /scratch/BH-1.1-CCSD-O_264/BH-1.1-CCSD-O.gbw
Electron density file                           ... /scratch/BH-1.1-CCSD-O_264/BH-1.1-CCSD-O.scfp
The origin for moment calculation is the CENTER OF MASS  = ( 0.177300,  0.000000  0.000000)

-------------
DIPOLE MOMENT
-------------
                                X             Y             Z
Electronic contribution:     -0.18541       0.00000       0.00000
Nuclear contribution   :      1.01490       0.00000       0.00000
                        -----------------------------------------
Total Dipole Moment    :      0.82949       0.00000       0.00000
                        -----------------------------------------
Magnitude (a.u.)       :      0.82949
Magnitude (Debye)      :      2.10841



--------------------
Rotational spectrum 
--------------------
 
Rotational constants in cm-1:     0.000000    15.110168    15.110168 
Rotational constants in MHz :     0.000000 452991.437720 452991.437720 

 Dipole components along the rotational axes: 
x,y,z [a.u.] :     0.829494     0.000000     0.000000 
x,y,z [Debye]:     2.108406     0.000000     0.000000 

 

                           *** MDCI DENSITY ***

------------------------------------------------------------------------------
                       ORCA ELECTRIC PROPERTIES CALCULATION
------------------------------------------------------------------------------

Dipole Moment Calculation                       ... on
Quadrupole Moment Calculation                   ... off
Polarizability Calculation                      ... off
GBWName                                         ... /scratch/BH-1.1-CCSD-O_264/BH-1.1-CCSD-O.gbw
Electron density file                           ... /scratch/BH-1.1-CCSD-O_264/BH-1.1-CCSD-O.mdcip
The origin for moment calculation is the CENTER OF MASS  = ( 0.177300,  0.000000  0.000000)

-------------
DIPOLE MOMENT
-------------
                                X             Y             Z
Electronic contribution:     -0.32643       0.00000      -0.00000
Nuclear contribution   :      1.01490       0.00000       0.00000
                        -----------------------------------------
Total Dipole Moment    :      0.68847       0.00000      -0.00000
                        -----------------------------------------
Magnitude (a.u.)       :      0.68847
Magnitude (Debye)      :      1.74995



--------------------
Rotational spectrum 
--------------------
 
Rotational constants in cm-1:     0.000000    15.110168    15.110168 
Rotational constants in MHz :     0.000000 452991.437720 452991.437720 

 Dipole components along the rotational axes: 
x,y,z [a.u.] :     0.688470     0.000000    -0.000000 
x,y,z [Debye]:     1.749951     0.000000    -0.000000 

 

Timings for individual modules:

Sum of individual times         ...       43.927 sec (=   0.732 min)
GTO integral calculation        ...        0.124 sec (=   0.002 min)   0.3 %
SCF iterations                  ...       10.350 sec (=   0.173 min)  23.6 %
MDCI module                     ...       33.452 sec (=   0.558 min)  76.2 %
                             ****ORCA TERMINATED NORMALLY****
TOTAL RUN TIME: 0 days 0 hours 0 minutes 44 seconds 52 msec

Sender: Unischeduler System <lcz@mgt01>
Subject: Job 134079: <#!/bin/bash
#BSUB -J intel
#BSUB -o BH-1.1-CCSD-O.out
#BSUB -n 1
#BSUB -q cqueue
export LD_LIBRARY_PATH=/apps/software/openmpi-4.1.1/lib:/apps/software/orca_5_0_0:$LD_LIBRARY_PATH
export PATH=/apps/software/openmpi-4.1.1/bin:/apps/software/orca_5_0_0:$PATH
mkdir /scratch/BH-1.1-CCSD-O_264
scp $USER@mgt01:/apps/users/lcz/exe13/CCSD/BH-1.1-CCSD-O.inp /scratch/BH-1.1-CCSD-O_264
/apps/software/orca_5_0_0/orca /scratch/BH-1.1-CCSD-O_264/BH-1.1-CCSD-O.inp >& BH-1.1-CCSD-O.out
scp /scratch/BH-1.1-CCSD-O_264/*.gbw $USER@mgt01:/apps/users/lcz/exe13/CCSD
scp /scratch/BH-1.1-CCSD-O_264/*.xyz $USER@mgt01:/apps/users/lcz/exe13/CCSD
scp /scratch/BH-1.1-CCSD-O_264/*.trj $USER@mgt01:/apps/users/lcz/exe13/CCSD> Exited

Job <#!/bin/bash
#BSUB -J intel
#BSUB -o BH-1.1-CCSD-O.out
#BSUB -n 1
#BSUB -q cqueue
export LD_LIBRARY_PATH=/apps/software/openmpi-4.1.1/lib:/apps/software/orca_5_0_0:$LD_LIBRARY_PATH
export PATH=/apps/software/openmpi-4.1.1/bin:/apps/software/orca_5_0_0:$PATH
mkdir /scratch/BH-1.1-CCSD-O_264
scp $USER@mgt01:/apps/users/lcz/exe13/CCSD/BH-1.1-CCSD-O.inp /scratch/BH-1.1-CCSD-O_264
/apps/software/orca_5_0_0/orca /scratch/BH-1.1-CCSD-O_264/BH-1.1-CCSD-O.inp >& BH-1.1-CCSD-O.out
scp /scratch/BH-1.1-CCSD-O_264/*.gbw $USER@mgt01:/apps/users/lcz/exe13/CCSD
scp /scratch/BH-1.1-CCSD-O_264/*.xyz $USER@mgt01:/apps/users/lcz/exe13/CCSD
scp /scratch/BH-1.1-CCSD-O_264/*.trj $USER@mgt01:/apps/users/lcz/exe13/CCSD> was submitted from host <mgt01> by user <lcz>.
Job was executed on host(s) <1*cnode07>, in queue <cqueue>, as user <lcz>.
</apps/users/lcz> was used as the home directory.
</apps/users/lcz/exe13/CCSD> was used as the working directory.
Started at 2022-05-22 16:13:26
Results reported at 2022-05-22 16:14:11

Your job looked like:

------------------------------------------------------------
# User input
#!/bin/bash
#BSUB -J intel
#BSUB -o BH-1.1-CCSD-O.out
#BSUB -n 1
#BSUB -q cqueue
export LD_LIBRARY_PATH=/apps/software/openmpi-4.1.1/lib:/apps/software/orca_5_0_0:$LD_LIBRARY_PATH
export PATH=/apps/software/openmpi-4.1.1/bin:/apps/software/orca_5_0_0:$PATH
mkdir /scratch/BH-1.1-CCSD-O_264
scp $USER@mgt01:/apps/users/lcz/exe13/CCSD/BH-1.1-CCSD-O.inp /scratch/BH-1.1-CCSD-O_264
/apps/software/orca_5_0_0/orca /scratch/BH-1.1-CCSD-O_264/BH-1.1-CCSD-O.inp >& BH-1.1-CCSD-O.out
scp /scratch/BH-1.1-CCSD-O_264/*.gbw $USER@mgt01:/apps/users/lcz/exe13/CCSD
scp /scratch/BH-1.1-CCSD-O_264/*.xyz $USER@mgt01:/apps/users/lcz/exe13/CCSD
scp /scratch/BH-1.1-CCSD-O_264/*.trj $USER@mgt01:/apps/users/lcz/exe13/CCSD
------------------------------------------------------------

Exited with exit code 1.

Resource usage summary:

    CPU time   :           38.28 sec.
    Max Memory :               414 MB
    Max Processes  :               5


The output (if any) follows:

/scratch/BH-1.1-CCSD-O_264/*.xyz: No such file or directory
/scratch/BH-1.1-CCSD-O_264/*.trj: No such file or directory
