
                                        *****************
                                        * O   R   C   A *
                                        *****************

                                            #,                                       
                                            ###                                      
                                            ####                                     
                                            #####                                    
                                            ######                                   
                                           ########,                                 
                                     ,,################,,,,,                         
                               ,,#################################,,                 
                          ,,##########################################,,             
                       ,#########################################, ''#####,          
                    ,#############################################,,   '####,        
                  ,##################################################,,,,####,       
                ,###########''''           ''''###############################       
              ,#####''   ,,,,##########,,,,          '''####'''          '####       
            ,##' ,,,,###########################,,,                        '##       
           ' ,,###''''                  '''############,,,                           
         ,,##''                                '''############,,,,        ,,,,,,###''
      ,#''                                            '''#######################'''  
     '                                                          ''''####''''         
             ,#######,   #######,   ,#######,      ##                                
            ,#'     '#,  ##    ##  ,#'     '#,    #''#        ######   ,####,        
            ##       ##  ##   ,#'  ##            #'  '#       #        #'  '#        
            ##       ##  #######   ##           ,######,      #####,   #    #        
            '#,     ,#'  ##    ##  '#,     ,#' ,#      #,         ##   #,  ,#        
             '#######'   ##     ##  '#######'  #'      '#     #####' # '####'        



                  #######################################################
                  #                        -***-                        #
                  #          Department of theory and spectroscopy      #
                  #    Directorship and core code : Frank Neese         #
                  #        Max Planck Institute fuer Kohlenforschung    #
                  #                Kaiser Wilhelm Platz 1               #
                  #                 D-45470 Muelheim/Ruhr               #
                  #                      Germany                        #
                  #                                                     #
                  #                  All rights reserved                #
                  #                        -***-                        #
                  #######################################################


                         Program Version 5.0.0 -  RELEASE  -
                                (SVN: $Rev: 19529$)
                ($Date: 2021-06-28 11:36:33 +0200 (Mo, 28 Jun 2021) $)


 With contributions from (in alphabetic order):
   Daniel Aravena         : Magnetic Suceptibility
   Michael Atanasov       : Ab Initio Ligand Field Theory (pilot matlab implementation)
   Alexander A. Auer      : GIAO ZORA, VPT2 properties, NMR spectrum
   Ute Becker             : Parallelization
   Giovanni Bistoni       : ED, misc. LED, open-shell LED, HFLD
   Martin Brehm           : Molecular dynamics
   Dmytro Bykov           : SCF Hessian
   Vijay G. Chilkuri      : MRCI spin determinant printing, contributions to CSF-ICE
   Dipayan Datta          : RHF DLPNO-CCSD density
   Achintya Kumar Dutta   : EOM-CC, STEOM-CC
   Dmitry Ganyushin       : Spin-Orbit,Spin-Spin,Magnetic field MRCI
   Miquel Garcia          : C-PCM Hessian, Gaussian charge scheme
   Yang Guo               : DLPNO-NEVPT2, F12-NEVPT2, CIM, IAO-localization
   Andreas Hansen         : Spin unrestricted coupled pair/coupled cluster methods
   Benjamin Helmich-Paris : MC-RPA, TRAH-SCF, COSX integrals
   Lee Huntington         : MR-EOM, pCC
   Robert Izsak           : Overlap fitted RIJCOSX, COSX-SCS-MP3, EOM
   Marcus Kettner         : VPT2
   Christian Kollmar      : KDIIS, OOCD, Brueckner-CCSD(T), CCSD density, CASPT2, CASPT2-K
   Simone Kossmann        : Meta GGA functionals, TD-DFT gradient, OOMP2, MP2 Hessian
   Martin Krupicka        : Initial AUTO-CI
   Lucas Lang             : DCDCAS
   Marvin Lechner         : AUTO-CI (C++ implementation), FIC-MRCC
   Dagmar Lenk            : GEPOL surface, SMD
   Dimitrios Liakos       : Extrapolation schemes; Compound Job, initial MDCI parallelization
   Dimitrios Manganas     : Further ROCIS development; embedding schemes
   Dimitrios Pantazis     : SARC Basis sets
   Anastasios Papadopoulos: AUTO-CI, single reference methods and gradients
   Taras Petrenko         : DFT Hessian,TD-DFT gradient, ASA, ECA, R-Raman, ABS, FL, XAS/XES, NRVS
   Peter Pinski           : DLPNO-MP2, DLPNO-MP2 Gradient
   Christoph Reimann      : Effective Core Potentials
   Marius Retegan         : Local ZFS, SOC
   Christoph Riplinger    : Optimizer, TS searches, QM/MM, DLPNO-CCSD(T), (RO)-DLPNO pert. Triples
   Tobias Risthaus        : Range-separated hybrids, TD-DFT gradient, RPA, STAB
   Michael Roemelt        : Original ROCIS implementation
   Masaaki Saitow         : Open-shell DLPNO-CCSD energy and density
   Barbara Sandhoefer     : DKH picture change effects
   Avijit Sen             : IP-ROCIS
   Kantharuban Sivalingam : CASSCF convergence, NEVPT2, FIC-MRCI
   Bernardo de Souza      : ESD, SOC TD-DFT
   Georgi Stoychev        : AutoAux, RI-MP2 NMR
   Willem Van den Heuvel  : Paramagnetic NMR
   Boris Wezisla          : Elementary symmetry handling
   Frank Wennmohs         : Technical directorship


 We gratefully acknowledge several colleagues who have allowed us to
 interface, adapt or use parts of their codes:
   Stefan Grimme, W. Hujo, H. Kruse, P. Pracht,  : VdW corrections, initial TS optimization,
                  C. Bannwarth, S. Ehlert          DFT functionals, gCP, sTDA/sTD-DF
   Ed Valeev, F. Pavosevic, A. Kumar             : LibInt (2-el integral package), F12 methods
   Garnet Chan, S. Sharma, J. Yang, R. Olivares  : DMRG
   Ulf Ekstrom                                   : XCFun DFT Library
   Mihaly Kallay                                 : mrcc  (arbitrary order and MRCC methods)
   Jiri Pittner, Ondrej Demel                    : Mk-CCSD
   Frank Weinhold                                : gennbo (NPA and NBO analysis)
   Christopher J. Cramer and Donald G. Truhlar   : smd solvation model
   Lars Goerigk                                  : TD-DFT with DH, B97 family of functionals
   V. Asgeirsson, H. Jonsson                     : NEB implementation
   FAccTs GmbH                                   : IRC, NEB, NEB-TS, DLPNO-Multilevel, CI-OPT
                                                   MM, QMMM, 2- and 3-layer-ONIOM, Crystal-QMMM,
                                                   LR-CPCM, SF, NACMEs, symmetry and pop. for TD-DFT,
                                                   nearIR, NL-DFT gradient (VV10), updates on ESD,
                                                   ML-optimized integration grids
   S Lehtola, MJT Oliveira, MAL Marques          : LibXC Library
   Liviu Ungur et al                             : ANISO software


 Your calculation uses the libint2 library for the computation of 2-el integrals
 For citations please refer to: http://libint.valeyev.net

 Your ORCA version has been built with support for libXC version: 5.1.0
 For citations please refer to: https://tddft.org/programs/libxc/

 This ORCA versions uses:
   CBLAS   interface :  Fast vector & matrix operations
   LAPACKE interface :  Fast linear algebra routines
   SCALAPACK package :  Parallel linear algebra routines
   Shared memory     :  Shared parallel matrices
   BLAS/LAPACK       :  OpenBLAS 0.3.15  USE64BITINT DYNAMIC_ARCH NO_AFFINITY SkylakeX SINGLE_THREADED
        Core in use  :  SkylakeX
   Copyright (c) 2011-2014, The OpenBLAS Project


================================================================================

----- Orbital basis set information -----
Your calculation utilizes the basis: aug-cc-pVQZ 
    H, B-Ne : Obtained from the ccRepo (grant-hill.group.shef.ac.uk/ccrepo) Feb. 2017
              R. A. Kendall, T. H. Dunning, Jr., R. J. Harrison, J. Chem. Phys. 96, 6796 (1992)
         He : Obtained from the ccRepo (grant-hill.group.shef.ac.uk/ccrepo) Feb. 2017
              D. E. Woon, T. H. Dunning, Jr., J. Chem. Phys. 100, 2975 (1994)
  Li-Be, Na : Obtained from the ccRepo (grant-hill.group.shef.ac.uk/ccrepo) Feb. 2017
              B. P. Prascher, D. E. Woon, K. A. Peterson, T. H. Dunning, Jr., A. K. Wilson, Theor. Chem. Acc. 128, 69 (2011)
         Mg : Obtained from the Peterson Research Group Website (tyr0.chem.wsu.edu/~kipeters) Feb. 2017
              B. P. Prascher, D. E. Woon, K. A. Peterson, T. H. Dunning, Jr., A. K. Wilson, Theor. Chem. Acc. 128, 69 (2011)
      Al-Ar : Obtained from the ccRepo (grant-hill.group.shef.ac.uk/ccrepo) Feb. 2017
              D. E. Woon, T. H. Dunning, Jr., J. Chem. Phys. 98, 1358 (1993)
      Sc-Zn : Obtained from the ccRepo (grant-hill.group.shef.ac.uk/ccrepo) Feb. 2017
              N. B. Balabanov, K. A. Peterson, J. Chem. Phys. 123, 064107 (2005)
              N. B. Balabanov, K. A. Peterson, J. Chem. Phys. 125, 074110 (2006)
      Ga-Kr : Obtained from the ccRepo (grant-hill.group.shef.ac.uk/ccrepo) Feb. 2017
              A. K. Wilson, D. E. Woon, K. A. Peterson, T. H. Dunning, Jr., J. Chem. Phys. 110, 7667 (1999)

================================================================================
                                        WARNINGS
                       Please study these warnings very carefully!
================================================================================


WARNING: Post HF methods need fully converged wavefunctions
  ===> : Setting SCFConvForced true
         You can overwrite this default with %scf ConvForced false 


WARNING: MDCI localization with Augmented Hessian Foster-Boys
  ===> : Switching off randomization!

INFO   : the flag for use of the SHARK integral package has been found!

================================================================================
                                       INPUT FILE
================================================================================
NAME = /scratch/BH-1.4-CCSD-O_248/BH-1.4-CCSD-O.inp
|  1> ! RHF CCSD aug-cc-pVQZ VeryTightSCF
|  2> 
|  3> *xyz 0 1
|  4>  B	0.0	0.0	0.0
|  5>  H	1.4	0.0	0.0
|  6> **                         ****END OF INPUT****
================================================================================

                       ****************************
                       * Single Point Calculation *
                       ****************************

---------------------------------
CARTESIAN COORDINATES (ANGSTROEM)
---------------------------------
  B      0.000000    0.000000    0.000000
  H      1.400000    0.000000    0.000000

----------------------------
CARTESIAN COORDINATES (A.U.)
----------------------------
  NO LB      ZA    FRAG     MASS         X           Y           Z
   0 B     5.0000    0    10.810    0.000000    0.000000    0.000000
   1 H     1.0000    0     1.008    2.645617    0.000000    0.000000

--------------------------------
INTERNAL COORDINATES (ANGSTROEM)
--------------------------------
 B      0   0   0     0.000000000000     0.00000000     0.00000000
 H      1   0   0     1.400000000000     0.00000000     0.00000000

---------------------------
INTERNAL COORDINATES (A.U.)
---------------------------
 B      0   0   0     0.000000000000     0.00000000     0.00000000
 H      1   0   0     2.645616587490     0.00000000     0.00000000

---------------------
BASIS SET INFORMATION
---------------------
There are 2 groups of distinct atoms

 Group   1 Type B   : 22s7p4d3f2g contracted to 6s5p4d3f2g pattern {991111/31111/1111/111/11}
 Group   2 Type H   : 7s4p3d2f contracted to 5s4p3d2f pattern {31111/1111/111/11}

Atom   0B    basis set group =>   1
Atom   1H    basis set group =>   2
------------------------------------------------------------------------------
                           ORCA GTO INTEGRAL CALCULATION
------------------------------------------------------------------------------
------------------------------------------------------------------------------
                   ___                                                        
                  /   \      - P O W E R E D   B Y -                         
                 /     \                                                     
                 |  |  |   _    _      __       _____    __    __             
                 |  |  |  | |  | |    /  \     |  _  \  |  |  /  |          
                  \  \/   | |  | |   /    \    | | | |  |  | /  /          
                 / \  \   | |__| |  /  /\  \   | |_| |  |  |/  /          
                |  |  |   |  __  | /  /__\  \  |    /   |      \           
                |  |  |   | |  | | |   __   |  |    \   |  |\   \          
                \     /   | |  | | |  |  |  |  | |\  \  |  | \   \       
                 \___/    |_|  |_| |__|  |__|  |_| \__\ |__|  \__/        
                                                                              
                      - O R C A' S   B I G   F R I E N D -                    
                                      &                                       
                       - I N T E G R A L  F E E D E R -                       
                                                                              
 v1 FN, 2020, v2 2021                                                         
------------------------------------------------------------------------------


Reading SHARK input file /scratch/BH-1.4-CCSD-O_248/BH-1.4-CCSD-O.SHARKINP.tmp ... ok
----------------------
SHARK INTEGRAL PACKAGE
----------------------

Number of atoms                             ...      2
Number of basis functions                   ...    126
Number of shells                            ...     34
Maximum angular momentum                    ...      4
Integral batch strategy                     ... SHARK/LIBINT Hybrid
RI-J (if used) integral strategy            ... SPLIT-RIJ (Revised 2003 algorithm where possible)
Printlevel                                  ...      1
Contraction scheme used                     ... SEGMENTED contraction
Coulomb Range Separation                    ... NOT USED
Exchange Range Separation                   ... NOT USED
Finite Nucleus Model                        ... NOT USED
Auxiliary Coulomb fitting basis             ... NOT available
Auxiliary J/K fitting basis                 ... NOT available
Auxiliary Correlation fitting basis         ... NOT available
Auxiliary 'external' fitting basis          ... NOT available
Integral threshold                          ...     1.000000e-12
Primitive cut-off                           ...     1.000000e-14
Primitive pair pre-selection threshold      ...     1.000000e-14

Calculating pre-screening integrals         ... done (  0.1 sec) Dimension = 34
Organizing shell pair data                  ... done (  0.0 sec)
Shell pair information
Total number of shell pairs                 ...       595
Shell pairs after pre-screening             ...       595
Total number of primitive shell pairs       ...      1563
Primitive shell pairs kept                  ...      1533
          la=0 lb=0:     66 shell pairs
          la=1 lb=0:     99 shell pairs
          la=1 lb=1:     45 shell pairs
          la=2 lb=0:     77 shell pairs
          la=2 lb=1:     63 shell pairs
          la=2 lb=2:     28 shell pairs
          la=3 lb=0:     55 shell pairs
          la=3 lb=1:     45 shell pairs
          la=3 lb=2:     35 shell pairs
          la=3 lb=3:     15 shell pairs
          la=4 lb=0:     22 shell pairs
          la=4 lb=1:     18 shell pairs
          la=4 lb=2:     14 shell pairs
          la=4 lb=3:     10 shell pairs
          la=4 lb=4:      3 shell pairs

Calculating one electron integrals          ... done (  0.0 sec)
Calculating Nuclear repulsion               ... done (  0.0 sec) ENN=      1.889918601071 Eh

SHARK setup successfully completed in   0.1 seconds

Maximum memory used throughout the entire GTOINT-calculation: 33.3 MB
-------------------------------------------------------------------------------
                                 ORCA SCF
-------------------------------------------------------------------------------

------------
SCF SETTINGS
------------
Hamiltonian:
 Ab initio Hamiltonian  Method          .... Hartree-Fock(GTOs)


General Settings:
 Integral files         IntName         .... /scratch/BH-1.4-CCSD-O_248/BH-1.4-CCSD-O
 Hartree-Fock type      HFTyp           .... RHF
 Total Charge           Charge          ....    0
 Multiplicity           Mult            ....    1
 Number of Electrons    NEL             ....    6
 Basis Dimension        Dim             ....  126
 Nuclear Repulsion      ENuc            ....      1.8899186011 Eh

Convergence Acceleration:
 DIIS                   CNVDIIS         .... on
   Start iteration      DIISMaxIt       ....    12
   Startup error        DIISStart       ....  0.200000
   # of expansion vecs  DIISMaxEq       ....     5
   Bias factor          DIISBfac        ....   1.050
   Max. coefficient     DIISMaxC        ....  10.000
 Trust-Rad. Augm. Hess. CNVTRAH         .... auto
   Auto Start mean grad. ratio tolernc. ....  1.125000
   Auto Start start iteration           ....    20
   Auto Start num. interpolation iter.  ....    10
   Max. Number of Micro iterations      ....    16
   Max. Number of Macro iterations      .... Maxiter - #DIIS iter
   Number of Davidson start vectors     ....     2
   Converg. threshold I  (grad. norm)   ....   2.000e-06
   Converg. threshold II (energy diff.) ....   1.000e-09
   Grad. Scal. Fac. for Micro threshold ....   0.100
   Minimum threshold for Micro iter.    ....   0.010
   NR start threshold (gradient norm)   ....   0.001
   Initial trust radius                 ....   0.400
   Minimum AH scaling param. (alpha)    ....   1.000
   Maximum AH scaling param. (alpha)    .... 1000.000
   Orbital update algorithm             .... Taylor
   White noise on init. David. guess    .... on
   Maximum white noise                  ....   0.010
   Quad. conv. algorithm                .... NR
 SOSCF                  CNVSOSCF        .... on
   Start iteration      SOSCFMaxIt      ....   150
   Startup grad/error   SOSCFStart      ....  0.003300
 Level Shifting         CNVShift        .... on
   Level shift para.    LevelShift      ....    0.2500
   Turn off err/grad.   ShiftErr        ....    0.0010
 Zerner damping         CNVZerner       .... off
 Static damping         CNVDamp         .... on
   Fraction old density DampFac         ....    0.7000
   Max. Damping (<1)    DampMax         ....    0.9800
   Min. Damping (>=0)   DampMin         ....    0.0000
   Turn off err/grad.   DampErr         ....    0.1000
 Fernandez-Rico         CNVRico         .... off

SCF Procedure:
 Maximum # iterations   MaxIter         ....   125
 SCF integral mode      SCFMode         .... Direct
   Integral package                     .... SHARK and LIBINT hybrid scheme
 Reset frequency        DirectResetFreq ....    20
 Integral Threshold     Thresh          ....  1.000e-12 Eh
 Primitive CutOff       TCut            ....  1.000e-14 Eh

Convergence Tolerance:
 Convergence Check Mode ConvCheckMode   .... Total+1el-Energy
 Convergence forced     ConvForced      .... 1
 Energy Change          TolE            ....  1.000e-09 Eh
 1-El. energy change                    ....  1.000e-06 Eh
 Orbital Gradient       TolG            ....  2.000e-06
 Orbital Rotation angle TolX            ....  2.000e-06
 DIIS Error             TolErr          ....  1.000e-08


Diagonalization of the overlap matrix:
Smallest eigenvalue                        ... 1.678e-04
Time for diagonalization                   ...    0.001 sec
Threshold for overlap eigenvalues          ... 1.000e-08
Number of eigenvalues below threshold      ... 0
Time for construction of square roots      ...    0.000 sec
Total time needed                          ...    0.002 sec

Time for model grid setup =    0.013 sec

------------------------------
INITIAL GUESS: MODEL POTENTIAL
------------------------------
Loading Hartree-Fock densities                     ... done
Calculating cut-offs                               ... done
Initializing the effective Hamiltonian             ... done
Setting up the integral package (SHARK)            ... done
Starting the Coulomb interaction                   ... done (   0.0 sec)
Reading the grid                                   ... done
Mapping shells                                     ... done
Starting the XC term evaluation                    ... done (   0.0 sec)
Transforming the Hamiltonian                       ... done (   0.0 sec)
Diagonalizing the Hamiltonian                      ... done (   0.0 sec)
Back transforming the eigenvectors                 ... done (   0.0 sec)
Now organizing SCF variables                       ... done
                      ------------------
                      INITIAL GUESS DONE (   0.0 sec)
                      ------------------
--------------
SCF ITERATIONS
--------------
ITER       Energy         Delta-E        Max-DP      RMS-DP      [F,P]     Damp
               ***  Starting incremental Fock matrix formation  ***
  0    -25.1133888776   0.000000000000 0.03645864  0.00045184  0.1056284 0.7000
  1    -25.1156945845  -0.002305706927 0.02612284  0.00034613  0.0770310 0.7000
                               ***Turning on DIIS***
  2    -25.1174420584  -0.001747473936 0.06164090  0.00085223  0.0557158 0.0000
  3    -25.1248351495  -0.007393091037 0.00616704  0.00011544  0.0056325 0.0000
                      *** Initiating the SOSCF procedure ***
                           *** Shutting down DIIS ***
                      *** Re-Reading the Fockian *** 
                      *** Removing any level shift *** 
ITER      Energy       Delta-E        Grad      Rot      Max-DP    RMS-DP
  4    -25.12235881   0.0024763411  0.000847  0.000847  0.001964  0.000043
               *** Restarting incremental Fock matrix formation ***
  5    -25.12202086   0.0003379504  0.000224  0.000371  0.001940  0.000039
  6    -25.12202185  -0.0000009901  0.000063  0.000154  0.000951  0.000018
  7    -25.12202196  -0.0000001095  0.000008  0.000017  0.000042  0.000001
  8    -25.12202196  -0.0000000012  0.000003  0.000011  0.000024  0.000000
                 **** Energy Check signals convergence ****
              ***Rediagonalizing the Fockian in SOSCF/NRSCF***

               *****************************************************
               *                     SUCCESS                       *
               *           SCF CONVERGED AFTER   9 CYCLES          *
               *****************************************************


----------------
TOTAL SCF ENERGY
----------------

Total Energy       :          -25.12202196 Eh            -683.60497 eV

Components:
Nuclear Repulsion  :            1.88991860 Eh              51.42730 eV
Electronic Energy  :          -27.01194056 Eh            -735.03227 eV
One Electron Energy:          -36.68292410 Eh            -998.19311 eV
Two Electron Energy:            9.67098354 Eh             263.16084 eV

Virial components:
Potential Energy   :          -50.11663160 Eh           -1363.74288 eV
Kinetic Energy     :           24.99460964 Eh             680.13791 eV
Virial Ratio       :            2.00509759


---------------
SCF CONVERGENCE
---------------

  Last Energy change         ...   -2.5485e-10  Tolerance :   1.0000e-09
  Last MAX-Density change    ...    1.4672e-06  Tolerance :   1.0000e-08
  Last RMS-Density change    ...    3.0613e-08  Tolerance :   1.0000e-09
  Last Orbital Gradient      ...    2.4842e-07  Tolerance :   2.0000e-06
  Last Orbital Rotation      ...    3.8509e-07  Tolerance :   2.0000e-06

             **** THE GBW FILE WAS UPDATED (/scratch/BH-1.4-CCSD-O_248/BH-1.4-CCSD-O.gbw) ****
             **** DENSITY /scratch/BH-1.4-CCSD-O_248/BH-1.4-CCSD-O.scfp WAS UPDATED ****
             **** ENERGY FILE WAS UPDATED (/scratch/BH-1.4-CCSD-O_248/BH-1.4-CCSD-O.en.tmp) ****
             **** THE GBW FILE WAS UPDATED (/scratch/BH-1.4-CCSD-O_248/BH-1.4-CCSD-O.gbw) ****
             **** DENSITY /scratch/BH-1.4-CCSD-O_248/BH-1.4-CCSD-O.scfp WAS UPDATED ****
----------------
ORBITAL ENERGIES
----------------

  NO   OCC          E(Eh)            E(eV) 
   0   2.0000      -7.707646      -209.7357 
   1   2.0000      -0.610881       -16.6229 
   2   2.0000      -0.351951        -9.5771 
   3   0.0000       0.022830         0.6212 
   4   0.0000       0.022830         0.6212 
   5   0.0000       0.032133         0.8744 
   6   0.0000       0.046344         1.2611 
   7   0.0000       0.076858         2.0914 
   8   0.0000       0.076858         2.0914 
   9   0.0000       0.106592         2.9005 
  10   0.0000       0.137260         3.7350 
  11   0.0000       0.137260         3.7350 
  12   0.0000       0.144979         3.9451 
  13   0.0000       0.144979         3.9451 
  14   0.0000       0.147884         4.0241 
  15   0.0000       0.196156         5.3377 
  16   0.0000       0.252023         6.8579 
  17   0.0000       0.271122         7.3776 
  18   0.0000       0.271122         7.3776 
  19   0.0000       0.310910         8.4603 
  20   0.0000       0.310910         8.4603 
  21   0.0000       0.372154        10.1268 
  22   0.0000       0.394767        10.7422 
  23   0.0000       0.459117        12.4932 
  24   0.0000       0.459117        12.4932 
  25   0.0000       0.460225        12.5233 
  26   0.0000       0.460225        12.5233 
  27   0.0000       0.483653        13.1609 
  28   0.0000       0.483653        13.1609 
  29   0.0000       0.498091        13.5537 
  30   0.0000       0.498091        13.5537 
  31   0.0000       0.535981        14.5848 
  32   0.0000       0.547578        14.9004 
  33   0.0000       0.576879        15.6977 
  34   0.0000       0.576879        15.6977 
  35   0.0000       0.728234        19.8163 
  36   0.0000       0.783232        21.3128 
  37   0.0000       0.783232        21.3128 
  38   0.0000       0.803410        21.8619 
  39   0.0000       0.803410        21.8619 
  40   0.0000       0.813852        22.1460 
  41   0.0000       1.011931        27.5360 
  42   0.0000       1.011931        27.5360 
  43   0.0000       1.162966        31.6459 
  44   0.0000       1.198642        32.6167 
  45   0.0000       1.198642        32.6167 
  46   0.0000       1.335699        36.3462 
  47   0.0000       1.361358        37.0444 
  48   0.0000       1.361358        37.0444 
  49   0.0000       1.366974        37.1972 
  50   0.0000       1.366974        37.1972 
  51   0.0000       1.382212        37.6119 
  52   0.0000       1.382212        37.6119 
  53   0.0000       1.417148        38.5626 
  54   0.0000       1.428605        38.8743 
  55   0.0000       1.428605        38.8743 
  56   0.0000       1.435820        39.0706 
  57   0.0000       1.435820        39.0706 
  58   0.0000       1.454753        39.5858 
  59   0.0000       1.454753        39.5858 
  60   0.0000       1.533034        41.7160 
  61   0.0000       1.563226        42.5376 
  62   0.0000       1.563226        42.5376 
  63   0.0000       1.600396        43.5490 
  64   0.0000       1.600396        43.5490 
  65   0.0000       1.663738        45.2726 
  66   0.0000       1.840060        50.0706 
  67   0.0000       1.840060        50.0706 
  68   0.0000       1.849688        50.3326 
  69   0.0000       1.849688        50.3326 
  70   0.0000       1.940681        52.8086 
  71   0.0000       2.108557        57.3767 
  72   0.0000       2.108557        57.3767 
  73   0.0000       2.170497        59.0622 
  74   0.0000       2.170497        59.0622 
  75   0.0000       2.300354        62.5958 
  76   0.0000       2.420503        65.8652 
  77   0.0000       2.867685        78.0337 
  78   0.0000       2.867685        78.0337 
  79   0.0000       2.999099        81.6096 
  80   0.0000       2.999099        81.6096 
  81   0.0000       3.221366        87.6578 
  82   0.0000       3.302919        89.8770 
  83   0.0000       3.302919        89.8770 
  84   0.0000       3.372779        91.7780 
  85   0.0000       3.857470       104.9671 
  86   0.0000       3.857470       104.9671 
  87   0.0000       3.912585       106.4668 
  88   0.0000       3.912585       106.4668 
  89   0.0000       3.934506       107.0634 
  90   0.0000       3.934506       107.0634 
  91   0.0000       3.976481       108.2056 
  92   0.0000       3.976481       108.2056 
  93   0.0000       4.084064       111.1330 
  94   0.0000       4.084064       111.1330 
  95   0.0000       4.101510       111.6078 
  96   0.0000       4.101510       111.6078 
  97   0.0000       4.114780       111.9688 
  98   0.0000       4.114780       111.9688 
  99   0.0000       4.123719       112.2121 
 100   0.0000       4.168476       113.4300 
 101   0.0000       4.168476       113.4300 
 102   0.0000       4.270719       116.2122 
 103   0.0000       4.270719       116.2122 
 104   0.0000       4.399385       119.7134 
 105   0.0000       4.810782       130.9080 
 106   0.0000       4.987450       135.7154 
 107   0.0000       4.987450       135.7154 
 108   0.0000       5.474756       148.9757 
 109   0.0000       6.671396       181.5379 
 110   0.0000       6.671396       181.5379 
 111   0.0000       6.979707       189.9275 
 112   0.0000       6.979707       189.9275 
 113   0.0000       7.445844       202.6117 
 114   0.0000       7.445844       202.6117 
 115   0.0000       7.508882       204.3271 
 116   0.0000       8.103859       220.5172 
 117   0.0000       8.559989       232.9291 
 118   0.0000       8.559989       232.9291 
 119   0.0000       8.661037       235.6788 
 120   0.0000       8.661037       235.6788 
 121   0.0000       9.212238       250.6777 
 122   0.0000       9.212238       250.6777 
 123   0.0000       9.390326       255.5238 
 124   0.0000       9.971464       271.3373 
 125   0.0000      14.849486       404.0751 

                    ********************************
                    * MULLIKEN POPULATION ANALYSIS *
                    ********************************

-----------------------
MULLIKEN ATOMIC CHARGES
-----------------------
   0 B :    0.150034
   1 H :   -0.150034
Sum of atomic charges:   -0.0000000

--------------------------------
MULLIKEN REDUCED ORBITAL CHARGES
--------------------------------
  0 B s       :     3.792565  s :     3.792565
      pz      :     0.000000  p :     1.016030
      px      :     1.016030
      py      :     0.000000
      dz2     :     0.009808  d :     0.039231
      dxz     :    -0.000000
      dyz     :     0.000000
      dx2y2   :     0.029424
      dxy     :     0.000000
      f0      :     0.000000  f :     0.001876
      f+1     :     0.000704
      f-1     :     0.000000
      f+2     :     0.000000
      f-2     :     0.000000
      f+3     :     0.001173
      f-3     :     0.000000
      g0      :     0.000037  g :     0.000264
      g+1     :    -0.000000
      g-1     :     0.000000
      g+2     :     0.000083
      g-2     :     0.000000
      g+3     :    -0.000000
      g-3     :     0.000000
      g+4     :     0.000144
      g-4     :     0.000000
  1 H s       :     1.129219  s :     1.129219
      pz      :     0.000000  p :     0.018922
      px      :     0.018922
      py      :    -0.000000
      dz2     :     0.000434  d :     0.001735
      dxz     :    -0.000000
      dyz     :     0.000000
      dx2y2   :     0.001301
      dxy     :    -0.000000
      f0      :     0.000000  f :     0.000158
      f+1     :     0.000059
      f-1     :     0.000000
      f+2     :     0.000000
      f-2     :    -0.000000
      f+3     :     0.000099
      f-3     :    -0.000000


                     *******************************
                     * LOEWDIN POPULATION ANALYSIS *
                     *******************************

----------------------
LOEWDIN ATOMIC CHARGES
----------------------
   0 B :    0.427683
   1 H :   -0.427683

-------------------------------
LOEWDIN REDUCED ORBITAL CHARGES
-------------------------------
  0 B s       :     3.265329  s :     3.265329
      pz      :     0.000000  p :     1.207004
      px      :     1.207004
      py      :     0.000000
      dz2     :     0.019548  d :     0.078194
      dxz     :     0.000000
      dyz     :     0.000000
      dx2y2   :     0.058645
      dxy     :     0.000000
      f0      :     0.000000  f :     0.016615
      f+1     :     0.006231
      f-1     :     0.000000
      f+2     :     0.000000
      f-2     :     0.000000
      f+3     :     0.010384
      f-3     :     0.000000
      g0      :     0.000728  g :     0.005175
      g+1     :     0.000000
      g-1     :     0.000000
      g+2     :     0.001617
      g-2     :     0.000000
      g+3     :     0.000000
      g-3     :     0.000000
      g+4     :     0.002830
      g-4     :     0.000000
  1 H s       :     1.002116  s :     1.002116
      pz      :     0.000000  p :     0.310082
      px      :     0.310082
      py      :     0.000000
      dz2     :     0.023544  d :     0.094175
      dxz     :     0.000000
      dyz     :     0.000000
      dx2y2   :     0.070632
      dxy     :     0.000000
      f0      :     0.000000  f :     0.021310
      f+1     :     0.007991
      f-1     :     0.000000
      f+2     :     0.000000
      f-2     :     0.000000
      f+3     :     0.013318
      f-3     :     0.000000


                      *****************************
                      * MAYER POPULATION ANALYSIS *
                      *****************************

  NA   - Mulliken gross atomic population
  ZA   - Total nuclear charge
  QA   - Mulliken gross atomic charge
  VA   - Mayer's total valence
  BVA  - Mayer's bonded valence
  FA   - Mayer's free valence

  ATOM       NA         ZA         QA         VA         BVA        FA
  0 B      4.8500     5.0000     0.1500     0.9279     0.9279     0.0000
  1 H      1.1500     1.0000    -0.1500     0.9279     0.9279    -0.0000

  Mayer bond orders larger than 0.100000
B(  0-B ,  1-H ) :   0.9279 

-------
TIMINGS
-------

Total SCF time: 0 days 0 hours 0 min 10 sec 

Total time                  ....      10.316 sec
Sum of individual times     ....      10.196 sec  ( 98.8%)

Fock matrix formation       ....      10.144 sec  ( 98.3%)
Diagonalization             ....       0.007 sec  (  0.1%)
Density matrix formation    ....       0.001 sec  (  0.0%)
Population analysis         ....       0.001 sec  (  0.0%)
Initial guess               ....       0.023 sec  (  0.2%)
Orbital Transformation      ....       0.000 sec  (  0.0%)
Orbital Orthonormalization  ....       0.000 sec  (  0.0%)
DIIS solution               ....       0.002 sec  (  0.0%)
SOSCF solution              ....       0.005 sec  (  0.0%)

Maximum memory used throughout the entire SCF-calculation: 257.2 MB


------------------------------------------------------------------------------- 
                              ORCA-MATRIX DRIVEN CI                            
------------------------------------------------------------------------------- 

--------------------------------
AUTOMATIC CHOICE OF INCORE LEVEL
--------------------------------

Memory available                           ...    256.00 MB
Memory needed for S+T                      ...      1.04 MB
Memory needed for J+K                      ...      2.08 MB
Memory needed for DIIS                     ...     14.54 MB
Memory needed for 3-ext                    ...     28.39 MB
Memory needed for 4-ext                    ...    880.23 MB
Memory needed for triples                  ...      0.00 MB
 -> Final InCoreLevel    ... 4

Wavefunction type
-----------------
Correlation treatment                      ...      CCSD     
Single excitations                         ... ON
Orbital optimization                       ... OFF
Calculation of Z vector                    ... OFF
Calculation of Brueckner orbitals          ... OFF
Perturbative triple excitations            ... OFF
Calculation of F12 correction              ... OFF
Frozen core treatment                      ... chemical core (2 el)
Reference Wavefunction                     ... RHF
  Internal Orbitals:     1 ...    2 (  2 MO's/  4 electrons)
  Virtual  Orbitals:     3 ...  125 (123 MO's              )
Number of AO's                             ...    126
Number of electrons                        ...      6
Number of correlated electrons             ...      4

Algorithmic settings
--------------------
Integral transformation                    ... AO direct full transformation
K(C) Formation                             ... FULL-MO TRAFO
Maximum number of iterations               ...        50
Convergence tolerance (max. residuum)      ... 1.000e-06
Level shift for amplitude update           ... 2.000e-01
Maximum number of DIIS vectors             ...         7
DIIS turned on at iteration                ...         0
Damping before turning on DIIS             ...     0.500
Damping after turning on DIIS              ...     0.000
Pair specific amplitude update             ... OFF
Natural orbital iterations                 ... OFF
Perturbative natural orbital generation    ... OFF
Printlevel                                 ... 2

Memory handling:
----------------
Maximum memory for working arrays          ...    256 MB
Data storage in matrix containers          ... UNCOMPRESSED
Data type for integral storage             ... DOUBLE
In-Core Storage of quantities:
   Amplitudes+Sigma Vector      ... YES
   J+K operators                ... YES
   DIIS vectors                 ... YES
   3-external integrals         ... YES
   4-external integrals         ... NO


Initializing the integral package          ... done
Warning: reference  - re-canonicalizations have been set to INT 1 VIRT 1

--------------------------
CLOSED-SHELL FOCK OPERATOR
--------------------------

Restoring SHARK [2] ... ok
Recanonicalizing the internal orbitals
Recanonicalizing the virtual orbitals
Time needed for Fock operator              ...            1.195 sec
Reference energy                           ...    -25.122021959

------------------------------
PARTIAL COULOMB TRANSFORMATION
------------------------------

Transformation type                        ... one-operator
Dimension of the basis                     ...  126
Number of internal MOs                     ...  125 (1-125)
Pair cutoff                                ... 0.000e+00 Eh
Number of AO pairs included in the trafo   ... 8001
Total Number of distinct AO pairs          ... 8001
Memory devoted for trafo                   ...  256.0 MB 
Max. Number of MO pairs treated together   ... 4193      
Max. Number of MOs treated per batch       ...   33      
Number Format for Storage                  ... Double (8 Byte)
AO-integral source                         ... DIRECT
Integral package used                      ... LIBINT

Starting integral evaluation:
<ss|**>:        39270 b        0 skpd     0.077 s (  0.002 ms/b)
<sp|**>:        58905 b        0 skpd     0.143 s (  0.002 ms/b)
<sd|**>:        45815 b        0 skpd     0.191 s (  0.004 ms/b)
<sf|**>:        32725 b        0 skpd     0.234 s (  0.007 ms/b)
<sg|**>:        13090 b        0 skpd     0.154 s (  0.012 ms/b)
<pp|**>:        26775 b        0 skpd     0.133 s (  0.005 ms/b)
<pd|**>:        37485 b        0 skpd     0.326 s (  0.009 ms/b)
<pf|**>:        26775 b        0 skpd     0.356 s (  0.013 ms/b)
<pg|**>:        10710 b        0 skpd     0.212 s (  0.020 ms/b)
<dd|**>:        16660 b        0 skpd     0.243 s (  0.015 ms/b)
<df|**>:        20825 b        0 skpd     0.496 s (  0.024 ms/b)
<dg|**>:         8330 b        0 skpd     0.286 s (  0.034 ms/b)
<ff|**>:         8925 b        0 skpd     0.329 s (  0.037 ms/b)
<fg|**>:         5950 b        0 skpd     0.323 s (  0.054 ms/b)
<gg|**>:         1785 b        0 skpd     0.132 s (  0.074 ms/b)
Closing buffer AOJ ( 0.47 GB; CompressionRatio= 1.00)
Collecting buffer AOJ 
    ... done with AO integral generation
Number of MO pairs included in the trafo   ... 7875
    ... Now sorting integrals
IBATCH = 1 of  2
IBATCH = 2 of  2
Closing buffer JAO ( 0.47 GB; CompressionRatio= 1.00)
Collecting buffer JAO 
TOTAL TIME for half transformation         ...     6.817 sec
AO-integral generation                     ...     2.074 sec
Half transformation                        ...     1.564 sec
J-integral sorting                         ...     3.138 sec

-------------------------- SECOND HALF TRANSFORMATION -------------------------
Formation of (pq|rs)                       ... ok (     1.646 sec)
Integral sorting                           ... ok (     1.837 sec)

------------------
CLOSED SHELL GUESS
------------------

Initial guess performed in     0.000 sec
E(0)                                       ...    -25.122021959
E(MP2)                                     ...     -0.079428160
Initial E(tot)                             ...    -25.201450119
<T|T>                                      ...      0.039571737
Number of pairs included                   ... 3
Total number of pairs                      ... 3

------------------------------------------------
                  RHF COUPLED CLUSTER ITERATIONS
------------------------------------------------

Number of amplitudes to be optimized       ... 45633

Iter       E(tot)           E(Corr)          Delta-E          Residual     Time
  0    -25.201450119     -0.079428160      0.000000000      0.011528457    0.53
                           *** Turning on DIIS ***
  1    -25.213186152     -0.091164193     -0.011736033      0.006383071    1.85
  2    -25.221205272     -0.099183313     -0.008019119      0.003734601    1.86
  3    -25.224345862     -0.102323903     -0.003140590      0.001925125    1.85
  4    -25.225303934     -0.103281975     -0.000958072      0.000857342    1.85
  5    -25.225548463     -0.103526504     -0.000244529      0.000392123    1.85
  6    -25.225616705     -0.103594746     -0.000068242      0.000155473    1.85
  7    -25.225633959     -0.103612000     -0.000017254      0.000045799    1.86
  8    -25.225636871     -0.103614912     -0.000002912      0.000010709    1.85
  9    -25.225637059     -0.103615100     -0.000000188      0.000006396    1.85
 10    -25.225636952     -0.103614993      0.000000107      0.000002840    1.86
 11    -25.225636836     -0.103614877      0.000000116      0.000000915    1.85
               --- The Coupled-Cluster iterations have converged ---

----------------------
COUPLED CLUSTER ENERGY
----------------------

E(0)                                       ...    -25.122021959
E(CORR)                                    ...     -0.103614877
E(TOT)                                     ...    -25.225636836
Singles Norm <S|S>**1/2                    ...      0.030103839  
T1 diagnostic                              ...      0.015051920  

------------------
LARGEST AMPLITUDES
------------------
   2->  8   2->  8       0.049894
   2->  7   2->  7       0.049894
   2->  4   2->  4       0.045512
   2->  3   2->  3       0.045512
   2-> 21   2-> 21       0.044599
   2->  8   2->  4       0.042077
   2->  4   2->  8       0.042077
   2->  7   2->  3       0.042077
   2->  3   2->  7       0.042077
   1->  8   1->  8       0.030171
   1->  7   1->  7       0.030171
   2-> 20   2->  4       0.028106
   2->  4   2-> 20       0.028106
   2-> 19   2->  3       0.028106
   2->  3   2-> 19       0.028106
   2-> 16   2-> 21       0.026147


        !!!!!!!!!!!!!!!!!!!!!!!!!!!!!!!!!!!!!!!!!!!!!!!!!!!!!!!!!!!!!!!!!!!!!!!!!! 
        !  Warning: Densities are linearized densities !                         !
        !!!!!!!!!!!!!!!!!!!!!!!!!!!!!!!!!!!!!!!!!!!!!!!!!!!!!!!!!!!!!!!!!!!!!!!!!! 

Trace of internal density part =     -0.196458922
Trace of external density part =      0.196458922
NORM  =      1.099135702 sqrt=     1.048396729
W(HF) =      0.909805766
------------------------------------------------------------------------------
                           ORCA POPULATION ANALYSIS
------------------------------------------------------------------------------
Input electron density              ... /scratch/BH-1.4-CCSD-O_248/BH-1.4-CCSD-O.mdcip
BaseName (.gbw .S,...)              ... /scratch/BH-1.4-CCSD-O_248/BH-1.4-CCSD-O

                    ********************************
                    * MULLIKEN POPULATION ANALYSIS *
                    ********************************

-----------------------
MULLIKEN ATOMIC CHARGES
-----------------------
   0 B :    0.122128
   1 H :   -0.122128
Sum of atomic charges:   -0.0000000

--------------------------------
MULLIKEN REDUCED ORBITAL CHARGES
--------------------------------
  0 B s       :     3.723451  s :     3.723451
      pz      :     0.059158  p :     1.096701
      px      :     0.978385
      py      :     0.059158
      dz2     :     0.010383  d :     0.054592
      dxz     :     0.006639
      dyz     :     0.000220
      dx2y2   :     0.030710
      dxy     :     0.006639
      f0      :     0.000226  f :     0.002601
      f+1     :     0.000520
      f-1     :     0.000053
      f+2     :     0.000363
      f-2     :     0.000107
      f+3     :     0.000796
      f-3     :     0.000536
      g0      :     0.000050  g :     0.000528
      g+1     :     0.000050
      g-1     :     0.000005
      g+2     :     0.000099
      g-2     :     0.000019
      g+3     :     0.000041
      g-3     :     0.000021
      g+4     :     0.000172
      g-4     :     0.000072
  1 H s       :     1.089902  s :     1.089902
      pz      :     0.003874  p :     0.029048
      px      :     0.021299
      py      :     0.003874
      dz2     :     0.000493  d :     0.002604
      dxz     :     0.000360
      dyz     :     0.000086
      dx2y2   :     0.001306
      dxy     :     0.000360
      f0      :     0.000064  f :     0.000574
      f+1     :     0.000090
      f-1     :     0.000017
      f+2     :     0.000101
      f-2     :     0.000014
      f+3     :     0.000141
      f-3     :     0.000148


                     *******************************
                     * LOEWDIN POPULATION ANALYSIS *
                     *******************************

----------------------
LOEWDIN ATOMIC CHARGES
----------------------
   0 B :    0.422874
   1 H :   -0.422874

-------------------------------
LOEWDIN REDUCED ORBITAL CHARGES
-------------------------------
  0 B s       :     3.197921  s :     3.197921
      pz      :     0.048651  p :     1.251206
      px      :     1.153904
      py      :     0.048651
      dz2     :     0.021072  d :     0.101202
      dxz     :     0.008558
      dyz     :     0.000202
      dx2y2   :     0.062811
      dxy     :     0.008558
      f0      :     0.000323  f :     0.020089
      f+1     :     0.006884
      f-1     :     0.000069
      f+2     :     0.000525
      f-2     :     0.000112
      f+3     :     0.011398
      f-3     :     0.000778
      g0      :     0.000885  g :     0.006709
      g+1     :     0.000118
      g-1     :     0.000006
      g+2     :     0.001953
      g-2     :     0.000034
      g+3     :     0.000094
      g-3     :     0.000026
      g+4     :     0.003415
      g-4     :     0.000178
  1 H s       :     0.974489  s :     0.974489
      pz      :     0.005871  p :     0.319694
      px      :     0.307952
      py      :     0.005871
      dz2     :     0.023351  d :     0.102569
      dxz     :     0.004624
      dyz     :     0.000082
      dx2y2   :     0.069889
      dxy     :     0.004624
      f0      :     0.000794  f :     0.026122
      f+1     :     0.008209
      f-1     :     0.000138
      f+2     :     0.001318
      f-2     :     0.000025
      f+3     :     0.013665
      f-3     :     0.001973


                      *****************************
                      * MAYER POPULATION ANALYSIS *
                      *****************************

  NA   - Mulliken gross atomic population
  ZA   - Total nuclear charge
  QA   - Mulliken gross atomic charge
  VA   - Mayer's total valence
  BVA  - Mayer's bonded valence
  FA   - Mayer's free valence

  ATOM       NA         ZA         QA         VA         BVA        FA
  0 B      4.8779     5.0000     0.1221     1.5002     0.8692     0.6309
  1 H      1.1221     1.0000    -0.1221     0.9851     0.8692     0.1159

  Mayer bond orders larger than 0.100000
B(  0-B ,  1-H ) :   0.8692 



------------------------------------------------------------------------------- 
                                     TIMINGS                                   
------------------------------------------------------------------------------- 


Total execution time                   ...       32.624 sec

Fock Matrix Formation                  ...        1.195 sec (  3.7%)
Initial Guess                          ...        0.000 sec (  0.0%)
DIIS Solver                            ...        0.026 sec (  0.1%)
State Vector Update                    ...        0.001 sec (  0.0%)
Sigma-vector construction              ...       20.882 sec ( 64.0%)
  <0|H|D>                              ...        0.003 sec (  0.0% of sigma)
  <D|H|D>(0-ext)                       ...        0.006 sec (  0.0% of sigma)
  <D|H|D>(2-ext Fock)                  ...        0.006 sec (  0.0% of sigma)
  <D|H|D>(2-ext)                       ...        0.039 sec (  0.2% of sigma)
  <D|H|D>(4-ext)                       ...        4.661 sec ( 22.3% of sigma)
  <D|H|D>(4-ext-corr)                  ...        0.934 sec (  4.5% of sigma)
  <S|H|0>                              ...        0.002 sec (  0.0% of sigma)
  <S|H|S>                              ...        0.003 sec (  0.0% of sigma)
  <S|H|D>(1-ext)                       ...        0.004 sec (  0.0% of sigma)
  <D|H|S>(1-ext)                       ...        0.007 sec (  0.0% of sigma)
  <S|H|D>(3-ext)                       ...        0.154 sec (  0.7% of sigma)
  Fock-dressing                        ...       14.796 sec ( 70.9% of sigma)
  (ik|jl)-dressing                     ...        0.004 sec (  0.0% of sigma)
  (ij|ab),(ia|jb)-dressing             ...        0.220 sec (  1.1% of sigma)
  Pair energies                        ...        0.003 sec (  0.0% of sigma)
One-particle density matrix            ...        0.001 sec (  0.0%)


Maximum memory used throughout the entire MDCI-calculation: 400.0 MB

-------------------------   --------------------
FINAL SINGLE POINT ENERGY       -25.225636835726
-------------------------   --------------------


                            ***************************************
                            *     ORCA property calculations      *
                            ***************************************

                                    ---------------------
                                    Active property flags
                                    ---------------------
   (+) Dipole Moment


------------------------------------------------------------------------------
                       ORCA ELECTRIC PROPERTIES CALCULATION
------------------------------------------------------------------------------

Dipole Moment Calculation                       ... on
Quadrupole Moment Calculation                   ... off
Polarizability Calculation                      ... off
GBWName                                         ... /scratch/BH-1.4-CCSD-O_248/BH-1.4-CCSD-O.gbw
Electron density file                           ... /scratch/BH-1.4-CCSD-O_248/BH-1.4-CCSD-O.scfp
The origin for moment calculation is the CENTER OF MASS  = ( 0.225654,  0.000000  0.000000)

-------------
DIPOLE MOMENT
-------------
                                X             Y             Z
Electronic contribution:     -0.82606       0.00000      -0.00000
Nuclear contribution   :      1.29169       0.00000       0.00000
                        -----------------------------------------
Total Dipole Moment    :      0.46563       0.00000      -0.00000
                        -----------------------------------------
Magnitude (a.u.)       :      0.46563
Magnitude (Debye)      :      1.18354



--------------------
Rotational spectrum 
--------------------
 
Rotational constants in cm-1:     0.000000     9.328216     9.328216 
Rotational constants in MHz :     0.000000 279652.877368 279652.877368 

 Dipole components along the rotational axes: 
x,y,z [a.u.] :     0.465629     0.000000    -0.000000 
x,y,z [Debye]:     1.183535     0.000000    -0.000000 

 

                           *** MDCI DENSITY ***

------------------------------------------------------------------------------
                       ORCA ELECTRIC PROPERTIES CALCULATION
------------------------------------------------------------------------------

Dipole Moment Calculation                       ... on
Quadrupole Moment Calculation                   ... off
Polarizability Calculation                      ... off
GBWName                                         ... /scratch/BH-1.4-CCSD-O_248/BH-1.4-CCSD-O.gbw
Electron density file                           ... /scratch/BH-1.4-CCSD-O_248/BH-1.4-CCSD-O.mdcip
The origin for moment calculation is the CENTER OF MASS  = ( 0.225654,  0.000000  0.000000)

-------------
DIPOLE MOMENT
-------------
                                X             Y             Z
Electronic contribution:     -0.94024       0.00000      -0.00000
Nuclear contribution   :      1.29169       0.00000       0.00000
                        -----------------------------------------
Total Dipole Moment    :      0.35145       0.00000      -0.00000
                        -----------------------------------------
Magnitude (a.u.)       :      0.35145
Magnitude (Debye)      :      0.89331



--------------------
Rotational spectrum 
--------------------
 
Rotational constants in cm-1:     0.000000     9.328216     9.328216 
Rotational constants in MHz :     0.000000 279652.877368 279652.877368 

 Dipole components along the rotational axes: 
x,y,z [a.u.] :     0.351449     0.000000    -0.000000 
x,y,z [Debye]:     0.893312     0.000000    -0.000000 

 

Timings for individual modules:

Sum of individual times         ...       43.282 sec (=   0.721 min)
GTO integral calculation        ...        0.124 sec (=   0.002 min)   0.3 %
SCF iterations                  ...       10.332 sec (=   0.172 min)  23.9 %
MDCI module                     ...       32.826 sec (=   0.547 min)  75.8 %
                             ****ORCA TERMINATED NORMALLY****
TOTAL RUN TIME: 0 days 0 hours 0 minutes 43 seconds 406 msec

Sender: Unischeduler System <lcz@mgt01>
Subject: Job 134082: <#!/bin/bash
#BSUB -J intel
#BSUB -o BH-1.4-CCSD-O.out
#BSUB -n 1
#BSUB -q cqueue
export LD_LIBRARY_PATH=/apps/software/openmpi-4.1.1/lib:/apps/software/orca_5_0_0:$LD_LIBRARY_PATH
export PATH=/apps/software/openmpi-4.1.1/bin:/apps/software/orca_5_0_0:$PATH
mkdir /scratch/BH-1.4-CCSD-O_248
scp $USER@mgt01:/apps/users/lcz/exe13/CCSD/BH-1.4-CCSD-O.inp /scratch/BH-1.4-CCSD-O_248
/apps/software/orca_5_0_0/orca /scratch/BH-1.4-CCSD-O_248/BH-1.4-CCSD-O.inp >& BH-1.4-CCSD-O.out
scp /scratch/BH-1.4-CCSD-O_248/*.gbw $USER@mgt01:/apps/users/lcz/exe13/CCSD
scp /scratch/BH-1.4-CCSD-O_248/*.xyz $USER@mgt01:/apps/users/lcz/exe13/CCSD
scp /scratch/BH-1.4-CCSD-O_248/*.trj $USER@mgt01:/apps/users/lcz/exe13/CCSD> Exited

Job <#!/bin/bash
#BSUB -J intel
#BSUB -o BH-1.4-CCSD-O.out
#BSUB -n 1
#BSUB -q cqueue
export LD_LIBRARY_PATH=/apps/software/openmpi-4.1.1/lib:/apps/software/orca_5_0_0:$LD_LIBRARY_PATH
export PATH=/apps/software/openmpi-4.1.1/bin:/apps/software/orca_5_0_0:$PATH
mkdir /scratch/BH-1.4-CCSD-O_248
scp $USER@mgt01:/apps/users/lcz/exe13/CCSD/BH-1.4-CCSD-O.inp /scratch/BH-1.4-CCSD-O_248
/apps/software/orca_5_0_0/orca /scratch/BH-1.4-CCSD-O_248/BH-1.4-CCSD-O.inp >& BH-1.4-CCSD-O.out
scp /scratch/BH-1.4-CCSD-O_248/*.gbw $USER@mgt01:/apps/users/lcz/exe13/CCSD
scp /scratch/BH-1.4-CCSD-O_248/*.xyz $USER@mgt01:/apps/users/lcz/exe13/CCSD
scp /scratch/BH-1.4-CCSD-O_248/*.trj $USER@mgt01:/apps/users/lcz/exe13/CCSD> was submitted from host <mgt01> by user <lcz>.
Job was executed on host(s) <1*cnode08>, in queue <cqueue>, as user <lcz>.
</apps/users/lcz> was used as the home directory.
</apps/users/lcz/exe13/CCSD> was used as the working directory.
Started at 2022-05-22 16:13:29
Results reported at 2022-05-22 16:14:13

Your job looked like:

------------------------------------------------------------
# User input
#!/bin/bash
#BSUB -J intel
#BSUB -o BH-1.4-CCSD-O.out
#BSUB -n 1
#BSUB -q cqueue
export LD_LIBRARY_PATH=/apps/software/openmpi-4.1.1/lib:/apps/software/orca_5_0_0:$LD_LIBRARY_PATH
export PATH=/apps/software/openmpi-4.1.1/bin:/apps/software/orca_5_0_0:$PATH
mkdir /scratch/BH-1.4-CCSD-O_248
scp $USER@mgt01:/apps/users/lcz/exe13/CCSD/BH-1.4-CCSD-O.inp /scratch/BH-1.4-CCSD-O_248
/apps/software/orca_5_0_0/orca /scratch/BH-1.4-CCSD-O_248/BH-1.4-CCSD-O.inp >& BH-1.4-CCSD-O.out
scp /scratch/BH-1.4-CCSD-O_248/*.gbw $USER@mgt01:/apps/users/lcz/exe13/CCSD
scp /scratch/BH-1.4-CCSD-O_248/*.xyz $USER@mgt01:/apps/users/lcz/exe13/CCSD
scp /scratch/BH-1.4-CCSD-O_248/*.trj $USER@mgt01:/apps/users/lcz/exe13/CCSD
------------------------------------------------------------

Exited with exit code 1.

Resource usage summary:

    CPU time   :           37.68 sec.
    Max Memory :               414 MB
    Max Processes  :               5


The output (if any) follows:

/scratch/BH-1.4-CCSD-O_248/*.xyz: No such file or directory
/scratch/BH-1.4-CCSD-O_248/*.trj: No such file or directory
