 Entering Gaussian System, Link 0=/apps/software/g16/g16
 Initial command:
 /apps/software/g16/l1.exe "/scratch/Gau-254186.inp" -scrdir="/scratch/"
 Entering Link 1 = /apps/software/g16/l1.exe PID=    254187.
  
 Copyright (c) 1988,1990,1992,1993,1995,1998,2003,2009,2016,
            Gaussian, Inc.  All Rights Reserved.
  
 This is part of the Gaussian(R) 16 program.  It is based on
 the Gaussian(R) 09 system (copyright 2009, Gaussian, Inc.),
 the Gaussian(R) 03 system (copyright 2003, Gaussian, Inc.),
 the Gaussian(R) 98 system (copyright 1998, Gaussian, Inc.),
 the Gaussian(R) 94 system (copyright 1995, Gaussian, Inc.),
 the Gaussian 92(TM) system (copyright 1992, Gaussian, Inc.),
 the Gaussian 90(TM) system (copyright 1990, Gaussian, Inc.),
 the Gaussian 88(TM) system (copyright 1988, Gaussian, Inc.),
 the Gaussian 86(TM) system (copyright 1986, Carnegie Mellon
 University), and the Gaussian 82(TM) system (copyright 1983,
 Carnegie Mellon University). Gaussian is a federally registered
 trademark of Gaussian, Inc.
  
 This software contains proprietary and confidential information,
 including trade secrets, belonging to Gaussian, Inc.
  
 This software is provided under written license and may be
 used, copied, transmitted, or stored only in accord with that
 written license.
  
 The following legend is applicable only to US Government
 contracts under FAR:
  
                    RESTRICTED RIGHTS LEGEND
  
 Use, reproduction and disclosure by the US Government is
 subject to restrictions as set forth in subparagraphs (a)
 and (c) of the Commercial Computer Software - Restricted
 Rights clause in FAR 52.227-19.
  
 Gaussian, Inc.
 340 Quinnipiac St., Bldg. 40, Wallingford CT 06492
  
  
 ---------------------------------------------------------------
 Warning -- This program may not be used in any manner that
 competes with the business of Gaussian, Inc. or will provide
 assistance to any competitor of Gaussian, Inc.  The licensee
 of this program is prohibited from giving any competitor of
 Gaussian, Inc. access to this program.  By using this program,
 the user acknowledges that Gaussian, Inc. is engaged in the
 business of creating and licensing software in the field of
 computational chemistry and represents and warrants to the
 licensee that it is not a competitor of Gaussian, Inc. and that
 it will not use this program in any manner prohibited above.
 ---------------------------------------------------------------
  

 Cite this work as:
 Gaussian 16, Revision A.03,
 M. J. Frisch, G. W. Trucks, H. B. Schlegel, G. E. Scuseria, 
 M. A. Robb, J. R. Cheeseman, G. Scalmani, V. Barone, 
 G. A. Petersson, H. Nakatsuji, X. Li, M. Caricato, A. V. Marenich, 
 J. Bloino, B. G. Janesko, R. Gomperts, B. Mennucci, H. P. Hratchian, 
 J. V. Ortiz, A. F. Izmaylov, J. L. Sonnenberg, D. Williams-Young, 
 F. Ding, F. Lipparini, F. Egidi, J. Goings, B. Peng, A. Petrone, 
 T. Henderson, D. Ranasinghe, V. G. Zakrzewski, J. Gao, N. Rega, 
 G. Zheng, W. Liang, M. Hada, M. Ehara, K. Toyota, R. Fukuda, 
 J. Hasegawa, M. Ishida, T. Nakajima, Y. Honda, O. Kitao, H. Nakai, 
 T. Vreven, K. Throssell, J. A. Montgomery, Jr., J. E. Peralta, 
 F. Ogliaro, M. J. Bearpark, J. J. Heyd, E. N. Brothers, K. N. Kudin, 
 V. N. Staroverov, T. A. Keith, R. Kobayashi, J. Normand, 
 K. Raghavachari, A. P. Rendell, J. C. Burant, S. S. Iyengar, 
 J. Tomasi, M. Cossi, J. M. Millam, M. Klene, C. Adamo, R. Cammi, 
 J. W. Ochterski, R. L. Martin, K. Morokuma, O. Farkas, 
 J. B. Foresman, and D. J. Fox, Gaussian, Inc., Wallingford CT, 2016.
 
 ******************************************
 Gaussian 16:  ES64L-G16RevA.03 25-Dec-2016
                22-May-2022 
 ******************************************
 %chk=BH-2.4-RHF-G.chk
 ------------------
 #p RHF/aug-cc-pVQZ
 ------------------
 1/38=1,172=1/1;
 2/12=2,17=6,18=5,40=1/2;
 3/5=16,6=2,7=10,11=1,25=1,30=1,116=1/1,2,3;
 4//1;
 5/5=2,38=5/2;
 6/7=2,8=2,9=2,10=2,28=1/1;
 99/5=1,9=1/99;
 Leave Link    1 at Sun May 22 15:48:53 2022, MaxMem=           0 cpu:               0.0 elap:               0.0
 (Enter /apps/software/g16/l101.exe)
 ----------------------
 BH RHF at 2.4 Angstrom
 ----------------------
 Symbolic Z-matrix:
 Charge =  0 Multiplicity = 1
 B                     0.        0.        0. 
 H                     2.4       0.        0. 
 
 ITRead=  0  0
 MicOpt= -1 -1
 NAtoms=      2 NQM=        2 NQMF=       0 NMMI=      0 NMMIF=      0
                NMic=       0 NMicF=      0.
                    Isotopes and Nuclear Properties:
 (Nuclear quadrupole moments (NQMom) in fm**2, nuclear magnetic moments (NMagM)
  in nuclear magnetons)

  Atom         1           2
 IAtWgt=          11           1
 AtmWgt=  11.0093053   1.0078250
 NucSpn=           3           1
 AtZEff=  -0.0000000  -0.0000000
 NQMom=    4.0590000   0.0000000
 NMagM=    2.6886370   2.7928460
 AtZNuc=   5.0000000   1.0000000
 Leave Link  101 at Sun May 22 15:48:53 2022, MaxMem=   104857600 cpu:               0.1 elap:               0.1
 (Enter /apps/software/g16/l202.exe)
                          Input orientation:                          
 ---------------------------------------------------------------------
 Center     Atomic      Atomic             Coordinates (Angstroms)
 Number     Number       Type             X           Y           Z
 ---------------------------------------------------------------------
      1          5           0        0.000000    0.000000    0.000000
      2          1           0        2.400000    0.000000    0.000000
 ---------------------------------------------------------------------
 Stoichiometry    BH
 Framework group  C*V[C*(HB)]
 Deg. of freedom     1
 Full point group                 C*V     NOp   4
 Largest Abelian subgroup         C2V     NOp   4
 Largest concise Abelian subgroup C1      NOp   1
                         Standard orientation:                         
 ---------------------------------------------------------------------
 Center     Atomic      Atomic             Coordinates (Angstroms)
 Number     Number       Type             X           Y           Z
 ---------------------------------------------------------------------
      1          5           0        0.000000    0.000000    0.400000
      2          1           0        0.000000    0.000000   -2.000000
 ---------------------------------------------------------------------
 Rotational constants (GHZ):           0.0000000          95.0277462          95.0277462
 Leave Link  202 at Sun May 22 15:48:53 2022, MaxMem=   104857600 cpu:               0.0 elap:               0.0
 (Enter /apps/software/g16/l301.exe)
 Standard basis: Aug-CC-pVQZ (5D, 7F)
 Ernie: Thresh=  0.10000D-02 Tol=  0.10000D-05 Strict=F.
 Ernie:  4 primitive shells out of 54 were deleted.
 There are    68 symmetry adapted cartesian basis functions of A1  symmetry.
 There are    18 symmetry adapted cartesian basis functions of A2  symmetry.
 There are    37 symmetry adapted cartesian basis functions of B1  symmetry.
 There are    37 symmetry adapted cartesian basis functions of B2  symmetry.
 There are    50 symmetry adapted basis functions of A1  symmetry.
 There are    16 symmetry adapted basis functions of A2  symmetry.
 There are    30 symmetry adapted basis functions of B1  symmetry.
 There are    30 symmetry adapted basis functions of B2  symmetry.
   126 basis functions,   180 primitive gaussians,   160 cartesian basis functions
     3 alpha electrons        3 beta electrons
       nuclear repulsion energy         1.1024525228 Hartrees.
 IExCor=    0 DFT=F Ex=HF Corr=None ExCW=0 ScaHFX=  1.000000
 ScaDFX=  1.000000  1.000000  1.000000  1.000000 ScalE2=  1.000000  1.000000
 IRadAn=      5 IRanWt=     -1 IRanGd=            0 ICorTp=0 IEmpDi=  4
 NAtoms=    2 NActive=    2 NUniq=    2 SFac= 1.00D+00 NAtFMM=   60 NAOKFM=F Big=F
 Integral buffers will be    131072 words long.
 Raffenetti 1 integral format.
 Two-electron integral symmetry is turned on.
 Leave Link  301 at Sun May 22 15:48:53 2022, MaxMem=   104857600 cpu:               0.1 elap:               0.1
 (Enter /apps/software/g16/l302.exe)
 NPDir=0 NMtPBC=     1 NCelOv=     1 NCel=       1 NClECP=     1 NCelD=      1
         NCelK=      1 NCelE2=     1 NClLst=     1 CellRange=     0.0.
 One-electron integrals computed using PRISM.
 One-electron integral symmetry used in STVInt
 NBasis=   126 RedAO= T EigKep=  9.31D-04  NBF=    50    16    30    30
 NBsUse=   126 1.00D-06 EigRej= -1.00D+00 NBFU=    50    16    30    30
 Leave Link  302 at Sun May 22 15:48:54 2022, MaxMem=   104857600 cpu:               0.1 elap:               0.1
 (Enter /apps/software/g16/l303.exe)
 DipDrv:  MaxL=1.
 Leave Link  303 at Sun May 22 15:48:54 2022, MaxMem=   104857600 cpu:               0.0 elap:               0.0
 (Enter /apps/software/g16/l401.exe)
 ExpMin= 1.88D-02 ExpMax= 2.39D+04 ExpMxC= 2.30D+02 IAcc=3 IRadAn=         5 AccDes= 0.00D+00
 Harris functional with IExCor=  205 and IRadAn=       5 diagonalized for initial guess.
 HarFok:  IExCor=  205 AccDes= 0.00D+00 IRadAn=         5 IDoV= 1 UseB2=F ITyADJ=14
 ICtDFT=  3500011 ScaDFX=  1.000000  1.000000  1.000000  1.000000
 FoFCou: FMM=F IPFlag=           0 FMFlag=      100000 FMFlg1=           0
         NFxFlg=           0 DoJE=T BraDBF=F KetDBF=T FulRan=T
         wScrn=  0.000000 ICntrl=       500 IOpCl=  0 I1Cent=   200000004 NGrid=           0
         NMat0=    1 NMatS0=      1 NMatT0=    0 NMatD0=    1 NMtDS0=    0 NMtDT0=    0
 Petite list used in FoFCou.
 Harris En= -25.0157879491661    
 JPrj=0 DoOrth=F DoCkMO=F.
 Initial guess orbital symmetries:
       Occupied  (SG) (SG) (SG)
       Virtual   (PI) (PI) (SG) (SG) (SG) (PI) (PI) (SG) (PI) (PI)
                 (DLTA) (DLTA) (SG) (PI) (PI) (SG) (PI) (PI) (SG)
                 (SG) (PI) (PI) (DLTA) (DLTA) (DLTA) (DLTA) (PHI)
                 (PHI) (SG) (PI) (PI) (SG) (SG) (DLTA) (DLTA) (PI)
                 (PI) (SG) (SG) (PI) (PI) (PI) (PI) (SG) (PI) (PI)
                 (DLTA) (DLTA) (PHI) (PHI) (DLTA) (DLTA) (SG) (?A)
                 (?A) (SG) (PHI) (PHI) (PI) (PI) (DLTA) (DLTA)
                 (SG) (SG) (PHI) (PHI) (PI) (PI) (SG) (DLTA) (DLTA)
                 (SG) (PI) (PI) (DLTA) (DLTA) (PI) (PI) (PI) (PI)
                 (SG) (SG) (PI) (PI) (SG) (DLTA) (DLTA) (PI) (PI)
                 (?A) (?A) (PHI) (PHI) (SG) (DLTA) (DLTA) (PHI)
                 (PHI) (PI) (PI) (DLTA) (DLTA) (PI) (PI) (SG) (SG)
                 (PHI) (PHI) (DLTA) (DLTA) (PI) (PI) (SG) (SG)
                 (PI) (PI) (SG) (DLTA) (DLTA) (PI) (PI) (SG) (SG)
 The electronic state of the initial guess is 1-SG.
 Leave Link  401 at Sun May 22 15:48:54 2022, MaxMem=   104857600 cpu:               0.2 elap:               0.2
 (Enter /apps/software/g16/l502.exe)
 Keep R1 ints in memory in symmetry-blocked form, NReq=40143665.
 FoFCou: FMM=F IPFlag=           0 FMFlag=           0 FMFlg1=           0
         NFxFlg=           0 DoJE=F BraDBF=F KetDBF=F FulRan=T
         wScrn=  0.000000 ICntrl=       600 IOpCl=  0 I1Cent=           0 NGrid=           0
         NMat0=    1 NMatS0=   8001 NMatT0=    0 NMatD0=    1 NMtDS0=    0 NMtDT0=    0
 Petite list used in FoFCou.
 Closed shell SCF:
 Using DIIS extrapolation, IDIIS=  1040.
 NGot=   104857600 LenX=    96673173 LenY=    96647132
 Requested convergence on RMS density matrix=1.00D-08 within 128 cycles.
 Requested convergence on MAX density matrix=1.00D-06.
 Requested convergence on             energy=1.00D-06.
 No special actions if energy rises.

 Cycle   1  Pass 1  IDiag  1:
 E= -24.9546884125562    
 DIIS: error= 4.12D-02 at cycle   1 NSaved=   1.
 NSaved= 1 IEnMin= 1 EnMin= -24.9546884125562     IErMin= 1 ErrMin= 4.12D-02
 ErrMax= 4.12D-02  0.00D+00 EMaxC= 1.00D-01 BMatC= 4.93D-02 BMatP= 4.93D-02
 IDIUse=3 WtCom= 5.88D-01 WtEn= 4.12D-01
 Coeff-Com:  0.100D+01
 Coeff-En:   0.100D+01
 Coeff:      0.100D+01
 Gap=     0.217 Goal=   None    Shift=    0.000
 GapD=    0.217 DampG=1.000 DampE=0.500 DampFc=0.5000 IDamp=-1.
 Damping current iteration by 5.00D-01
 RMSDP=1.75D-03 MaxDP=6.59D-02              OVMax= 2.34D-01

 Cycle   2  Pass 1  IDiag  1:
 E= -24.9806190628000     Delta-E=       -0.025930650244 Rises=F Damp=T
 DIIS: error= 2.00D-02 at cycle   2 NSaved=   2.
 NSaved= 2 IEnMin= 2 EnMin= -24.9806190628000     IErMin= 2 ErrMin= 2.00D-02
 ErrMax= 2.00D-02  0.00D+00 EMaxC= 1.00D-01 BMatC= 1.15D-02 BMatP= 4.93D-02
 IDIUse=3 WtCom= 8.00D-01 WtEn= 2.00D-01
 Coeff-Com: -0.877D+00 0.188D+01
 Coeff-En:   0.000D+00 0.100D+01
 Coeff:     -0.702D+00 0.170D+01
 Gap=     0.318 Goal=   None    Shift=    0.000
 RMSDP=7.28D-04 MaxDP=3.57D-02 DE=-2.59D-02 OVMax= 4.50D-02

 Cycle   3  Pass 1  IDiag  1:
 E= -25.0051355277803     Delta-E=       -0.024516464980 Rises=F Damp=F
 DIIS: error= 1.45D-03 at cycle   3 NSaved=   3.
 NSaved= 3 IEnMin= 3 EnMin= -25.0051355277803     IErMin= 3 ErrMin= 1.45D-03
 ErrMax= 1.45D-03  0.00D+00 EMaxC= 1.00D-01 BMatC= 5.66D-05 BMatP= 1.15D-02
 IDIUse=3 WtCom= 9.85D-01 WtEn= 1.45D-02
 Coeff-Com:  0.237D-01-0.877D-01 0.106D+01
 Coeff-En:   0.000D+00 0.000D+00 0.100D+01
 Coeff:      0.234D-01-0.864D-01 0.106D+01
 Gap=     0.308 Goal=   None    Shift=    0.000
 RMSDP=9.23D-05 MaxDP=2.67D-03 DE=-2.45D-02 OVMax= 7.20D-03

 Cycle   4  Pass 1  IDiag  1:
 E= -25.0053002091313     Delta-E=       -0.000164681351 Rises=F Damp=F
 DIIS: error= 5.62D-04 at cycle   4 NSaved=   4.
 NSaved= 4 IEnMin= 4 EnMin= -25.0053002091313     IErMin= 4 ErrMin= 5.62D-04
 ErrMax= 5.62D-04  0.00D+00 EMaxC= 1.00D-01 BMatC= 6.31D-06 BMatP= 5.66D-05
 IDIUse=3 WtCom= 9.94D-01 WtEn= 5.62D-03
 Coeff-Com:  0.715D-02 0.216D-02-0.572D+00 0.156D+01
 Coeff-En:   0.000D+00 0.000D+00 0.000D+00 0.100D+01
 Coeff:      0.711D-02 0.214D-02-0.569D+00 0.156D+01
 Gap=     0.309 Goal=   None    Shift=    0.000
 RMSDP=4.21D-05 MaxDP=1.44D-03 DE=-1.65D-04 OVMax= 4.07D-03

 Cycle   5  Pass 1  IDiag  1:
 E= -25.0053230918551     Delta-E=       -0.000022882724 Rises=F Damp=F
 DIIS: error= 3.23D-05 at cycle   5 NSaved=   5.
 NSaved= 5 IEnMin= 5 EnMin= -25.0053230918551     IErMin= 5 ErrMin= 3.23D-05
 ErrMax= 3.23D-05  0.00D+00 EMaxC= 1.00D-01 BMatC= 7.81D-08 BMatP= 6.31D-06
 IDIUse=1 WtCom= 1.00D+00 WtEn= 0.00D+00
 Coeff-Com: -0.144D-02-0.100D-02 0.146D+00-0.450D+00 0.131D+01
 Coeff:     -0.144D-02-0.100D-02 0.146D+00-0.450D+00 0.131D+01
 Gap=     0.309 Goal=   None    Shift=    0.000
 RMSDP=4.14D-06 MaxDP=1.13D-04 DE=-2.29D-05 OVMax= 3.33D-04

 Cycle   6  Pass 1  IDiag  1:
 E= -25.0053232815547     Delta-E=       -0.000000189700 Rises=F Damp=F
 DIIS: error= 5.71D-06 at cycle   6 NSaved=   6.
 NSaved= 6 IEnMin= 6 EnMin= -25.0053232815547     IErMin= 6 ErrMin= 5.71D-06
 ErrMax= 5.71D-06  0.00D+00 EMaxC= 1.00D-01 BMatC= 1.16D-09 BMatP= 7.81D-08
 IDIUse=1 WtCom= 1.00D+00 WtEn= 0.00D+00
 Coeff-Com:  0.601D-03-0.851D-03-0.130D-01 0.493D-01-0.204D+00 0.117D+01
 Coeff:      0.601D-03-0.851D-03-0.130D-01 0.493D-01-0.204D+00 0.117D+01
 Gap=     0.309 Goal=   None    Shift=    0.000
 RMSDP=7.26D-07 MaxDP=2.44D-05 DE=-1.90D-07 OVMax= 4.31D-05

 Cycle   7  Pass 1  IDiag  1:
 E= -25.0053232854097     Delta-E=       -0.000000003855 Rises=F Damp=F
 DIIS: error= 1.33D-06 at cycle   7 NSaved=   7.
 NSaved= 7 IEnMin= 7 EnMin= -25.0053232854097     IErMin= 7 ErrMin= 1.33D-06
 ErrMax= 1.33D-06  0.00D+00 EMaxC= 1.00D-01 BMatC= 4.78D-11 BMatP= 1.16D-09
 IDIUse=1 WtCom= 1.00D+00 WtEn= 0.00D+00
 Coeff-Com:  0.157D-04-0.584D-04 0.114D-02-0.479D-02 0.144D-01-0.249D+00
 Coeff-Com:  0.124D+01
 Coeff:      0.157D-04-0.584D-04 0.114D-02-0.479D-02 0.144D-01-0.249D+00
 Coeff:      0.124D+01
 Gap=     0.309 Goal=   None    Shift=    0.000
 RMSDP=1.66D-07 MaxDP=5.88D-06 DE=-3.85D-09 OVMax= 1.11D-05

 Cycle   8  Pass 1  IDiag  1:
 E= -25.0053232855819     Delta-E=       -0.000000000172 Rises=F Damp=F
 DIIS: error= 1.79D-07 at cycle   8 NSaved=   8.
 NSaved= 8 IEnMin= 8 EnMin= -25.0053232855819     IErMin= 8 ErrMin= 1.79D-07
 ErrMax= 1.79D-07  0.00D+00 EMaxC= 1.00D-01 BMatC= 1.20D-12 BMatP= 4.78D-11
 IDIUse=1 WtCom= 1.00D+00 WtEn= 0.00D+00
 Coeff-Com:  0.953D-05-0.134D-04-0.182D-03 0.101D-02-0.163D-02 0.651D-01
 Coeff-Com: -0.424D+00 0.136D+01
 Coeff:      0.953D-05-0.134D-04-0.182D-03 0.101D-02-0.163D-02 0.651D-01
 Coeff:     -0.424D+00 0.136D+01
 Gap=     0.309 Goal=   None    Shift=    0.000
 RMSDP=2.96D-08 MaxDP=1.87D-06 DE=-1.72D-10 OVMax= 1.81D-06

 Cycle   9  Pass 1  IDiag  1:
 E= -25.0053232855868     Delta-E=       -0.000000000005 Rises=F Damp=F
 DIIS: error= 3.51D-08 at cycle   9 NSaved=   9.
 NSaved= 9 IEnMin= 9 EnMin= -25.0053232855868     IErMin= 9 ErrMin= 3.51D-08
 ErrMax= 3.51D-08  0.00D+00 EMaxC= 1.00D-01 BMatC= 4.58D-14 BMatP= 1.20D-12
 IDIUse=1 WtCom= 1.00D+00 WtEn= 0.00D+00
 Coeff-Com:  0.484D-06-0.135D-05 0.326D-05-0.933D-04-0.482D-03-0.125D-01
 Coeff-Com:  0.107D+00-0.521D+00 0.143D+01
 Coeff:      0.484D-06-0.135D-05 0.326D-05-0.933D-04-0.482D-03-0.125D-01
 Coeff:      0.107D+00-0.521D+00 0.143D+01
 Gap=     0.309 Goal=   None    Shift=    0.000
 RMSDP=6.45D-09 MaxDP=3.67D-07 DE=-4.91D-12 OVMax= 5.65D-07

 SCF Done:  E(RHF) =  -25.0053232856     A.U. after    9 cycles
            NFock=  9  Conv=0.64D-08     -V/T= 2.0096
 KE= 2.476766254932D+01 PE=-5.959940699766D+01 EE= 8.723968640004D+00
 Leave Link  502 at Sun May 22 15:48:58 2022, MaxMem=   104857600 cpu:               3.7 elap:               3.7
 (Enter /apps/software/g16/l601.exe)
 Copying SCF densities to generalized density rwf, IOpCl= 0 IROHF=0.

 **********************************************************************

            Population analysis using the SCF density.

 **********************************************************************

 Orbital symmetries:
       Occupied  (SG) (SG) (SG)
       Virtual   (PI) (PI) (SG) (SG) (PI) (PI) (SG) (SG) (DLTA)
                 (DLTA) (PI) (PI) (SG) (SG) (PI) (PI) (PI) (PI)
                 (SG) (SG) (PHI) (PHI) (DLTA) (DLTA) (PI) (PI)
                 (DLTA) (DLTA) (SG) (PI) (PI) (SG) (SG) (DLTA)
                 (DLTA) (PI) (PI) (SG) (SG) (PI) (PI) (PI) (PI)
                 (SG) (PHI) (PHI) (?A) (?A) (DLTA) (DLTA) (PI)
                 (PI) (DLTA) (DLTA) (SG) (PHI) (PHI) (SG) (PI)
                 (PI) (DLTA) (DLTA) (SG) (PI) (PI) (PHI) (PHI)
                 (SG) (DLTA) (DLTA) (SG) (SG) (PI) (PI) (DLTA)
                 (DLTA) (PI) (PI) (PI) (PI) (SG) (SG) (PI) (PI)
                 (?A) (?A) (DLTA) (DLTA) (PHI) (PHI) (SG) (PI)
                 (PI) (DLTA) (DLTA) (SG) (PHI) (PHI) (PI) (PI)
                 (DLTA) (DLTA) (PI) (PI) (SG) (SG) (PHI) (PHI)
                 (DLTA) (DLTA) (PI) (PI) (SG) (SG) (PI) (PI) (DLTA)
                 (DLTA) (SG) (PI) (PI) (SG) (SG)
 The electronic state is 1-SG.
 Alpha  occ. eigenvalues --   -7.81644  -0.56559  -0.30987
 Alpha virt. eigenvalues --   -0.00097  -0.00097   0.01710   0.04901   0.05872
 Alpha virt. eigenvalues --    0.05872   0.06945   0.08792   0.13789   0.13789
 Alpha virt. eigenvalues --    0.13970   0.13970   0.17993   0.26356   0.26535
 Alpha virt. eigenvalues --    0.26535   0.29311   0.29311   0.31014   0.35078
 Alpha virt. eigenvalues --    0.44621   0.44621   0.45334   0.45334   0.47077
 Alpha virt. eigenvalues --    0.47077   0.47273   0.47273   0.49300   0.52996
 Alpha virt. eigenvalues --    0.52996   0.58017   0.62818   0.74052   0.74052
 Alpha virt. eigenvalues --    0.85886   0.85886   0.89956   0.91346   0.91433
 Alpha virt. eigenvalues --    0.91433   1.02950   1.02950   1.27773   1.33513
 Alpha virt. eigenvalues --    1.33513   1.33904   1.33904   1.35604   1.35604
 Alpha virt. eigenvalues --    1.35621   1.35621   1.36413   1.36413   1.38692
 Alpha virt. eigenvalues --    1.39797   1.39797   1.41630   1.43000   1.43000
 Alpha virt. eigenvalues --    1.43278   1.43278   1.56682   1.65536   1.65536
 Alpha virt. eigenvalues --    1.66155   1.66155   1.69061   1.90263   1.90263
 Alpha virt. eigenvalues --    1.93611   2.11155   2.14587   2.14587   2.57559
 Alpha virt. eigenvalues --    2.57559   2.69512   2.69512   2.83744   2.83744
 Alpha virt. eigenvalues --    2.89376   3.20162   3.67643   3.67643   3.85957
 Alpha virt. eigenvalues --    3.85957   3.87383   3.87383   3.88115   3.88115
 Alpha virt. eigenvalues --    3.89727   3.90664   3.90664   3.94851   3.94851
 Alpha virt. eigenvalues --    3.95685   4.01444   4.01444   4.03745   4.03745
 Alpha virt. eigenvalues --    4.04254   4.04254   4.19749   4.19749   4.30303
 Alpha virt. eigenvalues --    4.46393   6.64693   6.64693   6.71190   6.71190
 Alpha virt. eigenvalues --    6.81700   6.81700   6.82621   7.70331   8.14127
 Alpha virt. eigenvalues --    8.14127   8.50670   8.50670   8.52370   8.59034
 Alpha virt. eigenvalues --    8.59034   8.84593  13.24771
          Condensed to atoms (all electrons):
               1          2
     1  B    4.516987   0.268306
     2  H    0.268306   0.946401
 Mulliken charges:
               1
     1  B    0.214707
     2  H   -0.214707
 Sum of Mulliken charges =  -0.00000
 Mulliken charges with hydrogens summed into heavy atoms:
               1
     1  B   -0.000000
 Electronic spatial extent (au):  <R**2>=             40.1120
 Charge=             -0.0000 electrons
 Dipole moment (field-independent basis, Debye):
    X=              0.0000    Y=              0.0000    Z=              2.9709  Tot=              2.9709
 Quadrupole moment (field-independent basis, Debye-Ang):
   XX=             -7.9917   YY=             -7.9917   ZZ=            -14.9134
   XY=              0.0000   XZ=              0.0000   YZ=              0.0000
 Traceless Quadrupole moment (field-independent basis, Debye-Ang):
   XX=              2.3072   YY=              2.3072   ZZ=             -4.6145
   XY=              0.0000   XZ=              0.0000   YZ=              0.0000
 Octapole moment (field-independent basis, Debye-Ang**2):
  XXX=              0.0000  YYY=              0.0000  ZZZ=             12.1132  XYY=              0.0000
  XXY=              0.0000  XXZ=              3.0441  XZZ=              0.0000  YZZ=              0.0000
  YYZ=              3.0441  XYZ=              0.0000
 Hexadecapole moment (field-independent basis, Debye-Ang**3):
 XXXX=            -13.0505 YYYY=            -13.0505 ZZZZ=            -92.8486 XXXY=              0.0000
 XXXZ=              0.0000 YYYX=              0.0000 YYYZ=              0.0000 ZZZX=              0.0000
 ZZZY=              0.0000 XXYY=             -4.3502 XXZZ=            -16.6623 YYZZ=            -16.6623
 XXYZ=              0.0000 YYXZ=              0.0000 ZZXY=              0.0000
 N-N= 1.102452522750D+00 E-N=-5.959940707499D+01  KE= 2.476766254932D+01
 Symmetry A1   KE= 2.476766254932D+01
 Symmetry A2   KE= 4.301643915644D-52
 Symmetry B1   KE= 0.000000000000D+00
 Symmetry B2   KE= 0.000000000000D+00
 No NMR shielding tensors so no spin-rotation constants.
 Leave Link  601 at Sun May 22 15:48:58 2022, MaxMem=   104857600 cpu:               0.1 elap:               0.1
 (Enter /apps/software/g16/l9999.exe)
 1\1\GINC-CNODE08\SP\RHF\Aug-CC-pVQZ\B1H1\LCZ\22-May-2022\0\\#p RHF/aug
 -cc-pVQZ\\BH RHF at 2.4 Angstrom\\0,1\B,0,0.,0.,0.\H,0,2.4,0.,0.\\Vers
 ion=ES64L-G16RevA.03\State=1-SG\HF=-25.0053233\RMSD=6.447e-09\Dipole=-
 1.1688251,0.,0.\Quadrupole=-3.4307532,1.7153766,1.7153766,0.,0.,0.\PG=
 C*V [C*(H1B1)]\\@


 EDUCATION WITHOUT COMMON SENSE IS A LOAD OF BOOKS ON THE BACK OF AN ASS.
 Job cpu time:       0 days  0 hours  0 minutes  4.5 seconds.
 Elapsed time:       0 days  0 hours  0 minutes  4.5 seconds.
 File lengths (MBytes):  RWF=     10 Int=      0 D2E=      0 Chk=      3 Scr=      1
 Normal termination of Gaussian 16 at Sun May 22 15:48:58 2022.

Sender: Unischeduler System <lcz@mgt01>
Subject: Job 134022: <#!/bin/bash
#BSUB -J intel
#BSUB -o BH-2.4-RHF-G.out
#BSUB -n 8
#BSUB -q cqueue
#BSUB -R span[hosts=1]
export g16root=/apps/software
source /apps/software/g16/bsd/g16.profile
export GAUSS_SCRDIR=/scratch
/apps/software/g16/g16 < BH-2.4-RHF-G.inp > BH-2.4-RHF-G.out> Done

Job <#!/bin/bash
#BSUB -J intel
#BSUB -o BH-2.4-RHF-G.out
#BSUB -n 8
#BSUB -q cqueue
#BSUB -R span[hosts=1]
export g16root=/apps/software
source /apps/software/g16/bsd/g16.profile
export GAUSS_SCRDIR=/scratch
/apps/software/g16/g16 < BH-2.4-RHF-G.inp > BH-2.4-RHF-G.out> was submitted from host <mgt01> by user <lcz>.
Job was executed on host(s) <8*cnode08>, in queue <cqueue>, as user <lcz>.
</apps/users/lcz> was used as the home directory.
</apps/users/lcz/exe13/CCSD> was used as the working directory.
Started at 2022-05-22 15:48:53
Results reported at 2022-05-22 15:48:58

Your job looked like:

------------------------------------------------------------
# User input
#!/bin/bash
#BSUB -J intel
#BSUB -o BH-2.4-RHF-G.out
#BSUB -n 8
#BSUB -q cqueue
#BSUB -R span[hosts=1]
export g16root=/apps/software
source /apps/software/g16/bsd/g16.profile
export GAUSS_SCRDIR=/scratch
/apps/software/g16/g16 < BH-2.4-RHF-G.inp > BH-2.4-RHF-G.out
------------------------------------------------------------

Successfully completed.

Resource usage summary:

    CPU time   :             0.2 sec.
    Max Memory :                21 MB
    Max Processes  :               5


The output (if any) follows:

