
                                        *****************
                                        * O   R   C   A *
                                        *****************

                                            #,                                       
                                            ###                                      
                                            ####                                     
                                            #####                                    
                                            ######                                   
                                           ########,                                 
                                     ,,################,,,,,                         
                               ,,#################################,,                 
                          ,,##########################################,,             
                       ,#########################################, ''#####,          
                    ,#############################################,,   '####,        
                  ,##################################################,,,,####,       
                ,###########''''           ''''###############################       
              ,#####''   ,,,,##########,,,,          '''####'''          '####       
            ,##' ,,,,###########################,,,                        '##       
           ' ,,###''''                  '''############,,,                           
         ,,##''                                '''############,,,,        ,,,,,,###''
      ,#''                                            '''#######################'''  
     '                                                          ''''####''''         
             ,#######,   #######,   ,#######,      ##                                
            ,#'     '#,  ##    ##  ,#'     '#,    #''#        ######   ,####,        
            ##       ##  ##   ,#'  ##            #'  '#       #        #'  '#        
            ##       ##  #######   ##           ,######,      #####,   #    #        
            '#,     ,#'  ##    ##  '#,     ,#' ,#      #,         ##   #,  ,#        
             '#######'   ##     ##  '#######'  #'      '#     #####' # '####'        



                  #######################################################
                  #                        -***-                        #
                  #          Department of theory and spectroscopy      #
                  #    Directorship and core code : Frank Neese         #
                  #        Max Planck Institute fuer Kohlenforschung    #
                  #                Kaiser Wilhelm Platz 1               #
                  #                 D-45470 Muelheim/Ruhr               #
                  #                      Germany                        #
                  #                                                     #
                  #                  All rights reserved                #
                  #                        -***-                        #
                  #######################################################


                         Program Version 5.0.0 -  RELEASE  -
                                (SVN: $Rev: 19529$)
                ($Date: 2021-06-28 11:36:33 +0200 (Mo, 28 Jun 2021) $)


 With contributions from (in alphabetic order):
   Daniel Aravena         : Magnetic Suceptibility
   Michael Atanasov       : Ab Initio Ligand Field Theory (pilot matlab implementation)
   Alexander A. Auer      : GIAO ZORA, VPT2 properties, NMR spectrum
   Ute Becker             : Parallelization
   Giovanni Bistoni       : ED, misc. LED, open-shell LED, HFLD
   Martin Brehm           : Molecular dynamics
   Dmytro Bykov           : SCF Hessian
   Vijay G. Chilkuri      : MRCI spin determinant printing, contributions to CSF-ICE
   Dipayan Datta          : RHF DLPNO-CCSD density
   Achintya Kumar Dutta   : EOM-CC, STEOM-CC
   Dmitry Ganyushin       : Spin-Orbit,Spin-Spin,Magnetic field MRCI
   Miquel Garcia          : C-PCM Hessian, Gaussian charge scheme
   Yang Guo               : DLPNO-NEVPT2, F12-NEVPT2, CIM, IAO-localization
   Andreas Hansen         : Spin unrestricted coupled pair/coupled cluster methods
   Benjamin Helmich-Paris : MC-RPA, TRAH-SCF, COSX integrals
   Lee Huntington         : MR-EOM, pCC
   Robert Izsak           : Overlap fitted RIJCOSX, COSX-SCS-MP3, EOM
   Marcus Kettner         : VPT2
   Christian Kollmar      : KDIIS, OOCD, Brueckner-CCSD(T), CCSD density, CASPT2, CASPT2-K
   Simone Kossmann        : Meta GGA functionals, TD-DFT gradient, OOMP2, MP2 Hessian
   Martin Krupicka        : Initial AUTO-CI
   Lucas Lang             : DCDCAS
   Marvin Lechner         : AUTO-CI (C++ implementation), FIC-MRCC
   Dagmar Lenk            : GEPOL surface, SMD
   Dimitrios Liakos       : Extrapolation schemes; Compound Job, initial MDCI parallelization
   Dimitrios Manganas     : Further ROCIS development; embedding schemes
   Dimitrios Pantazis     : SARC Basis sets
   Anastasios Papadopoulos: AUTO-CI, single reference methods and gradients
   Taras Petrenko         : DFT Hessian,TD-DFT gradient, ASA, ECA, R-Raman, ABS, FL, XAS/XES, NRVS
   Peter Pinski           : DLPNO-MP2, DLPNO-MP2 Gradient
   Christoph Reimann      : Effective Core Potentials
   Marius Retegan         : Local ZFS, SOC
   Christoph Riplinger    : Optimizer, TS searches, QM/MM, DLPNO-CCSD(T), (RO)-DLPNO pert. Triples
   Tobias Risthaus        : Range-separated hybrids, TD-DFT gradient, RPA, STAB
   Michael Roemelt        : Original ROCIS implementation
   Masaaki Saitow         : Open-shell DLPNO-CCSD energy and density
   Barbara Sandhoefer     : DKH picture change effects
   Avijit Sen             : IP-ROCIS
   Kantharuban Sivalingam : CASSCF convergence, NEVPT2, FIC-MRCI
   Bernardo de Souza      : ESD, SOC TD-DFT
   Georgi Stoychev        : AutoAux, RI-MP2 NMR
   Willem Van den Heuvel  : Paramagnetic NMR
   Boris Wezisla          : Elementary symmetry handling
   Frank Wennmohs         : Technical directorship


 We gratefully acknowledge several colleagues who have allowed us to
 interface, adapt or use parts of their codes:
   Stefan Grimme, W. Hujo, H. Kruse, P. Pracht,  : VdW corrections, initial TS optimization,
                  C. Bannwarth, S. Ehlert          DFT functionals, gCP, sTDA/sTD-DF
   Ed Valeev, F. Pavosevic, A. Kumar             : LibInt (2-el integral package), F12 methods
   Garnet Chan, S. Sharma, J. Yang, R. Olivares  : DMRG
   Ulf Ekstrom                                   : XCFun DFT Library
   Mihaly Kallay                                 : mrcc  (arbitrary order and MRCC methods)
   Jiri Pittner, Ondrej Demel                    : Mk-CCSD
   Frank Weinhold                                : gennbo (NPA and NBO analysis)
   Christopher J. Cramer and Donald G. Truhlar   : smd solvation model
   Lars Goerigk                                  : TD-DFT with DH, B97 family of functionals
   V. Asgeirsson, H. Jonsson                     : NEB implementation
   FAccTs GmbH                                   : IRC, NEB, NEB-TS, DLPNO-Multilevel, CI-OPT
                                                   MM, QMMM, 2- and 3-layer-ONIOM, Crystal-QMMM,
                                                   LR-CPCM, SF, NACMEs, symmetry and pop. for TD-DFT,
                                                   nearIR, NL-DFT gradient (VV10), updates on ESD,
                                                   ML-optimized integration grids
   S Lehtola, MJT Oliveira, MAL Marques          : LibXC Library
   Liviu Ungur et al                             : ANISO software


 Your calculation uses the libint2 library for the computation of 2-el integrals
 For citations please refer to: http://libint.valeyev.net

 Your ORCA version has been built with support for libXC version: 5.1.0
 For citations please refer to: https://tddft.org/programs/libxc/

 This ORCA versions uses:
   CBLAS   interface :  Fast vector & matrix operations
   LAPACKE interface :  Fast linear algebra routines
   SCALAPACK package :  Parallel linear algebra routines
   Shared memory     :  Shared parallel matrices
   BLAS/LAPACK       :  OpenBLAS 0.3.15  USE64BITINT DYNAMIC_ARCH NO_AFFINITY SkylakeX SINGLE_THREADED
        Core in use  :  SkylakeX
   Copyright (c) 2011-2014, The OpenBLAS Project


================================================================================

----- Orbital basis set information -----
Your calculation utilizes the basis: aug-cc-pVQZ 
    H, B-Ne : Obtained from the ccRepo (grant-hill.group.shef.ac.uk/ccrepo) Feb. 2017
              R. A. Kendall, T. H. Dunning, Jr., R. J. Harrison, J. Chem. Phys. 96, 6796 (1992)
         He : Obtained from the ccRepo (grant-hill.group.shef.ac.uk/ccrepo) Feb. 2017
              D. E. Woon, T. H. Dunning, Jr., J. Chem. Phys. 100, 2975 (1994)
  Li-Be, Na : Obtained from the ccRepo (grant-hill.group.shef.ac.uk/ccrepo) Feb. 2017
              B. P. Prascher, D. E. Woon, K. A. Peterson, T. H. Dunning, Jr., A. K. Wilson, Theor. Chem. Acc. 128, 69 (2011)
         Mg : Obtained from the Peterson Research Group Website (tyr0.chem.wsu.edu/~kipeters) Feb. 2017
              B. P. Prascher, D. E. Woon, K. A. Peterson, T. H. Dunning, Jr., A. K. Wilson, Theor. Chem. Acc. 128, 69 (2011)
      Al-Ar : Obtained from the ccRepo (grant-hill.group.shef.ac.uk/ccrepo) Feb. 2017
              D. E. Woon, T. H. Dunning, Jr., J. Chem. Phys. 98, 1358 (1993)
      Sc-Zn : Obtained from the ccRepo (grant-hill.group.shef.ac.uk/ccrepo) Feb. 2017
              N. B. Balabanov, K. A. Peterson, J. Chem. Phys. 123, 064107 (2005)
              N. B. Balabanov, K. A. Peterson, J. Chem. Phys. 125, 074110 (2006)
      Ga-Kr : Obtained from the ccRepo (grant-hill.group.shef.ac.uk/ccrepo) Feb. 2017
              A. K. Wilson, D. E. Woon, K. A. Peterson, T. H. Dunning, Jr., J. Chem. Phys. 110, 7667 (1999)

================================================================================
                                        WARNINGS
                       Please study these warnings very carefully!
================================================================================


WARNING: Post HF methods need fully converged wavefunctions
  ===> : Setting SCFConvForced true
         You can overwrite this default with %scf ConvForced false 


WARNING: MDCI localization with Augmented Hessian Foster-Boys
  ===> : Switching off randomization!

INFO   : the flag for use of the SHARK integral package has been found!

================================================================================
                                       INPUT FILE
================================================================================
NAME = /scratch/BH-2.6-CCSD-O_265/BH-2.6-CCSD-O.inp
|  1> ! RHF CCSD aug-cc-pVQZ VeryTightSCF
|  2> 
|  3> *xyz 0 1
|  4>  B	0.0	0.0	0.0
|  5>  H	2.6	0.0	0.0
|  6> **                         ****END OF INPUT****
================================================================================

                       ****************************
                       * Single Point Calculation *
                       ****************************

---------------------------------
CARTESIAN COORDINATES (ANGSTROEM)
---------------------------------
  B      0.000000    0.000000    0.000000
  H      2.600000    0.000000    0.000000

----------------------------
CARTESIAN COORDINATES (A.U.)
----------------------------
  NO LB      ZA    FRAG     MASS         X           Y           Z
   0 B     5.0000    0    10.810    0.000000    0.000000    0.000000
   1 H     1.0000    0     1.008    4.913288    0.000000    0.000000

--------------------------------
INTERNAL COORDINATES (ANGSTROEM)
--------------------------------
 B      0   0   0     0.000000000000     0.00000000     0.00000000
 H      1   0   0     2.600000000000     0.00000000     0.00000000

---------------------------
INTERNAL COORDINATES (A.U.)
---------------------------
 B      0   0   0     0.000000000000     0.00000000     0.00000000
 H      1   0   0     4.913287948195     0.00000000     0.00000000

---------------------
BASIS SET INFORMATION
---------------------
There are 2 groups of distinct atoms

 Group   1 Type B   : 22s7p4d3f2g contracted to 6s5p4d3f2g pattern {991111/31111/1111/111/11}
 Group   2 Type H   : 7s4p3d2f contracted to 5s4p3d2f pattern {31111/1111/111/11}

Atom   0B    basis set group =>   1
Atom   1H    basis set group =>   2
------------------------------------------------------------------------------
                           ORCA GTO INTEGRAL CALCULATION
------------------------------------------------------------------------------
------------------------------------------------------------------------------
                   ___                                                        
                  /   \      - P O W E R E D   B Y -                         
                 /     \                                                     
                 |  |  |   _    _      __       _____    __    __             
                 |  |  |  | |  | |    /  \     |  _  \  |  |  /  |          
                  \  \/   | |  | |   /    \    | | | |  |  | /  /          
                 / \  \   | |__| |  /  /\  \   | |_| |  |  |/  /          
                |  |  |   |  __  | /  /__\  \  |    /   |      \           
                |  |  |   | |  | | |   __   |  |    \   |  |\   \          
                \     /   | |  | | |  |  |  |  | |\  \  |  | \   \       
                 \___/    |_|  |_| |__|  |__|  |_| \__\ |__|  \__/        
                                                                              
                      - O R C A' S   B I G   F R I E N D -                    
                                      &                                       
                       - I N T E G R A L  F E E D E R -                       
                                                                              
 v1 FN, 2020, v2 2021                                                         
------------------------------------------------------------------------------


Reading SHARK input file /scratch/BH-2.6-CCSD-O_265/BH-2.6-CCSD-O.SHARKINP.tmp ... ok
----------------------
SHARK INTEGRAL PACKAGE
----------------------

Number of atoms                             ...      2
Number of basis functions                   ...    126
Number of shells                            ...     34
Maximum angular momentum                    ...      4
Integral batch strategy                     ... SHARK/LIBINT Hybrid
RI-J (if used) integral strategy            ... SPLIT-RIJ (Revised 2003 algorithm where possible)
Printlevel                                  ...      1
Contraction scheme used                     ... SEGMENTED contraction
Coulomb Range Separation                    ... NOT USED
Exchange Range Separation                   ... NOT USED
Finite Nucleus Model                        ... NOT USED
Auxiliary Coulomb fitting basis             ... NOT available
Auxiliary J/K fitting basis                 ... NOT available
Auxiliary Correlation fitting basis         ... NOT available
Auxiliary 'external' fitting basis          ... NOT available
Integral threshold                          ...     1.000000e-12
Primitive cut-off                           ...     1.000000e-14
Primitive pair pre-selection threshold      ...     1.000000e-14

Calculating pre-screening integrals         ... done (  0.1 sec) Dimension = 34
Organizing shell pair data                  ... done (  0.0 sec)
Shell pair information
Total number of shell pairs                 ...       595
Shell pairs after pre-screening             ...       595
Total number of primitive shell pairs       ...      1563
Primitive shell pairs kept                  ...      1473
          la=0 lb=0:     66 shell pairs
          la=1 lb=0:     99 shell pairs
          la=1 lb=1:     45 shell pairs
          la=2 lb=0:     77 shell pairs
          la=2 lb=1:     63 shell pairs
          la=2 lb=2:     28 shell pairs
          la=3 lb=0:     55 shell pairs
          la=3 lb=1:     45 shell pairs
          la=3 lb=2:     35 shell pairs
          la=3 lb=3:     15 shell pairs
          la=4 lb=0:     22 shell pairs
          la=4 lb=1:     18 shell pairs
          la=4 lb=2:     14 shell pairs
          la=4 lb=3:     10 shell pairs
          la=4 lb=4:      3 shell pairs

Calculating one electron integrals          ... done (  0.0 sec)
Calculating Nuclear repulsion               ... done (  0.0 sec) ENN=      1.017648477500 Eh

SHARK setup successfully completed in   0.1 seconds

Maximum memory used throughout the entire GTOINT-calculation: 33.2 MB
-------------------------------------------------------------------------------
                                 ORCA SCF
-------------------------------------------------------------------------------

------------
SCF SETTINGS
------------
Hamiltonian:
 Ab initio Hamiltonian  Method          .... Hartree-Fock(GTOs)


General Settings:
 Integral files         IntName         .... /scratch/BH-2.6-CCSD-O_265/BH-2.6-CCSD-O
 Hartree-Fock type      HFTyp           .... RHF
 Total Charge           Charge          ....    0
 Multiplicity           Mult            ....    1
 Number of Electrons    NEL             ....    6
 Basis Dimension        Dim             ....  126
 Nuclear Repulsion      ENuc            ....      1.0176484775 Eh

Convergence Acceleration:
 DIIS                   CNVDIIS         .... on
   Start iteration      DIISMaxIt       ....    12
   Startup error        DIISStart       ....  0.200000
   # of expansion vecs  DIISMaxEq       ....     5
   Bias factor          DIISBfac        ....   1.050
   Max. coefficient     DIISMaxC        ....  10.000
 Trust-Rad. Augm. Hess. CNVTRAH         .... auto
   Auto Start mean grad. ratio tolernc. ....  1.125000
   Auto Start start iteration           ....    20
   Auto Start num. interpolation iter.  ....    10
   Max. Number of Micro iterations      ....    16
   Max. Number of Macro iterations      .... Maxiter - #DIIS iter
   Number of Davidson start vectors     ....     2
   Converg. threshold I  (grad. norm)   ....   2.000e-06
   Converg. threshold II (energy diff.) ....   1.000e-09
   Grad. Scal. Fac. for Micro threshold ....   0.100
   Minimum threshold for Micro iter.    ....   0.010
   NR start threshold (gradient norm)   ....   0.001
   Initial trust radius                 ....   0.400
   Minimum AH scaling param. (alpha)    ....   1.000
   Maximum AH scaling param. (alpha)    .... 1000.000
   Orbital update algorithm             .... Taylor
   White noise on init. David. guess    .... on
   Maximum white noise                  ....   0.010
   Quad. conv. algorithm                .... NR
 SOSCF                  CNVSOSCF        .... on
   Start iteration      SOSCFMaxIt      ....   150
   Startup grad/error   SOSCFStart      ....  0.003300
 Level Shifting         CNVShift        .... on
   Level shift para.    LevelShift      ....    0.2500
   Turn off err/grad.   ShiftErr        ....    0.0010
 Zerner damping         CNVZerner       .... off
 Static damping         CNVDamp         .... on
   Fraction old density DampFac         ....    0.7000
   Max. Damping (<1)    DampMax         ....    0.9800
   Min. Damping (>=0)   DampMin         ....    0.0000
   Turn off err/grad.   DampErr         ....    0.1000
 Fernandez-Rico         CNVRico         .... off

SCF Procedure:
 Maximum # iterations   MaxIter         ....   125
 SCF integral mode      SCFMode         .... Direct
   Integral package                     .... SHARK and LIBINT hybrid scheme
 Reset frequency        DirectResetFreq ....    20
 Integral Threshold     Thresh          ....  1.000e-12 Eh
 Primitive CutOff       TCut            ....  1.000e-14 Eh

Convergence Tolerance:
 Convergence Check Mode ConvCheckMode   .... Total+1el-Energy
 Convergence forced     ConvForced      .... 1
 Energy Change          TolE            ....  1.000e-09 Eh
 1-El. energy change                    ....  1.000e-06 Eh
 Orbital Gradient       TolG            ....  2.000e-06
 Orbital Rotation angle TolX            ....  2.000e-06
 DIIS Error             TolErr          ....  1.000e-08


Diagonalization of the overlap matrix:
Smallest eigenvalue                        ... 1.220e-03
Time for diagonalization                   ...    0.001 sec
Threshold for overlap eigenvalues          ... 1.000e-08
Number of eigenvalues below threshold      ... 0
Time for construction of square roots      ...    0.000 sec
Total time needed                          ...    0.002 sec

Time for model grid setup =    0.013 sec

------------------------------
INITIAL GUESS: MODEL POTENTIAL
------------------------------
Loading Hartree-Fock densities                     ... done
Calculating cut-offs                               ... done
Initializing the effective Hamiltonian             ... done
Setting up the integral package (SHARK)            ... done
Starting the Coulomb interaction                   ... done (   0.0 sec)
Reading the grid                                   ... done
Mapping shells                                     ... done
Starting the XC term evaluation                    ... done (   0.0 sec)
Transforming the Hamiltonian                       ... done (   0.0 sec)
Diagonalizing the Hamiltonian                      ... done (   0.0 sec)
Back transforming the eigenvectors                 ... done (   0.0 sec)
Now organizing SCF variables                       ... done
                      ------------------
                      INITIAL GUESS DONE (   0.0 sec)
                      ------------------
--------------
SCF ITERATIONS
--------------
ITER       Energy         Delta-E        Max-DP      RMS-DP      [F,P]     Damp
               ***  Starting incremental Fock matrix formation  ***
  0    -24.9378116776   0.000000000000 0.04364425  0.00069655  0.1506381 0.7000
  1    -24.9517781387  -0.013966461129 0.03093970  0.00061581  0.1189459 0.7000
                               ***Turning on DIIS***
  2    -24.9626423118  -0.010864173162 0.07337053  0.00156117  0.0853986 0.0000
  3    -24.9964587100  -0.033816398190 0.01125589  0.00021204  0.0156779 0.0000
  4    -24.9944448852   0.002013824875 0.00430260  0.00011282  0.0059330 0.0000
                      *** Initiating the SOSCF procedure ***
                           *** Shutting down DIIS ***
                      *** Re-Reading the Fockian *** 
                      *** Removing any level shift *** 
ITER      Energy       Delta-E        Grad      Rot      Max-DP    RMS-DP
  5    -24.98888434   0.0055605482  0.002092  0.002092  0.002958  0.000052
               *** Restarting incremental Fock matrix formation ***
  6    -24.98660084   0.0022834931  0.000631  0.001089  0.000986  0.000027
  7    -24.98660510  -0.0000042517  0.000213  0.000644  0.000643  0.000017
  8    -24.98660592  -0.0000008285  0.000033  0.000048  0.000052  0.000001
  9    -24.98660593  -0.0000000087  0.000007  0.000017  0.000016  0.000001
 10    -24.98660593  -0.0000000007  0.000001  0.000003  0.000002  0.000000
                 **** Energy Check signals convergence ****
              ***Rediagonalizing the Fockian in SOSCF/NRSCF***

               *****************************************************
               *                     SUCCESS                       *
               *           SCF CONVERGED AFTER  11 CYCLES          *
               *****************************************************


----------------
TOTAL SCF ENERGY
----------------

Total Energy       :          -24.98660593 Eh            -679.92011 eV

Components:
Nuclear Repulsion  :            1.01764848 Eh              27.69162 eV
Electronic Energy  :          -26.00425441 Eh            -707.61174 eV
One Electron Energy:          -34.60324078 Eh            -941.60205 eV
Two Electron Energy:            8.59898637 Eh             233.99031 eV

Virial components:
Potential Energy   :          -49.74396671 Eh           -1353.60215 eV
Kinetic Energy     :           24.75736077 Eh             673.68204 eV
Virial Ratio       :            2.00925968


---------------
SCF CONVERGENCE
---------------

  Last Energy change         ...   -1.6371e-11  Tolerance :   1.0000e-09
  Last MAX-Density change    ...    1.2603e-06  Tolerance :   1.0000e-08
  Last RMS-Density change    ...    1.6147e-08  Tolerance :   1.0000e-09
  Last Orbital Gradient      ...    1.4016e-07  Tolerance :   2.0000e-06
  Last Orbital Rotation      ...    2.6145e-07  Tolerance :   2.0000e-06

             **** THE GBW FILE WAS UPDATED (/scratch/BH-2.6-CCSD-O_265/BH-2.6-CCSD-O.gbw) ****
             **** DENSITY /scratch/BH-2.6-CCSD-O_265/BH-2.6-CCSD-O.scfp WAS UPDATED ****
             **** ENERGY FILE WAS UPDATED (/scratch/BH-2.6-CCSD-O_265/BH-2.6-CCSD-O.en.tmp) ****
             **** THE GBW FILE WAS UPDATED (/scratch/BH-2.6-CCSD-O_265/BH-2.6-CCSD-O.gbw) ****
             **** DENSITY /scratch/BH-2.6-CCSD-O_265/BH-2.6-CCSD-O.scfp WAS UPDATED ****
----------------
ORBITAL ENERGIES
----------------

  NO   OCC          E(Eh)            E(eV) 
   0   2.0000      -7.831917      -213.1173 
   1   2.0000      -0.573888       -15.6163 
   2   2.0000      -0.296828        -8.0771 
   3   0.0000      -0.007923        -0.2156 
   4   0.0000      -0.007923        -0.2156 
   5   0.0000       0.005309         0.1445 
   6   0.0000       0.041573         1.1313 
   7   0.0000       0.055860         1.5200 
   8   0.0000       0.055860         1.5200 
   9   0.0000       0.069057         1.8791 
  10   0.0000       0.086167         2.3447 
  11   0.0000       0.135726         3.6933 
  12   0.0000       0.135726         3.6933 
  13   0.0000       0.138806         3.7771 
  14   0.0000       0.138806         3.7771 
  15   0.0000       0.174871         4.7585 
  16   0.0000       0.260892         7.0992 
  17   0.0000       0.260892         7.0992 
  18   0.0000       0.273696         7.4477 
  19   0.0000       0.290110         7.8943 
  20   0.0000       0.290110         7.8943 
  21   0.0000       0.303797         8.2667 
  22   0.0000       0.343772         9.3545 
  23   0.0000       0.442251        12.0343 
  24   0.0000       0.442251        12.0343 
  25   0.0000       0.449471        12.2307 
  26   0.0000       0.449471        12.2307 
  27   0.0000       0.466416        12.6918 
  28   0.0000       0.466416        12.6918 
  29   0.0000       0.467221        12.7137 
  30   0.0000       0.467221        12.7137 
  31   0.0000       0.486036        13.2257 
  32   0.0000       0.521296        14.1852 
  33   0.0000       0.521296        14.1852 
  34   0.0000       0.568595        15.4723 
  35   0.0000       0.618762        16.8374 
  36   0.0000       0.728534        19.8244 
  37   0.0000       0.728534        19.8244 
  38   0.0000       0.866620        23.5819 
  39   0.0000       0.866620        23.5819 
  40   0.0000       0.879454        23.9312 
  41   0.0000       0.897494        24.4221 
  42   0.0000       0.897494        24.4221 
  43   0.0000       0.920280        25.0421 
  44   0.0000       0.998834        27.1797 
  45   0.0000       0.998834        27.1797 
  46   0.0000       1.246613        33.9221 
  47   0.0000       1.332307        36.2539 
  48   0.0000       1.332307        36.2539 
  49   0.0000       1.334756        36.3206 
  50   0.0000       1.334756        36.3206 
  51   0.0000       1.343476        36.5578 
  52   0.0000       1.343476        36.5578 
  53   0.0000       1.347756        36.6743 
  54   0.0000       1.347756        36.6743 
  55   0.0000       1.351685        36.7812 
  56   0.0000       1.351685        36.7812 
  57   0.0000       1.367028        37.1987 
  58   0.0000       1.388522        37.7836 
  59   0.0000       1.389693        37.8155 
  60   0.0000       1.389693        37.8155 
  61   0.0000       1.408780        38.3349 
  62   0.0000       1.408780        38.3349 
  63   0.0000       1.416993        38.5583 
  64   0.0000       1.416993        38.5583 
  65   0.0000       1.519045        41.3353 
  66   0.0000       1.590182        43.2711 
  67   0.0000       1.590182        43.2711 
  68   0.0000       1.648704        44.8635 
  69   0.0000       1.648704        44.8635 
  70   0.0000       1.672357        45.5072 
  71   0.0000       1.833839        49.9013 
  72   0.0000       1.833839        49.9013 
  73   0.0000       1.915635        52.1271 
  74   0.0000       2.087300        56.7983 
  75   0.0000       2.104695        57.2717 
  76   0.0000       2.104695        57.2717 
  77   0.0000       2.573719        70.0345 
  78   0.0000       2.573719        70.0345 
  79   0.0000       2.683036        73.0091 
  80   0.0000       2.683036        73.0091 
  81   0.0000       2.775254        75.5185 
  82   0.0000       2.775254        75.5185 
  83   0.0000       2.846146        77.4476 
  84   0.0000       3.087173        84.0062 
  85   0.0000       3.651783        99.3701 
  86   0.0000       3.651783        99.3701 
  87   0.0000       3.849123       104.7400 
  88   0.0000       3.849123       104.7400 
  89   0.0000       3.861283       105.0709 
  90   0.0000       3.861283       105.0709 
  91   0.0000       3.864829       105.1673 
  92   0.0000       3.866981       105.2259 
  93   0.0000       3.866981       105.2259 
  94   0.0000       3.884687       105.7077 
  95   0.0000       3.884687       105.7077 
  96   0.0000       3.924372       106.7876 
  97   0.0000       3.924372       106.7876 
  98   0.0000       3.936370       107.1141 
  99   0.0000       4.002644       108.9175 
 100   0.0000       4.002644       108.9175 
 101   0.0000       4.021835       109.4397 
 102   0.0000       4.021835       109.4397 
 103   0.0000       4.024729       109.5185 
 104   0.0000       4.024729       109.5185 
 105   0.0000       4.138348       112.6102 
 106   0.0000       4.138348       112.6102 
 107   0.0000       4.200046       114.2891 
 108   0.0000       4.378861       119.1549 
 109   0.0000       6.647201       180.8795 
 110   0.0000       6.647201       180.8795 
 111   0.0000       6.695642       182.1977 
 112   0.0000       6.695642       182.1977 
 113   0.0000       6.799823       185.0326 
 114   0.0000       6.799823       185.0326 
 115   0.0000       6.816982       185.4995 
 116   0.0000       7.664681       208.5666 
 117   0.0000       8.099940       220.4106 
 118   0.0000       8.099940       220.4106 
 119   0.0000       8.469069       230.4551 
 120   0.0000       8.503952       231.4043 
 121   0.0000       8.503952       231.4043 
 122   0.0000       8.580348       233.4831 
 123   0.0000       8.580348       233.4831 
 124   0.0000       8.719505       237.2698 
 125   0.0000      13.123683       357.1136 

                    ********************************
                    * MULLIKEN POPULATION ANALYSIS *
                    ********************************

-----------------------
MULLIKEN ATOMIC CHARGES
-----------------------
   0 B :    0.243102
   1 H :   -0.243102
Sum of atomic charges:    0.0000000

--------------------------------
MULLIKEN REDUCED ORBITAL CHARGES
--------------------------------
  0 B s       :     3.977467  s :     3.977467
      pz      :     0.000000  p :     0.740692
      px      :     0.740692
      py      :     0.000000
      dz2     :     0.008847  d :     0.035386
      dxz     :     0.000000
      dyz     :     0.000000
      dx2y2   :     0.026540
      dxy     :     0.000000
      f0      :     0.000000  f :     0.003179
      f+1     :     0.001192
      f-1     :     0.000000
      f+2     :     0.000000
      f-2     :     0.000000
      f+3     :     0.001987
      f-3     :     0.000000
      g0      :     0.000024  g :     0.000173
      g+1     :     0.000000
      g-1     :     0.000000
      g+2     :     0.000054
      g-2     :     0.000000
      g+3     :     0.000000
      g-3     :     0.000000
      g+4     :     0.000095
      g-4     :     0.000000
  1 H s       :     1.233492  s :     1.233492
      pz      :    -0.000000  p :     0.009113
      px      :     0.009113
      py      :    -0.000000
      dz2     :     0.000129  d :     0.000518
      dxz     :    -0.000000
      dyz     :     0.000000
      dx2y2   :     0.000388
      dxy     :     0.000000
      f0      :     0.000000  f :    -0.000020
      f+1     :    -0.000007
      f-1     :    -0.000000
      f+2     :    -0.000000
      f-2     :     0.000000
      f+3     :    -0.000012
      f-3     :    -0.000000


                     *******************************
                     * LOEWDIN POPULATION ANALYSIS *
                     *******************************

----------------------
LOEWDIN ATOMIC CHARGES
----------------------
   0 B :    0.218328
   1 H :   -0.218328

-------------------------------
LOEWDIN REDUCED ORBITAL CHARGES
-------------------------------
  0 B s       :     3.867559  s :     3.867559
      pz      :     0.000000  p :     0.806587
      px      :     0.806587
      py      :     0.000000
      dz2     :     0.020123  d :     0.080493
      dxz     :     0.000000
      dyz     :     0.000000
      dx2y2   :     0.060370
      dxy     :     0.000000
      f0      :     0.000000  f :     0.024738
      f+1     :     0.009277
      f-1     :     0.000000
      f+2     :     0.000000
      f-2     :     0.000000
      f+3     :     0.015461
      f-3     :     0.000000
      g0      :     0.000323  g :     0.002295
      g+1     :     0.000000
      g-1     :     0.000000
      g+2     :     0.000717
      g-2     :     0.000000
      g+3     :     0.000000
      g-3     :     0.000000
      g+4     :     0.001255
      g-4     :     0.000000
  1 H s       :     1.111315  s :     1.111315
      pz      :     0.000000  p :     0.074164
      px      :     0.074164
      py      :     0.000000
      dz2     :     0.007189  d :     0.028756
      dxz     :     0.000000
      dyz     :     0.000000
      dx2y2   :     0.021567
      dxy     :     0.000000
      f0      :     0.000000  f :     0.004093
      f+1     :     0.001535
      f-1     :     0.000000
      f+2     :     0.000000
      f-2     :     0.000000
      f+3     :     0.002558
      f-3     :     0.000000


                      *****************************
                      * MAYER POPULATION ANALYSIS *
                      *****************************

  NA   - Mulliken gross atomic population
  ZA   - Total nuclear charge
  QA   - Mulliken gross atomic charge
  VA   - Mayer's total valence
  BVA  - Mayer's bonded valence
  FA   - Mayer's free valence

  ATOM       NA         ZA         QA         VA         BVA        FA
  0 B      4.7569     5.0000     0.2431     0.9481     0.9481     0.0000
  1 H      1.2431     1.0000    -0.2431     0.9481     0.9481     0.0000

  Mayer bond orders larger than 0.100000
B(  0-B ,  1-H ) :   0.9481 

-------
TIMINGS
-------

Total SCF time: 0 days 0 hours 0 min 11 sec 

Total time                  ....      11.928 sec
Sum of individual times     ....      11.805 sec  ( 99.0%)

Fock matrix formation       ....      11.750 sec  ( 98.5%)
Diagonalization             ....       0.009 sec  (  0.1%)
Density matrix formation    ....       0.001 sec  (  0.0%)
Population analysis         ....       0.001 sec  (  0.0%)
Initial guess               ....       0.022 sec  (  0.2%)
Orbital Transformation      ....       0.000 sec  (  0.0%)
Orbital Orthonormalization  ....       0.000 sec  (  0.0%)
DIIS solution               ....       0.003 sec  (  0.0%)
SOSCF solution              ....       0.006 sec  (  0.1%)

Maximum memory used throughout the entire SCF-calculation: 257.1 MB


------------------------------------------------------------------------------- 
                              ORCA-MATRIX DRIVEN CI                            
------------------------------------------------------------------------------- 

--------------------------------
AUTOMATIC CHOICE OF INCORE LEVEL
--------------------------------

Memory available                           ...    256.00 MB
Memory needed for S+T                      ...      1.04 MB
Memory needed for J+K                      ...      2.08 MB
Memory needed for DIIS                     ...     14.54 MB
Memory needed for 3-ext                    ...     28.39 MB
Memory needed for 4-ext                    ...    880.23 MB
Memory needed for triples                  ...      0.00 MB
 -> Final InCoreLevel    ... 4

Wavefunction type
-----------------
Correlation treatment                      ...      CCSD     
Single excitations                         ... ON
Orbital optimization                       ... OFF
Calculation of Z vector                    ... OFF
Calculation of Brueckner orbitals          ... OFF
Perturbative triple excitations            ... OFF
Calculation of F12 correction              ... OFF
Frozen core treatment                      ... chemical core (2 el)
Reference Wavefunction                     ... RHF
  Internal Orbitals:     1 ...    2 (  2 MO's/  4 electrons)
  Virtual  Orbitals:     3 ...  125 (123 MO's              )
Number of AO's                             ...    126
Number of electrons                        ...      6
Number of correlated electrons             ...      4

Algorithmic settings
--------------------
Integral transformation                    ... AO direct full transformation
K(C) Formation                             ... FULL-MO TRAFO
Maximum number of iterations               ...        50
Convergence tolerance (max. residuum)      ... 1.000e-06
Level shift for amplitude update           ... 2.000e-01
Maximum number of DIIS vectors             ...         7
DIIS turned on at iteration                ...         0
Damping before turning on DIIS             ...     0.500
Damping after turning on DIIS              ...     0.000
Pair specific amplitude update             ... OFF
Natural orbital iterations                 ... OFF
Perturbative natural orbital generation    ... OFF
Printlevel                                 ... 2

Memory handling:
----------------
Maximum memory for working arrays          ...    256 MB
Data storage in matrix containers          ... UNCOMPRESSED
Data type for integral storage             ... DOUBLE
In-Core Storage of quantities:
   Amplitudes+Sigma Vector      ... YES
   J+K operators                ... YES
   DIIS vectors                 ... YES
   3-external integrals         ... YES
   4-external integrals         ... NO


Initializing the integral package          ... done
Warning: reference  - re-canonicalizations have been set to INT 1 VIRT 1

--------------------------
CLOSED-SHELL FOCK OPERATOR
--------------------------

Restoring SHARK [2] ... ok
Recanonicalizing the internal orbitals
Recanonicalizing the virtual orbitals
Time needed for Fock operator              ...            1.208 sec
Reference energy                           ...    -24.986605933

------------------------------
PARTIAL COULOMB TRANSFORMATION
------------------------------

Transformation type                        ... one-operator
Dimension of the basis                     ...  126
Number of internal MOs                     ...  125 (1-125)
Pair cutoff                                ... 0.000e+00 Eh
Number of AO pairs included in the trafo   ... 8001
Total Number of distinct AO pairs          ... 8001
Memory devoted for trafo                   ...  256.0 MB 
Max. Number of MO pairs treated together   ... 4193      
Max. Number of MOs treated per batch       ...   33      
Number Format for Storage                  ... Double (8 Byte)
AO-integral source                         ... DIRECT
Integral package used                      ... LIBINT

Starting integral evaluation:
<ss|**>:        39270 b        0 skpd     0.074 s (  0.002 ms/b)
<sp|**>:        58905 b        0 skpd     0.142 s (  0.002 ms/b)
<sd|**>:        45815 b        0 skpd     0.194 s (  0.004 ms/b)
<sf|**>:        32725 b        0 skpd     0.232 s (  0.007 ms/b)
<sg|**>:        13090 b        0 skpd     0.163 s (  0.012 ms/b)
<pp|**>:        26775 b        0 skpd     0.139 s (  0.005 ms/b)
<pd|**>:        37485 b        0 skpd     0.344 s (  0.009 ms/b)
<pf|**>:        26775 b        0 skpd     0.372 s (  0.014 ms/b)
<pg|**>:        10710 b        0 skpd     0.222 s (  0.021 ms/b)
<dd|**>:        16660 b        0 skpd     0.255 s (  0.015 ms/b)
<df|**>:        20825 b        0 skpd     0.527 s (  0.025 ms/b)
<dg|**>:         8330 b        0 skpd     0.303 s (  0.036 ms/b)
<ff|**>:         8925 b        0 skpd     0.339 s (  0.038 ms/b)
<fg|**>:         5950 b        0 skpd     0.346 s (  0.058 ms/b)
<gg|**>:         1785 b        0 skpd     0.142 s (  0.079 ms/b)
Closing buffer AOJ ( 0.47 GB; CompressionRatio= 1.00)
Collecting buffer AOJ 
    ... done with AO integral generation
Number of MO pairs included in the trafo   ... 7875
    ... Now sorting integrals
IBATCH = 1 of  2
IBATCH = 2 of  2
Closing buffer JAO ( 0.47 GB; CompressionRatio= 1.00)
Collecting buffer JAO 
TOTAL TIME for half transformation         ...     7.384 sec
AO-integral generation                     ...     2.127 sec
Half transformation                        ...     1.668 sec
J-integral sorting                         ...     3.544 sec

-------------------------- SECOND HALF TRANSFORMATION -------------------------
Formation of (pq|rs)                       ... ok (     1.666 sec)
Integral sorting                           ... ok (     1.982 sec)

------------------
CLOSED SHELL GUESS
------------------

Initial guess performed in     0.000 sec
E(0)                                       ...    -24.986605933
E(MP2)                                     ...     -0.089781844
Initial E(tot)                             ...    -25.076387778
<T|T>                                      ...      0.071497201
Number of pairs included                   ... 3
Total number of pairs                      ... 3

------------------------------------------------
                  RHF COUPLED CLUSTER ITERATIONS
------------------------------------------------

Number of amplitudes to be optimized       ... 45633

Iter       E(tot)           E(Corr)          Delta-E          Residual     Time
  0    -25.076387778     -0.089781844      0.000000000      0.024263929    0.55
                           *** Turning on DIIS ***
  1    -25.090642913     -0.104036979     -0.014255135      0.020536722    1.89
  2    -25.103332926     -0.116726992     -0.012690013      0.013848710    1.91
  3    -25.113150838     -0.126544905     -0.009817912      0.008117199    2.01
  4    -25.116539799     -0.129933866     -0.003388961      0.004537495    1.98
  5    -25.118048141     -0.131442208     -0.001508342      0.002021724    1.99
  6    -25.118738745     -0.132132812     -0.000690604      0.000578875    1.99
  7    -25.118840166     -0.132234232     -0.000101420      0.000155513    1.97
  8    -25.118850010     -0.132244076     -0.000009844      0.000040278    1.96
  9    -25.118850674     -0.132244740     -0.000000664      0.000012151    1.88
 10    -25.118850957     -0.132245024     -0.000000284      0.000005765    1.93
 11    -25.118851542     -0.132245609     -0.000000585      0.000002405    1.90
 12    -25.118851669     -0.132245736     -0.000000127      0.000000973    1.91
               --- The Coupled-Cluster iterations have converged ---

----------------------
COUPLED CLUSTER ENERGY
----------------------

E(0)                                       ...    -24.986605933
E(CORR)                                    ...     -0.132245736
E(TOT)                                     ...    -25.118851669
Singles Norm <S|S>**1/2                    ...      0.155706403  
T1 diagnostic                              ...      0.077853201  

------------------
LARGEST AMPLITUDES
------------------
   2->  5   2->  5       0.243783
   2->  5   2->  6       0.151857
   2->  6   2->  5       0.151857
   2->  5  -1-> -1       0.113637
   1->  3   1->  3       0.101272
   1->  4   1->  4       0.101272
   2->  6   2->  6       0.096943
   2->  5   2->  9       0.084348
   2->  9   2->  5       0.084348
   2->  6  -1-> -1       0.069382
   2->  5   2-> 15       0.067190
   2-> 15   2->  5       0.067190
   1->  8   1->  4       0.052424
   1->  4   1->  8       0.052424
   1->  7   1->  3       0.052424
   1->  3   1->  7       0.052424


        !!!!!!!!!!!!!!!!!!!!!!!!!!!!!!!!!!!!!!!!!!!!!!!!!!!!!!!!!!!!!!!!!!!!!!!!!! 
        !  Warning: Densities are linearized densities !                         !
        !!!!!!!!!!!!!!!!!!!!!!!!!!!!!!!!!!!!!!!!!!!!!!!!!!!!!!!!!!!!!!!!!!!!!!!!!! 

Trace of internal density part =     -0.554617525
Trace of external density part =      0.554617525
NORM  =      1.301553246 sqrt=     1.140856365
W(HF) =      0.768312785
------------------------------------------------------------------------------
                           ORCA POPULATION ANALYSIS
------------------------------------------------------------------------------
Input electron density              ... /scratch/BH-2.6-CCSD-O_265/BH-2.6-CCSD-O.mdcip
BaseName (.gbw .S,...)              ... /scratch/BH-2.6-CCSD-O_265/BH-2.6-CCSD-O

                    ********************************
                    * MULLIKEN POPULATION ANALYSIS *
                    ********************************

-----------------------
MULLIKEN ATOMIC CHARGES
-----------------------
   0 B :    0.029884
   1 H :   -0.029884
Sum of atomic charges:   -0.0000000

--------------------------------
MULLIKEN REDUCED ORBITAL CHARGES
--------------------------------
  0 B s       :     3.860782  s :     3.860782
      pz      :     0.054612  p :     1.082721
      px      :     0.973498
      py      :     0.054612
      dz2     :     0.003828  d :     0.025320
      dxz     :     0.005112
      dyz     :     0.000216
      dx2y2   :     0.011051
      dxy     :     0.005112
      f0      :     0.000147  f :     0.001141
      f+1     :     0.000131
      f-1     :     0.000041
      f+2     :     0.000232
      f-2     :     0.000099
      f+3     :     0.000152
      f-3     :     0.000339
      g0      :     0.000004  g :     0.000152
      g+1     :     0.000036
      g-1     :     0.000004
      g+2     :    -0.000000
      g-2     :     0.000015
      g+3     :     0.000030
      g-3     :     0.000016
      g+4     :    -0.000003
      g-4     :     0.000051
  1 H s       :     1.015198  s :     1.015198
      pz      :     0.002489  p :     0.013111
      px      :     0.008134
      py      :     0.002489
      dz2     :     0.000235  d :     0.001498
      dxz     :     0.000302
      dyz     :     0.000047
      dx2y2   :     0.000612
      dxy     :     0.000302
      f0      :     0.000017  f :     0.000076
      f+1     :    -0.000004
      f-1     :     0.000006
      f+2     :     0.000026
      f-2     :     0.000010
      f+3     :    -0.000014
      f-3     :     0.000037


                     *******************************
                     * LOEWDIN POPULATION ANALYSIS *
                     *******************************

----------------------
LOEWDIN ATOMIC CHARGES
----------------------
   0 B :    0.078694
   1 H :   -0.078694

-------------------------------
LOEWDIN REDUCED ORBITAL CHARGES
-------------------------------
  0 B s       :     3.737649  s :     3.737649
      pz      :     0.054310  p :     1.082391
      px      :     0.973772
      py      :     0.054310
      dz2     :     0.015035  d :     0.070248
      dxz     :     0.005162
      dyz     :     0.000216
      dx2y2   :     0.044673
      dxy     :     0.005162
      f0      :     0.000186  f :     0.027441
      f+1     :     0.009915
      f-1     :     0.000047
      f+2     :     0.000298
      f-2     :     0.000100
      f+3     :     0.016458
      f-3     :     0.000437
      g0      :     0.000479  g :     0.003576
      g+1     :     0.000050
      g-1     :     0.000004
      g+2     :     0.001054
      g-2     :     0.000018
      g+3     :     0.000041
      g-3     :     0.000016
      g+4     :     0.001843
      g-4     :     0.000073
  1 H s       :     0.923696  s :     0.923696
      pz      :     0.002337  p :     0.106681
      px      :     0.102007
      py      :     0.002337
      dz2     :     0.010197  d :     0.041728
      dxz     :     0.000492
      dyz     :     0.000046
      dx2y2   :     0.030501
      dxy     :     0.000492
      f0      :     0.000048  f :     0.006589
      f+1     :     0.002375
      f-1     :     0.000011
      f+2     :     0.000078
      f-2     :     0.000010
      f+3     :     0.003951
      f-3     :     0.000116


                      *****************************
                      * MAYER POPULATION ANALYSIS *
                      *****************************

  NA   - Mulliken gross atomic population
  ZA   - Total nuclear charge
  QA   - Mulliken gross atomic charge
  VA   - Mayer's total valence
  BVA  - Mayer's bonded valence
  FA   - Mayer's free valence

  ATOM       NA         ZA         QA         VA         BVA        FA
  0 B      4.9701     5.0000     0.0299     1.5212     0.4064     1.1148
  1 H      1.0299     1.0000    -0.0299     1.0336     0.4064     0.6272

  Mayer bond orders larger than 0.100000
B(  0-B ,  1-H ) :   0.4064 



------------------------------------------------------------------------------- 
                                     TIMINGS                                   
------------------------------------------------------------------------------- 


Total execution time                   ...       36.336 sec

Fock Matrix Formation                  ...        1.208 sec (  3.3%)
Initial Guess                          ...        0.000 sec (  0.0%)
DIIS Solver                            ...        0.037 sec (  0.1%)
State Vector Update                    ...        0.001 sec (  0.0%)
Sigma-vector construction              ...       23.828 sec ( 65.6%)
  <0|H|D>                              ...        0.004 sec (  0.0% of sigma)
  <D|H|D>(0-ext)                       ...        0.007 sec (  0.0% of sigma)
  <D|H|D>(2-ext Fock)                  ...        0.007 sec (  0.0% of sigma)
  <D|H|D>(2-ext)                       ...        0.048 sec (  0.2% of sigma)
  <D|H|D>(4-ext)                       ...        5.716 sec ( 24.0% of sigma)
  <D|H|D>(4-ext-corr)                  ...        1.098 sec (  4.6% of sigma)
  <S|H|0>                              ...        0.002 sec (  0.0% of sigma)
  <S|H|S>                              ...        0.004 sec (  0.0% of sigma)
  <S|H|D>(1-ext)                       ...        0.005 sec (  0.0% of sigma)
  <D|H|S>(1-ext)                       ...        0.009 sec (  0.0% of sigma)
  <S|H|D>(3-ext)                       ...        0.184 sec (  0.8% of sigma)
  Fock-dressing                        ...       16.356 sec ( 68.6% of sigma)
  (ik|jl)-dressing                     ...        0.005 sec (  0.0% of sigma)
  (ij|ab),(ia|jb)-dressing             ...        0.322 sec (  1.4% of sigma)
  Pair energies                        ...        0.004 sec (  0.0% of sigma)
One-particle density matrix            ...        0.001 sec (  0.0%)


Maximum memory used throughout the entire MDCI-calculation: 400.0 MB

-------------------------   --------------------
FINAL SINGLE POINT ENERGY       -25.118851669071
-------------------------   --------------------


                            ***************************************
                            *     ORCA property calculations      *
                            ***************************************

                                    ---------------------
                                    Active property flags
                                    ---------------------
   (+) Dipole Moment


------------------------------------------------------------------------------
                       ORCA ELECTRIC PROPERTIES CALCULATION
------------------------------------------------------------------------------

Dipole Moment Calculation                       ... on
Quadrupole Moment Calculation                   ... off
Polarizability Calculation                      ... off
GBWName                                         ... /scratch/BH-2.6-CCSD-O_265/BH-2.6-CCSD-O.gbw
Electron density file                           ... /scratch/BH-2.6-CCSD-O_265/BH-2.6-CCSD-O.scfp
The origin for moment calculation is the CENTER OF MASS  = ( 0.419072,  0.000000  0.000000)

-------------
DIPOLE MOMENT
-------------
                                X             Y             Z
Electronic contribution:     -3.87777      -0.00000      -0.00000
Nuclear contribution   :      2.39886       0.00000       0.00000
                        -----------------------------------------
Total Dipole Moment    :     -1.47891      -0.00000      -0.00000
                        -----------------------------------------
Magnitude (a.u.)       :      1.47891
Magnitude (Debye)      :      3.75909



--------------------
Rotational spectrum 
--------------------
 
Rotational constants in cm-1:     0.000000     2.704631     2.704631 
Rotational constants in MHz :     0.000000 81082.786929 81082.786929 

 Dipole components along the rotational axes: 
x,y,z [a.u.] :    -1.478911    -0.000000    -0.000000 
x,y,z [Debye]:    -3.759092    -0.000000    -0.000000 

 

                           *** MDCI DENSITY ***

------------------------------------------------------------------------------
                       ORCA ELECTRIC PROPERTIES CALCULATION
------------------------------------------------------------------------------

Dipole Moment Calculation                       ... on
Quadrupole Moment Calculation                   ... off
Polarizability Calculation                      ... off
GBWName                                         ... /scratch/BH-2.6-CCSD-O_265/BH-2.6-CCSD-O.gbw
Electron density file                           ... /scratch/BH-2.6-CCSD-O_265/BH-2.6-CCSD-O.mdcip
The origin for moment calculation is the CENTER OF MASS  = ( 0.419072,  0.000000  0.000000)

-------------
DIPOLE MOMENT
-------------
                                X             Y             Z
Electronic contribution:     -2.64938      -0.00000       0.00000
Nuclear contribution   :      2.39886       0.00000       0.00000
                        -----------------------------------------
Total Dipole Moment    :     -0.25053      -0.00000       0.00000
                        -----------------------------------------
Magnitude (a.u.)       :      0.25053
Magnitude (Debye)      :      0.63679



--------------------
Rotational spectrum 
--------------------
 
Rotational constants in cm-1:     0.000000     2.704631     2.704631 
Rotational constants in MHz :     0.000000 81082.786929 81082.786929 

 Dipole components along the rotational axes: 
x,y,z [a.u.] :    -0.250528    -0.000000     0.000000 
x,y,z [Debye]:    -0.636791    -0.000000     0.000000 

 

Timings for individual modules:

Sum of individual times         ...       48.585 sec (=   0.810 min)
GTO integral calculation        ...        0.126 sec (=   0.002 min)   0.3 %
SCF iterations                  ...       11.943 sec (=   0.199 min)  24.6 %
MDCI module                     ...       36.516 sec (=   0.609 min)  75.2 %
                             ****ORCA TERMINATED NORMALLY****
TOTAL RUN TIME: 0 days 0 hours 0 minutes 48 seconds 710 msec

Sender: Unischeduler System <lcz@mgt01>
Subject: Job 134088: <#!/bin/bash
#BSUB -J intel
#BSUB -o BH-2.6-CCSD-O.out
#BSUB -n 1
#BSUB -q cqueue
export LD_LIBRARY_PATH=/apps/software/openmpi-4.1.1/lib:/apps/software/orca_5_0_0:$LD_LIBRARY_PATH
export PATH=/apps/software/openmpi-4.1.1/bin:/apps/software/orca_5_0_0:$PATH
mkdir /scratch/BH-2.6-CCSD-O_265
scp $USER@mgt01:/apps/users/lcz/exe13/CCSD/BH-2.6-CCSD-O.inp /scratch/BH-2.6-CCSD-O_265
/apps/software/orca_5_0_0/orca /scratch/BH-2.6-CCSD-O_265/BH-2.6-CCSD-O.inp >& BH-2.6-CCSD-O.out
scp /scratch/BH-2.6-CCSD-O_265/*.gbw $USER@mgt01:/apps/users/lcz/exe13/CCSD
scp /scratch/BH-2.6-CCSD-O_265/*.xyz $USER@mgt01:/apps/users/lcz/exe13/CCSD
scp /scratch/BH-2.6-CCSD-O_265/*.trj $USER@mgt01:/apps/users/lcz/exe13/CCSD> Exited

Job <#!/bin/bash
#BSUB -J intel
#BSUB -o BH-2.6-CCSD-O.out
#BSUB -n 1
#BSUB -q cqueue
export LD_LIBRARY_PATH=/apps/software/openmpi-4.1.1/lib:/apps/software/orca_5_0_0:$LD_LIBRARY_PATH
export PATH=/apps/software/openmpi-4.1.1/bin:/apps/software/orca_5_0_0:$PATH
mkdir /scratch/BH-2.6-CCSD-O_265
scp $USER@mgt01:/apps/users/lcz/exe13/CCSD/BH-2.6-CCSD-O.inp /scratch/BH-2.6-CCSD-O_265
/apps/software/orca_5_0_0/orca /scratch/BH-2.6-CCSD-O_265/BH-2.6-CCSD-O.inp >& BH-2.6-CCSD-O.out
scp /scratch/BH-2.6-CCSD-O_265/*.gbw $USER@mgt01:/apps/users/lcz/exe13/CCSD
scp /scratch/BH-2.6-CCSD-O_265/*.xyz $USER@mgt01:/apps/users/lcz/exe13/CCSD
scp /scratch/BH-2.6-CCSD-O_265/*.trj $USER@mgt01:/apps/users/lcz/exe13/CCSD> was submitted from host <mgt01> by user <lcz>.
Job was executed on host(s) <1*cnode13>, in queue <cqueue>, as user <lcz>.
</apps/users/lcz> was used as the home directory.
</apps/users/lcz/exe13/CCSD> was used as the working directory.
Started at 2022-05-22 16:13:51
Results reported at 2022-05-22 16:14:41

Your job looked like:

------------------------------------------------------------
# User input
#!/bin/bash
#BSUB -J intel
#BSUB -o BH-2.6-CCSD-O.out
#BSUB -n 1
#BSUB -q cqueue
export LD_LIBRARY_PATH=/apps/software/openmpi-4.1.1/lib:/apps/software/orca_5_0_0:$LD_LIBRARY_PATH
export PATH=/apps/software/openmpi-4.1.1/bin:/apps/software/orca_5_0_0:$PATH
mkdir /scratch/BH-2.6-CCSD-O_265
scp $USER@mgt01:/apps/users/lcz/exe13/CCSD/BH-2.6-CCSD-O.inp /scratch/BH-2.6-CCSD-O_265
/apps/software/orca_5_0_0/orca /scratch/BH-2.6-CCSD-O_265/BH-2.6-CCSD-O.inp >& BH-2.6-CCSD-O.out
scp /scratch/BH-2.6-CCSD-O_265/*.gbw $USER@mgt01:/apps/users/lcz/exe13/CCSD
scp /scratch/BH-2.6-CCSD-O_265/*.xyz $USER@mgt01:/apps/users/lcz/exe13/CCSD
scp /scratch/BH-2.6-CCSD-O_265/*.trj $USER@mgt01:/apps/users/lcz/exe13/CCSD
------------------------------------------------------------

Exited with exit code 1.

Resource usage summary:

    CPU time   :           44.12 sec.
    Max Memory :               491 MB
    Max Processes  :               5


The output (if any) follows:

/scratch/BH-2.6-CCSD-O_265/*.xyz: No such file or directory
/scratch/BH-2.6-CCSD-O_265/*.trj: No such file or directory
