 Entering Gaussian System, Link 0=/apps/software/g16/g16
 Initial command:
 /apps/software/g16/l1.exe "/scratch/Gau-312421.inp" -scrdir="/scratch/"
 Entering Link 1 = /apps/software/g16/l1.exe PID=    312422.
  
 Copyright (c) 1988,1990,1992,1993,1995,1998,2003,2009,2016,
            Gaussian, Inc.  All Rights Reserved.
  
 This is part of the Gaussian(R) 16 program.  It is based on
 the Gaussian(R) 09 system (copyright 2009, Gaussian, Inc.),
 the Gaussian(R) 03 system (copyright 2003, Gaussian, Inc.),
 the Gaussian(R) 98 system (copyright 1998, Gaussian, Inc.),
 the Gaussian(R) 94 system (copyright 1995, Gaussian, Inc.),
 the Gaussian 92(TM) system (copyright 1992, Gaussian, Inc.),
 the Gaussian 90(TM) system (copyright 1990, Gaussian, Inc.),
 the Gaussian 88(TM) system (copyright 1988, Gaussian, Inc.),
 the Gaussian 86(TM) system (copyright 1986, Carnegie Mellon
 University), and the Gaussian 82(TM) system (copyright 1983,
 Carnegie Mellon University). Gaussian is a federally registered
 trademark of Gaussian, Inc.
  
 This software contains proprietary and confidential information,
 including trade secrets, belonging to Gaussian, Inc.
  
 This software is provided under written license and may be
 used, copied, transmitted, or stored only in accord with that
 written license.
  
 The following legend is applicable only to US Government
 contracts under FAR:
  
                    RESTRICTED RIGHTS LEGEND
  
 Use, reproduction and disclosure by the US Government is
 subject to restrictions as set forth in subparagraphs (a)
 and (c) of the Commercial Computer Software - Restricted
 Rights clause in FAR 52.227-19.
  
 Gaussian, Inc.
 340 Quinnipiac St., Bldg. 40, Wallingford CT 06492
  
  
 ---------------------------------------------------------------
 Warning -- This program may not be used in any manner that
 competes with the business of Gaussian, Inc. or will provide
 assistance to any competitor of Gaussian, Inc.  The licensee
 of this program is prohibited from giving any competitor of
 Gaussian, Inc. access to this program.  By using this program,
 the user acknowledges that Gaussian, Inc. is engaged in the
 business of creating and licensing software in the field of
 computational chemistry and represents and warrants to the
 licensee that it is not a competitor of Gaussian, Inc. and that
 it will not use this program in any manner prohibited above.
 ---------------------------------------------------------------
  

 Cite this work as:
 Gaussian 16, Revision A.03,
 M. J. Frisch, G. W. Trucks, H. B. Schlegel, G. E. Scuseria, 
 M. A. Robb, J. R. Cheeseman, G. Scalmani, V. Barone, 
 G. A. Petersson, H. Nakatsuji, X. Li, M. Caricato, A. V. Marenich, 
 J. Bloino, B. G. Janesko, R. Gomperts, B. Mennucci, H. P. Hratchian, 
 J. V. Ortiz, A. F. Izmaylov, J. L. Sonnenberg, D. Williams-Young, 
 F. Ding, F. Lipparini, F. Egidi, J. Goings, B. Peng, A. Petrone, 
 T. Henderson, D. Ranasinghe, V. G. Zakrzewski, J. Gao, N. Rega, 
 G. Zheng, W. Liang, M. Hada, M. Ehara, K. Toyota, R. Fukuda, 
 J. Hasegawa, M. Ishida, T. Nakajima, Y. Honda, O. Kitao, H. Nakai, 
 T. Vreven, K. Throssell, J. A. Montgomery, Jr., J. E. Peralta, 
 F. Ogliaro, M. J. Bearpark, J. J. Heyd, E. N. Brothers, K. N. Kudin, 
 V. N. Staroverov, T. A. Keith, R. Kobayashi, J. Normand, 
 K. Raghavachari, A. P. Rendell, J. C. Burant, S. S. Iyengar, 
 J. Tomasi, M. Cossi, J. M. Millam, M. Klene, C. Adamo, R. Cammi, 
 J. W. Ochterski, R. L. Martin, K. Morokuma, O. Farkas, 
 J. B. Foresman, and D. J. Fox, Gaussian, Inc., Wallingford CT, 2016.
 
 ******************************************
 Gaussian 16:  ES64L-G16RevA.03 25-Dec-2016
                22-May-2022 
 ******************************************
 %oldchk=BH-2.8-RHF-G.chk
 %chk=BH-2.8-CCSD-G.chk
 Copying data from "BH-2.8-RHF-G.chk" to current chk file "BH-2.8-CCSD-G.chk"
 IOpt=  2 FromEx=T IUOpen= 4 IOptOp= 5 NList=   0 IFRang= 0 IUIn= 4 IUOut= 2.
 -------------------------------------
 #p RHF/aug-cc-pVQZ guess=read CCSD=FC
 -------------------------------------
 1/38=1,172=1/1;
 2/12=2,17=6,18=5,40=1/2;
 3/5=16,6=2,7=10,11=1,25=1,30=1,116=1/1,2,3;
 4/5=1/1;
 5/5=2,38=6/2;
 8/6=4,9=120000,10=1/1,4;
 9/5=7/13;
 6/7=2,8=2,9=2,10=2/1;
 99/5=1,9=1/99;
 Leave Link    1 at Sun May 22 16:03:25 2022, MaxMem=   104857600 cpu:               0.0 elap:               0.0
 (Enter /apps/software/g16/l101.exe)
 ----------------------
 BH RHF at 2.8 Angstrom
 ----------------------
 Symbolic Z-matrix:
 Charge =  0 Multiplicity = 1
 B                     0.        0.        0. 
 H                     2.8       0.        0. 
 
 ITRead=  0  0
 MicOpt= -1 -1
 NAtoms=      2 NQM=        2 NQMF=       0 NMMI=      0 NMMIF=      0
                NMic=       0 NMicF=      0.
                    Isotopes and Nuclear Properties:
 (Nuclear quadrupole moments (NQMom) in fm**2, nuclear magnetic moments (NMagM)
  in nuclear magnetons)

  Atom         1           2
 IAtWgt=          11           1
 AtmWgt=  11.0093053   1.0078250
 NucSpn=           3           1
 AtZEff=  -0.0000000  -0.0000000
 NQMom=    4.0590000   0.0000000
 NMagM=    2.6886370   2.7928460
 AtZNuc=   5.0000000   1.0000000
 Leave Link  101 at Sun May 22 16:03:25 2022, MaxMem=   104857600 cpu:               0.1 elap:               0.1
 (Enter /apps/software/g16/l202.exe)
                          Input orientation:                          
 ---------------------------------------------------------------------
 Center     Atomic      Atomic             Coordinates (Angstroms)
 Number     Number       Type             X           Y           Z
 ---------------------------------------------------------------------
      1          5           0        0.000000    0.000000    0.000000
      2          1           0        2.800000    0.000000    0.000000
 ---------------------------------------------------------------------
 Stoichiometry    BH
 Framework group  C*V[C*(HB)]
 Deg. of freedom     1
 Full point group                 C*V     NOp   4
 Largest Abelian subgroup         C2V     NOp   4
 Largest concise Abelian subgroup C1      NOp   1
                         Standard orientation:                         
 ---------------------------------------------------------------------
 Center     Atomic      Atomic             Coordinates (Angstroms)
 Number     Number       Type             X           Y           Z
 ---------------------------------------------------------------------
      1          5           0        0.000000    0.000000    0.466667
      2          1           0        0.000000    0.000000   -2.333333
 ---------------------------------------------------------------------
 Rotational constants (GHZ):           0.0000000          69.8163034          69.8163034
 Leave Link  202 at Sun May 22 16:03:25 2022, MaxMem=   104857600 cpu:               0.0 elap:               0.0
 (Enter /apps/software/g16/l301.exe)
 Standard basis: Aug-CC-pVQZ (5D, 7F)
 Ernie: Thresh=  0.10000D-02 Tol=  0.10000D-05 Strict=F.
 Ernie:  4 primitive shells out of 54 were deleted.
 There are    68 symmetry adapted cartesian basis functions of A1  symmetry.
 There are    18 symmetry adapted cartesian basis functions of A2  symmetry.
 There are    37 symmetry adapted cartesian basis functions of B1  symmetry.
 There are    37 symmetry adapted cartesian basis functions of B2  symmetry.
 There are    50 symmetry adapted basis functions of A1  symmetry.
 There are    16 symmetry adapted basis functions of A2  symmetry.
 There are    30 symmetry adapted basis functions of B1  symmetry.
 There are    30 symmetry adapted basis functions of B2  symmetry.
   126 basis functions,   180 primitive gaussians,   160 cartesian basis functions
     3 alpha electrons        3 beta electrons
       nuclear repulsion energy         0.9449593052 Hartrees.
 IExCor=    0 DFT=F Ex=HF Corr=None ExCW=0 ScaHFX=  1.000000
 ScaDFX=  1.000000  1.000000  1.000000  1.000000 ScalE2=  1.000000  1.000000
 IRadAn=      5 IRanWt=     -1 IRanGd=            0 ICorTp=0 IEmpDi=  4
 NAtoms=    2 NActive=    2 NUniq=    2 SFac= 1.00D+00 NAtFMM=   60 NAOKFM=F Big=F
 Integral buffers will be    131072 words long.
 Raffenetti 1 integral format.
 Two-electron integral symmetry is turned on.
 Leave Link  301 at Sun May 22 16:03:25 2022, MaxMem=   104857600 cpu:               0.1 elap:               0.1
 (Enter /apps/software/g16/l302.exe)
 NPDir=0 NMtPBC=     1 NCelOv=     1 NCel=       1 NClECP=     1 NCelD=      1
         NCelK=      1 NCelE2=     1 NClLst=     1 CellRange=     0.0.
 One-electron integrals computed using PRISM.
 One-electron integral symmetry used in STVInt
 NBasis=   126 RedAO= T EigKep=  1.64D-03  NBF=    50    16    30    30
 NBsUse=   126 1.00D-06 EigRej= -1.00D+00 NBFU=    50    16    30    30
 Leave Link  302 at Sun May 22 16:03:25 2022, MaxMem=   104857600 cpu:               0.1 elap:               0.1
 (Enter /apps/software/g16/l303.exe)
 DipDrv:  MaxL=1.
 Leave Link  303 at Sun May 22 16:03:25 2022, MaxMem=   104857600 cpu:               0.0 elap:               0.0
 (Enter /apps/software/g16/l401.exe)
 Initial guess from the checkpoint file:  "BH-2.8-CCSD-G.chk"
 B after Tr=     0.000000    0.000000    0.000000
         Rot=    1.000000    0.000000    0.000000    0.000000 Ang=   0.00 deg.
 Guess basis will be translated and rotated to current coordinates.
 JPrj=2 DoOrth=T DoCkMO=T.
 Initial guess orbital symmetries:
       Occupied  (SG) (SG) (SG)
       Virtual   (PI) (PI) (SG) (SG) (PI) (PI) (SG) (SG) (DLTA)
                 (DLTA) (PI) (PI) (SG) (PI) (PI) (SG) (PI) (PI)
                 (SG) (SG) (PHI) (PHI) (DLTA) (DLTA) (DLTA) (DLTA)
                 (PI) (PI) (SG) (PI) (PI) (SG) (SG) (DLTA) (DLTA)
                 (PI) (PI) (SG) (PI) (PI) (SG) (PI) (PI) (SG) (?A)
                 (?A) (DLTA) (DLTA) (PHI) (PHI) (DLTA) (DLTA) (SG)
                 (PI) (PI) (SG) (PHI) (PHI) (PI) (PI) (DLTA) (DLTA)
                 (SG) (PI) (PI) (PHI) (PHI) (SG) (DLTA) (DLTA)
                 (SG) (PI) (PI) (SG) (DLTA) (DLTA) (PI) (PI) (PI)
                 (PI) (SG) (SG) (PI) (PI) (SG) (?A) (?A) (DLTA)
                 (DLTA) (PHI) (PHI) (PI) (PI) (DLTA) (DLTA) (SG)
                 (PHI) (PHI) (DLTA) (DLTA) (PI) (PI) (PI) (PI)
                 (SG) (SG) (PHI) (PHI) (DLTA) (DLTA) (PI) (PI)
                 (SG) (SG) (PI) (PI) (SG) (DLTA) (DLTA) (PI) (PI)
                 (SG) (SG)
 The electronic state of the initial guess is 1-SG.
 Leave Link  401 at Sun May 22 16:03:25 2022, MaxMem=   104857600 cpu:               0.1 elap:               0.1
 (Enter /apps/software/g16/l502.exe)
 Keep R1 ints in memory in symmetry-blocked form, NReq=40143665.
 FoFCou: FMM=F IPFlag=           0 FMFlag=           0 FMFlg1=           0
         NFxFlg=           0 DoJE=F BraDBF=F KetDBF=F FulRan=T
         wScrn=  0.000000 ICntrl=       600 IOpCl=  0 I1Cent=           0 NGrid=           0
         NMat0=    1 NMatS0=   8001 NMatT0=    0 NMatD0=    1 NMtDS0=    0 NMtDT0=    0
 Petite list used in FoFCou.
 Closed shell SCF:
 Using DIIS extrapolation, IDIIS=  1040.
 NGot=   104857600 LenX=    96673173 LenY=    96647132
 Requested convergence on RMS density matrix=1.00D-08 within 128 cycles.
 Requested convergence on MAX density matrix=1.00D-06.
 Requested convergence on             energy=1.00D-06.
 No special actions if energy rises.

 Cycle   1  Pass 1  IDiag  1:
 E= -24.9699583520782    
 DIIS: error= 2.02D-09 at cycle   1 NSaved=   1.
 NSaved= 1 IEnMin= 1 EnMin= -24.9699583520782     IErMin= 1 ErrMin= 2.02D-09
 ErrMax= 2.02D-09  0.00D+00 EMaxC= 1.00D-01 BMatC= 1.26D-16 BMatP= 1.26D-16
 IDIUse=1 WtCom= 1.00D+00 WtEn= 0.00D+00
 Coeff-Com:  0.100D+01
 Coeff:      0.100D+01
 Gap=     0.270 Goal=   None    Shift=    0.000
 RMSDP=2.32D-10 MaxDP=6.00D-09              OVMax= 1.29D-08

 SCF Done:  E(RHF) =  -24.9699583521     A.U. after    1 cycles
            NFock=  1  Conv=0.23D-09     -V/T= 2.0088
 KE= 2.475095836280D+01 PE=-5.915549227731D+01 EE= 8.489616257217D+00
 Leave Link  502 at Sun May 22 16:03:29 2022, MaxMem=   104857600 cpu:               3.5 elap:               3.6
 (Enter /apps/software/g16/l801.exe)
 Windowed orbitals will be sorted by symmetry type.
 ExpMin= 1.88D-02 ExpMax= 2.39D+04 ExpMxC= 2.30D+02 IAcc=3 IRadAn=         5 AccDes= 0.00D+00
 HarFok:  IExCor=  205 AccDes= 0.00D+00 IRadAn=         5 IDoV=-2 UseB2=F ITyADJ=14
 ICtDFT= 12500011 ScaDFX=  1.000000  1.000000  1.000000  1.000000
 DSYEVD-2 returned Info=        3401 IAlg= 4 N=    80 NDim=    80 NE2=     1309686 trying  DSYEV.
 Largest valence mixing into a core orbital is  4.01D-04
 Largest core mixing into a valence orbital is  1.67D-04
 Range of M.O.s used for correlation:     2   126
 NBasis=   126 NAE=     3 NBE=     3 NFC=     1 NFV=     0
 NROrb=    125 NOA=     2 NOB=     2 NVA=   123 NVB=   123
 Leave Link  801 at Sun May 22 16:03:29 2022, MaxMem=   104857600 cpu:               0.1 elap:               0.1
 (Enter /apps/software/g16/l804.exe)
 Closed-shell transformation, MDV=   104857600 ITran=4 ISComp=2.
 Unit  1 TFree=        535169 TCopy=        350885.
 Semi-Direct transformation.
 ModeAB=           2 MOrb=             2 LenV=     104240963
 LASXX=       493564 LTotXX=      493564 LenRXX=      493564
 LTotAB=      509833 MaxLAS=     3220000 LenRXY=     3220000
 NonZer=     3359250 LenScr=     5754880 LnRSAI=           0
 LnScr1=           0 LExtra=           0 Total=      9468444
 MaxDsk=          -1 SrtSym=           F ITran=            4
 DoSDTr:  NPSUse=  1
 JobTyp=0 Pass  1:  I=   1 to   2.
 (rs|ai) integrals will be sorted in core.
 Complete sort for first half transformation.
 First half transformation complete.
 Complete sort for second half transformation.
 Second half transformation complete.
 Spin components of T(2) and E(2):
     alpha-alpha T2 =       0.1574585140D-02 E2=     -0.2381502013D-02
     alpha-beta  T2 =       0.7673023148D-01 E2=     -0.8737158080D-01
     beta-beta   T2 =       0.1574585140D-02 E2=     -0.2381502013D-02
 ANorm=    0.1039172460D+01
 E2 =    -0.9213458483D-01 EUMP2 =    -0.25062092936904D+02
 Leave Link  804 at Sun May 22 16:03:34 2022, MaxMem=   104857600 cpu:               5.0 elap:               5.0
 (Enter /apps/software/g16/l913.exe)
 CIDS:  MDV=   104857600.
 Frozen-core window:  NFC=   1 NFV=   0.
 IFCWin=0 IBDFC=1 NFBD=     0     0 NFCmp=     0     0 NFFFC=     0     0
 Using DD3R+UMP44R for 1st iteration.
 Using DD4RQ for 2nd and later iterations.
 Keep R2 and R3 ints in memory in symmetry-blocked form, NReq=40146875.
 FoFCou: FMM=F IPFlag=           0 FMFlag=           0 FMFlg1=           0
         NFxFlg=           0 DoJE=F BraDBF=F KetDBF=F FulRan=T
         wScrn=  0.000000 ICntrl=       600 IOpCl=  0 I1Cent=           0 NGrid=           0
         NMat0=    1 NMatS0=   8001 NMatT0=    0 NMatD0=    1 NMtDS0=    0 NMtDT0=    0
 Petite list used in FoFCou.
 CIDS: In Core Option IDoMem=           1.
 Coupled Cluster theory with single and double substitutions
 ===========================================================
 Iterations=  50 Convergence= 0.100D-06
 Produce multiple copies of IABC intergrals
 Iteration Nr.   1
 **********************
 DD1Dir will call FoFMem   1 times, MxPair=         6
 NAB=     3 NAA=     0 NBB=     0.
 MP4(R+Q)=  0.48704872D-02
 Maximum subspace dimension=  5
 A-vector RMS=  1.0237734D-02 Max=  6.1716289D-02 conv= 1.00D-05.
 RLE energy=       -0.1139558627
 E3=       -0.23018631D-01        EUMP3=      -0.25085111568D+02
 E4(DQ)=   -0.84656446D-02        UMP4(DQ)=   -0.25093577213D+02
 E4(SDQ)=  -0.12858665D-01        UMP4(SDQ)=  -0.25097970234D+02
 VARIATIONAL ENERGIES WITH THE FIRST-ORDER WAVEFUNCTION:
 DE(Corr)= -0.10978076     E(Corr)=     -25.079739112    
 NORM(A)=   0.10814534D+01
 Iteration Nr.   2
 **********************
 DD1Dir will call FoFMem   1 times, MxPair=         6
 NAB=     3 NAA=     0 NBB=     0.
 A-vector RMS=  2.2653206D-03 Max=  5.3669832D-02 conv= 1.00D-05.
 RLE energy=       -0.1355428578
 DE(Corr)= -0.12597794     E(CORR)=     -25.095936292     Delta=-1.62D-02
 NORM(A)=   0.11353907D+01
 Iteration Nr.   3
 **********************
 DD1Dir will call FoFMem   1 times, MxPair=         6
 NAB=     3 NAA=     0 NBB=     0.
 A-vector RMS=  4.8519650D-03 Max=  3.2053747D-02 conv= 1.00D-05.
 RLE energy=       -0.1374910186
 DE(Corr)= -0.13345855     E(CORR)=     -25.103416898     Delta=-7.48D-03
 NORM(A)=   0.11632350D+01
 Iteration Nr.   4
 **********************
 DD1Dir will call FoFMem   1 times, MxPair=         6
 NAB=     3 NAA=     0 NBB=     0.
 A-vector RMS=  7.5231983D-04 Max=  1.3135261D-02 conv= 1.00D-05.
 RLE energy=       -0.1387879204
 DE(Corr)= -0.13831008     E(CORR)=     -25.108268433     Delta=-4.85D-03
 NORM(A)=   0.11761702D+01
 Iteration Nr.   5
 **********************
 DD1Dir will call FoFMem   1 times, MxPair=         6
 NAB=     3 NAA=     0 NBB=     0.
 A-vector RMS=  8.2083358D-04 Max=  5.6315212D-03 conv= 1.00D-05.
 RLE energy=       -0.1397242805
 DE(Corr)= -0.13885288     E(CORR)=     -25.108811232     Delta=-5.43D-04
 NORM(A)=   0.11853731D+01
 Iteration Nr.   6
 **********************
 DD1Dir will call FoFMem   1 times, MxPair=         6
 NAB=     3 NAA=     0 NBB=     0.
 A-vector RMS=  1.8722269D-04 Max=  1.1614233D-03 conv= 1.00D-05.
 RLE energy=       -0.1392632129
 DE(Corr)= -0.13957967     E(CORR)=     -25.109538021     Delta=-7.27D-04
 NORM(A)=   0.11834717D+01
 Iteration Nr.   7
 **********************
 DD1Dir will call FoFMem   1 times, MxPair=         6
 NAB=     3 NAA=     0 NBB=     0.
 A-vector RMS=  6.9808758D-05 Max=  4.7737269D-04 conv= 1.00D-05.
 RLE energy=       -0.1393140240
 DE(Corr)= -0.13928906     E(CORR)=     -25.109247408     Delta= 2.91D-04
 NORM(A)=   0.11839393D+01
 Iteration Nr.   8
 **********************
 DD1Dir will call FoFMem   1 times, MxPair=         6
 NAB=     3 NAA=     0 NBB=     0.
 A-vector RMS=  9.3409752D-06 Max=  5.5646527D-05 conv= 1.00D-05.
 RLE energy=       -0.1393085220
 DE(Corr)= -0.13931321     E(CORR)=     -25.109271559     Delta=-2.42D-05
 NORM(A)=   0.11839402D+01
 Iteration Nr.   9
 **********************
 DD1Dir will call FoFMem   1 times, MxPair=         6
 NAB=     3 NAA=     0 NBB=     0.
 A-vector RMS=  4.7589792D-06 Max=  3.0159461D-05 conv= 1.00D-05.
 RLE energy=       -0.1393166977
 DE(Corr)= -0.13931452     E(CORR)=     -25.109272868     Delta=-1.31D-06
 NORM(A)=   0.11839584D+01
 Iteration Nr.  10
 **********************
 DD1Dir will call FoFMem   1 times, MxPair=         6
 NAB=     3 NAA=     0 NBB=     0.
 A-vector RMS=  4.1762244D-06 Max=  2.7327878D-05 conv= 1.00D-05.
 RLE energy=       -0.1393148312
 DE(Corr)= -0.13931338     E(CORR)=     -25.109271735     Delta= 1.13D-06
 NORM(A)=   0.11839671D+01
 Iteration Nr.  11
 **********************
 DD1Dir will call FoFMem   1 times, MxPair=         6
 NAB=     3 NAA=     0 NBB=     0.
 A-vector RMS=  5.4137612D-07 Max=  6.7688112D-06 conv= 1.00D-05.
 RLE energy=       -0.1393163300
 DE(Corr)= -0.13931552     E(CORR)=     -25.109273873     Delta=-2.14D-06
 NORM(A)=   0.11839747D+01
 Iteration Nr.  12
 **********************
 DD1Dir will call FoFMem   1 times, MxPair=         6
 NAB=     3 NAA=     0 NBB=     0.
 A-vector RMS=  5.1058075D-07 Max=  3.2845397D-06 conv= 1.00D-05.
 RLE energy=       -0.1393161583
 DE(Corr)= -0.13931595     E(CORR)=     -25.109274298     Delta=-4.25D-07
 NORM(A)=   0.11839774D+01
 Iteration Nr.  13
 **********************
 DD1Dir will call FoFMem   1 times, MxPair=         6
 NAB=     3 NAA=     0 NBB=     0.
 A-vector RMS=  1.1653485D-07 Max=  8.2576563D-07 conv= 1.00D-05.
 RLE energy=       -0.1393162434
 DE(Corr)= -0.13931624     E(CORR)=     -25.109274588     Delta=-2.90D-07
 NORM(A)=   0.11839781D+01
 Iteration Nr.  14
 **********************
 DD1Dir will call FoFMem   1 times, MxPair=         6
 NAB=     3 NAA=     0 NBB=     0.
 A-vector RMS=  3.9785898D-08 Max=  2.8071760D-07 conv= 1.00D-05.
 RLE energy=       -0.1393162661
 DE(Corr)= -0.13931625     E(CORR)=     -25.109274600     Delta=-1.25D-08
 NORM(A)=   0.11839784D+01
 CI/CC converged in   14 iterations to DelEn=-1.25D-08 Conv= 1.00D-07 ErrA1= 3.98D-08 Conv= 1.00D-05
 Wavefunction amplitudes converged. E(Corr)=     -25.109274600    
 Dominant configurations:
 ***********************
 Spin Case        I    J    A    B          Value
    AA            3         6           -0.165175D+00
   ABAB           2    2    5    5      -0.107978D+00
   ABAB           2    2    4    4      -0.107978D+00
   ABAB           3    3    6    6      -0.364096D+00
   ABAB           3    3    6    7       0.155276D+00
   ABAB           3    3    7    6       0.155276D+00
 Largest amplitude= 3.64D-01
 Discarding MO integrals.
 Leave Link  913 at Sun May 22 16:03:38 2022, MaxMem=   104857600 cpu:               4.1 elap:               4.1
 (Enter /apps/software/g16/l601.exe)
 Copying SCF densities to generalized density rwf, IOpCl= 0 IROHF=0.

 **********************************************************************

            Population analysis using the SCF density.

 **********************************************************************

 Orbital symmetries:
       Occupied  (SG) (SG) (SG)
       Virtual   (PI) (PI) (SG) (SG) (PI) (PI) (SG) (SG) (DLTA)
                 (DLTA) (PI) (PI) (SG) (PI) (PI) (SG) (PI) (PI)
                 (SG) (SG) (PHI) (PHI) (DLTA) (DLTA) (DLTA) (DLTA)
                 (PI) (PI) (SG) (PI) (PI) (SG) (SG) (DLTA) (DLTA)
                 (PI) (PI) (SG) (PI) (PI) (SG) (PI) (PI) (SG) (?A)
                 (?A) (DLTA) (DLTA) (PHI) (PHI) (DLTA) (DLTA) (SG)
                 (PI) (PI) (SG) (PHI) (PHI) (PI) (PI) (DLTA) (DLTA)
                 (SG) (PI) (PI) (PHI) (PHI) (SG) (DLTA) (DLTA)
                 (SG) (PI) (PI) (SG) (DLTA) (DLTA) (PI) (PI) (PI)
                 (PI) (SG) (SG) (PI) (PI) (SG) (?A) (?A) (DLTA)
                 (DLTA) (PHI) (PHI) (PI) (PI) (DLTA) (DLTA) (SG)
                 (PHI) (PHI) (DLTA) (DLTA) (PI) (PI) (PI) (PI)
                 (SG) (SG) (PHI) (PHI) (DLTA) (DLTA) (PI) (PI)
                 (SG) (SG) (PI) (PI) (SG) (DLTA) (DLTA) (PI) (PI)
                 (SG) (SG)
 The electronic state is 1-SG.
 Alpha  occ. eigenvalues --   -7.84520  -0.58246  -0.28499
 Alpha virt. eigenvalues --   -0.01476  -0.01476  -0.00844   0.03650   0.05339
 Alpha virt. eigenvalues --    0.05339   0.07002   0.08557   0.13348   0.13348
 Alpha virt. eigenvalues --    0.13767   0.13767   0.17104   0.25686   0.25686
 Alpha virt. eigenvalues --    0.28213   0.28602   0.28602   0.29803   0.33830
 Alpha virt. eigenvalues --    0.43827   0.43827   0.44546   0.44546   0.46192
 Alpha virt. eigenvalues --    0.46192   0.46254   0.46254   0.47885   0.51184
 Alpha virt. eigenvalues --    0.51184   0.55252   0.61259   0.71859   0.71859
 Alpha virt. eigenvalues --    0.85727   0.85727   0.86955   0.88804   0.88804
 Alpha virt. eigenvalues --    0.92681   0.98002   0.98002   1.19912   1.32586
 Alpha virt. eigenvalues --    1.32586   1.33044   1.33044   1.33294   1.33294
 Alpha virt. eigenvalues --    1.33959   1.33959   1.34339   1.34609   1.34609
 Alpha virt. eigenvalues --    1.36791   1.38195   1.38195   1.38632   1.38632
 Alpha virt. eigenvalues --    1.40537   1.40537   1.48153   1.53325   1.53325
 Alpha virt. eigenvalues --    1.64224   1.64224   1.67939   1.77524   1.77524
 Alpha virt. eigenvalues --    1.88295   2.03468   2.03468   2.03478   2.57082
 Alpha virt. eigenvalues --    2.57082   2.68323   2.68323   2.73054   2.73054
 Alpha virt. eigenvalues --    2.80574   3.00394   3.63179   3.63179   3.81968
 Alpha virt. eigenvalues --    3.83961   3.83961   3.85031   3.85031   3.85488
 Alpha virt. eigenvalues --    3.85488   3.86880   3.86880   3.89819   3.89819
 Alpha virt. eigenvalues --    3.91307   3.99206   3.99206   4.01185   4.01185
 Alpha virt. eigenvalues --    4.01383   4.01383   4.07942   4.07942   4.13012
 Alpha virt. eigenvalues --    4.30387   6.64817   6.64817   6.68170   6.68170
 Alpha virt. eigenvalues --    6.77322   6.77322   6.79903   7.63216   8.07502
 Alpha virt. eigenvalues --    8.07502   8.37493   8.50141   8.50141   8.57429
 Alpha virt. eigenvalues --    8.57429   8.67270  13.03215
          Condensed to atoms (all electrons):
               1          2
     1  B    4.490351   0.234764
     2  H    0.234764   1.040121
 Mulliken charges:
               1
     1  B    0.274885
     2  H   -0.274885
 Sum of Mulliken charges =   0.00000
 Mulliken charges with hydrogens summed into heavy atoms:
               1
     1  B    0.000000
 Electronic spatial extent (au):  <R**2>=             48.9375
 Charge=             -0.0000 electrons
 Dipole moment (field-independent basis, Debye):
    X=              0.0000    Y=              0.0000    Z=              4.5039  Tot=              4.5039
 Quadrupole moment (field-independent basis, Debye-Ang):
   XX=             -8.4002   YY=             -8.4002   ZZ=            -17.6413
   XY=              0.0000   XZ=              0.0000   YZ=              0.0000
 Traceless Quadrupole moment (field-independent basis, Debye-Ang):
   XX=              3.0804   YY=              3.0804   ZZ=             -6.1608
   XY=              0.0000   XZ=              0.0000   YZ=              0.0000
 Octapole moment (field-independent basis, Debye-Ang**2):
  XXX=              0.0000  YYY=              0.0000  ZZZ=             23.4545  XYY=              0.0000
  XXY=              0.0000  XXZ=              4.7781  XZZ=              0.0000  YZZ=              0.0000
  YYZ=              4.7781  XYZ=              0.0000
 Hexadecapole moment (field-independent basis, Debye-Ang**3):
 XXXX=            -15.1035 YYYY=            -15.1035 ZZZZ=           -142.3783 XXXY=              0.0000
 XXXZ=              0.0000 YYYX=              0.0000 YYYZ=              0.0000 ZZZX=              0.0000
 ZZZY=              0.0000 XXYY=             -5.0345 XXZZ=            -22.8273 YYZZ=            -22.8273
 XXYZ=              0.0000 YYXZ=              0.0000 ZZXY=              0.0000
 N-N= 9.449593052143D-01 E-N=-5.915549229198D+01  KE= 2.475095836280D+01
 Symmetry A1   KE= 2.475095836280D+01
 Symmetry A2   KE= 2.324060017201D-52
 Symmetry B1   KE= 0.000000000000D+00
 Symmetry B2   KE= 0.000000000000D+00
 Leave Link  601 at Sun May 22 16:03:38 2022, MaxMem=   104857600 cpu:               0.1 elap:               0.1
 (Enter /apps/software/g16/l9999.exe)
 1\1\GINC-CNODE12\SP\RCCSD-FC\Aug-CC-pVQZ\B1H1\LCZ\22-May-2022\0\\#p RH
 F/aug-cc-pVQZ guess=read CCSD=FC\\BH RHF at 2.8 Angstrom\\0,1\B,0,0.,0
 .,0.\H,0,2.8,0.,0.\\Version=ES64L-G16RevA.03\State=1-SG\HF=-24.9699584
 \MP2=-25.0620929\MP3=-25.0851116\MP4D=-25.0984477\MP4DQ=-25.0935772\MP
 4SDQ=-25.0979702\CCSD=-25.1092746\RMSD=2.316e-10\PG=C*V [C*(H1B1)]\\@


 TELEVISION IS CALLED A MEDIUM BECAUSE IT ISN'T
 RARE, AND IT ISN'T WELL DONE.
 Job cpu time:       0 days  0 hours  0 minutes 13.4 seconds.
 Elapsed time:       0 days  0 hours  0 minutes 13.4 seconds.
 File lengths (MBytes):  RWF=     81 Int=      0 D2E=      0 Chk=     67 Scr=      1
 Normal termination of Gaussian 16 at Sun May 22 16:03:38 2022.

Sender: Unischeduler System <lcz@mgt01>
Subject: Job 134053: <#!/bin/bash
#BSUB -J intel
#BSUB -o BH-2.8-CCSD-G.out
#BSUB -n 8
#BSUB -q cqueue
#BSUB -R span[hosts=1]
export g16root=/apps/software
source /apps/software/g16/bsd/g16.profile
export GAUSS_SCRDIR=/scratch
/apps/software/g16/g16 < BH-2.8-CCSD-G.inp > BH-2.8-CCSD-G.out> Done

Job <#!/bin/bash
#BSUB -J intel
#BSUB -o BH-2.8-CCSD-G.out
#BSUB -n 8
#BSUB -q cqueue
#BSUB -R span[hosts=1]
export g16root=/apps/software
source /apps/software/g16/bsd/g16.profile
export GAUSS_SCRDIR=/scratch
/apps/software/g16/g16 < BH-2.8-CCSD-G.inp > BH-2.8-CCSD-G.out> was submitted from host <mgt01> by user <lcz>.
Job was executed on host(s) <8*cnode12>, in queue <cqueue>, as user <lcz>.
</apps/users/lcz> was used as the home directory.
</apps/users/lcz/exe13/CCSD> was used as the working directory.
Started at 2022-05-22 16:03:25
Results reported at 2022-05-22 16:03:38

Your job looked like:

------------------------------------------------------------
# User input
#!/bin/bash
#BSUB -J intel
#BSUB -o BH-2.8-CCSD-G.out
#BSUB -n 8
#BSUB -q cqueue
#BSUB -R span[hosts=1]
export g16root=/apps/software
source /apps/software/g16/bsd/g16.profile
export GAUSS_SCRDIR=/scratch
/apps/software/g16/g16 < BH-2.8-CCSD-G.inp > BH-2.8-CCSD-G.out
------------------------------------------------------------

Successfully completed.

Resource usage summary:

    CPU time   :            5.49 sec.
    Max Memory :               206 MB
    Max Processes  :               5


The output (if any) follows:

