
                                        *****************
                                        * O   R   C   A *
                                        *****************

                                            #,                                       
                                            ###                                      
                                            ####                                     
                                            #####                                    
                                            ######                                   
                                           ########,                                 
                                     ,,################,,,,,                         
                               ,,#################################,,                 
                          ,,##########################################,,             
                       ,#########################################, ''#####,          
                    ,#############################################,,   '####,        
                  ,##################################################,,,,####,       
                ,###########''''           ''''###############################       
              ,#####''   ,,,,##########,,,,          '''####'''          '####       
            ,##' ,,,,###########################,,,                        '##       
           ' ,,###''''                  '''############,,,                           
         ,,##''                                '''############,,,,        ,,,,,,###''
      ,#''                                            '''#######################'''  
     '                                                          ''''####''''         
             ,#######,   #######,   ,#######,      ##                                
            ,#'     '#,  ##    ##  ,#'     '#,    #''#        ######   ,####,        
            ##       ##  ##   ,#'  ##            #'  '#       #        #'  '#        
            ##       ##  #######   ##           ,######,      #####,   #    #        
            '#,     ,#'  ##    ##  '#,     ,#' ,#      #,         ##   #,  ,#        
             '#######'   ##     ##  '#######'  #'      '#     #####' # '####'        



                  #######################################################
                  #                        -***-                        #
                  #          Department of theory and spectroscopy      #
                  #    Directorship and core code : Frank Neese         #
                  #        Max Planck Institute fuer Kohlenforschung    #
                  #                Kaiser Wilhelm Platz 1               #
                  #                 D-45470 Muelheim/Ruhr               #
                  #                      Germany                        #
                  #                                                     #
                  #                  All rights reserved                #
                  #                        -***-                        #
                  #######################################################


                         Program Version 5.0.0 -  RELEASE  -
                                (SVN: $Rev: 19529$)
                ($Date: 2021-06-28 11:36:33 +0200 (Mo, 28 Jun 2021) $)


 With contributions from (in alphabetic order):
   Daniel Aravena         : Magnetic Suceptibility
   Michael Atanasov       : Ab Initio Ligand Field Theory (pilot matlab implementation)
   Alexander A. Auer      : GIAO ZORA, VPT2 properties, NMR spectrum
   Ute Becker             : Parallelization
   Giovanni Bistoni       : ED, misc. LED, open-shell LED, HFLD
   Martin Brehm           : Molecular dynamics
   Dmytro Bykov           : SCF Hessian
   Vijay G. Chilkuri      : MRCI spin determinant printing, contributions to CSF-ICE
   Dipayan Datta          : RHF DLPNO-CCSD density
   Achintya Kumar Dutta   : EOM-CC, STEOM-CC
   Dmitry Ganyushin       : Spin-Orbit,Spin-Spin,Magnetic field MRCI
   Miquel Garcia          : C-PCM Hessian, Gaussian charge scheme
   Yang Guo               : DLPNO-NEVPT2, F12-NEVPT2, CIM, IAO-localization
   Andreas Hansen         : Spin unrestricted coupled pair/coupled cluster methods
   Benjamin Helmich-Paris : MC-RPA, TRAH-SCF, COSX integrals
   Lee Huntington         : MR-EOM, pCC
   Robert Izsak           : Overlap fitted RIJCOSX, COSX-SCS-MP3, EOM
   Marcus Kettner         : VPT2
   Christian Kollmar      : KDIIS, OOCD, Brueckner-CCSD(T), CCSD density, CASPT2, CASPT2-K
   Simone Kossmann        : Meta GGA functionals, TD-DFT gradient, OOMP2, MP2 Hessian
   Martin Krupicka        : Initial AUTO-CI
   Lucas Lang             : DCDCAS
   Marvin Lechner         : AUTO-CI (C++ implementation), FIC-MRCC
   Dagmar Lenk            : GEPOL surface, SMD
   Dimitrios Liakos       : Extrapolation schemes; Compound Job, initial MDCI parallelization
   Dimitrios Manganas     : Further ROCIS development; embedding schemes
   Dimitrios Pantazis     : SARC Basis sets
   Anastasios Papadopoulos: AUTO-CI, single reference methods and gradients
   Taras Petrenko         : DFT Hessian,TD-DFT gradient, ASA, ECA, R-Raman, ABS, FL, XAS/XES, NRVS
   Peter Pinski           : DLPNO-MP2, DLPNO-MP2 Gradient
   Christoph Reimann      : Effective Core Potentials
   Marius Retegan         : Local ZFS, SOC
   Christoph Riplinger    : Optimizer, TS searches, QM/MM, DLPNO-CCSD(T), (RO)-DLPNO pert. Triples
   Tobias Risthaus        : Range-separated hybrids, TD-DFT gradient, RPA, STAB
   Michael Roemelt        : Original ROCIS implementation
   Masaaki Saitow         : Open-shell DLPNO-CCSD energy and density
   Barbara Sandhoefer     : DKH picture change effects
   Avijit Sen             : IP-ROCIS
   Kantharuban Sivalingam : CASSCF convergence, NEVPT2, FIC-MRCI
   Bernardo de Souza      : ESD, SOC TD-DFT
   Georgi Stoychev        : AutoAux, RI-MP2 NMR
   Willem Van den Heuvel  : Paramagnetic NMR
   Boris Wezisla          : Elementary symmetry handling
   Frank Wennmohs         : Technical directorship


 We gratefully acknowledge several colleagues who have allowed us to
 interface, adapt or use parts of their codes:
   Stefan Grimme, W. Hujo, H. Kruse, P. Pracht,  : VdW corrections, initial TS optimization,
                  C. Bannwarth, S. Ehlert          DFT functionals, gCP, sTDA/sTD-DF
   Ed Valeev, F. Pavosevic, A. Kumar             : LibInt (2-el integral package), F12 methods
   Garnet Chan, S. Sharma, J. Yang, R. Olivares  : DMRG
   Ulf Ekstrom                                   : XCFun DFT Library
   Mihaly Kallay                                 : mrcc  (arbitrary order and MRCC methods)
   Jiri Pittner, Ondrej Demel                    : Mk-CCSD
   Frank Weinhold                                : gennbo (NPA and NBO analysis)
   Christopher J. Cramer and Donald G. Truhlar   : smd solvation model
   Lars Goerigk                                  : TD-DFT with DH, B97 family of functionals
   V. Asgeirsson, H. Jonsson                     : NEB implementation
   FAccTs GmbH                                   : IRC, NEB, NEB-TS, DLPNO-Multilevel, CI-OPT
                                                   MM, QMMM, 2- and 3-layer-ONIOM, Crystal-QMMM,
                                                   LR-CPCM, SF, NACMEs, symmetry and pop. for TD-DFT,
                                                   nearIR, NL-DFT gradient (VV10), updates on ESD,
                                                   ML-optimized integration grids
   S Lehtola, MJT Oliveira, MAL Marques          : LibXC Library
   Liviu Ungur et al                             : ANISO software


 Your calculation uses the libint2 library for the computation of 2-el integrals
 For citations please refer to: http://libint.valeyev.net

 Your ORCA version has been built with support for libXC version: 5.1.0
 For citations please refer to: https://tddft.org/programs/libxc/

 This ORCA versions uses:
   CBLAS   interface :  Fast vector & matrix operations
   LAPACKE interface :  Fast linear algebra routines
   SCALAPACK package :  Parallel linear algebra routines
   Shared memory     :  Shared parallel matrices
   BLAS/LAPACK       :  OpenBLAS 0.3.15  USE64BITINT DYNAMIC_ARCH NO_AFFINITY SkylakeX SINGLE_THREADED
        Core in use  :  SkylakeX
   Copyright (c) 2011-2014, The OpenBLAS Project


================================================================================

----- Orbital basis set information -----
Your calculation utilizes the basis: aug-cc-pVQZ 
    H, B-Ne : Obtained from the ccRepo (grant-hill.group.shef.ac.uk/ccrepo) Feb. 2017
              R. A. Kendall, T. H. Dunning, Jr., R. J. Harrison, J. Chem. Phys. 96, 6796 (1992)
         He : Obtained from the ccRepo (grant-hill.group.shef.ac.uk/ccrepo) Feb. 2017
              D. E. Woon, T. H. Dunning, Jr., J. Chem. Phys. 100, 2975 (1994)
  Li-Be, Na : Obtained from the ccRepo (grant-hill.group.shef.ac.uk/ccrepo) Feb. 2017
              B. P. Prascher, D. E. Woon, K. A. Peterson, T. H. Dunning, Jr., A. K. Wilson, Theor. Chem. Acc. 128, 69 (2011)
         Mg : Obtained from the Peterson Research Group Website (tyr0.chem.wsu.edu/~kipeters) Feb. 2017
              B. P. Prascher, D. E. Woon, K. A. Peterson, T. H. Dunning, Jr., A. K. Wilson, Theor. Chem. Acc. 128, 69 (2011)
      Al-Ar : Obtained from the ccRepo (grant-hill.group.shef.ac.uk/ccrepo) Feb. 2017
              D. E. Woon, T. H. Dunning, Jr., J. Chem. Phys. 98, 1358 (1993)
      Sc-Zn : Obtained from the ccRepo (grant-hill.group.shef.ac.uk/ccrepo) Feb. 2017
              N. B. Balabanov, K. A. Peterson, J. Chem. Phys. 123, 064107 (2005)
              N. B. Balabanov, K. A. Peterson, J. Chem. Phys. 125, 074110 (2006)
      Ga-Kr : Obtained from the ccRepo (grant-hill.group.shef.ac.uk/ccrepo) Feb. 2017
              A. K. Wilson, D. E. Woon, K. A. Peterson, T. H. Dunning, Jr., J. Chem. Phys. 110, 7667 (1999)

================================================================================
                                        WARNINGS
                       Please study these warnings very carefully!
================================================================================


WARNING: Post HF methods need fully converged wavefunctions
  ===> : Setting SCFConvForced true
         You can overwrite this default with %scf ConvForced false 


WARNING: MDCI localization with Augmented Hessian Foster-Boys
  ===> : Switching off randomization!

INFO   : the flag for use of the SHARK integral package has been found!

================================================================================
                                       INPUT FILE
================================================================================
NAME = /scratch/BH-2.2-CCSD-O_724/BH-2.2-CCSD-O.inp
|  1> ! RHF CCSD aug-cc-pVQZ VeryTightSCF
|  2> 
|  3> *xyz 0 1
|  4>  B	0.0	0.0	0.0
|  5>  H	2.2	0.0	0.0
|  6> **                         ****END OF INPUT****
================================================================================

                       ****************************
                       * Single Point Calculation *
                       ****************************

---------------------------------
CARTESIAN COORDINATES (ANGSTROEM)
---------------------------------
  B      0.000000    0.000000    0.000000
  H      2.200000    0.000000    0.000000

----------------------------
CARTESIAN COORDINATES (A.U.)
----------------------------
  NO LB      ZA    FRAG     MASS         X           Y           Z
   0 B     5.0000    0    10.810    0.000000    0.000000    0.000000
   1 H     1.0000    0     1.008    4.157397    0.000000    0.000000

--------------------------------
INTERNAL COORDINATES (ANGSTROEM)
--------------------------------
 B      0   0   0     0.000000000000     0.00000000     0.00000000
 H      1   0   0     2.200000000000     0.00000000     0.00000000

---------------------------
INTERNAL COORDINATES (A.U.)
---------------------------
 B      0   0   0     0.000000000000     0.00000000     0.00000000
 H      1   0   0     4.157397494627     0.00000000     0.00000000

---------------------
BASIS SET INFORMATION
---------------------
There are 2 groups of distinct atoms

 Group   1 Type B   : 22s7p4d3f2g contracted to 6s5p4d3f2g pattern {991111/31111/1111/111/11}
 Group   2 Type H   : 7s4p3d2f contracted to 5s4p3d2f pattern {31111/1111/111/11}

Atom   0B    basis set group =>   1
Atom   1H    basis set group =>   2
------------------------------------------------------------------------------
                           ORCA GTO INTEGRAL CALCULATION
------------------------------------------------------------------------------
------------------------------------------------------------------------------
                   ___                                                        
                  /   \      - P O W E R E D   B Y -                         
                 /     \                                                     
                 |  |  |   _    _      __       _____    __    __             
                 |  |  |  | |  | |    /  \     |  _  \  |  |  /  |          
                  \  \/   | |  | |   /    \    | | | |  |  | /  /          
                 / \  \   | |__| |  /  /\  \   | |_| |  |  |/  /          
                |  |  |   |  __  | /  /__\  \  |    /   |      \           
                |  |  |   | |  | | |   __   |  |    \   |  |\   \          
                \     /   | |  | | |  |  |  |  | |\  \  |  | \   \       
                 \___/    |_|  |_| |__|  |__|  |_| \__\ |__|  \__/        
                                                                              
                      - O R C A' S   B I G   F R I E N D -                    
                                      &                                       
                       - I N T E G R A L  F E E D E R -                       
                                                                              
 v1 FN, 2020, v2 2021                                                         
------------------------------------------------------------------------------


Reading SHARK input file /scratch/BH-2.2-CCSD-O_724/BH-2.2-CCSD-O.SHARKINP.tmp ... ok
----------------------
SHARK INTEGRAL PACKAGE
----------------------

Number of atoms                             ...      2
Number of basis functions                   ...    126
Number of shells                            ...     34
Maximum angular momentum                    ...      4
Integral batch strategy                     ... SHARK/LIBINT Hybrid
RI-J (if used) integral strategy            ... SPLIT-RIJ (Revised 2003 algorithm where possible)
Printlevel                                  ...      1
Contraction scheme used                     ... SEGMENTED contraction
Coulomb Range Separation                    ... NOT USED
Exchange Range Separation                   ... NOT USED
Finite Nucleus Model                        ... NOT USED
Auxiliary Coulomb fitting basis             ... NOT available
Auxiliary J/K fitting basis                 ... NOT available
Auxiliary Correlation fitting basis         ... NOT available
Auxiliary 'external' fitting basis          ... NOT available
Integral threshold                          ...     1.000000e-12
Primitive cut-off                           ...     1.000000e-14
Primitive pair pre-selection threshold      ...     1.000000e-14

Calculating pre-screening integrals         ... done (  0.1 sec) Dimension = 34
Organizing shell pair data                  ... done (  0.0 sec)
Shell pair information
Total number of shell pairs                 ...       595
Shell pairs after pre-screening             ...       595
Total number of primitive shell pairs       ...      1563
Primitive shell pairs kept                  ...      1496
          la=0 lb=0:     66 shell pairs
          la=1 lb=0:     99 shell pairs
          la=1 lb=1:     45 shell pairs
          la=2 lb=0:     77 shell pairs
          la=2 lb=1:     63 shell pairs
          la=2 lb=2:     28 shell pairs
          la=3 lb=0:     55 shell pairs
          la=3 lb=1:     45 shell pairs
          la=3 lb=2:     35 shell pairs
          la=3 lb=3:     15 shell pairs
          la=4 lb=0:     22 shell pairs
          la=4 lb=1:     18 shell pairs
          la=4 lb=2:     14 shell pairs
          la=4 lb=3:     10 shell pairs
          la=4 lb=4:      3 shell pairs

Calculating one electron integrals          ... done (  0.0 sec)
Calculating Nuclear repulsion               ... done (  0.0 sec) ENN=      1.202675473409 Eh

SHARK setup successfully completed in   0.1 seconds

Maximum memory used throughout the entire GTOINT-calculation: 33.2 MB
-------------------------------------------------------------------------------
                                 ORCA SCF
-------------------------------------------------------------------------------

------------
SCF SETTINGS
------------
Hamiltonian:
 Ab initio Hamiltonian  Method          .... Hartree-Fock(GTOs)


General Settings:
 Integral files         IntName         .... /scratch/BH-2.2-CCSD-O_724/BH-2.2-CCSD-O
 Hartree-Fock type      HFTyp           .... RHF
 Total Charge           Charge          ....    0
 Multiplicity           Mult            ....    1
 Number of Electrons    NEL             ....    6
 Basis Dimension        Dim             ....  126
 Nuclear Repulsion      ENuc            ....      1.2026754734 Eh

Convergence Acceleration:
 DIIS                   CNVDIIS         .... on
   Start iteration      DIISMaxIt       ....    12
   Startup error        DIISStart       ....  0.200000
   # of expansion vecs  DIISMaxEq       ....     5
   Bias factor          DIISBfac        ....   1.050
   Max. coefficient     DIISMaxC        ....  10.000
 Trust-Rad. Augm. Hess. CNVTRAH         .... auto
   Auto Start mean grad. ratio tolernc. ....  1.125000
   Auto Start start iteration           ....    20
   Auto Start num. interpolation iter.  ....    10
   Max. Number of Micro iterations      ....    16
   Max. Number of Macro iterations      .... Maxiter - #DIIS iter
   Number of Davidson start vectors     ....     2
   Converg. threshold I  (grad. norm)   ....   2.000e-06
   Converg. threshold II (energy diff.) ....   1.000e-09
   Grad. Scal. Fac. for Micro threshold ....   0.100
   Minimum threshold for Micro iter.    ....   0.010
   NR start threshold (gradient norm)   ....   0.001
   Initial trust radius                 ....   0.400
   Minimum AH scaling param. (alpha)    ....   1.000
   Maximum AH scaling param. (alpha)    .... 1000.000
   Orbital update algorithm             .... Taylor
   White noise on init. David. guess    .... on
   Maximum white noise                  ....   0.010
   Quad. conv. algorithm                .... NR
 SOSCF                  CNVSOSCF        .... on
   Start iteration      SOSCFMaxIt      ....   150
   Startup grad/error   SOSCFStart      ....  0.003300
 Level Shifting         CNVShift        .... on
   Level shift para.    LevelShift      ....    0.2500
   Turn off err/grad.   ShiftErr        ....    0.0010
 Zerner damping         CNVZerner       .... off
 Static damping         CNVDamp         .... on
   Fraction old density DampFac         ....    0.7000
   Max. Damping (<1)    DampMax         ....    0.9800
   Min. Damping (>=0)   DampMin         ....    0.0000
   Turn off err/grad.   DampErr         ....    0.1000
 Fernandez-Rico         CNVRico         .... off

SCF Procedure:
 Maximum # iterations   MaxIter         ....   125
 SCF integral mode      SCFMode         .... Direct
   Integral package                     .... SHARK and LIBINT hybrid scheme
 Reset frequency        DirectResetFreq ....    20
 Integral Threshold     Thresh          ....  1.000e-12 Eh
 Primitive CutOff       TCut            ....  1.000e-14 Eh

Convergence Tolerance:
 Convergence Check Mode ConvCheckMode   .... Total+1el-Energy
 Convergence forced     ConvForced      .... 1
 Energy Change          TolE            ....  1.000e-09 Eh
 1-El. energy change                    ....  1.000e-06 Eh
 Orbital Gradient       TolG            ....  2.000e-06
 Orbital Rotation angle TolX            ....  2.000e-06
 DIIS Error             TolErr          ....  1.000e-08


Diagonalization of the overlap matrix:
Smallest eigenvalue                        ... 7.117e-04
Time for diagonalization                   ...    0.001 sec
Threshold for overlap eigenvalues          ... 1.000e-08
Number of eigenvalues below threshold      ... 0
Time for construction of square roots      ...    0.000 sec
Total time needed                          ...    0.002 sec

Time for model grid setup =    0.013 sec

------------------------------
INITIAL GUESS: MODEL POTENTIAL
------------------------------
Loading Hartree-Fock densities                     ... done
Calculating cut-offs                               ... done
Initializing the effective Hamiltonian             ... done
Setting up the integral package (SHARK)            ... done
Starting the Coulomb interaction                   ... done (   0.0 sec)
Reading the grid                                   ... done
Mapping shells                                     ... done
Starting the XC term evaluation                    ... done (   0.0 sec)
Transforming the Hamiltonian                       ... done (   0.0 sec)
Diagonalizing the Hamiltonian                      ... done (   0.0 sec)
Back transforming the eigenvectors                 ... done (   0.0 sec)
Now organizing SCF variables                       ... done
                      ------------------
                      INITIAL GUESS DONE (   0.0 sec)
                      ------------------
--------------
SCF ITERATIONS
--------------
ITER       Energy         Delta-E        Max-DP      RMS-DP      [F,P]     Damp
               ***  Starting incremental Fock matrix formation  ***
  0    -25.0022689654   0.000000000000 0.04223275  0.00058209  0.1202161 0.7000
  1    -25.0090068445  -0.006737879049 0.03004211  0.00047962  0.0926160 0.7000
                               ***Turning on DIIS***
  2    -25.0141121910  -0.005105346553 0.07011854  0.00119635  0.0661656 0.0000
  3    -25.0264617484  -0.012349557338 0.00576003  0.00014320  0.0119942 0.0000
  4    -25.0305482717  -0.004086523318 0.00305376  0.00008652  0.0046496 0.0000
                      *** Initiating the SOSCF procedure ***
                           *** Shutting down DIIS ***
                      *** Re-Reading the Fockian *** 
                      *** Removing any level shift *** 
ITER      Energy       Delta-E        Grad      Rot      Max-DP    RMS-DP
  5    -25.02743149   0.0031167806  0.001452  0.001452  0.001331  0.000040
               *** Restarting incremental Fock matrix formation ***
  6    -25.02625111   0.0011803826  0.000395  0.000620  0.000720  0.000019
  7    -25.02625284  -0.0000017365  0.000134  0.000351  0.000407  0.000011
  8    -25.02625316  -0.0000003191  0.000012  0.000019  0.000029  0.000001
  9    -25.02625317  -0.0000000025  0.000004  0.000011  0.000015  0.000000
                 **** Energy Check signals convergence ****
              ***Rediagonalizing the Fockian in SOSCF/NRSCF***

               *****************************************************
               *                     SUCCESS                       *
               *           SCF CONVERGED AFTER  10 CYCLES          *
               *****************************************************


----------------
TOTAL SCF ENERGY
----------------

Total Energy       :          -25.02625317 Eh            -680.99897 eV

Components:
Nuclear Repulsion  :            1.20267547 Eh              32.72646 eV
Electronic Energy  :          -26.22892864 Eh            -713.72543 eV
One Electron Energy:          -35.09535123 Eh            -954.99306 eV
Two Electron Energy:            8.86642259 Eh             241.26762 eV

Virial components:
Potential Energy   :          -49.80976226 Eh           -1355.39254 eV
Kinetic Energy     :           24.78350909 Eh             674.39357 eV
Virial Ratio       :            2.00979458


---------------
SCF CONVERGENCE
---------------

  Last Energy change         ...   -2.8791e-10  Tolerance :   1.0000e-09
  Last MAX-Density change    ...    1.6990e-06  Tolerance :   1.0000e-08
  Last RMS-Density change    ...    3.4270e-08  Tolerance :   1.0000e-09
  Last Orbital Gradient      ...    4.4484e-07  Tolerance :   2.0000e-06
  Last Orbital Rotation      ...    7.4388e-07  Tolerance :   2.0000e-06

             **** THE GBW FILE WAS UPDATED (/scratch/BH-2.2-CCSD-O_724/BH-2.2-CCSD-O.gbw) ****
             **** DENSITY /scratch/BH-2.2-CCSD-O_724/BH-2.2-CCSD-O.scfp WAS UPDATED ****
             **** ENERGY FILE WAS UPDATED (/scratch/BH-2.2-CCSD-O_724/BH-2.2-CCSD-O.en.tmp) ****
             **** THE GBW FILE WAS UPDATED (/scratch/BH-2.2-CCSD-O_724/BH-2.2-CCSD-O.gbw) ****
             **** DENSITY /scratch/BH-2.2-CCSD-O_724/BH-2.2-CCSD-O.scfp WAS UPDATED ****
----------------
ORBITAL ENERGIES
----------------

  NO   OCC          E(Eh)            E(eV) 
   0   2.0000      -7.798726      -212.2141 
   1   2.0000      -0.558908       -15.2087 
   2   2.0000      -0.323619        -8.8061 
   3   0.0000       0.005730         0.1559 
   4   0.0000       0.005730         0.1559 
   5   0.0000       0.024854         0.6763 
   6   0.0000       0.053900         1.4667 
   7   0.0000       0.062031         1.6879 
   8   0.0000       0.062031         1.6879 
   9   0.0000       0.078425         2.1340 
  10   0.0000       0.090617         2.4658 
  11   0.0000       0.139907         3.8071 
  12   0.0000       0.139907         3.8071 
  13   0.0000       0.140275         3.8171 
  14   0.0000       0.140275         3.8171 
  15   0.0000       0.186508         5.0751 
  16   0.0000       0.252886         6.8814 
  17   0.0000       0.269674         7.3382 
  18   0.0000       0.269674         7.3382 
  19   0.0000       0.294829         8.0227 
  20   0.0000       0.294829         8.0227 
  21   0.0000       0.316140         8.6026 
  22   0.0000       0.357933         9.7399 
  23   0.0000       0.449996        12.2450 
  24   0.0000       0.449996        12.2450 
  25   0.0000       0.456901        12.4329 
  26   0.0000       0.456901        12.4329 
  27   0.0000       0.475631        12.9426 
  28   0.0000       0.475631        12.9426 
  29   0.0000       0.478357        13.0168 
  30   0.0000       0.478357        13.0168 
  31   0.0000       0.499788        13.5999 
  32   0.0000       0.537326        14.6214 
  33   0.0000       0.537326        14.6214 
  34   0.0000       0.586753        15.9664 
  35   0.0000       0.640759        17.4359 
  36   0.0000       0.754322        20.5261 
  37   0.0000       0.754322        20.5261 
  38   0.0000       0.841329        22.8937 
  39   0.0000       0.841329        22.8937 
  40   0.0000       0.866312        23.5736 
  41   0.0000       0.930916        25.3315 
  42   0.0000       0.930916        25.3315 
  43   0.0000       0.967649        26.3311 
  44   0.0000       1.072195        29.1759 
  45   0.0000       1.072195        29.1759 
  46   0.0000       1.294871        35.2352 
  47   0.0000       1.335394        36.3379 
  48   0.0000       1.335394        36.3379 
  49   0.0000       1.345839        36.6221 
  50   0.0000       1.345839        36.6221 
  51   0.0000       1.357606        36.9423 
  52   0.0000       1.357606        36.9423 
  53   0.0000       1.364454        37.1287 
  54   0.0000       1.364454        37.1287 
  55   0.0000       1.387405        37.7532 
  56   0.0000       1.387405        37.7532 
  57   0.0000       1.396222        37.9931 
  58   0.0000       1.406514        38.2732 
  59   0.0000       1.406514        38.2732 
  60   0.0000       1.446664        39.3657 
  61   0.0000       1.451751        39.5042 
  62   0.0000       1.451751        39.5042 
  63   0.0000       1.456372        39.6299 
  64   0.0000       1.456372        39.6299 
  65   0.0000       1.603228        43.6260 
  66   0.0000       1.681935        45.7678 
  67   0.0000       1.681935        45.7678 
  68   0.0000       1.719924        46.8015 
  69   0.0000       1.719924        46.8015 
  70   0.0000       1.742225        47.4083 
  71   0.0000       1.965349        53.4799 
  72   0.0000       1.979143        53.8552 
  73   0.0000       1.979143        53.8552 
  74   0.0000       2.105888        57.3041 
  75   0.0000       2.149209        58.4830 
  76   0.0000       2.149209        58.4830 
  77   0.0000       2.576771        70.1175 
  78   0.0000       2.576771        70.1175 
  79   0.0000       2.724373        74.1340 
  80   0.0000       2.724373        74.1340 
  81   0.0000       2.927010        79.6480 
  82   0.0000       2.927010        79.6480 
  83   0.0000       2.962277        80.6076 
  84   0.0000       3.328205        90.5650 
  85   0.0000       3.701153       100.7135 
  86   0.0000       3.701153       100.7135 
  87   0.0000       3.870739       105.3282 
  88   0.0000       3.870739       105.3282 
  89   0.0000       3.888271       105.8052 
  90   0.0000       3.888271       105.8052 
  91   0.0000       3.896862       106.0390 
  92   0.0000       3.896862       106.0390 
  93   0.0000       3.925169       106.8093 
  94   0.0000       3.934322       107.0583 
  95   0.0000       3.934322       107.0583 
  96   0.0000       3.966771       107.9413 
  97   0.0000       3.966771       107.9413 
  98   0.0000       3.980441       108.3133 
  99   0.0000       4.027339       109.5895 
 100   0.0000       4.027339       109.5895 
 101   0.0000       4.066610       110.6581 
 102   0.0000       4.066610       110.6581 
 103   0.0000       4.077576       110.9565 
 104   0.0000       4.077576       110.9565 
 105   0.0000       4.254956       115.7832 
 106   0.0000       4.254956       115.7832 
 107   0.0000       4.423402       120.3669 
 108   0.0000       4.576761       124.5400 
 109   0.0000       6.647464       180.8867 
 110   0.0000       6.647464       180.8867 
 111   0.0000       6.729139       183.1092 
 112   0.0000       6.729139       183.1092 
 113   0.0000       6.812238       185.3704 
 114   0.0000       6.812238       185.3704 
 115   0.0000       6.845085       186.2642 
 116   0.0000       7.744773       210.7460 
 117   0.0000       8.199677       223.1246 
 118   0.0000       8.199677       223.1246 
 119   0.0000       8.510278       231.5764 
 120   0.0000       8.510278       231.5764 
 121   0.0000       8.549912       232.6549 
 122   0.0000       8.622396       234.6273 
 123   0.0000       8.622396       234.6273 
 124   0.0000       9.058022       246.4813 
 125   0.0000      13.396662       364.5417 

                    ********************************
                    * MULLIKEN POPULATION ANALYSIS *
                    ********************************

-----------------------
MULLIKEN ATOMIC CHARGES
-----------------------
   0 B :    0.193132
   1 H :   -0.193132
Sum of atomic charges:    0.0000000

--------------------------------
MULLIKEN REDUCED ORBITAL CHARGES
--------------------------------
  0 B s       :     3.936576  s :     3.936576
      pz      :     0.000000  p :     0.827361
      px      :     0.827361
      py      :     0.000000
      dz2     :     0.009952  d :     0.039807
      dxz     :     0.000000
      dyz     :     0.000000
      dx2y2   :     0.029856
      dxy     :     0.000000
      f0      :     0.000000  f :     0.002997
      f+1     :     0.001124
      f-1     :     0.000000
      f+2     :     0.000000
      f-2     :    -0.000000
      f+3     :     0.001873
      f-3     :     0.000000
      g0      :     0.000018  g :     0.000126
      g+1     :     0.000000
      g-1     :     0.000000
      g+2     :     0.000039
      g-2     :     0.000000
      g+3     :     0.000000
      g-3     :     0.000000
      g+4     :     0.000069
      g-4     :     0.000000
  1 H s       :     1.177517  s :     1.177517
      pz      :    -0.000000  p :     0.014287
      px      :     0.014287
      py      :     0.000000
      dz2     :     0.000303  d :     0.001212
      dxz     :     0.000000
      dyz     :     0.000000
      dx2y2   :     0.000909
      dxy     :     0.000000
      f0      :     0.000000  f :     0.000116
      f+1     :     0.000043
      f-1     :     0.000000
      f+2     :     0.000000
      f-2     :     0.000000
      f+3     :     0.000072
      f-3     :     0.000000


                     *******************************
                     * LOEWDIN POPULATION ANALYSIS *
                     *******************************

----------------------
LOEWDIN ATOMIC CHARGES
----------------------
   0 B :    0.244441
   1 H :   -0.244441

-------------------------------
LOEWDIN REDUCED ORBITAL CHARGES
-------------------------------
  0 B s       :     3.706080  s :     3.706080
      pz      :     0.000000  p :     0.931459
      px      :     0.931459
      py      :     0.000000
      dz2     :     0.021923  d :     0.087693
      dxz     :     0.000000
      dyz     :     0.000000
      dx2y2   :     0.065770
      dxy     :     0.000000
      f0      :     0.000000  f :     0.026106
      f+1     :     0.009790
      f-1     :     0.000000
      f+2     :     0.000000
      f-2     :     0.000000
      f+3     :     0.016317
      f-3     :     0.000000
      g0      :     0.000593  g :     0.004220
      g+1     :     0.000000
      g-1     :     0.000000
      g+2     :     0.001319
      g-2     :     0.000000
      g+3     :     0.000000
      g-3     :     0.000000
      g+4     :     0.002308
      g-4     :     0.000000
  1 H s       :     1.043540  s :     1.043540
      pz      :     0.000000  p :     0.136198
      px      :     0.136198
      py      :     0.000000
      dz2     :     0.013936  d :     0.055743
      dxz     :     0.000000
      dyz     :     0.000000
      dx2y2   :     0.041807
      dxy     :     0.000000
      f0      :     0.000000  f :     0.008960
      f+1     :     0.003360
      f-1     :     0.000000
      f+2     :     0.000000
      f-2     :     0.000000
      f+3     :     0.005600
      f-3     :     0.000000


                      *****************************
                      * MAYER POPULATION ANALYSIS *
                      *****************************

  NA   - Mulliken gross atomic population
  ZA   - Total nuclear charge
  QA   - Mulliken gross atomic charge
  VA   - Mayer's total valence
  BVA  - Mayer's bonded valence
  FA   - Mayer's free valence

  ATOM       NA         ZA         QA         VA         BVA        FA
  0 B      4.8069     5.0000     0.1931     0.9724     0.9724    -0.0000
  1 H      1.1931     1.0000    -0.1931     0.9724     0.9724     0.0000

  Mayer bond orders larger than 0.100000
B(  0-B ,  1-H ) :   0.9724 

-------
TIMINGS
-------

Total SCF time: 0 days 0 hours 0 min 11 sec 

Total time                  ....      11.241 sec
Sum of individual times     ....      11.117 sec  ( 98.9%)

Fock matrix formation       ....      11.050 sec  ( 98.3%)
Diagonalization             ....       0.009 sec  (  0.1%)
Density matrix formation    ....       0.001 sec  (  0.0%)
Population analysis         ....       0.001 sec  (  0.0%)
Initial guess               ....       0.036 sec  (  0.3%)
Orbital Transformation      ....       0.000 sec  (  0.0%)
Orbital Orthonormalization  ....       0.000 sec  (  0.0%)
DIIS solution               ....       0.003 sec  (  0.0%)
SOSCF solution              ....       0.005 sec  (  0.0%)

Maximum memory used throughout the entire SCF-calculation: 257.2 MB


------------------------------------------------------------------------------- 
                              ORCA-MATRIX DRIVEN CI                            
------------------------------------------------------------------------------- 

--------------------------------
AUTOMATIC CHOICE OF INCORE LEVEL
--------------------------------

Memory available                           ...    256.00 MB
Memory needed for S+T                      ...      1.04 MB
Memory needed for J+K                      ...      2.08 MB
Memory needed for DIIS                     ...     14.54 MB
Memory needed for 3-ext                    ...     28.39 MB
Memory needed for 4-ext                    ...    880.23 MB
Memory needed for triples                  ...      0.00 MB
 -> Final InCoreLevel    ... 4

Wavefunction type
-----------------
Correlation treatment                      ...      CCSD     
Single excitations                         ... ON
Orbital optimization                       ... OFF
Calculation of Z vector                    ... OFF
Calculation of Brueckner orbitals          ... OFF
Perturbative triple excitations            ... OFF
Calculation of F12 correction              ... OFF
Frozen core treatment                      ... chemical core (2 el)
Reference Wavefunction                     ... RHF
  Internal Orbitals:     1 ...    2 (  2 MO's/  4 electrons)
  Virtual  Orbitals:     3 ...  125 (123 MO's              )
Number of AO's                             ...    126
Number of electrons                        ...      6
Number of correlated electrons             ...      4

Algorithmic settings
--------------------
Integral transformation                    ... AO direct full transformation
K(C) Formation                             ... FULL-MO TRAFO
Maximum number of iterations               ...        50
Convergence tolerance (max. residuum)      ... 1.000e-06
Level shift for amplitude update           ... 2.000e-01
Maximum number of DIIS vectors             ...         7
DIIS turned on at iteration                ...         0
Damping before turning on DIIS             ...     0.500
Damping after turning on DIIS              ...     0.000
Pair specific amplitude update             ... OFF
Natural orbital iterations                 ... OFF
Perturbative natural orbital generation    ... OFF
Printlevel                                 ... 2

Memory handling:
----------------
Maximum memory for working arrays          ...    256 MB
Data storage in matrix containers          ... UNCOMPRESSED
Data type for integral storage             ... DOUBLE
In-Core Storage of quantities:
   Amplitudes+Sigma Vector      ... YES
   J+K operators                ... YES
   DIIS vectors                 ... YES
   3-external integrals         ... YES
   4-external integrals         ... NO


Initializing the integral package          ... done
Warning: reference  - re-canonicalizations have been set to INT 1 VIRT 1

--------------------------
CLOSED-SHELL FOCK OPERATOR
--------------------------

Restoring SHARK [2] ... ok
Recanonicalizing the internal orbitals
Recanonicalizing the virtual orbitals
Time needed for Fock operator              ...            1.205 sec
Reference energy                           ...    -25.026253167

------------------------------
PARTIAL COULOMB TRANSFORMATION
------------------------------

Transformation type                        ... one-operator
Dimension of the basis                     ...  126
Number of internal MOs                     ...  125 (1-125)
Pair cutoff                                ... 0.000e+00 Eh
Number of AO pairs included in the trafo   ... 8001
Total Number of distinct AO pairs          ... 8001
Memory devoted for trafo                   ...  256.0 MB 
Max. Number of MO pairs treated together   ... 4193      
Max. Number of MOs treated per batch       ...   33      
Number Format for Storage                  ... Double (8 Byte)
AO-integral source                         ... DIRECT
Integral package used                      ... LIBINT

Starting integral evaluation:
<ss|**>:        39270 b        0 skpd     0.074 s (  0.002 ms/b)
<sp|**>:        58905 b        0 skpd     0.137 s (  0.002 ms/b)
<sd|**>:        45815 b        0 skpd     0.185 s (  0.004 ms/b)
<sf|**>:        32725 b        0 skpd     0.229 s (  0.007 ms/b)
<sg|**>:        13090 b        0 skpd     0.161 s (  0.012 ms/b)
<pp|**>:        26775 b        0 skpd     0.143 s (  0.005 ms/b)
<pd|**>:        37485 b        0 skpd     0.332 s (  0.009 ms/b)
<pf|**>:        26775 b        0 skpd     0.377 s (  0.014 ms/b)
<pg|**>:        10710 b        0 skpd     0.231 s (  0.022 ms/b)
<dd|**>:        16660 b        0 skpd     0.263 s (  0.016 ms/b)
<df|**>:        20825 b        0 skpd     0.536 s (  0.026 ms/b)
<dg|**>:         8330 b        0 skpd     0.294 s (  0.035 ms/b)
<ff|**>:         8925 b        0 skpd     0.340 s (  0.038 ms/b)
<fg|**>:         5950 b        0 skpd     0.339 s (  0.057 ms/b)
<gg|**>:         1785 b        0 skpd     0.141 s (  0.079 ms/b)
Closing buffer AOJ ( 0.47 GB; CompressionRatio= 1.00)
Collecting buffer AOJ 
    ... done with AO integral generation
Number of MO pairs included in the trafo   ... 7875
    ... Now sorting integrals
IBATCH = 1 of  2
IBATCH = 2 of  2
Closing buffer JAO ( 0.47 GB; CompressionRatio= 1.00)
Collecting buffer JAO 
TOTAL TIME for half transformation         ...     7.062 sec
AO-integral generation                     ...     2.152 sec
Half transformation                        ...     1.634 sec
J-integral sorting                         ...     3.232 sec

-------------------------- SECOND HALF TRANSFORMATION -------------------------
Formation of (pq|rs)                       ... ok (     1.630 sec)
Integral sorting                           ... ok (     1.921 sec)

------------------
CLOSED SHELL GUESS
------------------

Initial guess performed in     0.000 sec
E(0)                                       ...    -25.026253167
E(MP2)                                     ...     -0.085749072
Initial E(tot)                             ...    -25.112002239
<T|T>                                      ...      0.057890341
Number of pairs included                   ... 3
Total number of pairs                      ... 3

------------------------------------------------
                  RHF COUPLED CLUSTER ITERATIONS
------------------------------------------------

Number of amplitudes to be optimized       ... 45633

Iter       E(tot)           E(Corr)          Delta-E          Residual     Time
  0    -25.112002239     -0.085749072      0.000000000      0.023161891    0.55
                           *** Turning on DIIS ***
  1    -25.125676388     -0.099423221     -0.013674149      0.017062812    1.93
  2    -25.137005771     -0.110752604     -0.011329383      0.009242838    1.91
  3    -25.143889682     -0.117636515     -0.006883910      0.003602151    1.93
  4    -25.145641334     -0.119388167     -0.001751652      0.001383398    1.94
  5    -25.146148224     -0.119895057     -0.000506890      0.000477512    1.92
  6    -25.146310664     -0.120057497     -0.000162441      0.000143102    1.95
  7    -25.146335781     -0.120082614     -0.000025116      0.000064036    1.93
  8    -25.146339168     -0.120086001     -0.000003387      0.000025947    1.93
  9    -25.146339679     -0.120086512     -0.000000511      0.000010538    1.92
 10    -25.146340047     -0.120086880     -0.000000368      0.000004794    1.92
 11    -25.146340092     -0.120086925     -0.000000045      0.000001845    1.93
 12    -25.146340027     -0.120086860      0.000000065      0.000000549    1.93
               --- The Coupled-Cluster iterations have converged ---

----------------------
COUPLED CLUSTER ENERGY
----------------------

E(0)                                       ...    -25.026253167
E(CORR)                                    ...     -0.120086860
E(TOT)                                     ...    -25.146340027
Singles Norm <S|S>**1/2                    ...      0.084073823  
T1 diagnostic                              ...      0.042036911  

------------------
LARGEST AMPLITUDES
------------------
   2->  9   2->  9       0.152562
   1->  3   1->  3       0.080010
   1->  4   1->  4       0.080010
   2->  9   2->  5       0.079988
   2->  5   2->  9       0.079988
   2->  9   2->  6       0.067096
   2->  6   2->  9       0.067096
   2->  9   2-> 15       0.064142
   2-> 15   2->  9       0.064142
   1->  7   1->  3       0.053487
   1->  3   1->  7       0.053487
   1->  8   1->  4       0.053487
   1->  4   1->  8       0.053487
   2->  9   2-> 21       0.047649
   2-> 21   2->  9       0.047649
   2->  5   2->  5       0.043635


        !!!!!!!!!!!!!!!!!!!!!!!!!!!!!!!!!!!!!!!!!!!!!!!!!!!!!!!!!!!!!!!!!!!!!!!!!! 
        !  Warning: Densities are linearized densities !                         !
        !!!!!!!!!!!!!!!!!!!!!!!!!!!!!!!!!!!!!!!!!!!!!!!!!!!!!!!!!!!!!!!!!!!!!!!!!! 

Trace of internal density part =     -0.344427974
Trace of external density part =      0.344427974
NORM  =      1.179282395 sqrt=     1.085947694
W(HF) =      0.847973314
------------------------------------------------------------------------------
                           ORCA POPULATION ANALYSIS
------------------------------------------------------------------------------
Input electron density              ... /scratch/BH-2.2-CCSD-O_724/BH-2.2-CCSD-O.mdcip
BaseName (.gbw .S,...)              ... /scratch/BH-2.2-CCSD-O_724/BH-2.2-CCSD-O

                    ********************************
                    * MULLIKEN POPULATION ANALYSIS *
                    ********************************

-----------------------
MULLIKEN ATOMIC CHARGES
-----------------------
   0 B :    0.092776
   1 H :   -0.092776
Sum of atomic charges:    0.0000000

--------------------------------
MULLIKEN REDUCED ORBITAL CHARGES
--------------------------------
  0 B s       :     3.840098  s :     3.840098
      pz      :     0.055587  p :     1.028089
      px      :     0.916915
      py      :     0.055587
      dz2     :     0.006639  d :     0.036833
      dxz     :     0.005245
      dyz     :     0.000213
      dx2y2   :     0.019492
      dxy     :     0.005245
      f0      :     0.000176  f :     0.001992
      f+1     :     0.000393
      f-1     :     0.000045
      f+2     :     0.000280
      f-2     :     0.000097
      f+3     :     0.000590
      f-3     :     0.000411
      g0      :     0.000008  g :     0.000213
      g+1     :     0.000046
      g-1     :     0.000005
      g+2     :     0.000007
      g-2     :     0.000017
      g+3     :     0.000038
      g-3     :     0.000017
      g+4     :     0.000010
      g-4     :     0.000067
  1 H s       :     1.069904  s :     1.069904
      pz      :     0.003297  p :     0.020813
      px      :     0.014219
      py      :     0.003297
      dz2     :     0.000312  d :     0.001790
      dxz     :     0.000305
      dyz     :     0.000066
      dx2y2   :     0.000803
      dxy     :     0.000305
      f0      :     0.000019  f :     0.000268
      f+1     :     0.000064
      f-1     :     0.000008
      f+2     :     0.000028
      f-2     :     0.000015
      f+3     :     0.000096
      f-3     :     0.000039


                     *******************************
                     * LOEWDIN POPULATION ANALYSIS *
                     *******************************

----------------------
LOEWDIN ATOMIC CHARGES
----------------------
   0 B :    0.189333
   1 H :   -0.189333

-------------------------------
LOEWDIN REDUCED ORBITAL CHARGES
-------------------------------
  0 B s       :     3.601299  s :     3.601299
      pz      :     0.054116  p :     1.082582
      px      :     0.974351
      py      :     0.054116
      dz2     :     0.019755  d :     0.089855
      dxz     :     0.005523
      dyz     :     0.000213
      dx2y2   :     0.058840
      dxy     :     0.005523
      f0      :     0.000241  f :     0.030546
      f+1     :     0.010970
      f-1     :     0.000056
      f+2     :     0.000389
      f-2     :     0.000099
      f+3     :     0.018218
      f-3     :     0.000574
      g0      :     0.000858  g :     0.006385
      g+1     :     0.000082
      g-1     :     0.000005
      g+2     :     0.001895
      g-2     :     0.000025
      g+3     :     0.000066
      g-3     :     0.000018
      g+4     :     0.003314
      g-4     :     0.000123
  1 H s       :     0.951263  s :     0.951263
      pz      :     0.003198  p :     0.162196
      px      :     0.155799
      py      :     0.003198
      dz2     :     0.015526  d :     0.064108
      dxz     :     0.001033
      dyz     :     0.000062
      dx2y2   :     0.046454
      dxy     :     0.001033
      f0      :     0.000141  f :     0.011766
      f+1     :     0.004130
      f-1     :     0.000028
      f+2     :     0.000232
      f-2     :     0.000015
      f+3     :     0.006874
      f-3     :     0.000345


                      *****************************
                      * MAYER POPULATION ANALYSIS *
                      *****************************

  NA   - Mulliken gross atomic population
  ZA   - Total nuclear charge
  QA   - Mulliken gross atomic charge
  VA   - Mayer's total valence
  BVA  - Mayer's bonded valence
  FA   - Mayer's free valence

  ATOM       NA         ZA         QA         VA         BVA        FA
  0 B      4.9072     5.0000     0.0928     1.5234     0.6664     0.8571
  1 H      1.0928     1.0000    -0.0928     1.0371     0.6664     0.3708

  Mayer bond orders larger than 0.100000
B(  0-B ,  1-H ) :   0.6664 



------------------------------------------------------------------------------- 
                                     TIMINGS                                   
------------------------------------------------------------------------------- 


Total execution time                   ...       35.728 sec

Fock Matrix Formation                  ...        1.205 sec (  3.4%)
Initial Guess                          ...        0.000 sec (  0.0%)
DIIS Solver                            ...        0.030 sec (  0.1%)
State Vector Update                    ...        0.001 sec (  0.0%)
Sigma-vector construction              ...       23.656 sec ( 66.2%)
  <0|H|D>                              ...        0.003 sec (  0.0% of sigma)
  <D|H|D>(0-ext)                       ...        0.007 sec (  0.0% of sigma)
  <D|H|D>(2-ext Fock)                  ...        0.006 sec (  0.0% of sigma)
  <D|H|D>(2-ext)                       ...        0.046 sec (  0.2% of sigma)
  <D|H|D>(4-ext)                       ...        5.196 sec ( 22.0% of sigma)
  <D|H|D>(4-ext-corr)                  ...        1.064 sec (  4.5% of sigma)
  <S|H|0>                              ...        0.002 sec (  0.0% of sigma)
  <S|H|S>                              ...        0.004 sec (  0.0% of sigma)
  <S|H|D>(1-ext)                       ...        0.005 sec (  0.0% of sigma)
  <D|H|S>(1-ext)                       ...        0.008 sec (  0.0% of sigma)
  <S|H|D>(3-ext)                       ...        0.173 sec (  0.7% of sigma)
  Fock-dressing                        ...       16.829 sec ( 71.1% of sigma)
  (ik|jl)-dressing                     ...        0.004 sec (  0.0% of sigma)
  (ij|ab),(ia|jb)-dressing             ...        0.259 sec (  1.1% of sigma)
  Pair energies                        ...        0.003 sec (  0.0% of sigma)
One-particle density matrix            ...        0.001 sec (  0.0%)


Maximum memory used throughout the entire MDCI-calculation: 400.0 MB

-------------------------   --------------------
FINAL SINGLE POINT ENERGY       -25.146340026933
-------------------------   --------------------


                            ***************************************
                            *     ORCA property calculations      *
                            ***************************************

                                    ---------------------
                                    Active property flags
                                    ---------------------
   (+) Dipole Moment


------------------------------------------------------------------------------
                       ORCA ELECTRIC PROPERTIES CALCULATION
------------------------------------------------------------------------------

Dipole Moment Calculation                       ... on
Quadrupole Moment Calculation                   ... off
Polarizability Calculation                      ... off
GBWName                                         ... /scratch/BH-2.2-CCSD-O_724/BH-2.2-CCSD-O.gbw
Electron density file                           ... /scratch/BH-2.2-CCSD-O_724/BH-2.2-CCSD-O.scfp
The origin for moment calculation is the CENTER OF MASS  = ( 0.354599,  0.000000  0.000000)

-------------
DIPOLE MOMENT
-------------
                                X             Y             Z
Electronic contribution:     -2.87319      -0.00000      -0.00000
Nuclear contribution   :      2.02980       0.00000       0.00000
                        -----------------------------------------
Total Dipole Moment    :     -0.84339      -0.00000      -0.00000
                        -----------------------------------------
Magnitude (a.u.)       :      0.84339
Magnitude (Debye)      :      2.14373



--------------------
Rotational spectrum 
--------------------
 
Rotational constants in cm-1:     0.000000     3.777542     3.777542 
Rotational constants in MHz :     0.000000 113247.859430 113247.859430 

 Dipole components along the rotational axes: 
x,y,z [a.u.] :    -0.843390    -0.000000    -0.000000 
x,y,z [Debye]:    -2.143726    -0.000000    -0.000000 

 

                           *** MDCI DENSITY ***

------------------------------------------------------------------------------
                       ORCA ELECTRIC PROPERTIES CALCULATION
------------------------------------------------------------------------------

Dipole Moment Calculation                       ... on
Quadrupole Moment Calculation                   ... off
Polarizability Calculation                      ... off
GBWName                                         ... /scratch/BH-2.2-CCSD-O_724/BH-2.2-CCSD-O.gbw
Electron density file                           ... /scratch/BH-2.2-CCSD-O_724/BH-2.2-CCSD-O.mdcip
The origin for moment calculation is the CENTER OF MASS  = ( 0.354599,  0.000000  0.000000)

-------------
DIPOLE MOMENT
-------------
                                X             Y             Z
Electronic contribution:     -2.44382      -0.00000      -0.00000
Nuclear contribution   :      2.02980       0.00000       0.00000
                        -----------------------------------------
Total Dipole Moment    :     -0.41402      -0.00000      -0.00000
                        -----------------------------------------
Magnitude (a.u.)       :      0.41402
Magnitude (Debye)      :      1.05236



--------------------
Rotational spectrum 
--------------------
 
Rotational constants in cm-1:     0.000000     3.777542     3.777542 
Rotational constants in MHz :     0.000000 113247.859430 113247.859430 

 Dipole components along the rotational axes: 
x,y,z [a.u.] :    -0.414023    -0.000000    -0.000000 
x,y,z [Debye]:    -1.052364    -0.000000    -0.000000 

 

Timings for individual modules:

Sum of individual times         ...       47.356 sec (=   0.789 min)
GTO integral calculation        ...        0.166 sec (=   0.003 min)   0.4 %
SCF iterations                  ...       11.270 sec (=   0.188 min)  23.8 %
MDCI module                     ...       35.919 sec (=   0.599 min)  75.8 %
                             ****ORCA TERMINATED NORMALLY****
TOTAL RUN TIME: 0 days 0 hours 0 minutes 47 seconds 495 msec

Sender: Unischeduler System <lcz@mgt01>
Subject: Job 134086: <#!/bin/bash
#BSUB -J intel
#BSUB -o BH-2.2-CCSD-O.out
#BSUB -n 1
#BSUB -q cqueue
export LD_LIBRARY_PATH=/apps/software/openmpi-4.1.1/lib:/apps/software/orca_5_0_0:$LD_LIBRARY_PATH
export PATH=/apps/software/openmpi-4.1.1/bin:/apps/software/orca_5_0_0:$PATH
mkdir /scratch/BH-2.2-CCSD-O_724
scp $USER@mgt01:/apps/users/lcz/exe13/CCSD/BH-2.2-CCSD-O.inp /scratch/BH-2.2-CCSD-O_724
/apps/software/orca_5_0_0/orca /scratch/BH-2.2-CCSD-O_724/BH-2.2-CCSD-O.inp >& BH-2.2-CCSD-O.out
scp /scratch/BH-2.2-CCSD-O_724/*.gbw $USER@mgt01:/apps/users/lcz/exe13/CCSD
scp /scratch/BH-2.2-CCSD-O_724/*.xyz $USER@mgt01:/apps/users/lcz/exe13/CCSD
scp /scratch/BH-2.2-CCSD-O_724/*.trj $USER@mgt01:/apps/users/lcz/exe13/CCSD> Exited

Job <#!/bin/bash
#BSUB -J intel
#BSUB -o BH-2.2-CCSD-O.out
#BSUB -n 1
#BSUB -q cqueue
export LD_LIBRARY_PATH=/apps/software/openmpi-4.1.1/lib:/apps/software/orca_5_0_0:$LD_LIBRARY_PATH
export PATH=/apps/software/openmpi-4.1.1/bin:/apps/software/orca_5_0_0:$PATH
mkdir /scratch/BH-2.2-CCSD-O_724
scp $USER@mgt01:/apps/users/lcz/exe13/CCSD/BH-2.2-CCSD-O.inp /scratch/BH-2.2-CCSD-O_724
/apps/software/orca_5_0_0/orca /scratch/BH-2.2-CCSD-O_724/BH-2.2-CCSD-O.inp >& BH-2.2-CCSD-O.out
scp /scratch/BH-2.2-CCSD-O_724/*.gbw $USER@mgt01:/apps/users/lcz/exe13/CCSD
scp /scratch/BH-2.2-CCSD-O_724/*.xyz $USER@mgt01:/apps/users/lcz/exe13/CCSD
scp /scratch/BH-2.2-CCSD-O_724/*.trj $USER@mgt01:/apps/users/lcz/exe13/CCSD> was submitted from host <mgt01> by user <lcz>.
Job was executed on host(s) <1*cnode13>, in queue <cqueue>, as user <lcz>.
</apps/users/lcz> was used as the home directory.
</apps/users/lcz/exe13/CCSD> was used as the working directory.
Started at 2022-05-22 16:13:44
Results reported at 2022-05-22 16:14:33

Your job looked like:

------------------------------------------------------------
# User input
#!/bin/bash
#BSUB -J intel
#BSUB -o BH-2.2-CCSD-O.out
#BSUB -n 1
#BSUB -q cqueue
export LD_LIBRARY_PATH=/apps/software/openmpi-4.1.1/lib:/apps/software/orca_5_0_0:$LD_LIBRARY_PATH
export PATH=/apps/software/openmpi-4.1.1/bin:/apps/software/orca_5_0_0:$PATH
mkdir /scratch/BH-2.2-CCSD-O_724
scp $USER@mgt01:/apps/users/lcz/exe13/CCSD/BH-2.2-CCSD-O.inp /scratch/BH-2.2-CCSD-O_724
/apps/software/orca_5_0_0/orca /scratch/BH-2.2-CCSD-O_724/BH-2.2-CCSD-O.inp >& BH-2.2-CCSD-O.out
scp /scratch/BH-2.2-CCSD-O_724/*.gbw $USER@mgt01:/apps/users/lcz/exe13/CCSD
scp /scratch/BH-2.2-CCSD-O_724/*.xyz $USER@mgt01:/apps/users/lcz/exe13/CCSD
scp /scratch/BH-2.2-CCSD-O_724/*.trj $USER@mgt01:/apps/users/lcz/exe13/CCSD
------------------------------------------------------------

Exited with exit code 1.

Resource usage summary:

    CPU time   :           39.63 sec.
    Max Memory :               416 MB
    Max Processes  :               5


The output (if any) follows:

/scratch/BH-2.2-CCSD-O_724/*.xyz: No such file or directory
/scratch/BH-2.2-CCSD-O_724/*.trj: No such file or directory
