
                                        *****************
                                        * O   R   C   A *
                                        *****************

                                            #,                                       
                                            ###                                      
                                            ####                                     
                                            #####                                    
                                            ######                                   
                                           ########,                                 
                                     ,,################,,,,,                         
                               ,,#################################,,                 
                          ,,##########################################,,             
                       ,#########################################, ''#####,          
                    ,#############################################,,   '####,        
                  ,##################################################,,,,####,       
                ,###########''''           ''''###############################       
              ,#####''   ,,,,##########,,,,          '''####'''          '####       
            ,##' ,,,,###########################,,,                        '##       
           ' ,,###''''                  '''############,,,                           
         ,,##''                                '''############,,,,        ,,,,,,###''
      ,#''                                            '''#######################'''  
     '                                                          ''''####''''         
             ,#######,   #######,   ,#######,      ##                                
            ,#'     '#,  ##    ##  ,#'     '#,    #''#        ######   ,####,        
            ##       ##  ##   ,#'  ##            #'  '#       #        #'  '#        
            ##       ##  #######   ##           ,######,      #####,   #    #        
            '#,     ,#'  ##    ##  '#,     ,#' ,#      #,         ##   #,  ,#        
             '#######'   ##     ##  '#######'  #'      '#     #####' # '####'        



                  #######################################################
                  #                        -***-                        #
                  #          Department of theory and spectroscopy      #
                  #    Directorship and core code : Frank Neese         #
                  #        Max Planck Institute fuer Kohlenforschung    #
                  #                Kaiser Wilhelm Platz 1               #
                  #                 D-45470 Muelheim/Ruhr               #
                  #                      Germany                        #
                  #                                                     #
                  #                  All rights reserved                #
                  #                        -***-                        #
                  #######################################################


                         Program Version 5.0.0 -  RELEASE  -
                                (SVN: $Rev: 19529$)
                ($Date: 2021-06-28 11:36:33 +0200 (Mo, 28 Jun 2021) $)


 With contributions from (in alphabetic order):
   Daniel Aravena         : Magnetic Suceptibility
   Michael Atanasov       : Ab Initio Ligand Field Theory (pilot matlab implementation)
   Alexander A. Auer      : GIAO ZORA, VPT2 properties, NMR spectrum
   Ute Becker             : Parallelization
   Giovanni Bistoni       : ED, misc. LED, open-shell LED, HFLD
   Martin Brehm           : Molecular dynamics
   Dmytro Bykov           : SCF Hessian
   Vijay G. Chilkuri      : MRCI spin determinant printing, contributions to CSF-ICE
   Dipayan Datta          : RHF DLPNO-CCSD density
   Achintya Kumar Dutta   : EOM-CC, STEOM-CC
   Dmitry Ganyushin       : Spin-Orbit,Spin-Spin,Magnetic field MRCI
   Miquel Garcia          : C-PCM Hessian, Gaussian charge scheme
   Yang Guo               : DLPNO-NEVPT2, F12-NEVPT2, CIM, IAO-localization
   Andreas Hansen         : Spin unrestricted coupled pair/coupled cluster methods
   Benjamin Helmich-Paris : MC-RPA, TRAH-SCF, COSX integrals
   Lee Huntington         : MR-EOM, pCC
   Robert Izsak           : Overlap fitted RIJCOSX, COSX-SCS-MP3, EOM
   Marcus Kettner         : VPT2
   Christian Kollmar      : KDIIS, OOCD, Brueckner-CCSD(T), CCSD density, CASPT2, CASPT2-K
   Simone Kossmann        : Meta GGA functionals, TD-DFT gradient, OOMP2, MP2 Hessian
   Martin Krupicka        : Initial AUTO-CI
   Lucas Lang             : DCDCAS
   Marvin Lechner         : AUTO-CI (C++ implementation), FIC-MRCC
   Dagmar Lenk            : GEPOL surface, SMD
   Dimitrios Liakos       : Extrapolation schemes; Compound Job, initial MDCI parallelization
   Dimitrios Manganas     : Further ROCIS development; embedding schemes
   Dimitrios Pantazis     : SARC Basis sets
   Anastasios Papadopoulos: AUTO-CI, single reference methods and gradients
   Taras Petrenko         : DFT Hessian,TD-DFT gradient, ASA, ECA, R-Raman, ABS, FL, XAS/XES, NRVS
   Peter Pinski           : DLPNO-MP2, DLPNO-MP2 Gradient
   Christoph Reimann      : Effective Core Potentials
   Marius Retegan         : Local ZFS, SOC
   Christoph Riplinger    : Optimizer, TS searches, QM/MM, DLPNO-CCSD(T), (RO)-DLPNO pert. Triples
   Tobias Risthaus        : Range-separated hybrids, TD-DFT gradient, RPA, STAB
   Michael Roemelt        : Original ROCIS implementation
   Masaaki Saitow         : Open-shell DLPNO-CCSD energy and density
   Barbara Sandhoefer     : DKH picture change effects
   Avijit Sen             : IP-ROCIS
   Kantharuban Sivalingam : CASSCF convergence, NEVPT2, FIC-MRCI
   Bernardo de Souza      : ESD, SOC TD-DFT
   Georgi Stoychev        : AutoAux, RI-MP2 NMR
   Willem Van den Heuvel  : Paramagnetic NMR
   Boris Wezisla          : Elementary symmetry handling
   Frank Wennmohs         : Technical directorship


 We gratefully acknowledge several colleagues who have allowed us to
 interface, adapt or use parts of their codes:
   Stefan Grimme, W. Hujo, H. Kruse, P. Pracht,  : VdW corrections, initial TS optimization,
                  C. Bannwarth, S. Ehlert          DFT functionals, gCP, sTDA/sTD-DF
   Ed Valeev, F. Pavosevic, A. Kumar             : LibInt (2-el integral package), F12 methods
   Garnet Chan, S. Sharma, J. Yang, R. Olivares  : DMRG
   Ulf Ekstrom                                   : XCFun DFT Library
   Mihaly Kallay                                 : mrcc  (arbitrary order and MRCC methods)
   Jiri Pittner, Ondrej Demel                    : Mk-CCSD
   Frank Weinhold                                : gennbo (NPA and NBO analysis)
   Christopher J. Cramer and Donald G. Truhlar   : smd solvation model
   Lars Goerigk                                  : TD-DFT with DH, B97 family of functionals
   V. Asgeirsson, H. Jonsson                     : NEB implementation
   FAccTs GmbH                                   : IRC, NEB, NEB-TS, DLPNO-Multilevel, CI-OPT
                                                   MM, QMMM, 2- and 3-layer-ONIOM, Crystal-QMMM,
                                                   LR-CPCM, SF, NACMEs, symmetry and pop. for TD-DFT,
                                                   nearIR, NL-DFT gradient (VV10), updates on ESD,
                                                   ML-optimized integration grids
   S Lehtola, MJT Oliveira, MAL Marques          : LibXC Library
   Liviu Ungur et al                             : ANISO software


 Your calculation uses the libint2 library for the computation of 2-el integrals
 For citations please refer to: http://libint.valeyev.net

 Your ORCA version has been built with support for libXC version: 5.1.0
 For citations please refer to: https://tddft.org/programs/libxc/

 This ORCA versions uses:
   CBLAS   interface :  Fast vector & matrix operations
   LAPACKE interface :  Fast linear algebra routines
   SCALAPACK package :  Parallel linear algebra routines
   Shared memory     :  Shared parallel matrices
   BLAS/LAPACK       :  OpenBLAS 0.3.15  USE64BITINT DYNAMIC_ARCH NO_AFFINITY SkylakeX SINGLE_THREADED
        Core in use  :  SkylakeX
   Copyright (c) 2011-2014, The OpenBLAS Project


================================================================================

----- Orbital basis set information -----
Your calculation utilizes the basis: aug-cc-pVQZ 
    H, B-Ne : Obtained from the ccRepo (grant-hill.group.shef.ac.uk/ccrepo) Feb. 2017
              R. A. Kendall, T. H. Dunning, Jr., R. J. Harrison, J. Chem. Phys. 96, 6796 (1992)
         He : Obtained from the ccRepo (grant-hill.group.shef.ac.uk/ccrepo) Feb. 2017
              D. E. Woon, T. H. Dunning, Jr., J. Chem. Phys. 100, 2975 (1994)
  Li-Be, Na : Obtained from the ccRepo (grant-hill.group.shef.ac.uk/ccrepo) Feb. 2017
              B. P. Prascher, D. E. Woon, K. A. Peterson, T. H. Dunning, Jr., A. K. Wilson, Theor. Chem. Acc. 128, 69 (2011)
         Mg : Obtained from the Peterson Research Group Website (tyr0.chem.wsu.edu/~kipeters) Feb. 2017
              B. P. Prascher, D. E. Woon, K. A. Peterson, T. H. Dunning, Jr., A. K. Wilson, Theor. Chem. Acc. 128, 69 (2011)
      Al-Ar : Obtained from the ccRepo (grant-hill.group.shef.ac.uk/ccrepo) Feb. 2017
              D. E. Woon, T. H. Dunning, Jr., J. Chem. Phys. 98, 1358 (1993)
      Sc-Zn : Obtained from the ccRepo (grant-hill.group.shef.ac.uk/ccrepo) Feb. 2017
              N. B. Balabanov, K. A. Peterson, J. Chem. Phys. 123, 064107 (2005)
              N. B. Balabanov, K. A. Peterson, J. Chem. Phys. 125, 074110 (2006)
      Ga-Kr : Obtained from the ccRepo (grant-hill.group.shef.ac.uk/ccrepo) Feb. 2017
              A. K. Wilson, D. E. Woon, K. A. Peterson, T. H. Dunning, Jr., J. Chem. Phys. 110, 7667 (1999)

================================================================================
                                        WARNINGS
                       Please study these warnings very carefully!
================================================================================


WARNING: Post HF methods need fully converged wavefunctions
  ===> : Setting SCFConvForced true
         You can overwrite this default with %scf ConvForced false 


WARNING: MDCI localization with Augmented Hessian Foster-Boys
  ===> : Switching off randomization!

INFO   : the flag for use of the SHARK integral package has been found!

================================================================================
                                       INPUT FILE
================================================================================
NAME = /scratch/BH-2.8-CCSD-O_664/BH-2.8-CCSD-O.inp
|  1> ! RHF CCSD aug-cc-pVQZ VeryTightSCF
|  2> 
|  3> *xyz 0 1
|  4>  B	0.0	0.0	0.0
|  5>  H	2.8	0.0	0.0
|  6> **                         ****END OF INPUT****
================================================================================

                       ****************************
                       * Single Point Calculation *
                       ****************************

---------------------------------
CARTESIAN COORDINATES (ANGSTROEM)
---------------------------------
  B      0.000000    0.000000    0.000000
  H      2.800000    0.000000    0.000000

----------------------------
CARTESIAN COORDINATES (A.U.)
----------------------------
  NO LB      ZA    FRAG     MASS         X           Y           Z
   0 B     5.0000    0    10.810    0.000000    0.000000    0.000000
   1 H     1.0000    0     1.008    5.291233    0.000000    0.000000

--------------------------------
INTERNAL COORDINATES (ANGSTROEM)
--------------------------------
 B      0   0   0     0.000000000000     0.00000000     0.00000000
 H      1   0   0     2.800000000000     0.00000000     0.00000000

---------------------------
INTERNAL COORDINATES (A.U.)
---------------------------
 B      0   0   0     0.000000000000     0.00000000     0.00000000
 H      1   0   0     5.291233174980     0.00000000     0.00000000

---------------------
BASIS SET INFORMATION
---------------------
There are 2 groups of distinct atoms

 Group   1 Type B   : 22s7p4d3f2g contracted to 6s5p4d3f2g pattern {991111/31111/1111/111/11}
 Group   2 Type H   : 7s4p3d2f contracted to 5s4p3d2f pattern {31111/1111/111/11}

Atom   0B    basis set group =>   1
Atom   1H    basis set group =>   2
------------------------------------------------------------------------------
                           ORCA GTO INTEGRAL CALCULATION
------------------------------------------------------------------------------
------------------------------------------------------------------------------
                   ___                                                        
                  /   \      - P O W E R E D   B Y -                         
                 /     \                                                     
                 |  |  |   _    _      __       _____    __    __             
                 |  |  |  | |  | |    /  \     |  _  \  |  |  /  |          
                  \  \/   | |  | |   /    \    | | | |  |  | /  /          
                 / \  \   | |__| |  /  /\  \   | |_| |  |  |/  /          
                |  |  |   |  __  | /  /__\  \  |    /   |      \           
                |  |  |   | |  | | |   __   |  |    \   |  |\   \          
                \     /   | |  | | |  |  |  |  | |\  \  |  | \   \       
                 \___/    |_|  |_| |__|  |__|  |_| \__\ |__|  \__/        
                                                                              
                      - O R C A' S   B I G   F R I E N D -                    
                                      &                                       
                       - I N T E G R A L  F E E D E R -                       
                                                                              
 v1 FN, 2020, v2 2021                                                         
------------------------------------------------------------------------------


Reading SHARK input file /scratch/BH-2.8-CCSD-O_664/BH-2.8-CCSD-O.SHARKINP.tmp ... ok
----------------------
SHARK INTEGRAL PACKAGE
----------------------

Number of atoms                             ...      2
Number of basis functions                   ...    126
Number of shells                            ...     34
Maximum angular momentum                    ...      4
Integral batch strategy                     ... SHARK/LIBINT Hybrid
RI-J (if used) integral strategy            ... SPLIT-RIJ (Revised 2003 algorithm where possible)
Printlevel                                  ...      1
Contraction scheme used                     ... SEGMENTED contraction
Coulomb Range Separation                    ... NOT USED
Exchange Range Separation                   ... NOT USED
Finite Nucleus Model                        ... NOT USED
Auxiliary Coulomb fitting basis             ... NOT available
Auxiliary J/K fitting basis                 ... NOT available
Auxiliary Correlation fitting basis         ... NOT available
Auxiliary 'external' fitting basis          ... NOT available
Integral threshold                          ...     1.000000e-12
Primitive cut-off                           ...     1.000000e-14
Primitive pair pre-selection threshold      ...     1.000000e-14

Calculating pre-screening integrals         ... done (  0.1 sec) Dimension = 34
Organizing shell pair data                  ... done (  0.0 sec)
Shell pair information
Total number of shell pairs                 ...       595
Shell pairs after pre-screening             ...       595
Total number of primitive shell pairs       ...      1563
Primitive shell pairs kept                  ...      1456
          la=0 lb=0:     66 shell pairs
          la=1 lb=0:     99 shell pairs
          la=1 lb=1:     45 shell pairs
          la=2 lb=0:     77 shell pairs
          la=2 lb=1:     63 shell pairs
          la=2 lb=2:     28 shell pairs
          la=3 lb=0:     55 shell pairs
          la=3 lb=1:     45 shell pairs
          la=3 lb=2:     35 shell pairs
          la=3 lb=3:     15 shell pairs
          la=4 lb=0:     22 shell pairs
          la=4 lb=1:     18 shell pairs
          la=4 lb=2:     14 shell pairs
          la=4 lb=3:     10 shell pairs
          la=4 lb=4:      3 shell pairs

Calculating one electron integrals          ... done (  0.0 sec)
Calculating Nuclear repulsion               ... done (  0.0 sec) ENN=      0.944959300536 Eh

SHARK setup successfully completed in   0.1 seconds

Maximum memory used throughout the entire GTOINT-calculation: 33.0 MB
-------------------------------------------------------------------------------
                                 ORCA SCF
-------------------------------------------------------------------------------

------------
SCF SETTINGS
------------
Hamiltonian:
 Ab initio Hamiltonian  Method          .... Hartree-Fock(GTOs)


General Settings:
 Integral files         IntName         .... /scratch/BH-2.8-CCSD-O_664/BH-2.8-CCSD-O
 Hartree-Fock type      HFTyp           .... RHF
 Total Charge           Charge          ....    0
 Multiplicity           Mult            ....    1
 Number of Electrons    NEL             ....    6
 Basis Dimension        Dim             ....  126
 Nuclear Repulsion      ENuc            ....      0.9449593005 Eh

Convergence Acceleration:
 DIIS                   CNVDIIS         .... on
   Start iteration      DIISMaxIt       ....    12
   Startup error        DIISStart       ....  0.200000
   # of expansion vecs  DIISMaxEq       ....     5
   Bias factor          DIISBfac        ....   1.050
   Max. coefficient     DIISMaxC        ....  10.000
 Trust-Rad. Augm. Hess. CNVTRAH         .... auto
   Auto Start mean grad. ratio tolernc. ....  1.125000
   Auto Start start iteration           ....    20
   Auto Start num. interpolation iter.  ....    10
   Max. Number of Micro iterations      ....    16
   Max. Number of Macro iterations      .... Maxiter - #DIIS iter
   Number of Davidson start vectors     ....     2
   Converg. threshold I  (grad. norm)   ....   2.000e-06
   Converg. threshold II (energy diff.) ....   1.000e-09
   Grad. Scal. Fac. for Micro threshold ....   0.100
   Minimum threshold for Micro iter.    ....   0.010
   NR start threshold (gradient norm)   ....   0.001
   Initial trust radius                 ....   0.400
   Minimum AH scaling param. (alpha)    ....   1.000
   Maximum AH scaling param. (alpha)    .... 1000.000
   Orbital update algorithm             .... Taylor
   White noise on init. David. guess    .... on
   Maximum white noise                  ....   0.010
   Quad. conv. algorithm                .... NR
 SOSCF                  CNVSOSCF        .... on
   Start iteration      SOSCFMaxIt      ....   150
   Startup grad/error   SOSCFStart      ....  0.003300
 Level Shifting         CNVShift        .... on
   Level shift para.    LevelShift      ....    0.2500
   Turn off err/grad.   ShiftErr        ....    0.0010
 Zerner damping         CNVZerner       .... off
 Static damping         CNVDamp         .... on
   Fraction old density DampFac         ....    0.7000
   Max. Damping (<1)    DampMax         ....    0.9800
   Min. Damping (>=0)   DampMin         ....    0.0000
   Turn off err/grad.   DampErr         ....    0.1000
 Fernandez-Rico         CNVRico         .... off

SCF Procedure:
 Maximum # iterations   MaxIter         ....   125
 SCF integral mode      SCFMode         .... Direct
   Integral package                     .... SHARK and LIBINT hybrid scheme
 Reset frequency        DirectResetFreq ....    20
 Integral Threshold     Thresh          ....  1.000e-12 Eh
 Primitive CutOff       TCut            ....  1.000e-14 Eh

Convergence Tolerance:
 Convergence Check Mode ConvCheckMode   .... Total+1el-Energy
 Convergence forced     ConvForced      .... 1
 Energy Change          TolE            ....  1.000e-09 Eh
 1-El. energy change                    ....  1.000e-06 Eh
 Orbital Gradient       TolG            ....  2.000e-06
 Orbital Rotation angle TolX            ....  2.000e-06
 DIIS Error             TolErr          ....  1.000e-08


Diagonalization of the overlap matrix:
Smallest eigenvalue                        ... 1.637e-03
Time for diagonalization                   ...    0.002 sec
Threshold for overlap eigenvalues          ... 1.000e-08
Number of eigenvalues below threshold      ... 0
Time for construction of square roots      ...    0.000 sec
Total time needed                          ...    0.002 sec

Time for model grid setup =    0.013 sec

------------------------------
INITIAL GUESS: MODEL POTENTIAL
------------------------------
Loading Hartree-Fock densities                     ... done
Calculating cut-offs                               ... done
Initializing the effective Hamiltonian             ... done
Setting up the integral package (SHARK)            ... done
Starting the Coulomb interaction                   ... done (   0.0 sec)
Reading the grid                                   ... done
Mapping shells                                     ... done
Starting the XC term evaluation                    ... done (   0.0 sec)
Transforming the Hamiltonian                       ... done (   0.0 sec)
Diagonalizing the Hamiltonian                      ... done (   0.0 sec)
Back transforming the eigenvectors                 ... done (   0.0 sec)
Now organizing SCF variables                       ... done
                      ------------------
                      INITIAL GUESS DONE (   0.0 sec)
                      ------------------
--------------
SCF ITERATIONS
--------------
ITER       Energy         Delta-E        Max-DP      RMS-DP      [F,P]     Damp
               ***  Starting incremental Fock matrix formation  ***
  0    -24.9069961795   0.000000000000 0.04413555  0.00075454  0.1600680 0.7000
  1    -24.9247711644  -0.017774984902 0.03264711  0.00068386  0.1268204 0.7000
                               ***Turning on DIIS***
  2    -24.9390181178  -0.014246953404 0.08576339  0.00175315  0.0914175 0.0000
  3    -24.9853731273  -0.046355009587 0.01389427  0.00025424  0.0172413 0.0000
  4    -24.9796384740   0.005734653311 0.00554914  0.00013295  0.0062333 0.0000
                      *** Initiating the SOSCF procedure ***
                           *** Shutting down DIIS ***
                      *** Re-Reading the Fockian *** 
                      *** Removing any level shift *** 
ITER      Energy       Delta-E        Grad      Rot      Max-DP    RMS-DP
  5    -24.97281305   0.0068254193  0.002519  0.002519  0.003831  0.000061
               *** Restarting incremental Fock matrix formation ***
  6    -24.96995133   0.0028617270  0.000766  0.001335  0.001206  0.000032
  7    -24.96995732  -0.0000059932  0.000265  0.000830  0.000836  0.000021
  8    -24.96995850  -0.0000011803  0.000051  0.000082  0.000100  0.000002
  9    -24.96995852  -0.0000000168  0.000007  0.000023  0.000026  0.000001
 10    -24.96995852  -0.0000000012  0.000001  0.000006  0.000004  0.000000
                 **** Energy Check signals convergence ****
              ***Rediagonalizing the Fockian in SOSCF/NRSCF***

               *****************************************************
               *                     SUCCESS                       *
               *           SCF CONVERGED AFTER  11 CYCLES          *
               *****************************************************


----------------
TOTAL SCF ENERGY
----------------

Total Energy       :          -24.96995852 Eh            -679.46711 eV

Components:
Nuclear Repulsion  :            0.94495930 Eh              25.71365 eV
Electronic Energy  :          -25.91491782 Eh            -705.18076 eV
One Electron Energy:          -34.40452679 Eh            -936.19477 eV
Two Electron Energy:            8.48960897 Eh             231.01400 eV

Virial components:
Potential Energy   :          -49.72094728 Eh           -1352.97576 eV
Kinetic Energy     :           24.75098876 Eh             673.50864 eV
Virial Ratio       :            2.00884691


---------------
SCF CONVERGENCE
---------------

  Last Energy change         ...   -4.8015e-11  Tolerance :   1.0000e-09
  Last MAX-Density change    ...    1.2712e-06  Tolerance :   1.0000e-08
  Last RMS-Density change    ...    1.6658e-08  Tolerance :   1.0000e-09
  Last Orbital Gradient      ...    1.7016e-07  Tolerance :   2.0000e-06
  Last Orbital Rotation      ...    3.4466e-07  Tolerance :   2.0000e-06

             **** THE GBW FILE WAS UPDATED (/scratch/BH-2.8-CCSD-O_664/BH-2.8-CCSD-O.gbw) ****
             **** DENSITY /scratch/BH-2.8-CCSD-O_664/BH-2.8-CCSD-O.scfp WAS UPDATED ****
             **** ENERGY FILE WAS UPDATED (/scratch/BH-2.8-CCSD-O_664/BH-2.8-CCSD-O.en.tmp) ****
             **** THE GBW FILE WAS UPDATED (/scratch/BH-2.8-CCSD-O_664/BH-2.8-CCSD-O.gbw) ****
             **** DENSITY /scratch/BH-2.8-CCSD-O_664/BH-2.8-CCSD-O.scfp WAS UPDATED ****
----------------
ORBITAL ENERGIES
----------------

  NO   OCC          E(Eh)            E(eV) 
   0   2.0000      -7.845203      -213.4788 
   1   2.0000      -0.582462       -15.8496 
   2   2.0000      -0.284990        -7.7550 
   3   0.0000      -0.014756        -0.4015 
   4   0.0000      -0.014756        -0.4015 
   5   0.0000      -0.008442        -0.2297 
   6   0.0000       0.036503         0.9933 
   7   0.0000       0.053387         1.4527 
   8   0.0000       0.053387         1.4527 
   9   0.0000       0.070016         1.9052 
  10   0.0000       0.085568         2.3284 
  11   0.0000       0.133475         3.6321 
  12   0.0000       0.133475         3.6321 
  13   0.0000       0.137670         3.7462 
  14   0.0000       0.137670         3.7462 
  15   0.0000       0.171043         4.6543 
  16   0.0000       0.256859         6.9895 
  17   0.0000       0.256859         6.9895 
  18   0.0000       0.282125         7.6770 
  19   0.0000       0.286024         7.7831 
  20   0.0000       0.286024         7.7831 
  21   0.0000       0.298029         8.1098 
  22   0.0000       0.338297         9.2055 
  23   0.0000       0.438270        11.9259 
  24   0.0000       0.438270        11.9259 
  25   0.0000       0.445460        12.1216 
  26   0.0000       0.445460        12.1216 
  27   0.0000       0.461924        12.5696 
  28   0.0000       0.461924        12.5696 
  29   0.0000       0.462545        12.5865 
  30   0.0000       0.462545        12.5865 
  31   0.0000       0.478850        13.0302 
  32   0.0000       0.511837        13.9278 
  33   0.0000       0.511837        13.9278 
  34   0.0000       0.552515        15.0347 
  35   0.0000       0.612588        16.6694 
  36   0.0000       0.718586        19.5537 
  37   0.0000       0.718586        19.5537 
  38   0.0000       0.857267        23.3274 
  39   0.0000       0.857267        23.3274 
  40   0.0000       0.869554        23.6618 
  41   0.0000       0.888041        24.1648 
  42   0.0000       0.888041        24.1648 
  43   0.0000       0.926811        25.2198 
  44   0.0000       0.980019        26.6677 
  45   0.0000       0.980019        26.6677 
  46   0.0000       1.199123        32.6298 
  47   0.0000       1.325863        36.0786 
  48   0.0000       1.325863        36.0786 
  49   0.0000       1.330440        36.2031 
  50   0.0000       1.330440        36.2031 
  51   0.0000       1.332939        36.2711 
  52   0.0000       1.332939        36.2711 
  53   0.0000       1.339593        36.4522 
  54   0.0000       1.339593        36.4522 
  55   0.0000       1.343382        36.5553 
  56   0.0000       1.346095        36.6291 
  57   0.0000       1.346095        36.6291 
  58   0.0000       1.367911        37.2228 
  59   0.0000       1.381945        37.6046 
  60   0.0000       1.381945        37.6046 
  61   0.0000       1.386324        37.7238 
  62   0.0000       1.386324        37.7238 
  63   0.0000       1.405373        38.2421 
  64   0.0000       1.405373        38.2421 
  65   0.0000       1.481528        40.3144 
  66   0.0000       1.533248        41.7218 
  67   0.0000       1.533248        41.7218 
  68   0.0000       1.642244        44.6877 
  69   0.0000       1.642244        44.6877 
  70   0.0000       1.679395        45.6987 
  71   0.0000       1.775245        48.3069 
  72   0.0000       1.775245        48.3069 
  73   0.0000       1.882949        51.2377 
  74   0.0000       2.034675        55.3663 
  75   0.0000       2.034675        55.3663 
  76   0.0000       2.034777        55.3691 
  77   0.0000       2.570820        69.9556 
  78   0.0000       2.570820        69.9556 
  79   0.0000       2.683230        73.0144 
  80   0.0000       2.683230        73.0144 
  81   0.0000       2.730537        74.3017 
  82   0.0000       2.730537        74.3017 
  83   0.0000       2.805740        76.3481 
  84   0.0000       3.003945        81.7415 
  85   0.0000       3.631785        98.8259 
  86   0.0000       3.631785        98.8259 
  87   0.0000       3.819681       103.9388 
  88   0.0000       3.839614       104.4812 
  89   0.0000       3.839614       104.4812 
  90   0.0000       3.850312       104.7723 
  91   0.0000       3.850312       104.7723 
  92   0.0000       3.854885       104.8967 
  93   0.0000       3.854885       104.8967 
  94   0.0000       3.868797       105.2753 
  95   0.0000       3.868797       105.2753 
  96   0.0000       3.898189       106.0751 
  97   0.0000       3.898189       106.0751 
  98   0.0000       3.913065       106.4799 
  99   0.0000       3.992059       108.6294 
 100   0.0000       3.992059       108.6294 
 101   0.0000       4.011854       109.1681 
 102   0.0000       4.011854       109.1681 
 103   0.0000       4.013835       109.2220 
 104   0.0000       4.013835       109.2220 
 105   0.0000       4.079415       111.0065 
 106   0.0000       4.079415       111.0065 
 107   0.0000       4.130122       112.3863 
 108   0.0000       4.303872       117.1143 
 109   0.0000       6.648173       180.9060 
 110   0.0000       6.648173       180.9060 
 111   0.0000       6.681703       181.8184 
 112   0.0000       6.681703       181.8184 
 113   0.0000       6.773223       184.3088 
 114   0.0000       6.773223       184.3088 
 115   0.0000       6.799030       185.0110 
 116   0.0000       7.632161       207.6817 
 117   0.0000       8.075024       219.7326 
 118   0.0000       8.075024       219.7326 
 119   0.0000       8.374932       227.8935 
 120   0.0000       8.501406       231.3350 
 121   0.0000       8.501406       231.3350 
 122   0.0000       8.574294       233.3184 
 123   0.0000       8.574294       233.3184 
 124   0.0000       8.672705       235.9963 
 125   0.0000      13.031538       354.6062 

                    ********************************
                    * MULLIKEN POPULATION ANALYSIS *
                    ********************************

-----------------------
MULLIKEN ATOMIC CHARGES
-----------------------
   0 B :    0.274884
   1 H :   -0.274884
Sum of atomic charges:    0.0000000

--------------------------------
MULLIKEN REDUCED ORBITAL CHARGES
--------------------------------
  0 B s       :     3.987779  s :     3.987779
      pz      :     0.000000  p :     0.702487
      px      :     0.702487
      py      :     0.000000
      dz2     :     0.007987  d :     0.031949
      dxz     :     0.000000
      dyz     :     0.000000
      dx2y2   :     0.023962
      dxy     :     0.000000
      f0      :     0.000000  f :     0.002757
      f+1     :     0.001034
      f-1     :     0.000000
      f+2     :     0.000000
      f-2     :     0.000000
      f+3     :     0.001723
      f-3     :     0.000000
      g0      :     0.000020  g :     0.000144
      g+1     :    -0.000000
      g-1     :     0.000000
      g+2     :     0.000045
      g-2     :     0.000000
      g+3     :     0.000000
      g-3     :     0.000000
      g+4     :     0.000079
      g-4     :     0.000000
  1 H s       :     1.265962  s :     1.265962
      pz      :    -0.000000  p :     0.008433
      px      :     0.008433
      py      :     0.000000
      dz2     :     0.000128  d :     0.000511
      dxz     :    -0.000000
      dyz     :     0.000000
      dx2y2   :     0.000383
      dxy     :     0.000000
      f0      :     0.000000  f :    -0.000021
      f+1     :    -0.000008
      f-1     :     0.000000
      f+2     :    -0.000000
      f-2     :     0.000000
      f+3     :    -0.000013
      f-3     :     0.000000


                     *******************************
                     * LOEWDIN POPULATION ANALYSIS *
                     *******************************

----------------------
LOEWDIN ATOMIC CHARGES
----------------------
   0 B :    0.220184
   1 H :   -0.220184

-------------------------------
LOEWDIN REDUCED ORBITAL CHARGES
-------------------------------
  0 B s       :     3.920355  s :     3.920355
      pz      :     0.000000  p :     0.759901
      px      :     0.759901
      py      :     0.000000
      dz2     :     0.018993  d :     0.075973
      dxz     :     0.000000
      dyz     :     0.000000
      dx2y2   :     0.056980
      dxy     :     0.000000
      f0      :     0.000000  f :     0.022084
      f+1     :     0.008281
      f-1     :     0.000000
      f+2     :     0.000000
      f-2     :     0.000000
      f+3     :     0.013802
      f-3     :     0.000000
      g0      :     0.000211  g :     0.001502
      g+1     :     0.000000
      g-1     :     0.000000
      g+2     :     0.000469
      g-2     :     0.000000
      g+3     :     0.000000
      g-3     :     0.000000
      g+4     :     0.000822
      g-4     :     0.000000
  1 H s       :     1.146257  s :     1.146257
      pz      :     0.000000  p :     0.053107
      px      :     0.053107
      py      :     0.000000
      dz2     :     0.004628  d :     0.018514
      dxz     :     0.000000
      dyz     :     0.000000
      dx2y2   :     0.013885
      dxy     :     0.000000
      f0      :     0.000000  f :     0.002306
      f+1     :     0.000865
      f-1     :     0.000000
      f+2     :     0.000000
      f-2     :     0.000000
      f+3     :     0.001441
      f-3     :     0.000000


                      *****************************
                      * MAYER POPULATION ANALYSIS *
                      *****************************

  NA   - Mulliken gross atomic population
  ZA   - Total nuclear charge
  QA   - Mulliken gross atomic charge
  VA   - Mayer's total valence
  BVA  - Mayer's bonded valence
  FA   - Mayer's free valence

  ATOM       NA         ZA         QA         VA         BVA        FA
  0 B      4.7251     5.0000     0.2749     0.9316     0.9316    -0.0000
  1 H      1.2749     1.0000    -0.2749     0.9316     0.9316     0.0000

  Mayer bond orders larger than 0.100000
B(  0-B ,  1-H ) :   0.9316 

-------
TIMINGS
-------

Total SCF time: 0 days 0 hours 0 min 11 sec 

Total time                  ....      11.761 sec
Sum of individual times     ....      11.634 sec  ( 98.9%)

Fock matrix formation       ....      11.579 sec  ( 98.5%)
Diagonalization             ....       0.009 sec  (  0.1%)
Density matrix formation    ....       0.001 sec  (  0.0%)
Population analysis         ....       0.001 sec  (  0.0%)
Initial guess               ....       0.022 sec  (  0.2%)
Orbital Transformation      ....       0.000 sec  (  0.0%)
Orbital Orthonormalization  ....       0.000 sec  (  0.0%)
DIIS solution               ....       0.003 sec  (  0.0%)
SOSCF solution              ....       0.006 sec  (  0.1%)

Maximum memory used throughout the entire SCF-calculation: 257.0 MB


------------------------------------------------------------------------------- 
                              ORCA-MATRIX DRIVEN CI                            
------------------------------------------------------------------------------- 

--------------------------------
AUTOMATIC CHOICE OF INCORE LEVEL
--------------------------------

Memory available                           ...    256.00 MB
Memory needed for S+T                      ...      1.04 MB
Memory needed for J+K                      ...      2.08 MB
Memory needed for DIIS                     ...     14.54 MB
Memory needed for 3-ext                    ...     28.39 MB
Memory needed for 4-ext                    ...    880.23 MB
Memory needed for triples                  ...      0.00 MB
 -> Final InCoreLevel    ... 4

Wavefunction type
-----------------
Correlation treatment                      ...      CCSD     
Single excitations                         ... ON
Orbital optimization                       ... OFF
Calculation of Z vector                    ... OFF
Calculation of Brueckner orbitals          ... OFF
Perturbative triple excitations            ... OFF
Calculation of F12 correction              ... OFF
Frozen core treatment                      ... chemical core (2 el)
Reference Wavefunction                     ... RHF
  Internal Orbitals:     1 ...    2 (  2 MO's/  4 electrons)
  Virtual  Orbitals:     3 ...  125 (123 MO's              )
Number of AO's                             ...    126
Number of electrons                        ...      6
Number of correlated electrons             ...      4

Algorithmic settings
--------------------
Integral transformation                    ... AO direct full transformation
K(C) Formation                             ... FULL-MO TRAFO
Maximum number of iterations               ...        50
Convergence tolerance (max. residuum)      ... 1.000e-06
Level shift for amplitude update           ... 2.000e-01
Maximum number of DIIS vectors             ...         7
DIIS turned on at iteration                ...         0
Damping before turning on DIIS             ...     0.500
Damping after turning on DIIS              ...     0.000
Pair specific amplitude update             ... OFF
Natural orbital iterations                 ... OFF
Perturbative natural orbital generation    ... OFF
Printlevel                                 ... 2

Memory handling:
----------------
Maximum memory for working arrays          ...    256 MB
Data storage in matrix containers          ... UNCOMPRESSED
Data type for integral storage             ... DOUBLE
In-Core Storage of quantities:
   Amplitudes+Sigma Vector      ... YES
   J+K operators                ... YES
   DIIS vectors                 ... YES
   3-external integrals         ... YES
   4-external integrals         ... NO


Initializing the integral package          ... done
Warning: reference  - re-canonicalizations have been set to INT 1 VIRT 1

--------------------------
CLOSED-SHELL FOCK OPERATOR
--------------------------

Restoring SHARK [2] ... ok
Recanonicalizing the internal orbitals
Recanonicalizing the virtual orbitals
Time needed for Fock operator              ...            1.208 sec
Reference energy                           ...    -24.969958519

------------------------------
PARTIAL COULOMB TRANSFORMATION
------------------------------

Transformation type                        ... one-operator
Dimension of the basis                     ...  126
Number of internal MOs                     ...  125 (1-125)
Pair cutoff                                ... 0.000e+00 Eh
Number of AO pairs included in the trafo   ... 8001
Total Number of distinct AO pairs          ... 8001
Memory devoted for trafo                   ...  256.0 MB 
Max. Number of MO pairs treated together   ... 4193      
Max. Number of MOs treated per batch       ...   33      
Number Format for Storage                  ... Double (8 Byte)
AO-integral source                         ... DIRECT
Integral package used                      ... LIBINT

Starting integral evaluation:
<ss|**>:        37952 b        0 skpd     0.073 s (  0.002 ms/b)
<sp|**>:        58707 b        0 skpd     0.139 s (  0.002 ms/b)
<sd|**>:        45661 b        0 skpd     0.189 s (  0.004 ms/b)
<sf|**>:        32615 b        0 skpd     0.228 s (  0.007 ms/b)
<sg|**>:        13046 b        0 skpd     0.162 s (  0.012 ms/b)
<pp|**>:        26685 b        0 skpd     0.144 s (  0.005 ms/b)
<pd|**>:        37359 b        0 skpd     0.341 s (  0.009 ms/b)
<pf|**>:        26685 b        0 skpd     0.372 s (  0.014 ms/b)
<pg|**>:        10674 b        0 skpd     0.230 s (  0.022 ms/b)
<dd|**>:        16604 b        0 skpd     0.262 s (  0.016 ms/b)
<df|**>:        20755 b        0 skpd     0.513 s (  0.025 ms/b)
<dg|**>:         8302 b        0 skpd     0.297 s (  0.036 ms/b)
<ff|**>:         8895 b        0 skpd     0.342 s (  0.038 ms/b)
<fg|**>:         5930 b        0 skpd     0.344 s (  0.058 ms/b)
<gg|**>:         1779 b        0 skpd     0.139 s (  0.078 ms/b)
Closing buffer AOJ ( 0.47 GB; CompressionRatio= 1.00)
Collecting buffer AOJ 
    ... done with AO integral generation
Number of MO pairs included in the trafo   ... 7875
    ... Now sorting integrals
IBATCH = 1 of  2
IBATCH = 2 of  2
Closing buffer JAO ( 0.47 GB; CompressionRatio= 1.00)
Collecting buffer JAO 
TOTAL TIME for half transformation         ...     7.142 sec
AO-integral generation                     ...     2.105 sec
Half transformation                        ...     1.671 sec
J-integral sorting                         ...     3.321 sec

-------------------------- SECOND HALF TRANSFORMATION -------------------------
Formation of (pq|rs)                       ... ok (     1.697 sec)
Integral sorting                           ... ok (     1.950 sec)

------------------
CLOSED SHELL GUESS
------------------

Initial guess performed in     0.000 sec
E(0)                                       ...    -24.969958519
E(MP2)                                     ...     -0.092134605
Initial E(tot)                             ...    -25.062093125
<T|T>                                      ...      0.079879417
Number of pairs included                   ... 3
Total number of pairs                      ... 3

------------------------------------------------
                  RHF COUPLED CLUSTER ITERATIONS
------------------------------------------------

Number of amplitudes to be optimized       ... 45633

Iter       E(tot)           E(Corr)          Delta-E          Residual     Time
  0    -25.062093125     -0.092134605      0.000000000      0.027307931    0.56
                           *** Turning on DIIS ***
  1    -25.076443296     -0.106484776     -0.014350171      0.028228168    1.85
  2    -25.089640557     -0.119682038     -0.013197261      0.020085015    1.87
  3    -25.101026431     -0.131067912     -0.011385874      0.012934357    1.85
  4    -25.105608701     -0.135650181     -0.004582269      0.007571624    1.86
  5    -25.107942260     -0.137983740     -0.002333559      0.003382383    1.84
  6    -25.109109505     -0.139150986     -0.001167246      0.000844252    1.89
  7    -25.109263283     -0.139304764     -0.000153778      0.000212577    1.86
  8    -25.109271042     -0.139312523     -0.000007759      0.000059203    1.85
  9    -25.109274525     -0.139316006     -0.000003483      0.000019161    1.86
 10    -25.109272653     -0.139314134      0.000001872      0.000010384    1.80
 11    -25.109274494     -0.139315975     -0.000001841      0.000004740    1.80
 12    -25.109274725     -0.139316206     -0.000000231      0.000001981    1.79
 13    -25.109274863     -0.139316343     -0.000000138      0.000000734    1.80
               --- The Coupled-Cluster iterations have converged ---

----------------------
COUPLED CLUSTER ENERGY
----------------------

E(0)                                       ...    -24.969958519
E(CORR)                                    ...     -0.139316343
E(TOT)                                     ...    -25.109274863
Singles Norm <S|S>**1/2                    ...      0.201033599  
T1 diagnostic                              ...      0.100516799  

------------------
LARGEST AMPLITUDES
------------------
   2->  5   2->  5       0.364096
   2->  5  -1-> -1       0.165173
   2->  5   2->  6       0.155277
   2->  6   2->  5       0.155277
   1->  4   1->  4       0.107978
   1->  3   1->  3       0.107978
   2-> 15   2->  5       0.076938
   2->  5   2-> 15       0.076938
   2->  5   2->  9       0.073908
   2->  9   2->  5       0.073908
   2->  6   2->  6       0.068222
   2->  6  -1-> -1       0.064987
   2->  5   2-> 34       0.058103
   2-> 34   2->  5       0.058103
   1->  8   1->  3       0.050358
   1->  3   1->  8       0.050358


        !!!!!!!!!!!!!!!!!!!!!!!!!!!!!!!!!!!!!!!!!!!!!!!!!!!!!!!!!!!!!!!!!!!!!!!!!! 
        !  Warning: Densities are linearized densities !                         !
        !!!!!!!!!!!!!!!!!!!!!!!!!!!!!!!!!!!!!!!!!!!!!!!!!!!!!!!!!!!!!!!!!!!!!!!!!! 

Trace of internal density part =     -0.722778825
Trace of external density part =      0.722778825
NORM  =      1.401803920 sqrt=     1.183978007
W(HF) =      0.713366531
------------------------------------------------------------------------------
                           ORCA POPULATION ANALYSIS
------------------------------------------------------------------------------
Input electron density              ... /scratch/BH-2.8-CCSD-O_664/BH-2.8-CCSD-O.mdcip
BaseName (.gbw .S,...)              ... /scratch/BH-2.8-CCSD-O_664/BH-2.8-CCSD-O

                    ********************************
                    * MULLIKEN POPULATION ANALYSIS *
                    ********************************

-----------------------
MULLIKEN ATOMIC CHARGES
-----------------------
   0 B :   -0.022666
   1 H :    0.022666
Sum of atomic charges:   -0.0000000

--------------------------------
MULLIKEN REDUCED ORBITAL CHARGES
--------------------------------
  0 B s       :     3.863950  s :     3.863950
      pz      :     0.054407  p :     1.137378
      px      :     1.028564
      py      :     0.054407
      dz2     :     0.002591  d :     0.020576
      dxz     :     0.005215
      dyz     :     0.000220
      dx2y2   :     0.007334
      dxy     :     0.005215
      f0      :     0.000139  f :     0.000631
      f+1     :    -0.000044
      f-1     :     0.000040
      f+2     :     0.000218
      f-2     :     0.000103
      f+3     :    -0.000142
      f-3     :     0.000317
      g0      :     0.000003  g :     0.000131
      g+1     :     0.000031
      g-1     :     0.000004
      g+2     :    -0.000002
      g-2     :     0.000014
      g+3     :     0.000026
      g-3     :     0.000015
      g+4     :    -0.000005
      g-4     :     0.000044
  1 H s       :     0.965982  s :     0.965982
      pz      :     0.002004  p :     0.009825
      px      :     0.005817
      py      :     0.002004
      dz2     :     0.000249  d :     0.001481
      dxz     :     0.000261
      dyz     :     0.000037
      dx2y2   :     0.000674
      dxy     :     0.000261
      f0      :     0.000014  f :     0.000046
      f+1     :    -0.000010
      f-1     :     0.000004
      f+2     :     0.000021
      f-2     :     0.000008
      f+3     :    -0.000022
      f-3     :     0.000031


                     *******************************
                     * LOEWDIN POPULATION ANALYSIS *
                     *******************************

----------------------
LOEWDIN ATOMIC CHARGES
----------------------
   0 B :    0.013348
   1 H :   -0.013348

-------------------------------
LOEWDIN REDUCED ORBITAL CHARGES
-------------------------------
  0 B s       :     3.781159  s :     3.781159
      pz      :     0.054291  p :     1.119216
      px      :     1.010635
      py      :     0.054291
      dz2     :     0.012560  d :     0.060492
      dxz     :     0.005237
      dyz     :     0.000220
      dx2y2   :     0.037238
      dxy     :     0.005237
      f0      :     0.000165  f :     0.023429
      f+1     :     0.008453
      f-1     :     0.000044
      f+2     :     0.000262
      f-2     :     0.000104
      f+3     :     0.014019
      f-3     :     0.000382
      g0      :     0.000313  g :     0.002356
      g+1     :     0.000038
      g-1     :     0.000004
      g+2     :     0.000686
      g-2     :     0.000015
      g+3     :     0.000032
      g-3     :     0.000015
      g+4     :     0.001198
      g-4     :     0.000055
  1 H s       :     0.890270  s :     0.890270
      pz      :     0.001890  p :     0.086286
      px      :     0.082507
      py      :     0.001890
      dz2     :     0.007913  d :     0.032312
      dxz     :     0.000348
      dyz     :     0.000036
      dx2y2   :     0.023667
      dxy     :     0.000348
      f0      :     0.000029  f :     0.004480
      f+1     :     0.001623
      f-1     :     0.000007
      f+2     :     0.000046
      f-2     :     0.000007
      f+3     :     0.002700
      f-3     :     0.000068


                      *****************************
                      * MAYER POPULATION ANALYSIS *
                      *****************************

  NA   - Mulliken gross atomic population
  ZA   - Total nuclear charge
  QA   - Mulliken gross atomic charge
  VA   - Mayer's total valence
  BVA  - Mayer's bonded valence
  FA   - Mayer's free valence

  ATOM       NA         ZA         QA         VA         BVA        FA
  0 B      5.0227     5.0000    -0.0227     1.5080     0.2425     1.2654
  1 H      0.9773     1.0000     0.0227     1.0168     0.2425     0.7743

  Mayer bond orders larger than 0.100000
B(  0-B ,  1-H ) :   0.2425 



------------------------------------------------------------------------------- 
                                     TIMINGS                                   
------------------------------------------------------------------------------- 


Total execution time                   ...       36.711 sec

Fock Matrix Formation                  ...        1.208 sec (  3.3%)
Initial Guess                          ...        0.000 sec (  0.0%)
DIIS Solver                            ...        0.033 sec (  0.1%)
State Vector Update                    ...        0.001 sec (  0.0%)
Sigma-vector construction              ...       24.444 sec ( 66.6%)
  <0|H|D>                              ...        0.004 sec (  0.0% of sigma)
  <D|H|D>(0-ext)                       ...        0.007 sec (  0.0% of sigma)
  <D|H|D>(2-ext Fock)                  ...        0.007 sec (  0.0% of sigma)
  <D|H|D>(2-ext)                       ...        0.048 sec (  0.2% of sigma)
  <D|H|D>(4-ext)                       ...        5.637 sec ( 23.1% of sigma)
  <D|H|D>(4-ext-corr)                  ...        1.116 sec (  4.6% of sigma)
  <S|H|0>                              ...        0.002 sec (  0.0% of sigma)
  <S|H|S>                              ...        0.004 sec (  0.0% of sigma)
  <S|H|D>(1-ext)                       ...        0.005 sec (  0.0% of sigma)
  <D|H|S>(1-ext)                       ...        0.009 sec (  0.0% of sigma)
  <S|H|D>(3-ext)                       ...        0.188 sec (  0.8% of sigma)
  Fock-dressing                        ...       17.085 sec ( 69.9% of sigma)
  (ik|jl)-dressing                     ...        0.005 sec (  0.0% of sigma)
  (ij|ab),(ia|jb)-dressing             ...        0.274 sec (  1.1% of sigma)
  Pair energies                        ...        0.004 sec (  0.0% of sigma)
One-particle density matrix            ...        0.001 sec (  0.0%)


Maximum memory used throughout the entire MDCI-calculation: 400.0 MB

-------------------------   --------------------
FINAL SINGLE POINT ENERGY       -25.109274862657
-------------------------   --------------------


                            ***************************************
                            *     ORCA property calculations      *
                            ***************************************

                                    ---------------------
                                    Active property flags
                                    ---------------------
   (+) Dipole Moment


------------------------------------------------------------------------------
                       ORCA ELECTRIC PROPERTIES CALCULATION
------------------------------------------------------------------------------

Dipole Moment Calculation                       ... on
Quadrupole Moment Calculation                   ... off
Polarizability Calculation                      ... off
GBWName                                         ... /scratch/BH-2.8-CCSD-O_664/BH-2.8-CCSD-O.gbw
Electron density file                           ... /scratch/BH-2.8-CCSD-O_664/BH-2.8-CCSD-O.scfp
The origin for moment calculation is the CENTER OF MASS  = ( 0.451308,  0.000000  0.000000)

-------------
DIPOLE MOMENT
-------------
                                X             Y             Z
Electronic contribution:     -4.35535      -0.00000       0.00000
Nuclear contribution   :      2.58338       0.00000       0.00000
                        -----------------------------------------
Total Dipole Moment    :     -1.77196      -0.00000       0.00000
                        -----------------------------------------
Magnitude (a.u.)       :      1.77196
Magnitude (Debye)      :      4.50397



--------------------
Rotational spectrum 
--------------------
 
Rotational constants in cm-1:     0.000000     2.332054     2.332054 
Rotational constants in MHz :     0.000000 69913.219342 69913.219342 

 Dipole components along the rotational axes: 
x,y,z [a.u.] :    -1.771964    -0.000000     0.000000 
x,y,z [Debye]:    -4.503973    -0.000000     0.000000 

 

                           *** MDCI DENSITY ***

------------------------------------------------------------------------------
                       ORCA ELECTRIC PROPERTIES CALCULATION
------------------------------------------------------------------------------

Dipole Moment Calculation                       ... on
Quadrupole Moment Calculation                   ... off
Polarizability Calculation                      ... off
GBWName                                         ... /scratch/BH-2.8-CCSD-O_664/BH-2.8-CCSD-O.gbw
Electron density file                           ... /scratch/BH-2.8-CCSD-O_664/BH-2.8-CCSD-O.mdcip
The origin for moment calculation is the CENTER OF MASS  = ( 0.451308,  0.000000  0.000000)

-------------
DIPOLE MOMENT
-------------
                                X             Y             Z
Electronic contribution:     -2.53293      -0.00000       0.00000
Nuclear contribution   :      2.58338       0.00000       0.00000
                        -----------------------------------------
Total Dipole Moment    :      0.05045      -0.00000       0.00000
                        -----------------------------------------
Magnitude (a.u.)       :      0.05045
Magnitude (Debye)      :      0.12823



--------------------
Rotational spectrum 
--------------------
 
Rotational constants in cm-1:     0.000000     2.332054     2.332054 
Rotational constants in MHz :     0.000000 69913.219342 69913.219342 

 Dipole components along the rotational axes: 
x,y,z [a.u.] :     0.050450    -0.000000     0.000000 
x,y,z [Debye]:     0.128234    -0.000000     0.000000 

 

Timings for individual modules:

Sum of individual times         ...       48.784 sec (=   0.813 min)
GTO integral calculation        ...        0.129 sec (=   0.002 min)   0.3 %
SCF iterations                  ...       11.777 sec (=   0.196 min)  24.1 %
MDCI module                     ...       36.878 sec (=   0.615 min)  75.6 %
                             ****ORCA TERMINATED NORMALLY****
TOTAL RUN TIME: 0 days 0 hours 0 minutes 48 seconds 906 msec

Sender: Unischeduler System <lcz@mgt01>
Subject: Job 134089: <#!/bin/bash
#BSUB -J intel
#BSUB -o BH-2.8-CCSD-O.out
#BSUB -n 1
#BSUB -q cqueue
export LD_LIBRARY_PATH=/apps/software/openmpi-4.1.1/lib:/apps/software/orca_5_0_0:$LD_LIBRARY_PATH
export PATH=/apps/software/openmpi-4.1.1/bin:/apps/software/orca_5_0_0:$PATH
mkdir /scratch/BH-2.8-CCSD-O_664
scp $USER@mgt01:/apps/users/lcz/exe13/CCSD/BH-2.8-CCSD-O.inp /scratch/BH-2.8-CCSD-O_664
/apps/software/orca_5_0_0/orca /scratch/BH-2.8-CCSD-O_664/BH-2.8-CCSD-O.inp >& BH-2.8-CCSD-O.out
scp /scratch/BH-2.8-CCSD-O_664/*.gbw $USER@mgt01:/apps/users/lcz/exe13/CCSD
scp /scratch/BH-2.8-CCSD-O_664/*.xyz $USER@mgt01:/apps/users/lcz/exe13/CCSD
scp /scratch/BH-2.8-CCSD-O_664/*.trj $USER@mgt01:/apps/users/lcz/exe13/CCSD> Exited

Job <#!/bin/bash
#BSUB -J intel
#BSUB -o BH-2.8-CCSD-O.out
#BSUB -n 1
#BSUB -q cqueue
export LD_LIBRARY_PATH=/apps/software/openmpi-4.1.1/lib:/apps/software/orca_5_0_0:$LD_LIBRARY_PATH
export PATH=/apps/software/openmpi-4.1.1/bin:/apps/software/orca_5_0_0:$PATH
mkdir /scratch/BH-2.8-CCSD-O_664
scp $USER@mgt01:/apps/users/lcz/exe13/CCSD/BH-2.8-CCSD-O.inp /scratch/BH-2.8-CCSD-O_664
/apps/software/orca_5_0_0/orca /scratch/BH-2.8-CCSD-O_664/BH-2.8-CCSD-O.inp >& BH-2.8-CCSD-O.out
scp /scratch/BH-2.8-CCSD-O_664/*.gbw $USER@mgt01:/apps/users/lcz/exe13/CCSD
scp /scratch/BH-2.8-CCSD-O_664/*.xyz $USER@mgt01:/apps/users/lcz/exe13/CCSD
scp /scratch/BH-2.8-CCSD-O_664/*.trj $USER@mgt01:/apps/users/lcz/exe13/CCSD> was submitted from host <mgt01> by user <lcz>.
Job was executed on host(s) <1*cnode13>, in queue <cqueue>, as user <lcz>.
</apps/users/lcz> was used as the home directory.
</apps/users/lcz/exe13/CCSD> was used as the working directory.
Started at 2022-05-22 16:13:55
Results reported at 2022-05-22 16:14:45

Your job looked like:

------------------------------------------------------------
# User input
#!/bin/bash
#BSUB -J intel
#BSUB -o BH-2.8-CCSD-O.out
#BSUB -n 1
#BSUB -q cqueue
export LD_LIBRARY_PATH=/apps/software/openmpi-4.1.1/lib:/apps/software/orca_5_0_0:$LD_LIBRARY_PATH
export PATH=/apps/software/openmpi-4.1.1/bin:/apps/software/orca_5_0_0:$PATH
mkdir /scratch/BH-2.8-CCSD-O_664
scp $USER@mgt01:/apps/users/lcz/exe13/CCSD/BH-2.8-CCSD-O.inp /scratch/BH-2.8-CCSD-O_664
/apps/software/orca_5_0_0/orca /scratch/BH-2.8-CCSD-O_664/BH-2.8-CCSD-O.inp >& BH-2.8-CCSD-O.out
scp /scratch/BH-2.8-CCSD-O_664/*.gbw $USER@mgt01:/apps/users/lcz/exe13/CCSD
scp /scratch/BH-2.8-CCSD-O_664/*.xyz $USER@mgt01:/apps/users/lcz/exe13/CCSD
scp /scratch/BH-2.8-CCSD-O_664/*.trj $USER@mgt01:/apps/users/lcz/exe13/CCSD
------------------------------------------------------------

Exited with exit code 1.

Resource usage summary:

    CPU time   :           40.17 sec.
    Max Memory :               414 MB
    Max Processes  :               5


The output (if any) follows:

/scratch/BH-2.8-CCSD-O_664/*.xyz: No such file or directory
/scratch/BH-2.8-CCSD-O_664/*.trj: No such file or directory
