 Entering Gaussian System, Link 0=/apps/software/g16/g16
 Initial command:
 /apps/software/g16/l1.exe "/scratch/Gau-311957.inp" -scrdir="/scratch/"
 Entering Link 1 = /apps/software/g16/l1.exe PID=    311958.
  
 Copyright (c) 1988,1990,1992,1993,1995,1998,2003,2009,2016,
            Gaussian, Inc.  All Rights Reserved.
  
 This is part of the Gaussian(R) 16 program.  It is based on
 the Gaussian(R) 09 system (copyright 2009, Gaussian, Inc.),
 the Gaussian(R) 03 system (copyright 2003, Gaussian, Inc.),
 the Gaussian(R) 98 system (copyright 1998, Gaussian, Inc.),
 the Gaussian(R) 94 system (copyright 1995, Gaussian, Inc.),
 the Gaussian 92(TM) system (copyright 1992, Gaussian, Inc.),
 the Gaussian 90(TM) system (copyright 1990, Gaussian, Inc.),
 the Gaussian 88(TM) system (copyright 1988, Gaussian, Inc.),
 the Gaussian 86(TM) system (copyright 1986, Carnegie Mellon
 University), and the Gaussian 82(TM) system (copyright 1983,
 Carnegie Mellon University). Gaussian is a federally registered
 trademark of Gaussian, Inc.
  
 This software contains proprietary and confidential information,
 including trade secrets, belonging to Gaussian, Inc.
  
 This software is provided under written license and may be
 used, copied, transmitted, or stored only in accord with that
 written license.
  
 The following legend is applicable only to US Government
 contracts under FAR:
  
                    RESTRICTED RIGHTS LEGEND
  
 Use, reproduction and disclosure by the US Government is
 subject to restrictions as set forth in subparagraphs (a)
 and (c) of the Commercial Computer Software - Restricted
 Rights clause in FAR 52.227-19.
  
 Gaussian, Inc.
 340 Quinnipiac St., Bldg. 40, Wallingford CT 06492
  
  
 ---------------------------------------------------------------
 Warning -- This program may not be used in any manner that
 competes with the business of Gaussian, Inc. or will provide
 assistance to any competitor of Gaussian, Inc.  The licensee
 of this program is prohibited from giving any competitor of
 Gaussian, Inc. access to this program.  By using this program,
 the user acknowledges that Gaussian, Inc. is engaged in the
 business of creating and licensing software in the field of
 computational chemistry and represents and warrants to the
 licensee that it is not a competitor of Gaussian, Inc. and that
 it will not use this program in any manner prohibited above.
 ---------------------------------------------------------------
  

 Cite this work as:
 Gaussian 16, Revision A.03,
 M. J. Frisch, G. W. Trucks, H. B. Schlegel, G. E. Scuseria, 
 M. A. Robb, J. R. Cheeseman, G. Scalmani, V. Barone, 
 G. A. Petersson, H. Nakatsuji, X. Li, M. Caricato, A. V. Marenich, 
 J. Bloino, B. G. Janesko, R. Gomperts, B. Mennucci, H. P. Hratchian, 
 J. V. Ortiz, A. F. Izmaylov, J. L. Sonnenberg, D. Williams-Young, 
 F. Ding, F. Lipparini, F. Egidi, J. Goings, B. Peng, A. Petrone, 
 T. Henderson, D. Ranasinghe, V. G. Zakrzewski, J. Gao, N. Rega, 
 G. Zheng, W. Liang, M. Hada, M. Ehara, K. Toyota, R. Fukuda, 
 J. Hasegawa, M. Ishida, T. Nakajima, Y. Honda, O. Kitao, H. Nakai, 
 T. Vreven, K. Throssell, J. A. Montgomery, Jr., J. E. Peralta, 
 F. Ogliaro, M. J. Bearpark, J. J. Heyd, E. N. Brothers, K. N. Kudin, 
 V. N. Staroverov, T. A. Keith, R. Kobayashi, J. Normand, 
 K. Raghavachari, A. P. Rendell, J. C. Burant, S. S. Iyengar, 
 J. Tomasi, M. Cossi, J. M. Millam, M. Klene, C. Adamo, R. Cammi, 
 J. W. Ochterski, R. L. Martin, K. Morokuma, O. Farkas, 
 J. B. Foresman, and D. J. Fox, Gaussian, Inc., Wallingford CT, 2016.
 
 ******************************************
 Gaussian 16:  ES64L-G16RevA.03 25-Dec-2016
                22-May-2022 
 ******************************************
 %chk=BH-3.2-RHF-G.chk
 ------------------
 #p RHF/aug-cc-pVQZ
 ------------------
 1/38=1,172=1/1;
 2/12=2,17=6,18=5,40=1/2;
 3/5=16,6=2,7=10,11=1,25=1,30=1,116=1/1,2,3;
 4//1;
 5/5=2,38=5/2;
 6/7=2,8=2,9=2,10=2,28=1/1;
 99/5=1,9=1/99;
 Leave Link    1 at Sun May 22 16:00:49 2022, MaxMem=           0 cpu:               0.0 elap:               0.0
 (Enter /apps/software/g16/l101.exe)
 ----------------------
 BH RHF at 3.2 Angstrom
 ----------------------
 Symbolic Z-matrix:
 Charge =  0 Multiplicity = 1
 B                     0.        0.        0. 
 H                     3.2       0.        0. 
 
 ITRead=  0  0
 MicOpt= -1 -1
 NAtoms=      2 NQM=        2 NQMF=       0 NMMI=      0 NMMIF=      0
                NMic=       0 NMicF=      0.
                    Isotopes and Nuclear Properties:
 (Nuclear quadrupole moments (NQMom) in fm**2, nuclear magnetic moments (NMagM)
  in nuclear magnetons)

  Atom         1           2
 IAtWgt=          11           1
 AtmWgt=  11.0093053   1.0078250
 NucSpn=           3           1
 AtZEff=  -0.0000000  -0.0000000
 NQMom=    4.0590000   0.0000000
 NMagM=    2.6886370   2.7928460
 AtZNuc=   5.0000000   1.0000000
 Leave Link  101 at Sun May 22 16:00:49 2022, MaxMem=   104857600 cpu:               0.1 elap:               0.1
 (Enter /apps/software/g16/l202.exe)
                          Input orientation:                          
 ---------------------------------------------------------------------
 Center     Atomic      Atomic             Coordinates (Angstroms)
 Number     Number       Type             X           Y           Z
 ---------------------------------------------------------------------
      1          5           0        0.000000    0.000000    0.000000
      2          1           0        3.200000    0.000000    0.000000
 ---------------------------------------------------------------------
 Stoichiometry    BH
 Framework group  C*V[C*(HB)]
 Deg. of freedom     1
 Full point group                 C*V     NOp   4
 Largest Abelian subgroup         C2V     NOp   4
 Largest concise Abelian subgroup C1      NOp   1
                         Standard orientation:                         
 ---------------------------------------------------------------------
 Center     Atomic      Atomic             Coordinates (Angstroms)
 Number     Number       Type             X           Y           Z
 ---------------------------------------------------------------------
      1          5           0        0.000000    0.000000    0.533333
      2          1           0        0.000000    0.000000   -2.666667
 ---------------------------------------------------------------------
 Rotational constants (GHZ):           0.0000000          53.4531073          53.4531073
 Leave Link  202 at Sun May 22 16:00:49 2022, MaxMem=   104857600 cpu:               0.0 elap:               0.0
 (Enter /apps/software/g16/l301.exe)
 Standard basis: Aug-CC-pVQZ (5D, 7F)
 Ernie: Thresh=  0.10000D-02 Tol=  0.10000D-05 Strict=F.
 Ernie:  4 primitive shells out of 54 were deleted.
 There are    68 symmetry adapted cartesian basis functions of A1  symmetry.
 There are    18 symmetry adapted cartesian basis functions of A2  symmetry.
 There are    37 symmetry adapted cartesian basis functions of B1  symmetry.
 There are    37 symmetry adapted cartesian basis functions of B2  symmetry.
 There are    50 symmetry adapted basis functions of A1  symmetry.
 There are    16 symmetry adapted basis functions of A2  symmetry.
 There are    30 symmetry adapted basis functions of B1  symmetry.
 There are    30 symmetry adapted basis functions of B2  symmetry.
   126 basis functions,   180 primitive gaussians,   160 cartesian basis functions
     3 alpha electrons        3 beta electrons
       nuclear repulsion energy         0.8268393921 Hartrees.
 IExCor=    0 DFT=F Ex=HF Corr=None ExCW=0 ScaHFX=  1.000000
 ScaDFX=  1.000000  1.000000  1.000000  1.000000 ScalE2=  1.000000  1.000000
 IRadAn=      5 IRanWt=     -1 IRanGd=            0 ICorTp=0 IEmpDi=  4
 NAtoms=    2 NActive=    2 NUniq=    2 SFac= 1.00D+00 NAtFMM=   60 NAOKFM=F Big=F
 Integral buffers will be    131072 words long.
 Raffenetti 1 integral format.
 Two-electron integral symmetry is turned on.
 Leave Link  301 at Sun May 22 16:00:49 2022, MaxMem=   104857600 cpu:               0.1 elap:               0.1
 (Enter /apps/software/g16/l302.exe)
 NPDir=0 NMtPBC=     1 NCelOv=     1 NCel=       1 NClECP=     1 NCelD=      1
         NCelK=      1 NCelE2=     1 NClLst=     1 CellRange=     0.0.
 One-electron integrals computed using PRISM.
 One-electron integral symmetry used in STVInt
 NBasis=   126 RedAO= T EigKep=  3.34D-03  NBF=    50    16    30    30
 NBsUse=   126 1.00D-06 EigRej= -1.00D+00 NBFU=    50    16    30    30
 Leave Link  302 at Sun May 22 16:00:50 2022, MaxMem=   104857600 cpu:               0.1 elap:               0.1
 (Enter /apps/software/g16/l303.exe)
 DipDrv:  MaxL=1.
 Leave Link  303 at Sun May 22 16:00:50 2022, MaxMem=   104857600 cpu:               0.0 elap:               0.0
 (Enter /apps/software/g16/l401.exe)
 ExpMin= 1.88D-02 ExpMax= 2.39D+04 ExpMxC= 2.30D+02 IAcc=3 IRadAn=         5 AccDes= 0.00D+00
 Harris functional with IExCor=  205 and IRadAn=       5 diagonalized for initial guess.
 HarFok:  IExCor=  205 AccDes= 0.00D+00 IRadAn=         5 IDoV= 1 UseB2=F ITyADJ=14
 ICtDFT=  3500011 ScaDFX=  1.000000  1.000000  1.000000  1.000000
 FoFCou: FMM=F IPFlag=           0 FMFlag=      100000 FMFlg1=           0
         NFxFlg=           0 DoJE=T BraDBF=F KetDBF=T FulRan=T
         wScrn=  0.000000 ICntrl=       500 IOpCl=  0 I1Cent=   200000004 NGrid=           0
         NMat0=    1 NMatS0=      1 NMatT0=    0 NMatD0=    1 NMtDS0=    0 NMtDT0=    0
 Petite list used in FoFCou.
 Harris En= -24.9952048440398    
 JPrj=0 DoOrth=F DoCkMO=F.
 Initial guess orbital symmetries:
       Occupied  (SG) (SG) (SG)
       Virtual   (PI) (PI) (SG) (SG) (PI) (PI) (SG) (SG) (PI) (PI)
                 (DLTA) (DLTA) (SG) (PI) (PI) (SG) (PI) (PI) (SG)
                 (SG) (SG) (PI) (PI) (DLTA) (DLTA) (DLTA) (DLTA)
                 (PHI) (PHI) (SG) (PI) (PI) (SG) (DLTA) (DLTA)
                 (PI) (PI) (PI) (PI) (SG) (SG) (PI) (PI) (SG) (SG)
                 (PI) (PI) (DLTA) (DLTA) (SG) (DLTA) (DLTA) (PI)
                 (PI) (PHI) (PHI) (?A) (?A) (PHI) (PHI) (DLTA)
                 (DLTA) (SG) (PI) (PI) (PHI) (PHI) (SG) (DLTA)
                 (DLTA) (SG) (PI) (PI) (SG) (DLTA) (DLTA) (PI)
                 (PI) (PI) (PI) (SG) (SG) (PI) (PI) (SG) (DLTA)
                 (DLTA) (PI) (PI) (SG) (?A) (?A) (PHI) (PHI) (DLTA)
                 (DLTA) (PI) (PI) (PHI) (PHI) (DLTA) (DLTA) (PI)
                 (PI) (SG) (SG) (PHI) (PHI) (DLTA) (DLTA) (PI)
                 (PI) (SG) (SG) (PI) (PI) (SG) (DLTA) (DLTA) (PI)
                 (PI) (SG) (SG)
 The electronic state of the initial guess is 1-SG.
 Leave Link  401 at Sun May 22 16:00:50 2022, MaxMem=   104857600 cpu:               0.2 elap:               0.2
 (Enter /apps/software/g16/l502.exe)
 Keep R1 ints in memory in symmetry-blocked form, NReq=40143665.
 FoFCou: FMM=F IPFlag=           0 FMFlag=           0 FMFlg1=           0
         NFxFlg=           0 DoJE=F BraDBF=F KetDBF=F FulRan=T
         wScrn=  0.000000 ICntrl=       600 IOpCl=  0 I1Cent=           0 NGrid=           0
         NMat0=    1 NMatS0=   8001 NMatT0=    0 NMatD0=    1 NMtDS0=    0 NMtDT0=    0
 Petite list used in FoFCou.
 Closed shell SCF:
 Using DIIS extrapolation, IDIIS=  1040.
 NGot=   104857600 LenX=    96673173 LenY=    96647132
 Requested convergence on RMS density matrix=1.00D-08 within 128 cycles.
 Requested convergence on MAX density matrix=1.00D-06.
 Requested convergence on             energy=1.00D-06.
 No special actions if energy rises.

 Cycle   1  Pass 1  IDiag  1:
 E= -24.8376818698535    
 DIIS: error= 4.30D-02 at cycle   1 NSaved=   1.
 NSaved= 1 IEnMin= 1 EnMin= -24.8376818698535     IErMin= 1 ErrMin= 4.30D-02
 ErrMax= 4.30D-02  0.00D+00 EMaxC= 1.00D-01 BMatC= 5.96D-02 BMatP= 5.96D-02
 IDIUse=3 WtCom= 5.70D-01 WtEn= 4.30D-01
 Coeff-Com:  0.100D+01
 Coeff-En:   0.100D+01
 Coeff:      0.100D+01
 Gap=     0.003 Goal=   None    Shift=    0.000
 GapD=    0.003 DampG=0.250 DampE=0.500 DampFc=0.2500 IDamp=-1.
 Damping current iteration by 2.50D-01
 RMSDP=3.14D-03 MaxDP=1.25D-01              OVMax= 6.01D-01

 Cycle   2  Pass 1  IDiag  1:
 E= -24.8657024975434     Delta-E=       -0.028020627690 Rises=F Damp=T
 DIIS: error= 2.92D-02 at cycle   2 NSaved=   2.
 NSaved= 2 IEnMin= 2 EnMin= -24.8657024975434     IErMin= 2 ErrMin= 2.92D-02
 ErrMax= 2.92D-02  0.00D+00 EMaxC= 1.00D-01 BMatC= 2.81D-02 BMatP= 5.96D-02
 IDIUse=3 WtCom= 7.08D-01 WtEn= 2.92D-01
 Coeff-Com: -0.198D+01 0.298D+01
 Coeff-En:   0.000D+00 0.100D+01
 Coeff:     -0.140D+01 0.240D+01
 Gap=     0.174 Goal=   None    Shift=    0.000
 RMSDP=1.21D-03 MaxDP=5.24D-02 DE=-2.80D-02 OVMax= 3.01D-01

 Cycle   3  Pass 1  IDiag  1:
 E= -24.9398597375655     Delta-E=       -0.074157240022 Rises=F Damp=F
 DIIS: error= 5.55D-03 at cycle   3 NSaved=   3.
 NSaved= 3 IEnMin= 3 EnMin= -24.9398597375655     IErMin= 3 ErrMin= 5.55D-03
 ErrMax= 5.55D-03  0.00D+00 EMaxC= 1.00D-01 BMatC= 6.87D-04 BMatP= 2.81D-02
 IDIUse=3 WtCom= 9.44D-01 WtEn= 5.55D-02
 Coeff-Com: -0.504D+00 0.643D+00 0.861D+00
 Coeff-En:   0.000D+00 0.000D+00 0.100D+01
 Coeff:     -0.476D+00 0.608D+00 0.869D+00
 Gap=     0.228 Goal=   None    Shift=    0.000
 RMSDP=2.52D-04 MaxDP=1.02D-02 DE=-7.42D-02 OVMax= 2.77D-02

 Cycle   4  Pass 1  IDiag  1:
 E= -24.9417610808578     Delta-E=       -0.001901343292 Rises=F Damp=F
 DIIS: error= 1.89D-03 at cycle   4 NSaved=   4.
 NSaved= 4 IEnMin= 4 EnMin= -24.9417610808578     IErMin= 4 ErrMin= 1.89D-03
 ErrMax= 1.89D-03  0.00D+00 EMaxC= 1.00D-01 BMatC= 9.57D-05 BMatP= 6.87D-04
 IDIUse=3 WtCom= 9.81D-01 WtEn= 1.89D-02
 Coeff-Com: -0.905D-02 0.311D-01-0.618D+00 0.160D+01
 Coeff-En:   0.000D+00 0.000D+00 0.000D+00 0.100D+01
 Coeff:     -0.888D-02 0.305D-01-0.606D+00 0.158D+01
 Gap=     0.231 Goal=   None    Shift=    0.000
 RMSDP=1.55D-04 MaxDP=5.16D-03 DE=-1.90D-03 OVMax= 1.25D-02

 Cycle   5  Pass 1  IDiag  1:
 E= -24.9421040996174     Delta-E=       -0.000343018760 Rises=F Damp=F
 DIIS: error= 4.48D-04 at cycle   5 NSaved=   5.
 NSaved= 5 IEnMin= 5 EnMin= -24.9421040996174     IErMin= 5 ErrMin= 4.48D-04
 ErrMax= 4.48D-04  0.00D+00 EMaxC= 1.00D-01 BMatC= 5.56D-06 BMatP= 9.57D-05
 IDIUse=3 WtCom= 9.96D-01 WtEn= 4.48D-03
 Coeff-Com: -0.138D-01 0.177D-01 0.442D-01-0.376D+00 0.133D+01
 Coeff-En:   0.000D+00 0.000D+00 0.000D+00 0.000D+00 0.100D+01
 Coeff:     -0.137D-01 0.176D-01 0.440D-01-0.374D+00 0.133D+01
 Gap=     0.231 Goal=   None    Shift=    0.000
 RMSDP=4.59D-05 MaxDP=1.47D-03 DE=-3.43D-04 OVMax= 3.66D-03

 Cycle   6  Pass 1  IDiag  1:
 E= -24.9421232748606     Delta-E=       -0.000019175243 Rises=F Damp=F
 DIIS: error= 5.14D-05 at cycle   6 NSaved=   6.
 NSaved= 6 IEnMin= 6 EnMin= -24.9421232748606     IErMin= 6 ErrMin= 5.14D-05
 ErrMax= 5.14D-05  0.00D+00 EMaxC= 1.00D-01 BMatC= 6.78D-08 BMatP= 5.56D-06
 IDIUse=1 WtCom= 1.00D+00 WtEn= 0.00D+00
 Coeff-Com: -0.109D-02 0.155D-02-0.773D-02 0.909D-01-0.389D+00 0.131D+01
 Coeff:     -0.109D-02 0.155D-02-0.773D-02 0.909D-01-0.389D+00 0.131D+01
 Gap=     0.231 Goal=   None    Shift=    0.000
 RMSDP=5.82D-06 MaxDP=2.41D-04 DE=-1.92D-05 OVMax= 5.58D-04

 Cycle   7  Pass 1  IDiag  1:
 E= -24.9421235753430     Delta-E=       -0.000000300482 Rises=F Damp=F
 DIIS: error= 1.42D-05 at cycle   7 NSaved=   7.
 NSaved= 7 IEnMin= 7 EnMin= -24.9421235753430     IErMin= 7 ErrMin= 1.42D-05
 ErrMax= 1.42D-05  0.00D+00 EMaxC= 1.00D-01 BMatC= 3.18D-09 BMatP= 6.78D-08
 IDIUse=1 WtCom= 1.00D+00 WtEn= 0.00D+00
 Coeff-Com: -0.393D-03 0.474D-03 0.313D-02-0.373D-01 0.151D+00-0.606D+00
 Coeff-Com:  0.149D+01
 Coeff:     -0.393D-03 0.474D-03 0.313D-02-0.373D-01 0.151D+00-0.606D+00
 Coeff:      0.149D+01
 Gap=     0.231 Goal=   None    Shift=    0.000
 RMSDP=1.87D-06 MaxDP=7.51D-05 DE=-3.00D-07 OVMax= 1.90D-04

 Cycle   8  Pass 1  IDiag  1:
 E= -24.9421235958843     Delta-E=       -0.000000020541 Rises=F Damp=F
 DIIS: error= 2.34D-06 at cycle   8 NSaved=   8.
 NSaved= 8 IEnMin= 8 EnMin= -24.9421235958843     IErMin= 8 ErrMin= 2.34D-06
 ErrMax= 2.34D-06  0.00D+00 EMaxC= 1.00D-01 BMatC= 1.35D-10 BMatP= 3.18D-09
 IDIUse=1 WtCom= 1.00D+00 WtEn= 0.00D+00
 Coeff-Com: -0.149D-03 0.232D-03-0.149D-02 0.130D-01-0.482D-01 0.208D+00
 Coeff-Com: -0.634D+00 0.146D+01
 Coeff:     -0.149D-03 0.232D-03-0.149D-02 0.130D-01-0.482D-01 0.208D+00
 Coeff:     -0.634D+00 0.146D+01
 Gap=     0.231 Goal=   None    Shift=    0.000
 RMSDP=2.42D-07 MaxDP=7.78D-06 DE=-2.05D-08 OVMax= 2.26D-05

 Cycle   9  Pass 1  IDiag  1:
 E= -24.9421235963410     Delta-E=       -0.000000000457 Rises=F Damp=F
 DIIS: error= 6.03D-07 at cycle   9 NSaved=   9.
 NSaved= 9 IEnMin= 9 EnMin= -24.9421235963410     IErMin= 9 ErrMin= 6.03D-07
 ErrMax= 6.03D-07  0.00D+00 EMaxC= 1.00D-01 BMatC= 1.37D-11 BMatP= 1.35D-10
 IDIUse=1 WtCom= 1.00D+00 WtEn= 0.00D+00
 Coeff-Com: -0.110D-04 0.128D-04 0.748D-04-0.152D-02 0.544D-02-0.282D-01
 Coeff-Com:  0.975D-01-0.302D+00 0.123D+01
 Coeff:     -0.110D-04 0.128D-04 0.748D-04-0.152D-02 0.544D-02-0.282D-01
 Coeff:      0.975D-01-0.302D+00 0.123D+01
 Gap=     0.231 Goal=   None    Shift=    0.000
 RMSDP=6.41D-08 MaxDP=2.71D-06 DE=-4.57D-10 OVMax= 4.42D-06

 Cycle  10  Pass 1  IDiag  1:
 E= -24.9421235963781     Delta-E=       -0.000000000037 Rises=F Damp=F
 DIIS: error= 6.93D-08 at cycle  10 NSaved=  10.
 NSaved=10 IEnMin=10 EnMin= -24.9421235963781     IErMin=10 ErrMin= 6.93D-08
 ErrMax= 6.93D-08  0.00D+00 EMaxC= 1.00D-01 BMatC= 1.15D-13 BMatP= 1.37D-11
 IDIUse=1 WtCom= 1.00D+00 WtEn= 0.00D+00
 Coeff-Com: -0.143D-05 0.180D-05 0.130D-04 0.789D-05 0.176D-03 0.688D-03
 Coeff-Com: -0.601D-02 0.348D-01-0.347D+00 0.132D+01
 Coeff:     -0.143D-05 0.180D-05 0.130D-04 0.789D-05 0.176D-03 0.688D-03
 Coeff:     -0.601D-02 0.348D-01-0.347D+00 0.132D+01
 Gap=     0.231 Goal=   None    Shift=    0.000
 RMSDP=7.16D-09 MaxDP=2.81D-07 DE=-3.70D-11 OVMax= 4.42D-07

 SCF Done:  E(RHF) =  -24.9421235964     A.U. after   10 cycles
            NFock= 10  Conv=0.72D-08     -V/T= 2.0079
 KE= 2.474626370427D+01 PE=-5.882620206896D+01 EE= 8.310975376244D+00
 Leave Link  502 at Sun May 22 16:00:53 2022, MaxMem=   104857600 cpu:               3.7 elap:               3.7
 (Enter /apps/software/g16/l601.exe)
 Copying SCF densities to generalized density rwf, IOpCl= 0 IROHF=0.

 **********************************************************************

            Population analysis using the SCF density.

 **********************************************************************

 Orbital symmetries:
       Occupied  (SG) (SG) (SG)
       Virtual   (SG) (PI) (PI) (SG) (PI) (PI) (SG) (SG) (DLTA)
                 (DLTA) (PI) (PI) (SG) (PI) (PI) (PI) (PI) (SG)
                 (SG) (SG) (PHI) (PHI) (DLTA) (DLTA) (DLTA) (DLTA)
                 (PI) (PI) (SG) (PI) (PI) (SG) (SG) (DLTA) (DLTA)
                 (PI) (PI) (PI) (PI) (SG) (SG) (PI) (PI) (SG) (SG)
                 (?A) (?A) (DLTA) (DLTA) (PHI) (PHI) (DLTA) (DLTA)
                 (PI) (PI) (SG) (PI) (PI) (PHI) (PHI) (DLTA) (DLTA)
                 (SG) (PI) (PI) (PHI) (PHI) (SG) (DLTA) (DLTA)
                 (SG) (PI) (PI) (SG) (DLTA) (DLTA) (PI) (PI) (PI)
                 (PI) (SG) (SG) (PI) (PI) (SG) (?A) (?A) (DLTA)
                 (DLTA) (PHI) (PHI) (PI) (PI) (DLTA) (DLTA) (SG)
                 (PI) (PI) (PHI) (PHI) (DLTA) (DLTA) (PI) (PI)
                 (SG) (SG) (PHI) (PHI) (DLTA) (DLTA) (PI) (PI)
                 (SG) (SG) (PI) (PI) (SG) (DLTA) (DLTA) (PI) (PI)
                 (SG) (SG)
 The electronic state is 1-SG.
 Alpha  occ. eigenvalues --   -7.86580  -0.59800  -0.26520
 Alpha virt. eigenvalues --   -0.03419  -0.02712  -0.02712   0.03053   0.04934
 Alpha virt. eigenvalues --    0.04934   0.06963   0.08788   0.12895   0.12895
 Alpha virt. eigenvalues --    0.13489   0.13489   0.16588   0.25047   0.25047
 Alpha virt. eigenvalues --    0.27631   0.27631   0.27732   0.29764   0.33733
 Alpha virt. eigenvalues --    0.43067   0.43067   0.43755   0.43755   0.45223
 Alpha virt. eigenvalues --    0.45223   0.45566   0.45566   0.46543   0.49209
 Alpha virt. eigenvalues --    0.49209   0.51769   0.59924   0.70467   0.70467
 Alpha virt. eigenvalues --    0.81163   0.81163   0.88487   0.88487   0.90435
 Alpha virt. eigenvalues --    0.91868   0.96250   0.96250   1.08550   1.31246
 Alpha virt. eigenvalues --    1.31435   1.31435   1.32103   1.32103   1.32500
 Alpha virt. eigenvalues --    1.32500   1.32719   1.32719   1.33703   1.33703
 Alpha virt. eigenvalues --    1.34176   1.34446   1.34446   1.36867   1.36867
 Alpha virt. eigenvalues --    1.38697   1.38697   1.43367   1.45799   1.45799
 Alpha virt. eigenvalues --    1.64071   1.64071   1.66544   1.69575   1.69575
 Alpha virt. eigenvalues --    1.80570   1.87489   1.87489   1.94871   2.56454
 Alpha virt. eigenvalues --    2.56454   2.66035   2.66035   2.69423   2.69423
 Alpha virt. eigenvalues --    2.76648   2.87628   3.60621   3.60621   3.70669
 Alpha virt. eigenvalues --    3.82373   3.82373   3.83255   3.83255   3.83631
 Alpha virt. eigenvalues --    3.83631   3.84807   3.84807   3.85662   3.85662
 Alpha virt. eigenvalues --    3.87033   3.94697   3.94697   3.97470   3.97470
 Alpha virt. eigenvalues --    3.99240   3.99240   4.02333   4.02333   4.07285
 Alpha virt. eigenvalues --    4.15530   6.65114   6.65114   6.66424   6.66424
 Alpha virt. eigenvalues --    6.71706   6.71706   6.76070   7.59181   8.05447
 Alpha virt. eigenvalues --    8.05447   8.19438   8.49699   8.49699   8.55679
 Alpha virt. eigenvalues --    8.55679   8.65528  12.95573
          Condensed to atoms (all electrons):
               1          2
     1  B    4.472922   0.196059
     2  H    0.196059   1.134960
 Mulliken charges:
               1
     1  B    0.331019
     2  H   -0.331019
 Sum of Mulliken charges =   0.00000
 Mulliken charges with hydrogens summed into heavy atoms:
               1
     1  B    0.000000
 Electronic spatial extent (au):  <R**2>=             59.0448
 Charge=              0.0000 electrons
 Dipole moment (field-independent basis, Debye):
    X=              0.0000    Y=              0.0000    Z=              5.8613  Tot=              5.8613
 Quadrupole moment (field-independent basis, Debye-Ang):
   XX=             -8.7269   YY=             -8.7269   ZZ=            -20.9762
   XY=              0.0000   XZ=              0.0000   YZ=              0.0000
 Traceless Quadrupole moment (field-independent basis, Debye-Ang):
   XX=              4.0831   YY=              4.0831   ZZ=             -8.1662
   XY=              0.0000   XZ=              0.0000   YZ=              0.0000
 Octapole moment (field-independent basis, Debye-Ang**2):
  XXX=              0.0000  YYY=              0.0000  ZZZ=             38.0905  XYY=              0.0000
  XXY=              0.0000  XXZ=              6.4182  XZZ=              0.0000  YZZ=              0.0000
  YYZ=              6.4182  XYZ=              0.0000
 Hexadecapole moment (field-independent basis, Debye-Ang**3):
 XXXX=            -17.0986 YYYY=            -17.0986 ZZZZ=           -212.9736 XXXY=              0.0000
 XXXZ=              0.0000 YYYX=              0.0000 YYYZ=              0.0000 ZZZX=              0.0000
 ZZZY=              0.0000 XXYY=             -5.6995 XXZZ=            -30.2691 YYZZ=            -30.2691
 XXYZ=              0.0000 YYXZ=              0.0000 ZZXY=              0.0000
 N-N= 8.268393920625D-01 E-N=-5.882620271261D+01  KE= 2.474626370427D+01
 Symmetry A1   KE= 2.474626370427D+01
 Symmetry A2   KE=-2.162152245839D-52
 Symmetry B1   KE= 0.000000000000D+00
 Symmetry B2   KE= 0.000000000000D+00
 No NMR shielding tensors so no spin-rotation constants.
 Leave Link  601 at Sun May 22 16:00:54 2022, MaxMem=   104857600 cpu:               0.1 elap:               0.1
 (Enter /apps/software/g16/l9999.exe)
 1\1\GINC-CNODE12\SP\RHF\Aug-CC-pVQZ\B1H1\LCZ\22-May-2022\0\\#p RHF/aug
 -cc-pVQZ\\BH RHF at 3.2 Angstrom\\0,1\B,0,0.,0.,0.\H,0,3.2,0.,0.\\Vers
 ion=ES64L-G16RevA.03\State=1-SG\HF=-24.9421236\RMSD=7.162e-09\Dipole=-
 2.3060084,0.,0.\Quadrupole=-6.0713615,3.0356807,3.0356807,0.,0.,0.\PG=
 C*V [C*(H1B1)]\\@


 QUHEN THE CAUSS IS TAKEN AWAY THE EFFECT WANISHETH.
 -- PROVERBS AND REASONS OF THE YEAR 1585
           AS REPRINTED IN PAISLEY MAGAZINE 1828.
 Job cpu time:       0 days  0 hours  0 minutes  4.4 seconds.
 Elapsed time:       0 days  0 hours  0 minutes  4.4 seconds.
 File lengths (MBytes):  RWF=     10 Int=      0 D2E=      0 Chk=      3 Scr=      1
 Normal termination of Gaussian 16 at Sun May 22 16:00:54 2022.

Sender: Unischeduler System <lcz@mgt01>
Subject: Job 134026: <#!/bin/bash
#BSUB -J intel
#BSUB -o BH-3.2-RHF-G.out
#BSUB -n 8
#BSUB -q cqueue
#BSUB -R span[hosts=1]
export g16root=/apps/software
source /apps/software/g16/bsd/g16.profile
export GAUSS_SCRDIR=/scratch
/apps/software/g16/g16 < BH-3.2-RHF-G.inp > BH-3.2-RHF-G.out> Done

Job <#!/bin/bash
#BSUB -J intel
#BSUB -o BH-3.2-RHF-G.out
#BSUB -n 8
#BSUB -q cqueue
#BSUB -R span[hosts=1]
export g16root=/apps/software
source /apps/software/g16/bsd/g16.profile
export GAUSS_SCRDIR=/scratch
/apps/software/g16/g16 < BH-3.2-RHF-G.inp > BH-3.2-RHF-G.out> was submitted from host <mgt01> by user <lcz>.
Job was executed on host(s) <8*cnode12>, in queue <cqueue>, as user <lcz>.
</apps/users/lcz> was used as the home directory.
</apps/users/lcz/exe13/CCSD> was used as the working directory.
Started at 2022-05-22 16:00:49
Results reported at 2022-05-22 16:00:54

Your job looked like:

------------------------------------------------------------
# User input
#!/bin/bash
#BSUB -J intel
#BSUB -o BH-3.2-RHF-G.out
#BSUB -n 8
#BSUB -q cqueue
#BSUB -R span[hosts=1]
export g16root=/apps/software
source /apps/software/g16/bsd/g16.profile
export GAUSS_SCRDIR=/scratch
/apps/software/g16/g16 < BH-3.2-RHF-G.inp > BH-3.2-RHF-G.out
------------------------------------------------------------

Successfully completed.

Resource usage summary:

    CPU time   :            0.33 sec.
    Max Memory :               224 MB
    Max Processes  :               5


The output (if any) follows:

