 Entering Gaussian System, Link 0=/apps/software/g16/g16
 Initial command:
 /apps/software/g16/l1.exe "/scratch/Gau-88980.inp" -scrdir="/scratch/"
 Entering Link 1 = /apps/software/g16/l1.exe PID=     88981.
  
 Copyright (c) 1988,1990,1992,1993,1995,1998,2003,2009,2016,
            Gaussian, Inc.  All Rights Reserved.
  
 This is part of the Gaussian(R) 16 program.  It is based on
 the Gaussian(R) 09 system (copyright 2009, Gaussian, Inc.),
 the Gaussian(R) 03 system (copyright 2003, Gaussian, Inc.),
 the Gaussian(R) 98 system (copyright 1998, Gaussian, Inc.),
 the Gaussian(R) 94 system (copyright 1995, Gaussian, Inc.),
 the Gaussian 92(TM) system (copyright 1992, Gaussian, Inc.),
 the Gaussian 90(TM) system (copyright 1990, Gaussian, Inc.),
 the Gaussian 88(TM) system (copyright 1988, Gaussian, Inc.),
 the Gaussian 86(TM) system (copyright 1986, Carnegie Mellon
 University), and the Gaussian 82(TM) system (copyright 1983,
 Carnegie Mellon University). Gaussian is a federally registered
 trademark of Gaussian, Inc.
  
 This software contains proprietary and confidential information,
 including trade secrets, belonging to Gaussian, Inc.
  
 This software is provided under written license and may be
 used, copied, transmitted, or stored only in accord with that
 written license.
  
 The following legend is applicable only to US Government
 contracts under FAR:
  
                    RESTRICTED RIGHTS LEGEND
  
 Use, reproduction and disclosure by the US Government is
 subject to restrictions as set forth in subparagraphs (a)
 and (c) of the Commercial Computer Software - Restricted
 Rights clause in FAR 52.227-19.
  
 Gaussian, Inc.
 340 Quinnipiac St., Bldg. 40, Wallingford CT 06492
  
  
 ---------------------------------------------------------------
 Warning -- This program may not be used in any manner that
 competes with the business of Gaussian, Inc. or will provide
 assistance to any competitor of Gaussian, Inc.  The licensee
 of this program is prohibited from giving any competitor of
 Gaussian, Inc. access to this program.  By using this program,
 the user acknowledges that Gaussian, Inc. is engaged in the
 business of creating and licensing software in the field of
 computational chemistry and represents and warrants to the
 licensee that it is not a competitor of Gaussian, Inc. and that
 it will not use this program in any manner prohibited above.
 ---------------------------------------------------------------
  

 Cite this work as:
 Gaussian 16, Revision A.03,
 M. J. Frisch, G. W. Trucks, H. B. Schlegel, G. E. Scuseria, 
 M. A. Robb, J. R. Cheeseman, G. Scalmani, V. Barone, 
 G. A. Petersson, H. Nakatsuji, X. Li, M. Caricato, A. V. Marenich, 
 J. Bloino, B. G. Janesko, R. Gomperts, B. Mennucci, H. P. Hratchian, 
 J. V. Ortiz, A. F. Izmaylov, J. L. Sonnenberg, D. Williams-Young, 
 F. Ding, F. Lipparini, F. Egidi, J. Goings, B. Peng, A. Petrone, 
 T. Henderson, D. Ranasinghe, V. G. Zakrzewski, J. Gao, N. Rega, 
 G. Zheng, W. Liang, M. Hada, M. Ehara, K. Toyota, R. Fukuda, 
 J. Hasegawa, M. Ishida, T. Nakajima, Y. Honda, O. Kitao, H. Nakai, 
 T. Vreven, K. Throssell, J. A. Montgomery, Jr., J. E. Peralta, 
 F. Ogliaro, M. J. Bearpark, J. J. Heyd, E. N. Brothers, K. N. Kudin, 
 V. N. Staroverov, T. A. Keith, R. Kobayashi, J. Normand, 
 K. Raghavachari, A. P. Rendell, J. C. Burant, S. S. Iyengar, 
 J. Tomasi, M. Cossi, J. M. Millam, M. Klene, C. Adamo, R. Cammi, 
 J. W. Ochterski, R. L. Martin, K. Morokuma, O. Farkas, 
 J. B. Foresman, and D. J. Fox, Gaussian, Inc., Wallingford CT, 2016.
 
 ******************************************
 Gaussian 16:  ES64L-G16RevA.03 25-Dec-2016
                22-May-2022 
 ******************************************
 %oldchk=BH-3.4-RHF-G.chk
 %chk=BH-3.4-CCSD-G.chk
 Copying data from "BH-3.4-RHF-G.chk" to current chk file "BH-3.4-CCSD-G.chk"
 IOpt=  2 FromEx=T IUOpen= 4 IOptOp= 5 NList=   0 IFRang= 0 IUIn= 4 IUOut= 2.
 -------------------------------------
 #p RHF/aug-cc-pVQZ guess=read CCSD=FC
 -------------------------------------
 1/38=1,172=1/1;
 2/12=2,17=6,18=5,40=1/2;
 3/5=16,6=2,7=10,11=1,25=1,30=1,116=1/1,2,3;
 4/5=1/1;
 5/5=2,38=6/2;
 8/6=4,9=120000,10=1/1,4;
 9/5=7/13;
 6/7=2,8=2,9=2,10=2/1;
 99/5=1,9=1/99;
 Leave Link    1 at Sun May 22 15:52:17 2022, MaxMem=   104857600 cpu:               0.0 elap:               0.0
 (Enter /apps/software/g16/l101.exe)
 ----------------------
 BH RHF at 3.4 Angstrom
 ----------------------
 Symbolic Z-matrix:
 Charge =  0 Multiplicity = 1
 B                     0.        0.        0. 
 H                     3.4       0.        0. 
 
 ITRead=  0  0
 MicOpt= -1 -1
 NAtoms=      2 NQM=        2 NQMF=       0 NMMI=      0 NMMIF=      0
                NMic=       0 NMicF=      0.
                    Isotopes and Nuclear Properties:
 (Nuclear quadrupole moments (NQMom) in fm**2, nuclear magnetic moments (NMagM)
  in nuclear magnetons)

  Atom         1           2
 IAtWgt=          11           1
 AtmWgt=  11.0093053   1.0078250
 NucSpn=           3           1
 AtZEff=  -0.0000000  -0.0000000
 NQMom=    4.0590000   0.0000000
 NMagM=    2.6886370   2.7928460
 AtZNuc=   5.0000000   1.0000000
 Leave Link  101 at Sun May 22 15:52:17 2022, MaxMem=   104857600 cpu:               0.1 elap:               0.1
 (Enter /apps/software/g16/l202.exe)
                          Input orientation:                          
 ---------------------------------------------------------------------
 Center     Atomic      Atomic             Coordinates (Angstroms)
 Number     Number       Type             X           Y           Z
 ---------------------------------------------------------------------
      1          5           0        0.000000    0.000000    0.000000
      2          1           0        3.400000    0.000000    0.000000
 ---------------------------------------------------------------------
 Stoichiometry    BH
 Framework group  C*V[C*(HB)]
 Deg. of freedom     1
 Full point group                 C*V     NOp   4
 Largest Abelian subgroup         C2V     NOp   4
 Largest concise Abelian subgroup C1      NOp   1
                         Standard orientation:                         
 ---------------------------------------------------------------------
 Center     Atomic      Atomic             Coordinates (Angstroms)
 Number     Number       Type             X           Y           Z
 ---------------------------------------------------------------------
      1          5           0        0.000000    0.000000    0.566667
      2          1           0        0.000000    0.000000   -2.833333
 ---------------------------------------------------------------------
 Rotational constants (GHZ):           0.0000000          47.3494653          47.3494653
 Leave Link  202 at Sun May 22 15:52:17 2022, MaxMem=   104857600 cpu:               0.0 elap:               0.0
 (Enter /apps/software/g16/l301.exe)
 Standard basis: Aug-CC-pVQZ (5D, 7F)
 Ernie: Thresh=  0.10000D-02 Tol=  0.10000D-05 Strict=F.
 Ernie:  4 primitive shells out of 54 were deleted.
 There are    68 symmetry adapted cartesian basis functions of A1  symmetry.
 There are    18 symmetry adapted cartesian basis functions of A2  symmetry.
 There are    37 symmetry adapted cartesian basis functions of B1  symmetry.
 There are    37 symmetry adapted cartesian basis functions of B2  symmetry.
 There are    50 symmetry adapted basis functions of A1  symmetry.
 There are    16 symmetry adapted basis functions of A2  symmetry.
 There are    30 symmetry adapted basis functions of B1  symmetry.
 There are    30 symmetry adapted basis functions of B2  symmetry.
   126 basis functions,   180 primitive gaussians,   160 cartesian basis functions
     3 alpha electrons        3 beta electrons
       nuclear repulsion energy         0.7782017808 Hartrees.
 IExCor=    0 DFT=F Ex=HF Corr=None ExCW=0 ScaHFX=  1.000000
 ScaDFX=  1.000000  1.000000  1.000000  1.000000 ScalE2=  1.000000  1.000000
 IRadAn=      5 IRanWt=     -1 IRanGd=            0 ICorTp=0 IEmpDi=  4
 NAtoms=    2 NActive=    2 NUniq=    2 SFac= 1.00D+00 NAtFMM=   60 NAOKFM=F Big=F
 Integral buffers will be    131072 words long.
 Raffenetti 1 integral format.
 Two-electron integral symmetry is turned on.
 Leave Link  301 at Sun May 22 15:52:17 2022, MaxMem=   104857600 cpu:               0.1 elap:               0.1
 (Enter /apps/software/g16/l302.exe)
 NPDir=0 NMtPBC=     1 NCelOv=     1 NCel=       1 NClECP=     1 NCelD=      1
         NCelK=      1 NCelE2=     1 NClLst=     1 CellRange=     0.0.
 One-electron integrals computed using PRISM.
 One-electron integral symmetry used in STVInt
 NBasis=   126 RedAO= T EigKep=  4.97D-03  NBF=    50    16    30    30
 NBsUse=   126 1.00D-06 EigRej= -1.00D+00 NBFU=    50    16    30    30
 Leave Link  302 at Sun May 22 15:52:17 2022, MaxMem=   104857600 cpu:               0.1 elap:               0.1
 (Enter /apps/software/g16/l303.exe)
 DipDrv:  MaxL=1.
 Leave Link  303 at Sun May 22 15:52:17 2022, MaxMem=   104857600 cpu:               0.0 elap:               0.0
 (Enter /apps/software/g16/l401.exe)
 Initial guess from the checkpoint file:  "BH-3.4-CCSD-G.chk"
 B after Tr=     0.000000    0.000000    0.000000
         Rot=    1.000000    0.000000    0.000000    0.000000 Ang=   0.00 deg.
 Guess basis will be translated and rotated to current coordinates.
 JPrj=2 DoOrth=T DoCkMO=T.
 Initial guess orbital symmetries:
       Occupied  (SG) (SG) (SG)
       Virtual   (SG) (PI) (PI) (SG) (PI) (PI) (SG) (SG) (DLTA)
                 (DLTA) (PI) (PI) (SG) (PI) (PI) (SG) (PI) (PI)
                 (SG) (SG) (PHI) (PHI) (DLTA) (DLTA) (DLTA) (DLTA)
                 (PI) (PI) (SG) (PI) (PI) (SG) (SG) (DLTA) (DLTA)
                 (PI) (PI) (PI) (PI) (SG) (SG) (PI) (PI) (SG) (SG)
                 (?A) (?A) (DLTA) (DLTA) (PHI) (PHI) (DLTA) (DLTA)
                 (PI) (PI) (PI) (PI) (SG) (PHI) (PHI) (DLTA) (DLTA)
                 (SG) (PI) (PI) (SG) (PHI) (PHI) (DLTA) (DLTA)
                 (SG) (PI) (PI) (SG) (DLTA) (DLTA) (PI) (PI) (PI)
                 (PI) (SG) (SG) (PI) (PI) (SG) (?A) (?A) (DLTA)
                 (DLTA) (PHI) (PHI) (PI) (PI) (DLTA) (DLTA) (SG)
                 (PI) (PI) (PHI) (PHI) (DLTA) (DLTA) (PI) (PI)
                 (SG) (SG) (PHI) (PHI) (DLTA) (DLTA) (PI) (PI)
                 (SG) (SG) (PI) (PI) (SG) (DLTA) (DLTA) (PI) (PI)
                 (SG) (SG)
 The electronic state of the initial guess is 1-SG.
 Leave Link  401 at Sun May 22 15:52:17 2022, MaxMem=   104857600 cpu:               0.1 elap:               0.1
 (Enter /apps/software/g16/l502.exe)
 Keep R1 ints in memory in symmetry-blocked form, NReq=40143665.
 FoFCou: FMM=F IPFlag=           0 FMFlag=           0 FMFlg1=           0
         NFxFlg=           0 DoJE=F BraDBF=F KetDBF=F FulRan=T
         wScrn=  0.000000 ICntrl=       600 IOpCl=  0 I1Cent=           0 NGrid=           0
         NMat0=    1 NMatS0=   8001 NMatT0=    0 NMatD0=    1 NMtDS0=    0 NMtDT0=    0
 Petite list used in FoFCou.
 Closed shell SCF:
 Using DIIS extrapolation, IDIIS=  1040.
 NGot=   104857600 LenX=    96673173 LenY=    96647132
 Requested convergence on RMS density matrix=1.00D-08 within 128 cycles.
 Requested convergence on MAX density matrix=1.00D-06.
 Requested convergence on             energy=1.00D-06.
 No special actions if energy rises.

 Cycle   1  Pass 1  IDiag  1:
 E= -24.9305594026028    
 DIIS: error= 2.29D-09 at cycle   1 NSaved=   1.
 NSaved= 1 IEnMin= 1 EnMin= -24.9305594026028     IErMin= 1 ErrMin= 2.29D-09
 ErrMax= 2.29D-09  0.00D+00 EMaxC= 1.00D-01 BMatC= 2.18D-16 BMatP= 2.18D-16
 IDIUse=1 WtCom= 1.00D+00 WtEn= 0.00D+00
 Coeff-Com:  0.100D+01
 Coeff:      0.100D+01
 Gap=     0.212 Goal=   None    Shift=    0.000
 RMSDP=2.77D-10 MaxDP=8.47D-09              OVMax= 2.59D-08

 SCF Done:  E(RHF) =  -24.9305594026     A.U. after    1 cycles
            NFock=  1  Conv=0.28D-09     -V/T= 2.0074
 KE= 2.474664517132D+01 PE=-5.869412235211D+01 EE= 8.238715997425D+00
 Leave Link  502 at Sun May 22 15:52:21 2022, MaxMem=   104857600 cpu:               3.5 elap:               3.6
 (Enter /apps/software/g16/l801.exe)
 Windowed orbitals will be sorted by symmetry type.
 ExpMin= 1.88D-02 ExpMax= 2.39D+04 ExpMxC= 2.30D+02 IAcc=3 IRadAn=         5 AccDes= 0.00D+00
 HarFok:  IExCor=  205 AccDes= 0.00D+00 IRadAn=         5 IDoV=-2 UseB2=F ITyADJ=14
 ICtDFT= 12500011 ScaDFX=  1.000000  1.000000  1.000000  1.000000
 DSYEVD-2 returned Info=        3401 IAlg= 4 N=    80 NDim=    80 NE2=     1309686 trying  DSYEV.
 Largest valence mixing into a core orbital is  4.03D-04
 Largest core mixing into a valence orbital is  1.72D-04
 Range of M.O.s used for correlation:     2   126
 NBasis=   126 NAE=     3 NBE=     3 NFC=     1 NFV=     0
 NROrb=    125 NOA=     2 NOB=     2 NVA=   123 NVB=   123
 Leave Link  801 at Sun May 22 15:52:21 2022, MaxMem=   104857600 cpu:               0.1 elap:               0.1
 (Enter /apps/software/g16/l804.exe)
 Closed-shell transformation, MDV=   104857600 ITran=4 ISComp=2.
 Unit  1 TFree=        535169 TCopy=        350885.
 Semi-Direct transformation.
 ModeAB=           2 MOrb=             2 LenV=     104241621
 LASXX=       493564 LTotXX=      493564 LenRXX=      493564
 LTotAB=      509833 MaxLAS=     3220000 LenRXY=     3220000
 NonZer=     3351250 LenScr=     5742592 LnRSAI=           0
 LnScr1=           0 LExtra=           0 Total=      9456156
 MaxDsk=          -1 SrtSym=           F ITran=            4
 DoSDTr:  NPSUse=  1
 JobTyp=0 Pass  1:  I=   1 to   2.
 (rs|ai) integrals will be sorted in core.
 Complete sort for first half transformation.
 First half transformation complete.
 Complete sort for second half transformation.
 Second half transformation complete.
 Spin components of T(2) and E(2):
     alpha-alpha T2 =       0.1587061542D-02 E2=     -0.2244230778D-02
     alpha-beta  T2 =       0.1113551689D+00 E2=     -0.9671109832D-01
     beta-beta   T2 =       0.1587061542D-02 E2=     -0.2244230778D-02
 ANorm=    0.1055712694D+01
 E2 =    -0.1011995599D+00 EUMP2 =    -0.25031758962481D+02
 Leave Link  804 at Sun May 22 15:52:26 2022, MaxMem=   104857600 cpu:               5.5 elap:               5.6
 (Enter /apps/software/g16/l913.exe)
 CIDS:  MDV=   104857600.
 Frozen-core window:  NFC=   1 NFV=   0.
 IFCWin=0 IBDFC=1 NFBD=     0     0 NFCmp=     0     0 NFFFC=     0     0
 Using DD3R+UMP44R for 1st iteration.
 Using DD4RQ for 2nd and later iterations.
 Keep R2 and R3 ints in memory in symmetry-blocked form, NReq=40146875.
 FoFCou: FMM=F IPFlag=           0 FMFlag=           0 FMFlg1=           0
         NFxFlg=           0 DoJE=F BraDBF=F KetDBF=F FulRan=T
         wScrn=  0.000000 ICntrl=       600 IOpCl=  0 I1Cent=           0 NGrid=           0
         NMat0=    1 NMatS0=   8001 NMatT0=    0 NMatD0=    1 NMtDS0=    0 NMtDT0=    0
 Petite list used in FoFCou.
 CIDS: In Core Option IDoMem=           1.
 Coupled Cluster theory with single and double substitutions
 ===========================================================
 Iterations=  50 Convergence= 0.100D-06
 Produce multiple copies of IABC intergrals
 Iteration Nr.   1
 **********************
 DD1Dir will call FoFMem   1 times, MxPair=         6
 NAB=     3 NAA=     0 NBB=     0.
 MP4(R+Q)=  0.79005500D-02
 Maximum subspace dimension=  5
 A-vector RMS=  1.9662806D-02 Max=  1.3828043D-01 conv= 1.00D-05.
 RLE energy=       -0.1205781642
 E3=       -0.26279167D-01        EUMP3=      -0.25058038129D+02
 E4(DQ)=   -0.93332830D-02        UMP4(DQ)=   -0.25067371412D+02
 E4(SDQ)=  -0.20862729D-01        UMP4(SDQ)=  -0.25078900859D+02
 VARIATIONAL ENERGIES WITH THE FIRST-ORDER WAVEFUNCTION:
 DE(Corr)= -0.11751639     E(Corr)=     -25.048075791    
 NORM(A)=   0.11277390D+01
 Iteration Nr.   2
 **********************
 DD1Dir will call FoFMem   1 times, MxPair=         6
 NAB=     3 NAA=     0 NBB=     0.
 A-vector RMS=  6.1705357D-03 Max=  1.4391600D-01 conv= 1.00D-05.
 RLE energy=       -0.1556455403
 DE(Corr)= -0.14529389     E(CORR)=     -25.075853292     Delta=-2.78D-02
 NORM(A)=   0.12271541D+01
 Iteration Nr.   3
 **********************
 DD1Dir will call FoFMem   1 times, MxPair=         6
 NAB=     3 NAA=     0 NBB=     0.
 A-vector RMS=  1.3523217D-02 Max=  9.9119273D-02 conv= 1.00D-05.
 RLE energy=       -0.1597320191
 DE(Corr)= -0.14769835     E(CORR)=     -25.078257754     Delta=-2.40D-03
 NORM(A)=   0.13250510D+01
 Iteration Nr.   4
 **********************
 DD1Dir will call FoFMem   1 times, MxPair=         6
 NAB=     3 NAA=     0 NBB=     0.
 A-vector RMS=  4.5781145D-03 Max=  3.6850191D-02 conv= 1.00D-05.
 RLE energy=       -0.1603222091
 DE(Corr)= -0.16349629     E(CORR)=     -25.094055697     Delta=-1.58D-02
 NORM(A)=   0.13322104D+01
 Iteration Nr.   5
 **********************
 DD1Dir will call FoFMem   1 times, MxPair=         6
 NAB=     3 NAA=     0 NBB=     0.
 A-vector RMS=  3.2136337D-03 Max=  2.4065310D-02 conv= 1.00D-05.
 RLE energy=       -0.1640465978
 DE(Corr)= -0.16005237     E(CORR)=     -25.090611777     Delta= 3.44D-03
 NORM(A)=   0.13801201D+01
 Iteration Nr.   6
 **********************
 DD1Dir will call FoFMem   1 times, MxPair=         6
 NAB=     3 NAA=     0 NBB=     0.
 A-vector RMS=  1.0389452D-03 Max=  7.7857362D-03 conv= 1.00D-05.
 RLE energy=       -0.1627101297
 DE(Corr)= -0.16398899     E(CORR)=     -25.094548391     Delta=-3.94D-03
 NORM(A)=   0.13672693D+01
 Iteration Nr.   7
 **********************
 DD1Dir will call FoFMem   1 times, MxPair=         6
 NAB=     3 NAA=     0 NBB=     0.
 A-vector RMS=  2.2532415D-04 Max=  1.6214582D-03 conv= 1.00D-05.
 RLE energy=       -0.1626422392
 DE(Corr)= -0.16261801     E(CORR)=     -25.093177412     Delta= 1.37D-03
 NORM(A)=   0.13678747D+01
 Iteration Nr.   8
 **********************
 DD1Dir will call FoFMem   1 times, MxPair=         6
 NAB=     3 NAA=     0 NBB=     0.
 A-vector RMS=  8.5344779D-05 Max=  6.0764370D-04 conv= 1.00D-05.
 RLE energy=       -0.1627640541
 DE(Corr)= -0.16266565     E(CORR)=     -25.093225049     Delta=-4.76D-05
 NORM(A)=   0.13692087D+01
 Iteration Nr.   9
 **********************
 DD1Dir will call FoFMem   1 times, MxPair=         6
 NAB=     3 NAA=     0 NBB=     0.
 A-vector RMS=  1.2039529D-05 Max=  7.0633448D-05 conv= 1.00D-05.
 RLE energy=       -0.1627516835
 DE(Corr)= -0.16276066     E(CORR)=     -25.093320060     Delta=-9.50D-05
 NORM(A)=   0.13690428D+01
 Iteration Nr.  10
 **********************
 DD1Dir will call FoFMem   1 times, MxPair=         6
 NAB=     3 NAA=     0 NBB=     0.
 A-vector RMS=  4.2314723D-06 Max=  3.1169494D-05 conv= 1.00D-05.
 RLE energy=       -0.1627365719
 DE(Corr)= -0.16274206     E(CORR)=     -25.093301459     Delta= 1.86D-05
 NORM(A)=   0.13689922D+01
 Iteration Nr.  11
 **********************
 DD1Dir will call FoFMem   1 times, MxPair=         6
 NAB=     3 NAA=     0 NBB=     0.
 A-vector RMS=  3.1532991D-06 Max=  3.7336592D-05 conv= 1.00D-05.
 RLE energy=       -0.1627447531
 DE(Corr)= -0.16274460     E(CORR)=     -25.093304000     Delta=-2.54D-06
 NORM(A)=   0.13690235D+01
 Iteration Nr.  12
 **********************
 DD1Dir will call FoFMem   1 times, MxPair=         6
 NAB=     3 NAA=     0 NBB=     0.
 A-vector RMS=  1.4093090D-06 Max=  1.0190620D-05 conv= 1.00D-05.
 RLE energy=       -0.1627441738
 DE(Corr)= -0.16274338     E(CORR)=     -25.093302786     Delta= 1.21D-06
 NORM(A)=   0.13690290D+01
 Iteration Nr.  13
 **********************
 DD1Dir will call FoFMem   1 times, MxPair=         6
 NAB=     3 NAA=     0 NBB=     0.
 A-vector RMS=  6.7638156D-07 Max=  4.9549272D-06 conv= 1.00D-05.
 RLE energy=       -0.1627441153
 DE(Corr)= -0.16274452     E(CORR)=     -25.093303923     Delta=-1.14D-06
 NORM(A)=   0.13690266D+01
 Iteration Nr.  14
 **********************
 DD1Dir will call FoFMem   1 times, MxPair=         6
 NAB=     3 NAA=     0 NBB=     0.
 A-vector RMS=  2.9135764D-07 Max=  2.1205674D-06 conv= 1.00D-05.
 RLE energy=       -0.1627441344
 DE(Corr)= -0.16274394     E(CORR)=     -25.093303346     Delta= 5.77D-07
 NORM(A)=   0.13690282D+01
 Iteration Nr.  15
 **********************
 DD1Dir will call FoFMem   1 times, MxPair=         6
 NAB=     3 NAA=     0 NBB=     0.
 A-vector RMS=  5.9967084D-08 Max=  3.1712983D-07 conv= 1.00D-05.
 RLE energy=       -0.1627441977
 DE(Corr)= -0.16274419     E(CORR)=     -25.093303590     Delta=-2.44D-07
 NORM(A)=   0.13690284D+01
 Iteration Nr.  16
 **********************
 DD1Dir will call FoFMem   1 times, MxPair=         6
 NAB=     3 NAA=     0 NBB=     0.
 A-vector RMS=  2.9767403D-08 Max=  2.7042210D-07 conv= 1.00D-05.
 RLE energy=       -0.1627441366
 DE(Corr)= -0.16274418     E(CORR)=     -25.093303581     Delta= 8.49D-09
 NORM(A)=   0.13690278D+01
 CI/CC converged in   16 iterations to DelEn= 8.49D-09 Conv= 1.00D-07 ErrA1= 2.98D-08 Conv= 1.00D-05
 Wavefunction amplitudes converged. E(Corr)=     -25.093303581    
 Dominant configurations:
 ***********************
 Spin Case        I    J    A    B          Value
    AA            3         4           -0.310494D+00
   ABAB           2    2    5    5      -0.118732D+00
   ABAB           2    2    6    6      -0.118732D+00
   ABAB           3    3    4    4      -0.670674D+00
   ABAB           3    3    4    7       0.142160D+00
   ABAB           3    3    7    4       0.142160D+00
 Largest amplitude= 6.71D-01
 Discarding MO integrals.
 Leave Link  913 at Sun May 22 15:52:31 2022, MaxMem=   104857600 cpu:               4.4 elap:               4.4
 (Enter /apps/software/g16/l601.exe)
 Copying SCF densities to generalized density rwf, IOpCl= 0 IROHF=0.

 **********************************************************************

            Population analysis using the SCF density.

 **********************************************************************

 Orbital symmetries:
       Occupied  (SG) (SG) (SG)
       Virtual   (SG) (PI) (PI) (SG) (PI) (PI) (SG) (SG) (DLTA)
                 (DLTA) (PI) (PI) (SG) (PI) (PI) (SG) (PI) (PI)
                 (SG) (SG) (PHI) (PHI) (DLTA) (DLTA) (DLTA) (DLTA)
                 (PI) (PI) (SG) (PI) (PI) (SG) (SG) (DLTA) (DLTA)
                 (PI) (PI) (PI) (PI) (SG) (SG) (PI) (PI) (SG) (SG)
                 (?A) (?A) (DLTA) (DLTA) (PHI) (PHI) (DLTA) (DLTA)
                 (PI) (PI) (PI) (PI) (SG) (PHI) (PHI) (DLTA) (DLTA)
                 (SG) (PI) (PI) (SG) (PHI) (PHI) (DLTA) (DLTA)
                 (SG) (PI) (PI) (SG) (DLTA) (DLTA) (PI) (PI) (PI)
                 (PI) (SG) (SG) (PI) (PI) (SG) (?A) (?A) (DLTA)
                 (DLTA) (PHI) (PHI) (PI) (PI) (DLTA) (DLTA) (SG)
                 (PI) (PI) (PHI) (PHI) (DLTA) (DLTA) (PI) (PI)
                 (SG) (SG) (PHI) (PHI) (DLTA) (DLTA) (PI) (PI)
                 (SG) (SG) (PI) (PI) (SG) (DLTA) (DLTA) (PI) (PI)
                 (SG) (SG)
 The electronic state is 1-SG.
 Alpha  occ. eigenvalues --   -7.87347  -0.60449  -0.25706
 Alpha virt. eigenvalues --   -0.04510  -0.03240  -0.03240   0.02846   0.04765
 Alpha virt. eigenvalues --    0.04765   0.06842   0.08988   0.12677   0.12677
 Alpha virt. eigenvalues --    0.13335   0.13335   0.16388   0.24803   0.24803
 Alpha virt. eigenvalues --    0.26935   0.27130   0.27130   0.29707   0.34012
 Alpha virt. eigenvalues --    0.42718   0.42718   0.43396   0.43396   0.44793
 Alpha virt. eigenvalues --    0.44793   0.45247   0.45247   0.45940   0.48210
 Alpha virt. eigenvalues --    0.48210   0.50288   0.59059   0.70026   0.70026
 Alpha virt. eigenvalues --    0.79041   0.79041   0.88281   0.88281   0.90012
 Alpha virt. eigenvalues --    0.93648   0.95771   0.95771   1.03844   1.30423
 Alpha virt. eigenvalues --    1.30940   1.30940   1.31691   1.31691   1.32017
 Alpha virt. eigenvalues --    1.32017   1.32441   1.32441   1.33080   1.33080
 Alpha virt. eigenvalues --    1.33504   1.33504   1.33520   1.36319   1.36319
 Alpha virt. eigenvalues --    1.37908   1.37908   1.41654   1.43498   1.43498
 Alpha virt. eigenvalues --    1.61394   1.64226   1.64226   1.67446   1.67446
 Alpha virt. eigenvalues --    1.77664   1.80699   1.80699   1.92831   2.56223
 Alpha virt. eigenvalues --    2.56223   2.63741   2.63741   2.69362   2.69362
 Alpha virt. eigenvalues --    2.76695   2.81571   3.59834   3.59834   3.66564
 Alpha virt. eigenvalues --    3.81735   3.81735   3.82559   3.82559   3.82925
 Alpha virt. eigenvalues --    3.82925   3.84098   3.84098   3.84348   3.84348
 Alpha virt. eigenvalues --    3.85542   3.90404   3.90404   3.96787   3.96787
 Alpha virt. eigenvalues --    3.98430   3.98430   4.01537   4.01537   4.05593
 Alpha virt. eigenvalues --    4.08820   6.65267   6.65267   6.66039   6.66039
 Alpha virt. eigenvalues --    6.69585   6.69585   6.73828   7.58235   8.05141
 Alpha virt. eigenvalues --    8.05141   8.13863   8.49551   8.49551   8.54538
 Alpha virt. eigenvalues --    8.54538   8.64660  12.94390
          Condensed to atoms (all electrons):
               1          2
     1  B    4.471864   0.177381
     2  H    0.177381   1.173374
 Mulliken charges:
               1
     1  B    0.350755
     2  H   -0.350755
 Sum of Mulliken charges =  -0.00000
 Mulliken charges with hydrogens summed into heavy atoms:
               1
     1  B   -0.000000
 Electronic spatial extent (au):  <R**2>=             64.5579
 Charge=             -0.0000 electrons
 Dipole moment (field-independent basis, Debye):
    X=              0.0000    Y=              0.0000    Z=              6.4760  Tot=              6.4760
 Quadrupole moment (field-independent basis, Debye-Ang):
   XX=             -8.8577   YY=             -8.8577   ZZ=            -22.8463
   XY=              0.0000   XZ=              0.0000   YZ=              0.0000
 Traceless Quadrupole moment (field-independent basis, Debye-Ang):
   XX=              4.6629   YY=              4.6629   ZZ=             -9.3257
   XY=              0.0000   XZ=              0.0000   YZ=              0.0000
 Octapole moment (field-independent basis, Debye-Ang**2):
  XXX=              0.0000  YYY=              0.0000  ZZZ=             46.7571  XYY=              0.0000
  XXY=              0.0000  XXZ=              7.1906  XZZ=              0.0000  YZZ=              0.0000
  YYZ=              7.1906  XYZ=              0.0000
 Hexadecapole moment (field-independent basis, Debye-Ang**3):
 XXXX=            -18.0068 YYYY=            -18.0068 ZZZZ=           -257.5436 XXXY=              0.0000
 XXXZ=              0.0000 YYYX=              0.0000 YYYZ=              0.0000 ZZZX=              0.0000
 ZZZY=              0.0000 XXYY=             -6.0023 XXZZ=            -34.4192 YYZZ=            -34.4192
 XXYZ=              0.0000 YYXZ=              0.0000 ZZXY=              0.0000
 N-N= 7.782017807647D-01 E-N=-5.869412241287D+01  KE= 2.474664517132D+01
 Symmetry A1   KE= 2.474664517132D+01
 Symmetry A2   KE=-9.943758655783D-53
 Symmetry B1   KE= 0.000000000000D+00
 Symmetry B2   KE= 0.000000000000D+00
 Leave Link  601 at Sun May 22 15:52:31 2022, MaxMem=   104857600 cpu:               0.0 elap:               0.1
 (Enter /apps/software/g16/l9999.exe)
 1\1\GINC-CNODE07\SP\RCCSD-FC\Aug-CC-pVQZ\B1H1\LCZ\22-May-2022\0\\#p RH
 F/aug-cc-pVQZ guess=read CCSD=FC\\BH RHF at 3.4 Angstrom\\0,1\B,0,0.,0
 .,0.\H,0,3.4,0.,0.\\Version=ES64L-G16RevA.03\State=1-SG\HF=-24.9305594
 \MP2=-25.031759\MP3=-25.0580381\MP4D=-25.075272\MP4DQ=-25.0673714\MP4S
 DQ=-25.0789009\CCSD=-25.0933036\RMSD=2.765e-10\PG=C*V [C*(H1B1)]\\@


 I MET A TRAVELLER FROM AN ANTIQUE LAND
 WHO SAID... TWO VAST AND TRUNKLESS LEGS OF STONE
 STAND IN THE DESERT..... NEAR THEM,  ON THE SAND,
 HALF SUNK,  A SHATTERED VISAGE LIES,  WHOSE FROWN,
 AND WRINKLED LIP,  AND SNEER OF COLD COMMAND
 TELL THAT ITS SCULPTOR WELL THOSE PASSIONS READ
 WHICH YET SURVIVE,  STAMPED ON THESE LIFELESS THINGS
 THE HAND THAT MOCKED THEM,  AND THE HEART THAT FED-
 AND ON THE PEDESTAL THESE WORDS APPEAR 
 MY NAME IS OZYMANDIAS, KING OF KINGS--   
 LOOK ON MY WORKS YE MIGHTY AND DESPAIR. 
 NOTHING BESIDE REMAINS,  ROUND THE DECAY 
 OF THAT COLOSSAL WRECK,  BOUNDLESS AND BARE
 THE LONE AND LEVEL SANDS STRETCH FAR AWAY.
                                    SHELLEY
 Job cpu time:       0 days  0 hours  0 minutes 14.2 seconds.
 Elapsed time:       0 days  0 hours  0 minutes 14.2 seconds.
 File lengths (MBytes):  RWF=     81 Int=      0 D2E=      0 Chk=     67 Scr=      1
 Normal termination of Gaussian 16 at Sun May 22 15:52:31 2022.

Sender: Unischeduler System <lcz@mgt01>
Subject: Job 134056: <#!/bin/bash
#BSUB -J intel
#BSUB -o BH-3.4-CCSD-G.out
#BSUB -n 8
#BSUB -q cqueue
#BSUB -R span[hosts=1]
export g16root=/apps/software
source /apps/software/g16/bsd/g16.profile
export GAUSS_SCRDIR=/scratch
/apps/software/g16/g16 < BH-3.4-CCSD-G.inp > BH-3.4-CCSD-G.out> Done

Job <#!/bin/bash
#BSUB -J intel
#BSUB -o BH-3.4-CCSD-G.out
#BSUB -n 8
#BSUB -q cqueue
#BSUB -R span[hosts=1]
export g16root=/apps/software
source /apps/software/g16/bsd/g16.profile
export GAUSS_SCRDIR=/scratch
/apps/software/g16/g16 < BH-3.4-CCSD-G.inp > BH-3.4-CCSD-G.out> was submitted from host <mgt01> by user <lcz>.
Job was executed on host(s) <8*cnode07>, in queue <cqueue>, as user <lcz>.
</apps/users/lcz> was used as the home directory.
</apps/users/lcz/exe13/CCSD> was used as the working directory.
Started at 2022-05-22 15:52:16
Results reported at 2022-05-22 15:52:31

Your job looked like:

------------------------------------------------------------
# User input
#!/bin/bash
#BSUB -J intel
#BSUB -o BH-3.4-CCSD-G.out
#BSUB -n 8
#BSUB -q cqueue
#BSUB -R span[hosts=1]
export g16root=/apps/software
source /apps/software/g16/bsd/g16.profile
export GAUSS_SCRDIR=/scratch
/apps/software/g16/g16 < BH-3.4-CCSD-G.inp > BH-3.4-CCSD-G.out
------------------------------------------------------------

Successfully completed.

Resource usage summary:

    CPU time   :            4.88 sec.
    Max Memory :               201 MB
    Max Processes  :               5


The output (if any) follows:

