 Entering Gaussian System, Link 0=/apps/software/g16/g16
 Initial command:
 /apps/software/g16/l1.exe "/scratch/Gau-382028.inp" -scrdir="/scratch/"
 Entering Link 1 = /apps/software/g16/l1.exe PID=    382029.
  
 Copyright (c) 1988,1990,1992,1993,1995,1998,2003,2009,2016,
            Gaussian, Inc.  All Rights Reserved.
  
 This is part of the Gaussian(R) 16 program.  It is based on
 the Gaussian(R) 09 system (copyright 2009, Gaussian, Inc.),
 the Gaussian(R) 03 system (copyright 2003, Gaussian, Inc.),
 the Gaussian(R) 98 system (copyright 1998, Gaussian, Inc.),
 the Gaussian(R) 94 system (copyright 1995, Gaussian, Inc.),
 the Gaussian 92(TM) system (copyright 1992, Gaussian, Inc.),
 the Gaussian 90(TM) system (copyright 1990, Gaussian, Inc.),
 the Gaussian 88(TM) system (copyright 1988, Gaussian, Inc.),
 the Gaussian 86(TM) system (copyright 1986, Carnegie Mellon
 University), and the Gaussian 82(TM) system (copyright 1983,
 Carnegie Mellon University). Gaussian is a federally registered
 trademark of Gaussian, Inc.
  
 This software contains proprietary and confidential information,
 including trade secrets, belonging to Gaussian, Inc.
  
 This software is provided under written license and may be
 used, copied, transmitted, or stored only in accord with that
 written license.
  
 The following legend is applicable only to US Government
 contracts under FAR:
  
                    RESTRICTED RIGHTS LEGEND
  
 Use, reproduction and disclosure by the US Government is
 subject to restrictions as set forth in subparagraphs (a)
 and (c) of the Commercial Computer Software - Restricted
 Rights clause in FAR 52.227-19.
  
 Gaussian, Inc.
 340 Quinnipiac St., Bldg. 40, Wallingford CT 06492
  
  
 ---------------------------------------------------------------
 Warning -- This program may not be used in any manner that
 competes with the business of Gaussian, Inc. or will provide
 assistance to any competitor of Gaussian, Inc.  The licensee
 of this program is prohibited from giving any competitor of
 Gaussian, Inc. access to this program.  By using this program,
 the user acknowledges that Gaussian, Inc. is engaged in the
 business of creating and licensing software in the field of
 computational chemistry and represents and warrants to the
 licensee that it is not a competitor of Gaussian, Inc. and that
 it will not use this program in any manner prohibited above.
 ---------------------------------------------------------------
  

 Cite this work as:
 Gaussian 16, Revision A.03,
 M. J. Frisch, G. W. Trucks, H. B. Schlegel, G. E. Scuseria, 
 M. A. Robb, J. R. Cheeseman, G. Scalmani, V. Barone, 
 G. A. Petersson, H. Nakatsuji, X. Li, M. Caricato, A. V. Marenich, 
 J. Bloino, B. G. Janesko, R. Gomperts, B. Mennucci, H. P. Hratchian, 
 J. V. Ortiz, A. F. Izmaylov, J. L. Sonnenberg, D. Williams-Young, 
 F. Ding, F. Lipparini, F. Egidi, J. Goings, B. Peng, A. Petrone, 
 T. Henderson, D. Ranasinghe, V. G. Zakrzewski, J. Gao, N. Rega, 
 G. Zheng, W. Liang, M. Hada, M. Ehara, K. Toyota, R. Fukuda, 
 J. Hasegawa, M. Ishida, T. Nakajima, Y. Honda, O. Kitao, H. Nakai, 
 T. Vreven, K. Throssell, J. A. Montgomery, Jr., J. E. Peralta, 
 F. Ogliaro, M. J. Bearpark, J. J. Heyd, E. N. Brothers, K. N. Kudin, 
 V. N. Staroverov, T. A. Keith, R. Kobayashi, J. Normand, 
 K. Raghavachari, A. P. Rendell, J. C. Burant, S. S. Iyengar, 
 J. Tomasi, M. Cossi, J. M. Millam, M. Klene, C. Adamo, R. Cammi, 
 J. W. Ochterski, R. L. Martin, K. Morokuma, O. Farkas, 
 J. B. Foresman, and D. J. Fox, Gaussian, Inc., Wallingford CT, 2016.
 
 ******************************************
 Gaussian 16:  ES64L-G16RevA.03 25-Dec-2016
                22-May-2022 
 ******************************************
 %chk=BH-3.8-RHF-G.chk
 ------------------
 #p RHF/aug-cc-pVQZ
 ------------------
 1/38=1,172=1/1;
 2/12=2,17=6,18=5,40=1/2;
 3/5=16,6=2,7=10,11=1,25=1,30=1,116=1/1,2,3;
 4//1;
 5/5=2,38=5/2;
 6/7=2,8=2,9=2,10=2,28=1/1;
 99/5=1,9=1/99;
 Leave Link    1 at Sun May 22 15:49:21 2022, MaxMem=           0 cpu:               0.0 elap:               0.0
 (Enter /apps/software/g16/l101.exe)
 ----------------------
 BH RHF at 3.8 Angstrom
 ----------------------
 Symbolic Z-matrix:
 Charge =  0 Multiplicity = 1
 B                     0.        0.        0. 
 H                     3.8       0.        0. 
 
 ITRead=  0  0
 MicOpt= -1 -1
 NAtoms=      2 NQM=        2 NQMF=       0 NMMI=      0 NMMIF=      0
                NMic=       0 NMicF=      0.
                    Isotopes and Nuclear Properties:
 (Nuclear quadrupole moments (NQMom) in fm**2, nuclear magnetic moments (NMagM)
  in nuclear magnetons)

  Atom         1           2
 IAtWgt=          11           1
 AtmWgt=  11.0093053   1.0078250
 NucSpn=           3           1
 AtZEff=  -0.0000000  -0.0000000
 NQMom=    4.0590000   0.0000000
 NMagM=    2.6886370   2.7928460
 AtZNuc=   5.0000000   1.0000000
 Leave Link  101 at Sun May 22 15:49:21 2022, MaxMem=   104857600 cpu:               0.1 elap:               0.1
 (Enter /apps/software/g16/l202.exe)
                          Input orientation:                          
 ---------------------------------------------------------------------
 Center     Atomic      Atomic             Coordinates (Angstroms)
 Number     Number       Type             X           Y           Z
 ---------------------------------------------------------------------
      1          5           0        0.000000    0.000000    0.000000
      2          1           0        3.800000    0.000000    0.000000
 ---------------------------------------------------------------------
 Stoichiometry    BH
 Framework group  C*V[C*(HB)]
 Deg. of freedom     1
 Full point group                 C*V     NOp   4
 Largest Abelian subgroup         C2V     NOp   4
 Largest concise Abelian subgroup C1      NOp   1
                         Standard orientation:                         
 ---------------------------------------------------------------------
 Center     Atomic      Atomic             Coordinates (Angstroms)
 Number     Number       Type             X           Y           Z
 ---------------------------------------------------------------------
      1          5           0        0.000000    0.000000    0.633333
      2          1           0        0.000000    0.000000   -3.166667
 ---------------------------------------------------------------------
 Rotational constants (GHZ):           0.0000000          37.9058046          37.9058046
 Leave Link  202 at Sun May 22 15:49:21 2022, MaxMem=   104857600 cpu:               0.0 elap:               0.0
 (Enter /apps/software/g16/l301.exe)
 Standard basis: Aug-CC-pVQZ (5D, 7F)
 Ernie: Thresh=  0.10000D-02 Tol=  0.10000D-05 Strict=F.
 Ernie:  4 primitive shells out of 54 were deleted.
 There are    68 symmetry adapted cartesian basis functions of A1  symmetry.
 There are    18 symmetry adapted cartesian basis functions of A2  symmetry.
 There are    37 symmetry adapted cartesian basis functions of B1  symmetry.
 There are    37 symmetry adapted cartesian basis functions of B2  symmetry.
 There are    50 symmetry adapted basis functions of A1  symmetry.
 There are    16 symmetry adapted basis functions of A2  symmetry.
 There are    30 symmetry adapted basis functions of B1  symmetry.
 There are    30 symmetry adapted basis functions of B2  symmetry.
   126 basis functions,   180 primitive gaussians,   160 cartesian basis functions
     3 alpha electrons        3 beta electrons
       nuclear repulsion energy         0.6962858038 Hartrees.
 IExCor=    0 DFT=F Ex=HF Corr=None ExCW=0 ScaHFX=  1.000000
 ScaDFX=  1.000000  1.000000  1.000000  1.000000 ScalE2=  1.000000  1.000000
 IRadAn=      5 IRanWt=     -1 IRanGd=            0 ICorTp=0 IEmpDi=  4
 NAtoms=    2 NActive=    2 NUniq=    2 SFac= 1.00D+00 NAtFMM=   60 NAOKFM=F Big=F
 Integral buffers will be    131072 words long.
 Raffenetti 1 integral format.
 Two-electron integral symmetry is turned on.
 Leave Link  301 at Sun May 22 15:49:21 2022, MaxMem=   104857600 cpu:               0.1 elap:               0.1
 (Enter /apps/software/g16/l302.exe)
 NPDir=0 NMtPBC=     1 NCelOv=     1 NCel=       1 NClECP=     1 NCelD=      1
         NCelK=      1 NCelE2=     1 NClLst=     1 CellRange=     0.0.
 One-electron integrals computed using PRISM.
 One-electron integral symmetry used in STVInt
 NBasis=   126 RedAO= T EigKep=  1.05D-02  NBF=    50    16    30    30
 NBsUse=   126 1.00D-06 EigRej= -1.00D+00 NBFU=    50    16    30    30
 Leave Link  302 at Sun May 22 15:49:22 2022, MaxMem=   104857600 cpu:               0.1 elap:               0.1
 (Enter /apps/software/g16/l303.exe)
 DipDrv:  MaxL=1.
 Leave Link  303 at Sun May 22 15:49:22 2022, MaxMem=   104857600 cpu:               0.0 elap:               0.0
 (Enter /apps/software/g16/l401.exe)
 ExpMin= 1.88D-02 ExpMax= 2.39D+04 ExpMxC= 2.30D+02 IAcc=3 IRadAn=         5 AccDes= 0.00D+00
 Harris functional with IExCor=  205 and IRadAn=       5 diagonalized for initial guess.
 HarFok:  IExCor=  205 AccDes= 0.00D+00 IRadAn=         5 IDoV= 1 UseB2=F ITyADJ=14
 ICtDFT=  3500011 ScaDFX=  1.000000  1.000000  1.000000  1.000000
 FoFCou: FMM=F IPFlag=           0 FMFlag=      100000 FMFlg1=           0
         NFxFlg=           0 DoJE=T BraDBF=F KetDBF=T FulRan=T
         wScrn=  0.000000 ICntrl=       500 IOpCl=  0 I1Cent=   200000004 NGrid=           0
         NMat0=    1 NMatS0=      1 NMatT0=    0 NMatD0=    1 NMtDS0=    0 NMtDT0=    0
 Petite list used in FoFCou.
 Harris En= -24.9904922858233    
 JPrj=0 DoOrth=F DoCkMO=F.
 Initial guess orbital symmetries:
       Occupied  (SG) (SG) (SG)
       Virtual   (PI) (PI) (SG) (SG) (PI) (PI) (SG) (SG) (PI) (PI)
                 (DLTA) (DLTA) (SG) (PI) (PI) (SG) (PI) (PI) (SG)
                 (SG) (SG) (PI) (PI) (SG) (DLTA) (DLTA) (DLTA)
                 (DLTA) (PHI) (PHI) (PI) (PI) (SG) (DLTA) (DLTA)
                 (PI) (PI) (SG) (PI) (PI) (SG) (PI) (PI) (SG) (SG)
                 (PI) (PI) (DLTA) (DLTA) (SG) (PI) (PI) (DLTA)
                 (DLTA) (PHI) (PHI) (?A) (?A) (SG) (DLTA) (DLTA)
                 (PHI) (PHI) (PI) (PI) (SG) (PHI) (PHI) (SG) (DLTA)
                 (DLTA) (PI) (PI) (SG) (DLTA) (DLTA) (PI) (PI)
                 (PI) (PI) (SG) (SG) (PI) (PI) (SG) (DLTA) (DLTA)
                 (PI) (PI) (SG) (?A) (PHI) (PHI) (?A) (DLTA) (DLTA)
                 (PI) (PI) (SG) (PHI) (PHI) (DLTA) (DLTA) (PI)
                 (PI) (SG) (PHI) (PHI) (DLTA) (DLTA) (PI) (PI)
                 (SG) (SG) (PI) (PI) (SG) (DLTA) (DLTA) (PI) (PI)
                 (SG) (SG)
 The electronic state of the initial guess is 1-SG.
 Leave Link  401 at Sun May 22 15:49:22 2022, MaxMem=   104857600 cpu:               0.2 elap:               0.2
 (Enter /apps/software/g16/l502.exe)
 Keep R1 ints in memory in symmetry-blocked form, NReq=40143665.
 FoFCou: FMM=F IPFlag=           0 FMFlag=           0 FMFlg1=           0
         NFxFlg=           0 DoJE=F BraDBF=F KetDBF=F FulRan=T
         wScrn=  0.000000 ICntrl=       600 IOpCl=  0 I1Cent=           0 NGrid=           0
         NMat0=    1 NMatS0=   8001 NMatT0=    0 NMatD0=    1 NMtDS0=    0 NMtDT0=    0
 Petite list used in FoFCou.
 Closed shell SCF:
 Using DIIS extrapolation, IDIIS=  1040.
 NGot=   104857600 LenX=    96673173 LenY=    96647132
 Requested convergence on RMS density matrix=1.00D-08 within 128 cycles.
 Requested convergence on MAX density matrix=1.00D-06.
 Requested convergence on             energy=1.00D-06.
 No special actions if energy rises.

 Cycle   1  Pass 1  IDiag  1:
 E= -24.7899703127212    
 DIIS: error= 3.62D-02 at cycle   1 NSaved=   1.
 NSaved= 1 IEnMin= 1 EnMin= -24.7899703127212     IErMin= 1 ErrMin= 3.62D-02
 ErrMax= 3.62D-02  0.00D+00 EMaxC= 1.00D-01 BMatC= 6.07D-02 BMatP= 6.07D-02
 IDIUse=3 WtCom= 6.38D-01 WtEn= 3.62D-01
 Coeff-Com:  0.100D+01
 Coeff-En:   0.100D+01
 Coeff:      0.100D+01
 Gap=     0.000 Goal=   None    Shift=    0.000
 GapD=    0.000 DampG=0.250 DampE=0.500 DampFc=0.2500 IDamp=-1.
 Damping current iteration by 2.50D-01
 RMSDP=4.42D-03 MaxDP=1.83D-01              OVMax= 1.14D-01

 Cycle   2  Pass 1  IDiag  1:
 E= -24.8181183202760     Delta-E=       -0.028148007555 Rises=F Damp=T
 DIIS: error= 2.22D-02 at cycle   2 NSaved=   2.
 NSaved= 2 IEnMin= 2 EnMin= -24.8181183202760     IErMin= 2 ErrMin= 2.22D-02
 ErrMax= 2.22D-02  0.00D+00 EMaxC= 1.00D-01 BMatC= 2.43D-02 BMatP= 6.07D-02
 IDIUse=3 WtCom= 7.78D-01 WtEn= 2.22D-01
 Coeff-Com: -0.130D+01 0.230D+01
 Coeff-En:   0.000D+00 0.100D+01
 Coeff:     -0.101D+01 0.201D+01
 Gap=    -0.032 Goal=   None    Shift=    0.000
 RMSDP=1.05D-03 MaxDP=5.29D-02 DE=-2.81D-02 OVMax= 8.01D-01

 Cycle   3  Pass 1  IDiag  1:
 E= -24.8710837604457     Delta-E=       -0.052965440170 Rises=F Damp=F
 DIIS: error= 1.94D-02 at cycle   3 NSaved=   3.
 NSaved= 3 IEnMin= 3 EnMin= -24.8710837604457     IErMin= 3 ErrMin= 1.94D-02
 ErrMax= 1.94D-02  0.00D+00 EMaxC= 1.00D-01 BMatC= 9.50D-03 BMatP= 2.43D-02
 IDIUse=3 WtCom= 8.06D-01 WtEn= 1.94D-01
 Coeff-Com: -0.997D+00 0.133D+01 0.663D+00
 Coeff-En:   0.000D+00 0.000D+00 0.100D+01
 Coeff:     -0.803D+00 0.107D+01 0.728D+00
 Gap=     0.129 Goal=   None    Shift=    0.000
 RMSDP=9.20D-04 MaxDP=3.56D-02 DE=-5.30D-02 OVMax= 1.76D-01

 Cycle   4  Pass 1  IDiag  1:
 E= -24.9067335667881     Delta-E=       -0.035649806342 Rises=F Damp=F
 DIIS: error= 7.36D-03 at cycle   4 NSaved=   4.
 NSaved= 4 IEnMin= 4 EnMin= -24.9067335667881     IErMin= 4 ErrMin= 7.36D-03
 ErrMax= 7.36D-03  0.00D+00 EMaxC= 1.00D-01 BMatC= 1.13D-03 BMatP= 9.50D-03
 IDIUse=3 WtCom= 9.26D-01 WtEn= 7.36D-02
 Coeff-Com: -0.150D-01 0.556D-01-0.479D+00 0.144D+01
 Coeff-En:   0.000D+00 0.000D+00 0.000D+00 0.100D+01
 Coeff:     -0.139D-01 0.515D-01-0.444D+00 0.141D+01
 Gap=     0.179 Goal=   None    Shift=    0.000
 RMSDP=4.34D-04 MaxDP=1.38D-02 DE=-3.56D-02 OVMax= 6.91D-02

 Cycle   5  Pass 1  IDiag  1:
 E= -24.9111369664269     Delta-E=       -0.004403399639 Rises=F Damp=F
 DIIS: error= 9.01D-04 at cycle   5 NSaved=   5.
 NSaved= 5 IEnMin= 5 EnMin= -24.9111369664269     IErMin= 5 ErrMin= 9.01D-04
 ErrMax= 9.01D-04  0.00D+00 EMaxC= 1.00D-01 BMatC= 2.67D-05 BMatP= 1.13D-03
 IDIUse=3 WtCom= 9.91D-01 WtEn= 9.01D-03
 Coeff-Com: -0.111D+00 0.137D+00 0.236D+00-0.560D+00 0.130D+01
 Coeff-En:   0.000D+00 0.000D+00 0.000D+00 0.000D+00 0.100D+01
 Coeff:     -0.110D+00 0.136D+00 0.234D+00-0.554D+00 0.130D+01
 Gap=     0.175 Goal=   None    Shift=    0.000
 RMSDP=9.24D-05 MaxDP=2.81D-03 DE=-4.40D-03 OVMax= 1.45D-02

 Cycle   6  Pass 1  IDiag  1:
 E= -24.9111221126966     Delta-E=        0.000014853730 Rises=F Damp=F
 DIIS: error= 1.35D-03 at cycle   6 NSaved=   6.
 NSaved= 6 IEnMin= 5 EnMin= -24.9111369664269     IErMin= 5 ErrMin= 9.01D-04
 ErrMax= 1.35D-03  0.00D+00 EMaxC= 1.00D-01 BMatC= 4.36D-05 BMatP= 2.67D-05
 IDIUse=3 WtCom= 9.91D-01 WtEn= 9.01D-03
 Rare condition: small coef for last iteration:  0.000D+00
 Coeff-Com: -0.209D-01 0.267D-01 0.298D-01-0.270D+00 0.148D+00 0.109D+01
 Coeff-En:   0.000D+00 0.000D+00 0.000D+00 0.000D+00 0.000D+00 0.100D+01
 Coeff:     -0.209D-01 0.267D-01 0.298D-01-0.270D+00 0.148D+00 0.109D+01
 Gap=     0.180 Goal=   None    Shift=    0.000
 RMSDP=8.38D-05 MaxDP=2.20D-03 DE= 1.49D-05 OVMax= 1.10D-02

 Cycle   7  Pass 1  IDiag  1:
 E= -24.9112755825180     Delta-E=       -0.000153469821 Rises=F Damp=F
 DIIS: error= 2.24D-04 at cycle   7 NSaved=   7.
 NSaved= 7 IEnMin= 7 EnMin= -24.9112755825180     IErMin= 7 ErrMin= 2.24D-04
 ErrMax= 2.24D-04  0.00D+00 EMaxC= 1.00D-01 BMatC= 1.65D-06 BMatP= 2.67D-05
 IDIUse=3 WtCom= 9.98D-01 WtEn= 2.24D-03
 Coeff-Com: -0.137D-02 0.205D-02-0.178D-02 0.449D-01 0.483D-01-0.475D+00
 Coeff-Com:  0.138D+01
 Coeff-En:   0.000D+00 0.000D+00 0.000D+00 0.000D+00 0.000D+00 0.000D+00
 Coeff-En:   0.100D+01
 Coeff:     -0.137D-02 0.205D-02-0.178D-02 0.448D-01 0.482D-01-0.474D+00
 Coeff:      0.138D+01
 Gap=     0.180 Goal=   None    Shift=    0.000
 RMSDP=1.63D-05 MaxDP=4.57D-04 DE=-1.53D-04 OVMax= 2.27D-03

 Cycle   8  Pass 1  IDiag  1:
 E= -24.9112810584075     Delta-E=       -0.000005475890 Rises=F Damp=F
 DIIS: error= 2.30D-05 at cycle   8 NSaved=   8.
 NSaved= 8 IEnMin= 8 EnMin= -24.9112810584075     IErMin= 8 ErrMin= 2.30D-05
 ErrMax= 2.30D-05  0.00D+00 EMaxC= 1.00D-01 BMatC= 1.49D-08 BMatP= 1.65D-06
 IDIUse=1 WtCom= 1.00D+00 WtEn= 0.00D+00
 Coeff-Com:  0.300D-03-0.415D-03-0.286D-03 0.986D-03-0.130D-01 0.289D-01
 Coeff-Com: -0.247D+00 0.123D+01
 Coeff:      0.300D-03-0.415D-03-0.286D-03 0.986D-03-0.130D-01 0.289D-01
 Coeff:     -0.247D+00 0.123D+01
 Gap=     0.180 Goal=   None    Shift=    0.000
 RMSDP=2.99D-06 MaxDP=1.19D-04 DE=-5.48D-06 OVMax= 3.02D-04

 Cycle   9  Pass 1  IDiag  1:
 E= -24.9112811189367     Delta-E=       -0.000000060529 Rises=F Damp=F
 DIIS: error= 4.69D-06 at cycle   9 NSaved=   9.
 NSaved= 9 IEnMin= 9 EnMin= -24.9112811189367     IErMin= 9 ErrMin= 4.69D-06
 ErrMax= 4.69D-06  0.00D+00 EMaxC= 1.00D-01 BMatC= 4.28D-10 BMatP= 1.49D-08
 IDIUse=1 WtCom= 1.00D+00 WtEn= 0.00D+00
 Coeff-Com: -0.105D-03 0.135D-03 0.113D-03-0.221D-02 0.163D-02 0.151D-01
 Coeff-Com:  0.204D-01-0.351D+00 0.132D+01
 Coeff:     -0.105D-03 0.135D-03 0.113D-03-0.221D-02 0.163D-02 0.151D-01
 Coeff:      0.204D-01-0.351D+00 0.132D+01
 Gap=     0.180 Goal=   None    Shift=    0.000
 RMSDP=4.60D-07 MaxDP=1.10D-05 DE=-6.05D-08 OVMax= 7.31D-05

 Cycle  10  Pass 1  IDiag  1:
 E= -24.9112811210383     Delta-E=       -0.000000002102 Rises=F Damp=F
 DIIS: error= 1.51D-06 at cycle  10 NSaved=  10.
 NSaved=10 IEnMin=10 EnMin= -24.9112811210383     IErMin=10 ErrMin= 1.51D-06
 ErrMax= 1.51D-06  0.00D+00 EMaxC= 1.00D-01 BMatC= 8.18D-11 BMatP= 4.28D-10
 IDIUse=1 WtCom= 1.00D+00 WtEn= 0.00D+00
 Coeff-Com: -0.162D-04 0.225D-04-0.179D-05 0.280D-03-0.192D-03-0.343D-02
 Coeff-Com: -0.143D-01 0.114D+00-0.498D+00 0.140D+01
 Coeff:     -0.162D-04 0.225D-04-0.179D-05 0.280D-03-0.192D-03-0.343D-02
 Coeff:     -0.143D-01 0.114D+00-0.498D+00 0.140D+01
 Gap=     0.180 Goal=   None    Shift=    0.000
 RMSDP=1.62D-07 MaxDP=5.47D-06 DE=-2.10D-09 OVMax= 1.70D-05

 Cycle  11  Pass 1  IDiag  1:
 E= -24.9112811213199     Delta-E=       -0.000000000282 Rises=F Damp=F
 DIIS: error= 2.14D-07 at cycle  11 NSaved=  11.
 NSaved=11 IEnMin=11 EnMin= -24.9112811213199     IErMin=11 ErrMin= 2.14D-07
 ErrMax= 2.14D-07  0.00D+00 EMaxC= 1.00D-01 BMatC= 1.51D-12 BMatP= 8.18D-11
 IDIUse=1 WtCom= 1.00D+00 WtEn= 0.00D+00
 Coeff-Com: -0.179D-05 0.208D-05 0.275D-05-0.480D-04 0.111D-03 0.365D-03
 Coeff-Com:  0.316D-02-0.202D-01 0.897D-01-0.350D+00 0.128D+01
 Coeff:     -0.179D-05 0.208D-05 0.275D-05-0.480D-04 0.111D-03 0.365D-03
 Coeff:      0.316D-02-0.202D-01 0.897D-01-0.350D+00 0.128D+01
 Gap=     0.180 Goal=   None    Shift=    0.000
 RMSDP=1.88D-08 MaxDP=6.44D-07 DE=-2.82D-10 OVMax= 1.91D-06

 Cycle  12  Pass 1  IDiag  1:
 E= -24.9112811213244     Delta-E=       -0.000000000005 Rises=F Damp=F
 DIIS: error= 2.53D-08 at cycle  12 NSaved=  12.
 NSaved=12 IEnMin=12 EnMin= -24.9112811213244     IErMin=12 ErrMin= 2.53D-08
 ErrMax= 2.53D-08  0.00D+00 EMaxC= 1.00D-01 BMatC= 2.36D-14 BMatP= 1.51D-12
 IDIUse=1 WtCom= 1.00D+00 WtEn= 0.00D+00
 Coeff-Com: -0.136D-06 0.218D-06-0.162D-06 0.284D-05-0.296D-04-0.201D-04
 Coeff-Com: -0.105D-02 0.547D-02-0.220D-01 0.906D-01-0.401D+00 0.133D+01
 Coeff:     -0.136D-06 0.218D-06-0.162D-06 0.284D-05-0.296D-04-0.201D-04
 Coeff:     -0.105D-02 0.547D-02-0.220D-01 0.906D-01-0.401D+00 0.133D+01
 Gap=     0.180 Goal=   None    Shift=    0.000
 RMSDP=2.66D-09 MaxDP=9.97D-08 DE=-4.57D-12 OVMax= 2.42D-07

 SCF Done:  E(RHF) =  -24.9112811213     A.U. after   12 cycles
            NFock= 12  Conv=0.27D-08     -V/T= 2.0065
 KE= 2.475065904205D+01 PE=-5.847990023937D+01 EE= 8.121674272153D+00
 Leave Link  502 at Sun May 22 15:49:25 2022, MaxMem=   104857600 cpu:               3.6 elap:               3.6
 (Enter /apps/software/g16/l601.exe)
 Copying SCF densities to generalized density rwf, IOpCl= 0 IROHF=0.

 **********************************************************************

            Population analysis using the SCF density.

 **********************************************************************

 Orbital symmetries:
       Occupied  (SG) (SG) (SG)
       Virtual   (SG) (PI) (PI) (SG) (PI) (PI) (SG) (SG) (DLTA)
                 (DLTA) (PI) (PI) (SG) (PI) (PI) (SG) (PI) (PI)
                 (SG) (SG) (PHI) (PHI) (DLTA) (DLTA) (DLTA) (DLTA)
                 (PI) (PI) (SG) (PI) (PI) (SG) (SG) (DLTA) (DLTA)
                 (PI) (PI) (SG) (PI) (PI) (PI) (PI) (SG) (SG) (SG)
                 (?A) (?A) (DLTA) (DLTA) (PHI) (PHI) (PI) (PI)
                 (DLTA) (DLTA) (PI) (PI) (SG) (PHI) (PHI) (DLTA)
                 (DLTA) (SG) (PI) (PI) (SG) (PHI) (PHI) (DLTA)
                 (DLTA) (PI) (PI) (SG) (SG) (DLTA) (DLTA) (PI)
                 (PI) (PI) (PI) (SG) (SG) (PI) (PI) (SG) (?A) (?A)
                 (DLTA) (DLTA) (PHI) (PHI) (DLTA) (DLTA) (PI) (PI)
                 (SG) (PI) (PI) (SG) (PHI) (PHI) (DLTA) (DLTA)
                 (PI) (PI) (SG) (PHI) (PHI) (DLTA) (DLTA) (PI)
                 (PI) (SG) (SG) (PI) (PI) (SG) (DLTA) (DLTA) (PI)
                 (PI) (SG) (SG)
 The electronic state is 1-SG.
 Alpha  occ. eigenvalues --   -7.88455  -0.61478  -0.24362
 Alpha virt. eigenvalues --   -0.06314  -0.04102  -0.04102   0.02524   0.04479
 Alpha virt. eigenvalues --    0.04479   0.06535   0.09395   0.12267   0.12267
 Alpha virt. eigenvalues --    0.13018   0.13018   0.15977   0.24435   0.24435
 Alpha virt. eigenvalues --    0.25357   0.26180   0.26180   0.29335   0.34169
 Alpha virt. eigenvalues --    0.42103   0.42103   0.42797   0.42797   0.44042
 Alpha virt. eigenvalues --    0.44042   0.44625   0.44625   0.44768   0.46330
 Alpha virt. eigenvalues --    0.46330   0.48179   0.57302   0.69514   0.69514
 Alpha virt. eigenvalues --    0.75664   0.75664   0.85051   0.87764   0.87764
 Alpha virt. eigenvalues --    0.94982   0.94982   0.97097   0.98832   1.29568
 Alpha virt. eigenvalues --    1.30118   1.30118   1.30813   1.30813   1.31128
 Alpha virt. eigenvalues --    1.31128   1.31848   1.31848   1.31871   1.31871
 Alpha virt. eigenvalues --    1.33062   1.33062   1.33122   1.35434   1.35434
 Alpha virt. eigenvalues --    1.36690   1.36690   1.38646   1.40293   1.40293
 Alpha virt. eigenvalues --    1.51298   1.64579   1.64579   1.65582   1.65582
 Alpha virt. eigenvalues --    1.71598   1.71598   1.72802   1.87071   2.55982
 Alpha virt. eigenvalues --    2.55982   2.60378   2.60378   2.69086   2.69086
 Alpha virt. eigenvalues --    2.70722   2.77600   3.58770   3.58770   3.62878
 Alpha virt. eigenvalues --    3.80740   3.80740   3.81514   3.81514   3.81847
 Alpha virt. eigenvalues --    3.81847   3.82768   3.82768   3.83014   3.83014
 Alpha virt. eigenvalues --    3.83888   3.84949   3.84949   3.95091   3.95745
 Alpha virt. eigenvalues --    3.95745   3.97131   3.97131   3.99884   3.99884
 Alpha virt. eigenvalues --    4.05068   6.65530   6.65530   6.65799   6.65799
 Alpha virt. eigenvalues --    6.67229   6.67229   6.69714   7.56666   8.04958
 Alpha virt. eigenvalues --    8.04958   8.09558   8.49423   8.49423   8.52450
 Alpha virt. eigenvalues --    8.52450   8.60872  12.91483
          Condensed to atoms (all electrons):
               1          2
     1  B    4.479528   0.143528
     2  H    0.143528   1.233416
 Mulliken charges:
               1
     1  B    0.376944
     2  H   -0.376944
 Sum of Mulliken charges =  -0.00000
 Mulliken charges with hydrogens summed into heavy atoms:
               1
     1  B   -0.000000
 Electronic spatial extent (au):  <R**2>=             76.4739
 Charge=             -0.0000 electrons
 Dipole moment (field-independent basis, Debye):
    X=              0.0000    Y=              0.0000    Z=              7.5888  Tot=              7.5888
 Quadrupole moment (field-independent basis, Debye-Ang):
   XX=             -9.0587   YY=             -9.0587   ZZ=            -26.9440
   XY=              0.0000   XZ=              0.0000   YZ=              0.0000
 Traceless Quadrupole moment (field-independent basis, Debye-Ang):
   XX=              5.9617   YY=              5.9617   ZZ=            -11.9235
   XY=              0.0000   XZ=              0.0000   YZ=              0.0000
 Octapole moment (field-independent basis, Debye-Ang**2):
  XXX=              0.0000  YYY=              0.0000  ZZZ=             66.9859  XYY=              0.0000
  XXY=              0.0000  XXZ=              8.6283  XZZ=              0.0000  YZZ=              0.0000
  YYZ=              8.6283  XYZ=              0.0000
 Hexadecapole moment (field-independent basis, Debye-Ang**3):
 XXXX=            -19.5724 YYYY=            -19.5724 ZZZZ=           -368.1128 XXXY=              0.0000
 XXXZ=              0.0000 YYYX=              0.0000 YYYZ=              0.0000 ZZZX=              0.0000
 ZZZY=              0.0000 XXYY=             -6.5241 XXZZ=            -43.4783 YYZZ=            -43.4783
 XXYZ=              0.0000 YYXZ=              0.0000 ZZXY=              0.0000
 N-N= 6.962858038421D-01 E-N=-5.847990078017D+01  KE= 2.475065904205D+01
 Symmetry A1   KE= 2.475065904205D+01
 Symmetry A2   KE= 1.688255043118D-53
 Symmetry B1   KE= 0.000000000000D+00
 Symmetry B2   KE= 0.000000000000D+00
 No NMR shielding tensors so no spin-rotation constants.
 Leave Link  601 at Sun May 22 15:49:26 2022, MaxMem=   104857600 cpu:               0.1 elap:               0.1
 (Enter /apps/software/g16/l9999.exe)
 1\1\GINC-CNODE13\SP\RHF\Aug-CC-pVQZ\B1H1\LCZ\22-May-2022\0\\#p RHF/aug
 -cc-pVQZ\\BH RHF at 3.8 Angstrom\\0,1\B,0,0.,0.,0.\H,0,3.8,0.,0.\\Vers
 ion=ES64L-G16RevA.03\State=1-SG\HF=-24.9112811\RMSD=2.658e-09\Dipole=-
 2.9856545,0.,0.\Quadrupole=-8.8648221,4.4324111,4.4324111,0.,0.,0.\PG=
 C*V [C*(H1B1)]\\@


 A successful marriage requires falling in love
 many times, always with the same person.
                           -- Mignon McLaughlin
 Job cpu time:       0 days  0 hours  0 minutes  4.3 seconds.
 Elapsed time:       0 days  0 hours  0 minutes  4.3 seconds.
 File lengths (MBytes):  RWF=     10 Int=      0 D2E=      0 Chk=      3 Scr=      1
 Normal termination of Gaussian 16 at Sun May 22 15:49:26 2022.

Sender: Unischeduler System <lcz@mgt01>
Subject: Job 134029: <#!/bin/bash
#BSUB -J intel
#BSUB -o BH-3.8-RHF-G.out
#BSUB -n 8
#BSUB -q cqueue
#BSUB -R span[hosts=1]
export g16root=/apps/software
source /apps/software/g16/bsd/g16.profile
export GAUSS_SCRDIR=/scratch
/apps/software/g16/g16 < BH-3.8-RHF-G.inp > BH-3.8-RHF-G.out> Done

Job <#!/bin/bash
#BSUB -J intel
#BSUB -o BH-3.8-RHF-G.out
#BSUB -n 8
#BSUB -q cqueue
#BSUB -R span[hosts=1]
export g16root=/apps/software
source /apps/software/g16/bsd/g16.profile
export GAUSS_SCRDIR=/scratch
/apps/software/g16/g16 < BH-3.8-RHF-G.inp > BH-3.8-RHF-G.out> was submitted from host <mgt01> by user <lcz>.
Job was executed on host(s) <8*cnode13>, in queue <cqueue>, as user <lcz>.
</apps/users/lcz> was used as the home directory.
</apps/users/lcz/exe13/CCSD> was used as the working directory.
Started at 2022-05-22 15:49:21
Results reported at 2022-05-22 15:49:26

Your job looked like:

------------------------------------------------------------
# User input
#!/bin/bash
#BSUB -J intel
#BSUB -o BH-3.8-RHF-G.out
#BSUB -n 8
#BSUB -q cqueue
#BSUB -R span[hosts=1]
export g16root=/apps/software
source /apps/software/g16/bsd/g16.profile
export GAUSS_SCRDIR=/scratch
/apps/software/g16/g16 < BH-3.8-RHF-G.inp > BH-3.8-RHF-G.out
------------------------------------------------------------

Successfully completed.

Resource usage summary:

    CPU time   :            0.24 sec.
    Max Memory :               170 MB
    Max Processes  :               5


The output (if any) follows:

