 Entering Gaussian System, Link 0=/apps/software/g16/g16
 Initial command:
 /apps/software/g16/l1.exe "/scratch/Gau-254911.inp" -scrdir="/scratch/"
 Entering Link 1 = /apps/software/g16/l1.exe PID=    254912.
  
 Copyright (c) 1988,1990,1992,1993,1995,1998,2003,2009,2016,
            Gaussian, Inc.  All Rights Reserved.
  
 This is part of the Gaussian(R) 16 program.  It is based on
 the Gaussian(R) 09 system (copyright 2009, Gaussian, Inc.),
 the Gaussian(R) 03 system (copyright 2003, Gaussian, Inc.),
 the Gaussian(R) 98 system (copyright 1998, Gaussian, Inc.),
 the Gaussian(R) 94 system (copyright 1995, Gaussian, Inc.),
 the Gaussian 92(TM) system (copyright 1992, Gaussian, Inc.),
 the Gaussian 90(TM) system (copyright 1990, Gaussian, Inc.),
 the Gaussian 88(TM) system (copyright 1988, Gaussian, Inc.),
 the Gaussian 86(TM) system (copyright 1986, Carnegie Mellon
 University), and the Gaussian 82(TM) system (copyright 1983,
 Carnegie Mellon University). Gaussian is a federally registered
 trademark of Gaussian, Inc.
  
 This software contains proprietary and confidential information,
 including trade secrets, belonging to Gaussian, Inc.
  
 This software is provided under written license and may be
 used, copied, transmitted, or stored only in accord with that
 written license.
  
 The following legend is applicable only to US Government
 contracts under FAR:
  
                    RESTRICTED RIGHTS LEGEND
  
 Use, reproduction and disclosure by the US Government is
 subject to restrictions as set forth in subparagraphs (a)
 and (c) of the Commercial Computer Software - Restricted
 Rights clause in FAR 52.227-19.
  
 Gaussian, Inc.
 340 Quinnipiac St., Bldg. 40, Wallingford CT 06492
  
  
 ---------------------------------------------------------------
 Warning -- This program may not be used in any manner that
 competes with the business of Gaussian, Inc. or will provide
 assistance to any competitor of Gaussian, Inc.  The licensee
 of this program is prohibited from giving any competitor of
 Gaussian, Inc. access to this program.  By using this program,
 the user acknowledges that Gaussian, Inc. is engaged in the
 business of creating and licensing software in the field of
 computational chemistry and represents and warrants to the
 licensee that it is not a competitor of Gaussian, Inc. and that
 it will not use this program in any manner prohibited above.
 ---------------------------------------------------------------
  

 Cite this work as:
 Gaussian 16, Revision A.03,
 M. J. Frisch, G. W. Trucks, H. B. Schlegel, G. E. Scuseria, 
 M. A. Robb, J. R. Cheeseman, G. Scalmani, V. Barone, 
 G. A. Petersson, H. Nakatsuji, X. Li, M. Caricato, A. V. Marenich, 
 J. Bloino, B. G. Janesko, R. Gomperts, B. Mennucci, H. P. Hratchian, 
 J. V. Ortiz, A. F. Izmaylov, J. L. Sonnenberg, D. Williams-Young, 
 F. Ding, F. Lipparini, F. Egidi, J. Goings, B. Peng, A. Petrone, 
 T. Henderson, D. Ranasinghe, V. G. Zakrzewski, J. Gao, N. Rega, 
 G. Zheng, W. Liang, M. Hada, M. Ehara, K. Toyota, R. Fukuda, 
 J. Hasegawa, M. Ishida, T. Nakajima, Y. Honda, O. Kitao, H. Nakai, 
 T. Vreven, K. Throssell, J. A. Montgomery, Jr., J. E. Peralta, 
 F. Ogliaro, M. J. Bearpark, J. J. Heyd, E. N. Brothers, K. N. Kudin, 
 V. N. Staroverov, T. A. Keith, R. Kobayashi, J. Normand, 
 K. Raghavachari, A. P. Rendell, J. C. Burant, S. S. Iyengar, 
 J. Tomasi, M. Cossi, J. M. Millam, M. Klene, C. Adamo, R. Cammi, 
 J. W. Ochterski, R. L. Martin, K. Morokuma, O. Farkas, 
 J. B. Foresman, and D. J. Fox, Gaussian, Inc., Wallingford CT, 2016.
 
 ******************************************
 Gaussian 16:  ES64L-G16RevA.03 25-Dec-2016
                22-May-2022 
 ******************************************
 %oldchk=BH-4.8-RHF-G.chk
 %chk=BH-4.8-CCSD-G.chk
 Copying data from "BH-4.8-RHF-G.chk" to current chk file "BH-4.8-CCSD-G.chk"
 IOpt=  2 FromEx=T IUOpen= 4 IOptOp= 5 NList=   0 IFRang= 0 IUIn= 4 IUOut= 2.
 -------------------------------------
 #p RHF/aug-cc-pVQZ guess=read CCSD=FC
 -------------------------------------
 1/38=1,172=1/1;
 2/12=2,17=6,18=5,40=1/2;
 3/5=16,6=2,7=10,11=1,25=1,30=1,116=1/1,2,3;
 4/5=1/1;
 5/5=2,38=6/2;
 8/6=4,9=120000,10=1/1,4;
 9/5=7/13;
 6/7=2,8=2,9=2,10=2/1;
 99/5=1,9=1/99;
 Leave Link    1 at Sun May 22 15:52:41 2022, MaxMem=   104857600 cpu:               0.0 elap:               0.0
 (Enter /apps/software/g16/l101.exe)
 ----------------------
 BH RHF at 4.8 Angstrom
 ----------------------
 Symbolic Z-matrix:
 Charge =  0 Multiplicity = 1
 B                     0.        0.        0. 
 H                     4.8       0.        0. 
 
 ITRead=  0  0
 MicOpt= -1 -1
 NAtoms=      2 NQM=        2 NQMF=       0 NMMI=      0 NMMIF=      0
                NMic=       0 NMicF=      0.
                    Isotopes and Nuclear Properties:
 (Nuclear quadrupole moments (NQMom) in fm**2, nuclear magnetic moments (NMagM)
  in nuclear magnetons)

  Atom         1           2
 IAtWgt=          11           1
 AtmWgt=  11.0093053   1.0078250
 NucSpn=           3           1
 AtZEff=  -0.0000000  -0.0000000
 NQMom=    4.0590000   0.0000000
 NMagM=    2.6886370   2.7928460
 AtZNuc=   5.0000000   1.0000000
 Leave Link  101 at Sun May 22 15:52:41 2022, MaxMem=   104857600 cpu:               0.1 elap:               0.1
 (Enter /apps/software/g16/l202.exe)
                          Input orientation:                          
 ---------------------------------------------------------------------
 Center     Atomic      Atomic             Coordinates (Angstroms)
 Number     Number       Type             X           Y           Z
 ---------------------------------------------------------------------
      1          5           0        0.000000    0.000000    0.000000
      2          1           0        4.800000    0.000000    0.000000
 ---------------------------------------------------------------------
 Stoichiometry    BH
 Framework group  C*V[C*(HB)]
 Deg. of freedom     1
 Full point group                 C*V     NOp   4
 Largest Abelian subgroup         C2V     NOp   4
 Largest concise Abelian subgroup C1      NOp   1
                         Standard orientation:                         
 ---------------------------------------------------------------------
 Center     Atomic      Atomic             Coordinates (Angstroms)
 Number     Number       Type             X           Y           Z
 ---------------------------------------------------------------------
      1          5           0        0.000000    0.000000    0.800000
      2          1           0        0.000000    0.000000   -4.000000
 ---------------------------------------------------------------------
 Rotational constants (GHZ):           0.0000000          23.7569366          23.7569366
 Leave Link  202 at Sun May 22 15:52:42 2022, MaxMem=   104857600 cpu:               0.0 elap:               0.0
 (Enter /apps/software/g16/l301.exe)
 Standard basis: Aug-CC-pVQZ (5D, 7F)
 Ernie: Thresh=  0.10000D-02 Tol=  0.10000D-05 Strict=F.
 Ernie:  4 primitive shells out of 54 were deleted.
 There are    68 symmetry adapted cartesian basis functions of A1  symmetry.
 There are    18 symmetry adapted cartesian basis functions of A2  symmetry.
 There are    37 symmetry adapted cartesian basis functions of B1  symmetry.
 There are    37 symmetry adapted cartesian basis functions of B2  symmetry.
 There are    50 symmetry adapted basis functions of A1  symmetry.
 There are    16 symmetry adapted basis functions of A2  symmetry.
 There are    30 symmetry adapted basis functions of B1  symmetry.
 There are    30 symmetry adapted basis functions of B2  symmetry.
   126 basis functions,   180 primitive gaussians,   160 cartesian basis functions
     3 alpha electrons        3 beta electrons
       nuclear repulsion energy         0.5512262614 Hartrees.
 IExCor=    0 DFT=F Ex=HF Corr=None ExCW=0 ScaHFX=  1.000000
 ScaDFX=  1.000000  1.000000  1.000000  1.000000 ScalE2=  1.000000  1.000000
 IRadAn=      5 IRanWt=     -1 IRanGd=            0 ICorTp=0 IEmpDi=  4
 NAtoms=    2 NActive=    2 NUniq=    2 SFac= 1.00D+00 NAtFMM=   60 NAOKFM=F Big=F
 Integral buffers will be    131072 words long.
 Raffenetti 1 integral format.
 Two-electron integral symmetry is turned on.
 Leave Link  301 at Sun May 22 15:52:42 2022, MaxMem=   104857600 cpu:               0.1 elap:               0.1
 (Enter /apps/software/g16/l302.exe)
 NPDir=0 NMtPBC=     1 NCelOv=     1 NCel=       1 NClECP=     1 NCelD=      1
         NCelK=      1 NCelE2=     1 NClLst=     1 CellRange=     0.0.
 One-electron integrals computed using PRISM.
 One-electron integral symmetry used in STVInt
 NBasis=   126 RedAO= T EigKep=  1.20D-02  NBF=    50    16    30    30
 NBsUse=   126 1.00D-06 EigRej= -1.00D+00 NBFU=    50    16    30    30
 Leave Link  302 at Sun May 22 15:52:42 2022, MaxMem=   104857600 cpu:               0.1 elap:               0.1
 (Enter /apps/software/g16/l303.exe)
 DipDrv:  MaxL=1.
 Leave Link  303 at Sun May 22 15:52:42 2022, MaxMem=   104857600 cpu:               0.0 elap:               0.0
 (Enter /apps/software/g16/l401.exe)
 Initial guess from the checkpoint file:  "BH-4.8-CCSD-G.chk"
 B after Tr=     0.000000    0.000000    0.000000
         Rot=    1.000000    0.000000    0.000000    0.000000 Ang=   0.00 deg.
 Guess basis will be translated and rotated to current coordinates.
 JPrj=2 DoOrth=T DoCkMO=T.
 Initial guess orbital symmetries:
       Occupied  (SG) (SG) (SG)
       Virtual   (SG) (PI) (PI) (SG) (PI) (PI) (SG) (SG) (DLTA)
                 (DLTA) (PI) (PI) (SG) (SG) (PI) (PI) (PI) (PI)
                 (SG) (SG) (PHI) (PHI) (DLTA) (DLTA) (SG) (DLTA)
                 (DLTA) (PI) (PI) (PI) (PI) (SG) (SG) (DLTA) (DLTA)
                 (PI) (PI) (SG) (PI) (PI) (SG) (PI) (PI) (SG) (SG)
                 (?A) (?A) (DLTA) (DLTA) (PHI) (PHI) (DLTA) (DLTA)
                 (PI) (PI) (PI) (PI) (SG) (SG) (PHI) (PHI) (DLTA)
                 (DLTA) (PI) (PI) (SG) (PHI) (PHI) (DLTA) (DLTA)
                 (PI) (PI) (SG) (SG) (DLTA) (DLTA) (PI) (PI) (SG)
                 (PI) (PI) (SG) (PI) (PI) (SG) (?A) (?A) (DLTA)
                 (DLTA) (PHI) (PHI) (DLTA) (DLTA) (PI) (PI) (PI)
                 (PI) (SG) (SG) (PHI) (PHI) (DLTA) (DLTA) (PI)
                 (PI) (SG) (PHI) (PHI) (DLTA) (DLTA) (PI) (PI)
                 (SG) (SG) (PI) (PI) (SG) (DLTA) (DLTA) (PI) (PI)
                 (SG) (SG)
 The electronic state of the initial guess is 1-SG.
 Leave Link  401 at Sun May 22 15:52:42 2022, MaxMem=   104857600 cpu:               0.1 elap:               0.1
 (Enter /apps/software/g16/l502.exe)
 Keep R1 ints in memory in symmetry-blocked form, NReq=40143665.
 FoFCou: FMM=F IPFlag=           0 FMFlag=           0 FMFlg1=           0
         NFxFlg=           0 DoJE=F BraDBF=F KetDBF=F FulRan=T
         wScrn=  0.000000 ICntrl=       600 IOpCl=  0 I1Cent=           0 NGrid=           0
         NMat0=    1 NMatS0=   8001 NMatT0=    0 NMatD0=    1 NMtDS0=    0 NMtDT0=    0
 Petite list used in FoFCou.
 Closed shell SCF:
 Using DIIS extrapolation, IDIIS=  1040.
 NGot=   104857600 LenX=    96673173 LenY=    96647132
 Requested convergence on RMS density matrix=1.00D-08 within 128 cycles.
 Requested convergence on MAX density matrix=1.00D-06.
 Requested convergence on             energy=1.00D-06.
 No special actions if energy rises.

 Cycle   1  Pass 1  IDiag  1:
 E= -24.8793048488845    
 DIIS: error= 8.30D-09 at cycle   1 NSaved=   1.
 NSaved= 1 IEnMin= 1 EnMin= -24.8793048488845     IErMin= 1 ErrMin= 8.30D-09
 ErrMax= 8.30D-09  0.00D+00 EMaxC= 1.00D-01 BMatC= 1.37D-15 BMatP= 1.37D-15
 IDIUse=1 WtCom= 1.00D+00 WtEn= 0.00D+00
 Coeff-Com:  0.100D+01
 Coeff:      0.100D+01
 Gap=     0.129 Goal=   None    Shift=    0.000
 RMSDP=8.54D-10 MaxDP=2.96D-08              OVMax= 1.69D-07

 SCF Done:  E(RHF) =  -24.8793048489     A.U. after    1 cycles
            NFock=  1  Conv=0.85D-09     -V/T= 2.0045
 KE= 2.476777663931D+01 PE=-5.813832979389D+01 EE= 7.940022044316D+00
 Leave Link  502 at Sun May 22 15:52:45 2022, MaxMem=   104857600 cpu:               3.3 elap:               3.3
 (Enter /apps/software/g16/l801.exe)
 Windowed orbitals will be sorted by symmetry type.
 ExpMin= 1.88D-02 ExpMax= 2.39D+04 ExpMxC= 2.30D+02 IAcc=3 IRadAn=         5 AccDes= 0.00D+00
 HarFok:  IExCor=  205 AccDes= 0.00D+00 IRadAn=         5 IDoV=-2 UseB2=F ITyADJ=14
 ICtDFT= 12500011 ScaDFX=  1.000000  1.000000  1.000000  1.000000
 Largest valence mixing into a core orbital is  4.01D-04
 Largest core mixing into a valence orbital is  1.73D-04
 Range of M.O.s used for correlation:     2   126
 NBasis=   126 NAE=     3 NBE=     3 NFC=     1 NFV=     0
 NROrb=    125 NOA=     2 NOB=     2 NVA=   123 NVB=   123
 Leave Link  801 at Sun May 22 15:52:45 2022, MaxMem=   104857600 cpu:               0.1 elap:               0.1
 (Enter /apps/software/g16/l804.exe)
 Closed-shell transformation, MDV=   104857600 ITran=4 ISComp=2.
 Unit  1 TFree=        535169 TCopy=        350885.
 Semi-Direct transformation.
 ModeAB=           4 MOrb=             2 LenV=     104244545
 LASXX=       493564 LTotXX=      493564 LenRXX=     1003397
 LTotAB=      509833 MaxLAS=     3152250 LenRXY=           0
 NonZer=     1496961 LenScr=     2992128 LnRSAI=     3152250
 LnScr1=     5501440 LExtra=           0 Total=     12649215
 MaxDsk=          -1 SrtSym=           T ITran=            4
 DoSDTr:  NPSUse=  1
 JobTyp=0 Pass  1:  I=   1 to   2.
 (rs|ai) integrals will be sorted in core.
 Complete sort for first half transformation.
 First half transformation complete.
 Complete sort for second half transformation.
 Second half transformation complete.
 Spin components of T(2) and E(2):
     alpha-alpha T2 =       0.1726303121D-02 E2=     -0.2265053650D-02
     alpha-beta  T2 =       0.2847858901D+00 E2=     -0.1317922179D+00
     beta-beta   T2 =       0.1726303121D-02 E2=     -0.2265053650D-02
 ANorm=    0.1135005946D+01
 E2 =    -0.1363223252D+00 EUMP2 =    -0.25015627174055D+02
 Leave Link  804 at Sun May 22 15:52:50 2022, MaxMem=   104857600 cpu:               4.5 elap:               4.6
 (Enter /apps/software/g16/l913.exe)
 CIDS:  MDV=   104857600.
 Frozen-core window:  NFC=   1 NFV=   0.
 IFCWin=0 IBDFC=1 NFBD=     0     0 NFCmp=     0     0 NFFFC=     0     0
 Using DD3R+UMP44R for 1st iteration.
 Using DD4RQ for 2nd and later iterations.
 Keep R2 and R3 ints in memory in symmetry-blocked form, NReq=40146875.
 FoFCou: FMM=F IPFlag=           0 FMFlag=           0 FMFlg1=           0
         NFxFlg=           0 DoJE=F BraDBF=F KetDBF=F FulRan=T
         wScrn=  0.000000 ICntrl=       600 IOpCl=  0 I1Cent=           0 NGrid=           0
         NMat0=    1 NMatS0=   8001 NMatT0=    0 NMatD0=    1 NMtDS0=    0 NMtDT0=    0
 Petite list used in FoFCou.
 CIDS: In Core Option IDoMem=           1.
 Coupled Cluster theory with single and double substitutions
 ===========================================================
 Iterations=  50 Convergence= 0.100D-06
 Produce multiple copies of IABC intergrals
 Iteration Nr.   1
 **********************
 DD1Dir will call FoFMem   1 times, MxPair=         6
 NAB=     3 NAA=     0 NBB=     0.
 MP4(R+Q)=  0.29931109D-01
 Maximum subspace dimension=  5
 A-vector RMS=  6.5369865D-02 Max=  4.9384486D-01 conv= 1.00D-05.
 RLE energy=       -0.1084950506
 E3=       -0.32054031D-01        EUMP3=      -0.25047681205D+02
 E4(DQ)=    0.65144829D-03        UMP4(DQ)=   -0.25047029757D+02
 E4(SDQ)=  -0.71829891D-01        UMP4(SDQ)=  -0.25119511096D+02
 VARIATIONAL ENERGIES WITH THE FIRST-ORDER WAVEFUNCTION:
 DE(Corr)= -0.10938806     E(Corr)=     -24.988692909    
 NORM(A)=   0.13505778D+01
 Iteration Nr.   2
 **********************
 DD1Dir will call FoFMem   1 times, MxPair=         6
 NAB=     3 NAA=     0 NBB=     0.
 A-vector RMS=  8.5383651D-02 Max=  6.3819485D-01 conv= 1.00D-05.
 RLE energy=       -0.1892650583
 DE(Corr)= -0.21976602     E(CORR)=     -25.099070865     Delta=-1.10D-01
 NORM(A)=   0.14118522D+01
 Iteration Nr.   3
 **********************
 DD1Dir will call FoFMem   1 times, MxPair=         6
 NAB=     3 NAA=     0 NBB=     0.
 A-vector RMS=  3.2349158D-02 Max=  2.4586644D-01 conv= 1.00D-05.
 RLE energy=       -0.2113678142
 DE(Corr)= -0.17008347     E(CORR)=     -25.049388321     Delta= 4.97D-02
 NORM(A)=   0.17978574D+01
 Iteration Nr.   4
 **********************
 DD1Dir will call FoFMem   1 times, MxPair=         6
 NAB=     3 NAA=     0 NBB=     0.
 A-vector RMS=  3.5175422D-02 Max=  2.7116660D-01 conv= 1.00D-05.
 RLE energy=       -0.1958166480
 DE(Corr)= -0.22911249     E(CORR)=     -25.108417338     Delta=-5.90D-02
 NORM(A)=   0.15488661D+01
 Iteration Nr.   5
 **********************
 DD1Dir will call FoFMem   1 times, MxPair=         6
 NAB=     3 NAA=     0 NBB=     0.
 A-vector RMS=  1.7416241D-02 Max=  1.3330961D-01 conv= 1.00D-05.
 RLE energy=       -0.2085956757
 DE(Corr)= -0.19105686     E(CORR)=     -25.070361707     Delta= 3.81D-02
 NORM(A)=   0.17180292D+01
 Iteration Nr.   6
 **********************
 DD1Dir will call FoFMem   1 times, MxPair=         6
 NAB=     3 NAA=     0 NBB=     0.
 A-vector RMS=  2.5444133D-03 Max=  1.9090927D-02 conv= 1.00D-05.
 RLE energy=       -0.2080180531
 DE(Corr)= -0.20954706     E(CORR)=     -25.088851909     Delta=-1.85D-02
 NORM(A)=   0.17100820D+01
 Iteration Nr.   7
 **********************
 DD1Dir will call FoFMem   1 times, MxPair=         6
 NAB=     3 NAA=     0 NBB=     0.
 A-vector RMS=  7.6098860D-04 Max=  7.0346222D-03 conv= 1.00D-05.
 RLE energy=       -0.2061157147
 DE(Corr)= -0.20744900     E(CORR)=     -25.086753848     Delta= 2.10D-03
 NORM(A)=   0.16945454D+01
 Iteration Nr.   8
 **********************
 DD1Dir will call FoFMem   1 times, MxPair=         6
 NAB=     3 NAA=     0 NBB=     0.
 A-vector RMS=  1.3515565D-04 Max=  6.8794363D-03 conv= 1.00D-05.
 RLE energy=       -0.2073020082
 DE(Corr)= -0.20715245     E(CORR)=     -25.086457302     Delta= 2.97D-04
 NORM(A)=   0.17043314D+01
 Iteration Nr.   9
 **********************
 DD1Dir will call FoFMem   1 times, MxPair=         6
 NAB=     3 NAA=     0 NBB=     0.
 A-vector RMS=  5.8707390D-05 Max=  2.3237936D-03 conv= 1.00D-05.
 RLE energy=       -0.2069375631
 DE(Corr)= -0.20696761     E(CORR)=     -25.086272457     Delta= 1.85D-04
 NORM(A)=   0.17021343D+01
 Iteration Nr.  10
 **********************
 DD1Dir will call FoFMem   1 times, MxPair=         6
 NAB=     3 NAA=     0 NBB=     0.
 A-vector RMS=  2.0131821D-04 Max=  1.5438116D-03 conv= 1.00D-05.
 RLE energy=       -0.2070543371
 DE(Corr)= -0.20716259     E(CORR)=     -25.086467437     Delta=-1.95D-04
 NORM(A)=   0.17018084D+01
 Iteration Nr.  11
 **********************
 DD1Dir will call FoFMem   1 times, MxPair=         6
 NAB=     3 NAA=     0 NBB=     0.
 A-vector RMS=  1.5534572D-04 Max=  1.1721461D-03 conv= 1.00D-05.
 RLE energy=       -0.2069670336
 DE(Corr)= -0.20680095     E(CORR)=     -25.086105804     Delta= 3.62D-04
 NORM(A)=   0.17017380D+01
 Iteration Nr.  12
 **********************
 DD1Dir will call FoFMem   1 times, MxPair=         6
 NAB=     3 NAA=     0 NBB=     0.
 A-vector RMS=  3.0847224D-05 Max=  2.2181909D-04 conv= 1.00D-05.
 RLE energy=       -0.2069649579
 DE(Corr)= -0.20699410     E(CORR)=     -25.086298948     Delta=-1.93D-04
 NORM(A)=   0.17016005D+01
 Iteration Nr.  13
 **********************
 DD1Dir will call FoFMem   1 times, MxPair=         6
 NAB=     3 NAA=     0 NBB=     0.
 A-vector RMS=  4.1266382D-06 Max=  3.7434659D-05 conv= 1.00D-05.
 RLE energy=       -0.2069578888
 DE(Corr)= -0.20695995     E(CORR)=     -25.086264802     Delta= 3.41D-05
 NORM(A)=   0.17015157D+01
 Iteration Nr.  14
 **********************
 DD1Dir will call FoFMem   1 times, MxPair=         6
 NAB=     3 NAA=     0 NBB=     0.
 A-vector RMS=  7.4117481D-06 Max=  5.6411977D-05 conv= 1.00D-05.
 RLE energy=       -0.2069610239
 DE(Corr)= -0.20695243     E(CORR)=     -25.086257283     Delta= 7.52D-06
 NORM(A)=   0.17015627D+01
 Iteration Nr.  15
 **********************
 DD1Dir will call FoFMem   1 times, MxPair=         6
 NAB=     3 NAA=     0 NBB=     0.
 A-vector RMS=  1.5214436D-06 Max=  9.2583916D-06 conv= 1.00D-05.
 RLE energy=       -0.2069586628
 DE(Corr)= -0.20696026     E(CORR)=     -25.086265111     Delta=-7.83D-06
 NORM(A)=   0.17015406D+01
 Iteration Nr.  16
 **********************
 DD1Dir will call FoFMem   1 times, MxPair=         6
 NAB=     3 NAA=     0 NBB=     0.
 A-vector RMS=  3.1643510D-07 Max=  2.9439676D-06 conv= 1.00D-05.
 RLE energy=       -0.2069596116
 DE(Corr)= -0.20695911     E(CORR)=     -25.086263962     Delta= 1.15D-06
 NORM(A)=   0.17015428D+01
 Iteration Nr.  17
 **********************
 DD1Dir will call FoFMem   1 times, MxPair=         6
 NAB=     3 NAA=     0 NBB=     0.
 A-vector RMS=  1.2587063D-06 Max=  9.5546961D-06 conv= 1.00D-05.
 RLE energy=       -0.2069588440
 DE(Corr)= -0.20695787     E(CORR)=     -25.086262720     Delta= 1.24D-06
 NORM(A)=   0.17015423D+01
 Iteration Nr.  18
 **********************
 DD1Dir will call FoFMem   1 times, MxPair=         6
 NAB=     3 NAA=     0 NBB=     0.
 A-vector RMS=  2.6735945D-07 Max=  2.6725576D-06 conv= 1.00D-05.
 RLE energy=       -0.2069592522
 DE(Corr)= -0.20695946     E(CORR)=     -25.086264312     Delta=-1.59D-06
 NORM(A)=   0.17015441D+01
 Iteration Nr.  19
 **********************
 DD1Dir will call FoFMem   1 times, MxPair=         6
 NAB=     3 NAA=     0 NBB=     0.
 A-vector RMS=  7.2948578D-08 Max=  6.4782714D-07 conv= 1.00D-05.
 RLE energy=       -0.2069591399
 DE(Corr)= -0.20695911     E(CORR)=     -25.086263958     Delta= 3.55D-07
 NORM(A)=   0.17015433D+01
 Iteration Nr.  20
 **********************
 DD1Dir will call FoFMem   1 times, MxPair=         6
 NAB=     3 NAA=     0 NBB=     0.
 A-vector RMS=  6.8809272D-08 Max=  5.0281401D-07 conv= 1.00D-05.
 RLE energy=       -0.2069591972
 DE(Corr)= -0.20695912     E(CORR)=     -25.086263972     Delta=-1.39D-08
 NORM(A)=   0.17015441D+01
 CI/CC converged in   20 iterations to DelEn=-1.39D-08 Conv= 1.00D-07 ErrA1= 6.88D-08 Conv= 1.00D-05
 Wavefunction amplitudes converged. E(Corr)=     -25.086263972    
 Dominant configurations:
 ***********************
 Spin Case        I    J    A    B          Value
    AA            3         4           -0.472236D+00
    AA            3        10            0.104917D+00
    AA            3        17            0.105870D+00
   ABAB           2    2    6    6      -0.123832D+00
   ABAB           2    2    5    5      -0.123832D+00
   ABAB           3    3    4    4      -0.108318D+01
   ABAB           3    3    4    7       0.113453D+00
   ABAB           3    3    4   11       0.107643D+00
   ABAB           3    3    7    4       0.113453D+00
   ABAB           3    3   11    4       0.107643D+00
 Largest amplitude= 1.08D+00
 Discarding MO integrals.
 Leave Link  913 at Sun May 22 15:52:54 2022, MaxMem=   104857600 cpu:               4.1 elap:               4.1
 (Enter /apps/software/g16/l601.exe)
 Copying SCF densities to generalized density rwf, IOpCl= 0 IROHF=0.

 **********************************************************************

            Population analysis using the SCF density.

 **********************************************************************

 Orbital symmetries:
       Occupied  (SG) (SG) (SG)
       Virtual   (SG) (PI) (PI) (SG) (PI) (PI) (SG) (SG) (DLTA)
                 (DLTA) (PI) (PI) (SG) (SG) (PI) (PI) (PI) (PI)
                 (SG) (SG) (PHI) (PHI) (DLTA) (DLTA) (SG) (DLTA)
                 (DLTA) (PI) (PI) (PI) (PI) (SG) (SG) (DLTA) (DLTA)
                 (PI) (PI) (SG) (PI) (PI) (SG) (PI) (PI) (SG) (SG)
                 (?A) (?A) (DLTA) (DLTA) (PHI) (PHI) (DLTA) (DLTA)
                 (PI) (PI) (PI) (PI) (SG) (SG) (PHI) (PHI) (DLTA)
                 (DLTA) (PI) (PI) (SG) (PHI) (PHI) (DLTA) (DLTA)
                 (PI) (PI) (SG) (SG) (DLTA) (DLTA) (PI) (PI) (SG)
                 (PI) (PI) (SG) (PI) (PI) (SG) (?A) (?A) (DLTA)
                 (DLTA) (PHI) (PHI) (DLTA) (DLTA) (PI) (PI) (PI)
                 (PI) (SG) (SG) (PHI) (PHI) (DLTA) (DLTA) (PI)
                 (PI) (SG) (PHI) (PHI) (DLTA) (DLTA) (PI) (PI)
                 (SG) (SG) (PI) (PI) (SG) (DLTA) (DLTA) (PI) (PI)
                 (SG) (SG)
 The electronic state is 1-SG.
 Alpha  occ. eigenvalues --   -7.89581  -0.62817  -0.22127
 Alpha virt. eigenvalues --   -0.09216  -0.05323  -0.05323   0.02035   0.03969
 Alpha virt. eigenvalues --    0.03969   0.05705   0.10163   0.11454   0.11454
 Alpha virt. eigenvalues --    0.12222   0.12222   0.14577   0.22951   0.24055
 Alpha virt. eigenvalues --    0.24055   0.24455   0.24455   0.28630   0.31450
 Alpha virt. eigenvalues --    0.41034   0.41034   0.41773   0.41773   0.42663
 Alpha virt. eigenvalues --    0.42779   0.42779   0.42831   0.42831   0.43874
 Alpha virt. eigenvalues --    0.43874   0.46153   0.53039   0.69373   0.69373
 Alpha virt. eigenvalues --    0.71046   0.71046   0.73961   0.86648   0.86648
 Alpha virt. eigenvalues --    0.91552   0.93518   0.93518   0.99640   1.28238
 Alpha virt. eigenvalues --    1.28875   1.28875   1.29545   1.29545   1.29725
 Alpha virt. eigenvalues --    1.29725   1.30375   1.30375   1.30800   1.30800
 Alpha virt. eigenvalues --    1.30963   1.30963   1.31661   1.32561   1.34165
 Alpha virt. eigenvalues --    1.34165   1.35200   1.35200   1.36447   1.36447
 Alpha virt. eigenvalues --    1.40853   1.65144   1.65144   1.65195   1.65195
 Alpha virt. eigenvalues --    1.65730   1.65730   1.66721   1.75097   2.56062
 Alpha virt. eigenvalues --    2.56062   2.56990   2.56990   2.59283   2.68215
 Alpha virt. eigenvalues --    2.68215   2.74464   3.57438   3.57438   3.60627
 Alpha virt. eigenvalues --    3.79452   3.79452   3.80281   3.80281   3.80489
 Alpha virt. eigenvalues --    3.80489   3.81247   3.81247   3.81675   3.81675
 Alpha virt. eigenvalues --    3.81747   3.81747   3.82309   3.82937   3.94473
 Alpha virt. eigenvalues --    3.94473   3.95623   3.95623   3.96725   3.96725
 Alpha virt. eigenvalues --    3.99658   6.65966   6.65966   6.66002   6.66002
 Alpha virt. eigenvalues --    6.66139   6.66139   6.66441   7.52694   8.04610
 Alpha virt. eigenvalues --    8.04610   8.08710   8.49596   8.49596   8.50181
 Alpha virt. eigenvalues --    8.50181   8.52491  12.86036
          Condensed to atoms (all electrons):
               1          2
     1  B    4.514512   0.079095
     2  H    0.079095   1.327298
 Mulliken charges:
               1
     1  B    0.406393
     2  H   -0.406393
 Sum of Mulliken charges =  -0.00000
 Mulliken charges with hydrogens summed into heavy atoms:
               1
     1  B   -0.000000
 Electronic spatial extent (au):  <R**2>=            111.3407
 Charge=             -0.0000 electrons
 Dipole moment (field-independent basis, Debye):
    X=              0.0000    Y=              0.0000    Z=              9.8411  Tot=              9.8411
 Quadrupole moment (field-independent basis, Debye-Ang):
   XX=             -9.2916   YY=             -9.2916   ZZ=            -38.9523
   XY=              0.0000   XZ=              0.0000   YZ=              0.0000
 Traceless Quadrupole moment (field-independent basis, Debye-Ang):
   XX=              9.8869   YY=              9.8869   ZZ=            -19.7738
   XY=              0.0000   XZ=              0.0000   YZ=              0.0000
 Octapole moment (field-independent basis, Debye-Ang**2):
  XXX=              0.0000  YYY=              0.0000  ZZZ=            136.3134  XYY=              0.0000
  XXY=              0.0000  XXZ=             11.6301  XZZ=              0.0000  YZZ=              0.0000
  YYZ=             11.6301  XYZ=              0.0000
 Hexadecapole moment (field-independent basis, Debye-Ang**3):
 XXXX=            -21.9472 YYYY=            -21.9472 ZZZZ=           -799.2511 XXXY=              0.0000
 XXXZ=              0.0000 YYYX=              0.0000 YYYZ=              0.0000 ZZZX=              0.0000
 ZZZY=              0.0000 XXYY=             -7.3157 XXZZ=            -69.9429 YYZZ=            -69.9429
 XXYZ=              0.0000 YYXZ=              0.0000 ZZXY=              0.0000
 N-N= 5.512262613750D-01 E-N=-5.813832940081D+01  KE= 2.476777663931D+01
 Symmetry A1   KE= 2.476777663931D+01
 Symmetry A2   KE= 2.878984252229D-51
 Symmetry B1   KE= 0.000000000000D+00
 Symmetry B2   KE= 0.000000000000D+00
 Leave Link  601 at Sun May 22 15:52:54 2022, MaxMem=   104857600 cpu:               0.1 elap:               0.1
 (Enter /apps/software/g16/l9999.exe)
 1\1\GINC-CNODE08\SP\RCCSD-FC\Aug-CC-pVQZ\B1H1\LCZ\22-May-2022\0\\#p RH
 F/aug-cc-pVQZ guess=read CCSD=FC\\BH RHF at 4.8 Angstrom\\0,1\B,0,0.,0
 .,0.\H,0,4.8,0.,0.\\Version=ES64L-G16RevA.03\State=1-SG\HF=-24.8793048
 \MP2=-25.0156272\MP3=-25.0476812\MP4D=-25.0769609\MP4DQ=-25.0470298\MP
 4SDQ=-25.1195111\CCSD=-25.086264\RMSD=8.543e-10\PG=C*V [C*(H1B1)]\\@


 LORD, MAN... WERE YE BUT WHYLES WHERE I AM, 
 THE GENTILES YE WAD NE'ER ENVY 'EM.        
 IT'S TRUE, THEY NEEDNA STARVE OR SWEAT,     
 THRO' WINTER'S CAULD OR SIMMER'S HEAT...  
 THEY'VE NAE SAIR WARK TO CRAZE THEIR BANES, 
 AND FILL AULD AGE WITH GRIPS AN' GRANES...  
                                             
 BUT HUMAN BODIES ARE SIC FOOLS              
 FOR A' THEIR COLLEGES AND SCHOOLS,           
 THAT WHEN NAE REAL ILLS PERPLEX THEM,       
 THEY MAK ENOW THEMSELVES TO VEX THEM,       
 AN' AYE THE LESS THEY HAE TO STURT THEM,    
 IN LIKE PROPORTION LESS WILL HURT THEM....  
                                             
                (ROBERT BURNS 'THE TWA DOGS')
 Job cpu time:       0 days  0 hours  0 minutes 12.7 seconds.
 Elapsed time:       0 days  0 hours  0 minutes 12.7 seconds.
 File lengths (MBytes):  RWF=    105 Int=      0 D2E=      0 Chk=     67 Scr=      1
 Normal termination of Gaussian 16 at Sun May 22 15:52:54 2022.

Sender: Unischeduler System <lcz@mgt01>
Subject: Job 134063: <#!/bin/bash
#BSUB -J intel
#BSUB -o BH-4.8-CCSD-G.out
#BSUB -n 8
#BSUB -q cqueue
#BSUB -R span[hosts=1]
export g16root=/apps/software
source /apps/software/g16/bsd/g16.profile
export GAUSS_SCRDIR=/scratch
/apps/software/g16/g16 < BH-4.8-CCSD-G.inp > BH-4.8-CCSD-G.out> Done

Job <#!/bin/bash
#BSUB -J intel
#BSUB -o BH-4.8-CCSD-G.out
#BSUB -n 8
#BSUB -q cqueue
#BSUB -R span[hosts=1]
export g16root=/apps/software
source /apps/software/g16/bsd/g16.profile
export GAUSS_SCRDIR=/scratch
/apps/software/g16/g16 < BH-4.8-CCSD-G.inp > BH-4.8-CCSD-G.out> was submitted from host <mgt01> by user <lcz>.
Job was executed on host(s) <8*cnode08>, in queue <cqueue>, as user <lcz>.
</apps/users/lcz> was used as the home directory.
</apps/users/lcz/exe13/CCSD> was used as the working directory.
Started at 2022-05-22 15:52:41
Results reported at 2022-05-22 15:52:54

Your job looked like:

------------------------------------------------------------
# User input
#!/bin/bash
#BSUB -J intel
#BSUB -o BH-4.8-CCSD-G.out
#BSUB -n 8
#BSUB -q cqueue
#BSUB -R span[hosts=1]
export g16root=/apps/software
source /apps/software/g16/bsd/g16.profile
export GAUSS_SCRDIR=/scratch
/apps/software/g16/g16 < BH-4.8-CCSD-G.inp > BH-4.8-CCSD-G.out
------------------------------------------------------------

Successfully completed.

Resource usage summary:

    CPU time   :            3.45 sec.
    Max Memory :               478 MB
    Max Processes  :               5


The output (if any) follows:

