 Entering Gaussian System, Link 0=/apps/software/g16/g16
 Initial command:
 /apps/software/g16/l1.exe "/scratch/Gau-288878.inp" -scrdir="/scratch/"
 Entering Link 1 = /apps/software/g16/l1.exe PID=    288879.
  
 Copyright (c) 1988,1990,1992,1993,1995,1998,2003,2009,2016,
            Gaussian, Inc.  All Rights Reserved.
  
 This is part of the Gaussian(R) 16 program.  It is based on
 the Gaussian(R) 09 system (copyright 2009, Gaussian, Inc.),
 the Gaussian(R) 03 system (copyright 2003, Gaussian, Inc.),
 the Gaussian(R) 98 system (copyright 1998, Gaussian, Inc.),
 the Gaussian(R) 94 system (copyright 1995, Gaussian, Inc.),
 the Gaussian 92(TM) system (copyright 1992, Gaussian, Inc.),
 the Gaussian 90(TM) system (copyright 1990, Gaussian, Inc.),
 the Gaussian 88(TM) system (copyright 1988, Gaussian, Inc.),
 the Gaussian 86(TM) system (copyright 1986, Carnegie Mellon
 University), and the Gaussian 82(TM) system (copyright 1983,
 Carnegie Mellon University). Gaussian is a federally registered
 trademark of Gaussian, Inc.
  
 This software contains proprietary and confidential information,
 including trade secrets, belonging to Gaussian, Inc.
  
 This software is provided under written license and may be
 used, copied, transmitted, or stored only in accord with that
 written license.
  
 The following legend is applicable only to US Government
 contracts under FAR:
  
                    RESTRICTED RIGHTS LEGEND
  
 Use, reproduction and disclosure by the US Government is
 subject to restrictions as set forth in subparagraphs (a)
 and (c) of the Commercial Computer Software - Restricted
 Rights clause in FAR 52.227-19.
  
 Gaussian, Inc.
 340 Quinnipiac St., Bldg. 40, Wallingford CT 06492
  
  
 ---------------------------------------------------------------
 Warning -- This program may not be used in any manner that
 competes with the business of Gaussian, Inc. or will provide
 assistance to any competitor of Gaussian, Inc.  The licensee
 of this program is prohibited from giving any competitor of
 Gaussian, Inc. access to this program.  By using this program,
 the user acknowledges that Gaussian, Inc. is engaged in the
 business of creating and licensing software in the field of
 computational chemistry and represents and warrants to the
 licensee that it is not a competitor of Gaussian, Inc. and that
 it will not use this program in any manner prohibited above.
 ---------------------------------------------------------------
  

 Cite this work as:
 Gaussian 16, Revision A.03,
 M. J. Frisch, G. W. Trucks, H. B. Schlegel, G. E. Scuseria, 
 M. A. Robb, J. R. Cheeseman, G. Scalmani, V. Barone, 
 G. A. Petersson, H. Nakatsuji, X. Li, M. Caricato, A. V. Marenich, 
 J. Bloino, B. G. Janesko, R. Gomperts, B. Mennucci, H. P. Hratchian, 
 J. V. Ortiz, A. F. Izmaylov, J. L. Sonnenberg, D. Williams-Young, 
 F. Ding, F. Lipparini, F. Egidi, J. Goings, B. Peng, A. Petrone, 
 T. Henderson, D. Ranasinghe, V. G. Zakrzewski, J. Gao, N. Rega, 
 G. Zheng, W. Liang, M. Hada, M. Ehara, K. Toyota, R. Fukuda, 
 J. Hasegawa, M. Ishida, T. Nakajima, Y. Honda, O. Kitao, H. Nakai, 
 T. Vreven, K. Throssell, J. A. Montgomery, Jr., J. E. Peralta, 
 F. Ogliaro, M. J. Bearpark, J. J. Heyd, E. N. Brothers, K. N. Kudin, 
 V. N. Staroverov, T. A. Keith, R. Kobayashi, J. Normand, 
 K. Raghavachari, A. P. Rendell, J. C. Burant, S. S. Iyengar, 
 J. Tomasi, M. Cossi, J. M. Millam, M. Klene, C. Adamo, R. Cammi, 
 J. W. Ochterski, R. L. Martin, K. Morokuma, O. Farkas, 
 J. B. Foresman, and D. J. Fox, Gaussian, Inc., Wallingford CT, 2016.
 
 ******************************************
 Gaussian 16:  ES64L-G16RevA.03 25-Dec-2016
                22-May-2022 
 ******************************************
 %oldchk=BH-4.4-RHF-G.chk
 %chk=BH-4.4-CCSD-G.chk
 Copying data from "BH-4.4-RHF-G.chk" to current chk file "BH-4.4-CCSD-G.chk"
 IOpt=  2 FromEx=T IUOpen= 4 IOptOp= 5 NList=   0 IFRang= 0 IUIn= 4 IUOut= 2.
 -------------------------------------
 #p RHF/aug-cc-pVQZ guess=read CCSD=FC
 -------------------------------------
 1/38=1,172=1/1;
 2/12=2,17=6,18=5,40=1/2;
 3/5=16,6=2,7=10,11=1,25=1,30=1,116=1/1,2,3;
 4/5=1/1;
 5/5=2,38=6/2;
 8/6=4,9=120000,10=1/1,4;
 9/5=7/13;
 6/7=2,8=2,9=2,10=2/1;
 99/5=1,9=1/99;
 Leave Link    1 at Sun May 22 15:48:19 2022, MaxMem=   104857600 cpu:               0.0 elap:               0.0
 (Enter /apps/software/g16/l101.exe)
 ----------------------
 BH RHF at 4.4 Angstrom
 ----------------------
 Symbolic Z-matrix:
 Charge =  0 Multiplicity = 1
 B                     0.        0.        0. 
 H                     4.4       0.        0. 
 
 ITRead=  0  0
 MicOpt= -1 -1
 NAtoms=      2 NQM=        2 NQMF=       0 NMMI=      0 NMMIF=      0
                NMic=       0 NMicF=      0.
                    Isotopes and Nuclear Properties:
 (Nuclear quadrupole moments (NQMom) in fm**2, nuclear magnetic moments (NMagM)
  in nuclear magnetons)

  Atom         1           2
 IAtWgt=          11           1
 AtmWgt=  11.0093053   1.0078250
 NucSpn=           3           1
 AtZEff=  -0.0000000  -0.0000000
 NQMom=    4.0590000   0.0000000
 NMagM=    2.6886370   2.7928460
 AtZNuc=   5.0000000   1.0000000
 Leave Link  101 at Sun May 22 15:48:19 2022, MaxMem=   104857600 cpu:               0.1 elap:               0.1
 (Enter /apps/software/g16/l202.exe)
                          Input orientation:                          
 ---------------------------------------------------------------------
 Center     Atomic      Atomic             Coordinates (Angstroms)
 Number     Number       Type             X           Y           Z
 ---------------------------------------------------------------------
      1          5           0        0.000000    0.000000    0.000000
      2          1           0        4.400000    0.000000    0.000000
 ---------------------------------------------------------------------
 Stoichiometry    BH
 Framework group  C*V[C*(HB)]
 Deg. of freedom     1
 Full point group                 C*V     NOp   4
 Largest Abelian subgroup         C2V     NOp   4
 Largest concise Abelian subgroup C1      NOp   1
                         Standard orientation:                         
 ---------------------------------------------------------------------
 Center     Atomic      Atomic             Coordinates (Angstroms)
 Number     Number       Type             X           Y           Z
 ---------------------------------------------------------------------
      1          5           0        0.000000    0.000000    0.733333
      2          1           0        0.000000    0.000000   -3.666667
 ---------------------------------------------------------------------
 Rotational constants (GHZ):           0.0000000          28.2727179          28.2727179
 Leave Link  202 at Sun May 22 15:48:19 2022, MaxMem=   104857600 cpu:               0.0 elap:               0.0
 (Enter /apps/software/g16/l301.exe)
 Standard basis: Aug-CC-pVQZ (5D, 7F)
 Ernie: Thresh=  0.10000D-02 Tol=  0.10000D-05 Strict=F.
 Ernie:  4 primitive shells out of 54 were deleted.
 There are    68 symmetry adapted cartesian basis functions of A1  symmetry.
 There are    18 symmetry adapted cartesian basis functions of A2  symmetry.
 There are    37 symmetry adapted cartesian basis functions of B1  symmetry.
 There are    37 symmetry adapted cartesian basis functions of B2  symmetry.
 There are    50 symmetry adapted basis functions of A1  symmetry.
 There are    16 symmetry adapted basis functions of A2  symmetry.
 There are    30 symmetry adapted basis functions of B1  symmetry.
 There are    30 symmetry adapted basis functions of B2  symmetry.
   126 basis functions,   180 primitive gaussians,   160 cartesian basis functions
     3 alpha electrons        3 beta electrons
       nuclear repulsion energy         0.6013377397 Hartrees.
 IExCor=    0 DFT=F Ex=HF Corr=None ExCW=0 ScaHFX=  1.000000
 ScaDFX=  1.000000  1.000000  1.000000  1.000000 ScalE2=  1.000000  1.000000
 IRadAn=      5 IRanWt=     -1 IRanGd=            0 ICorTp=0 IEmpDi=  4
 NAtoms=    2 NActive=    2 NUniq=    2 SFac= 1.00D+00 NAtFMM=   60 NAOKFM=F Big=F
 Integral buffers will be    131072 words long.
 Raffenetti 1 integral format.
 Two-electron integral symmetry is turned on.
 Leave Link  301 at Sun May 22 15:48:19 2022, MaxMem=   104857600 cpu:               0.1 elap:               0.1
 (Enter /apps/software/g16/l302.exe)
 NPDir=0 NMtPBC=     1 NCelOv=     1 NCel=       1 NClECP=     1 NCelD=      1
         NCelK=      1 NCelE2=     1 NClLst=     1 CellRange=     0.0.
 One-electron integrals computed using PRISM.
 One-electron integral symmetry used in STVInt
 NBasis=   126 RedAO= T EigKep=  1.17D-02  NBF=    50    16    30    30
 NBsUse=   126 1.00D-06 EigRej= -1.00D+00 NBFU=    50    16    30    30
 Leave Link  302 at Sun May 22 15:48:20 2022, MaxMem=   104857600 cpu:               0.1 elap:               0.1
 (Enter /apps/software/g16/l303.exe)
 DipDrv:  MaxL=1.
 Leave Link  303 at Sun May 22 15:48:20 2022, MaxMem=   104857600 cpu:               0.0 elap:               0.0
 (Enter /apps/software/g16/l401.exe)
 Initial guess from the checkpoint file:  "BH-4.4-CCSD-G.chk"
 B after Tr=     0.000000    0.000000    0.000000
         Rot=    1.000000    0.000000    0.000000    0.000000 Ang=   0.00 deg.
 Guess basis will be translated and rotated to current coordinates.
 JPrj=2 DoOrth=T DoCkMO=T.
 Initial guess orbital symmetries:
       Occupied  (SG) (SG) (SG)
       Virtual   (SG) (PI) (PI) (SG) (PI) (PI) (SG) (SG) (DLTA)
                 (DLTA) (PI) (PI) (SG) (SG) (PI) (PI) (PI) (PI)
                 (SG) (SG) (PHI) (PHI) (DLTA) (DLTA) (DLTA) (DLTA)
                 (SG) (PI) (PI) (PI) (PI) (SG) (SG) (DLTA) (DLTA)
                 (PI) (PI) (SG) (PI) (PI) (SG) (PI) (PI) (SG) (SG)
                 (?A) (?A) (DLTA) (DLTA) (PHI) (PHI) (DLTA) (DLTA)
                 (PI) (PI) (PI) (PI) (SG) (SG) (PHI) (PHI) (DLTA)
                 (DLTA) (PI) (PI) (SG) (PHI) (PHI) (DLTA) (DLTA)
                 (PI) (PI) (SG) (SG) (DLTA) (DLTA) (PI) (PI) (SG)
                 (PI) (PI) (SG) (PI) (PI) (SG) (?A) (?A) (DLTA)
                 (DLTA) (PHI) (PHI) (DLTA) (DLTA) (PI) (PI) (PI)
                 (PI) (SG) (SG) (PHI) (PHI) (DLTA) (DLTA) (PI)
                 (PI) (SG) (PHI) (PHI) (DLTA) (DLTA) (PI) (PI)
                 (SG) (SG) (PI) (PI) (SG) (DLTA) (DLTA) (PI) (PI)
                 (SG) (SG)
 The electronic state of the initial guess is 1-SG.
 Leave Link  401 at Sun May 22 15:48:20 2022, MaxMem=   104857600 cpu:               0.1 elap:               0.1
 (Enter /apps/software/g16/l502.exe)
 Keep R1 ints in memory in symmetry-blocked form, NReq=40143665.
 FoFCou: FMM=F IPFlag=           0 FMFlag=           0 FMFlg1=           0
         NFxFlg=           0 DoJE=F BraDBF=F KetDBF=F FulRan=T
         wScrn=  0.000000 ICntrl=       600 IOpCl=  0 I1Cent=           0 NGrid=           0
         NMat0=    1 NMatS0=   8001 NMatT0=    0 NMatD0=    1 NMtDS0=    0 NMtDT0=    0
 Petite list used in FoFCou.
 Closed shell SCF:
 Using DIIS extrapolation, IDIIS=  1040.
 NGot=   104857600 LenX=    96673173 LenY=    96647132
 Requested convergence on RMS density matrix=1.00D-08 within 128 cycles.
 Requested convergence on MAX density matrix=1.00D-06.
 Requested convergence on             energy=1.00D-06.
 No special actions if energy rises.

 Cycle   1  Pass 1  IDiag  1:
 E= -24.8898756887194    
 DIIS: error= 1.75D-09 at cycle   1 NSaved=   1.
 NSaved= 1 IEnMin= 1 EnMin= -24.8898756887194     IErMin= 1 ErrMin= 1.75D-09
 ErrMax= 1.75D-09  0.00D+00 EMaxC= 1.00D-01 BMatC= 6.06D-17 BMatP= 6.06D-17
 IDIUse=1 WtCom= 1.00D+00 WtEn= 0.00D+00
 Coeff-Com:  0.100D+01
 Coeff:      0.100D+01
 Gap=     0.146 Goal=   None    Shift=    0.000
 RMSDP=1.99D-10 MaxDP=5.05D-09              OVMax= 3.78D-08

 SCF Done:  E(RHF) =  -24.8898756887     A.U. after    1 cycles
            NFock=  1  Conv=0.20D-09     -V/T= 2.0052
 KE= 2.476058538351D+01 PE=-5.824992936946D+01 EE= 7.998130557553D+00
 Leave Link  502 at Sun May 22 15:48:23 2022, MaxMem=   104857600 cpu:               3.4 elap:               3.4
 (Enter /apps/software/g16/l801.exe)
 Windowed orbitals will be sorted by symmetry type.
 ExpMin= 1.88D-02 ExpMax= 2.39D+04 ExpMxC= 2.30D+02 IAcc=3 IRadAn=         5 AccDes= 0.00D+00
 HarFok:  IExCor=  205 AccDes= 0.00D+00 IRadAn=         5 IDoV=-2 UseB2=F ITyADJ=14
 ICtDFT= 12500011 ScaDFX=  1.000000  1.000000  1.000000  1.000000
 DSYEVD-2 returned Info=        3401 IAlg= 4 N=    80 NDim=    80 NE2=     1309686 trying  DSYEV.
 Largest valence mixing into a core orbital is  4.02D-04
 Largest core mixing into a valence orbital is  1.74D-04
 Range of M.O.s used for correlation:     2   126
 NBasis=   126 NAE=     3 NBE=     3 NFC=     1 NFV=     0
 NROrb=    125 NOA=     2 NOB=     2 NVA=   123 NVB=   123
 Leave Link  801 at Sun May 22 15:48:23 2022, MaxMem=   104857600 cpu:               0.1 elap:               0.1
 (Enter /apps/software/g16/l804.exe)
 Closed-shell transformation, MDV=   104857600 ITran=4 ISComp=2.
 Unit  1 TFree=        535169 TCopy=        350885.
 Semi-Direct transformation.
 ModeAB=           4 MOrb=             2 LenV=     104243715
 LASXX=       493564 LTotXX=      493564 LenRXX=     1003397
 LTotAB=      509833 MaxLAS=     3211250 LenRXY=           0
 NonZer=     1496961 LenScr=     2992128 LnRSAI=     3211250
 LnScr1=     5505024 LExtra=           0 Total=     12711799
 MaxDsk=          -1 SrtSym=           T ITran=            4
 DoSDTr:  NPSUse=  1
 JobTyp=0 Pass  1:  I=   1 to   2.
 (rs|ai) integrals will be sorted in core.
 Complete sort for first half transformation.
 First half transformation complete.
 Complete sort for second half transformation.
 Second half transformation complete.
 Spin components of T(2) and E(2):
     alpha-alpha T2 =       0.1675586513D-02 E2=     -0.2229294189D-02
     alpha-beta  T2 =       0.2186451732D+00 E2=     -0.1199350164D+00
     beta-beta   T2 =       0.1675586513D-02 E2=     -0.2229294189D-02
 ANorm=    0.1105439436D+01
 E2 =    -0.1243936048D+00 EUMP2 =    -0.25014269293497D+02
 Leave Link  804 at Sun May 22 15:48:28 2022, MaxMem=   104857600 cpu:               4.9 elap:               4.9
 (Enter /apps/software/g16/l913.exe)
 CIDS:  MDV=   104857600.
 Frozen-core window:  NFC=   1 NFV=   0.
 IFCWin=0 IBDFC=1 NFBD=     0     0 NFCmp=     0     0 NFFFC=     0     0
 Using DD3R+UMP44R for 1st iteration.
 Using DD4RQ for 2nd and later iterations.
 Keep R2 and R3 ints in memory in symmetry-blocked form, NReq=40146875.
 FoFCou: FMM=F IPFlag=           0 FMFlag=           0 FMFlg1=           0
         NFxFlg=           0 DoJE=F BraDBF=F KetDBF=F FulRan=T
         wScrn=  0.000000 ICntrl=       600 IOpCl=  0 I1Cent=           0 NGrid=           0
         NMat0=    1 NMatS0=   8001 NMatT0=    0 NMatD0=    1 NMtDS0=    0 NMtDT0=    0
 Petite list used in FoFCou.
 CIDS: In Core Option IDoMem=           1.
 Coupled Cluster theory with single and double substitutions
 ===========================================================
 Iterations=  50 Convergence= 0.100D-06
 Produce multiple copies of IABC intergrals
 Iteration Nr.   1
 **********************
 DD1Dir will call FoFMem   1 times, MxPair=         6
 NAB=     3 NAA=     0 NBB=     0.
 MP4(R+Q)=  0.20370430D-01
 Maximum subspace dimension=  5
 A-vector RMS=  4.8453196D-02 Max=  3.6279783D-01 conv= 1.00D-05.
 RLE energy=       -0.1179515085
 E3=       -0.30875712D-01        EUMP3=      -0.25045145005D+02
 E4(DQ)=   -0.50618436D-02        UMP4(DQ)=   -0.25050206849D+02
 E4(SDQ)=  -0.50722368D-01        UMP4(SDQ)=  -0.25095867373D+02
 VARIATIONAL ENERGIES WITH THE FIRST-ORDER WAVEFUNCTION:
 DE(Corr)= -0.11988085     E(Corr)=     -25.009756538    
 NORM(A)=   0.12713925D+01
 Iteration Nr.   2
 **********************
 DD1Dir will call FoFMem   1 times, MxPair=         6
 NAB=     3 NAA=     0 NBB=     0.
 A-vector RMS=  5.1089714D-02 Max=  4.3711653D-01 conv= 1.00D-05.
 RLE energy=       -0.1846321487
 DE(Corr)= -0.19974501     E(CORR)=     -25.089620700     Delta=-7.99D-02
 NORM(A)=   0.13835096D+01
 Iteration Nr.   3
 **********************
 DD1Dir will call FoFMem   1 times, MxPair=         6
 NAB=     3 NAA=     0 NBB=     0.
 A-vector RMS=  3.0136287D-02 Max=  2.2878602D-01 conv= 1.00D-05.
 RLE energy=       -0.1957582819
 DE(Corr)= -0.16238958     E(CORR)=     -25.052265270     Delta= 3.74D-02
 NORM(A)=   0.16647724D+01
 Iteration Nr.   4
 **********************
 DD1Dir will call FoFMem   1 times, MxPair=         6
 NAB=     3 NAA=     0 NBB=     0.
 A-vector RMS=  2.2742792D-02 Max=  1.7409712D-01 conv= 1.00D-05.
 RLE energy=       -0.1891256371
 DE(Corr)= -0.21203800     E(CORR)=     -25.101913688     Delta=-4.96D-02
 NORM(A)=   0.15274932D+01
 Iteration Nr.   5
 **********************
 DD1Dir will call FoFMem   1 times, MxPair=         6
 NAB=     3 NAA=     0 NBB=     0.
 A-vector RMS=  1.2724568D-02 Max=  9.7555600D-02 conv= 1.00D-05.
 RLE energy=       -0.1991332952
 DE(Corr)= -0.18527986     E(CORR)=     -25.075155547     Delta= 2.68D-02
 NORM(A)=   0.16678558D+01
 Iteration Nr.   6
 **********************
 DD1Dir will call FoFMem   1 times, MxPair=         6
 NAB=     3 NAA=     0 NBB=     0.
 A-vector RMS=  2.2374728D-03 Max=  1.6736514D-02 conv= 1.00D-05.
 RLE energy=       -0.1970818004
 DE(Corr)= -0.19930022     E(CORR)=     -25.089175908     Delta=-1.40D-02
 NORM(A)=   0.16450588D+01
 Iteration Nr.   7
 **********************
 DD1Dir will call FoFMem   1 times, MxPair=         6
 NAB=     3 NAA=     0 NBB=     0.
 A-vector RMS=  2.3648770D-04 Max=  1.9992311D-03 conv= 1.00D-05.
 RLE energy=       -0.1964650370
 DE(Corr)= -0.19692964     E(CORR)=     -25.086805330     Delta= 2.37D-03
 NORM(A)=   0.16409616D+01
 Iteration Nr.   8
 **********************
 DD1Dir will call FoFMem   1 times, MxPair=         6
 NAB=     3 NAA=     0 NBB=     0.
 A-vector RMS=  2.2796132D-04 Max=  3.1485733D-03 conv= 1.00D-05.
 RLE energy=       -0.1971139940
 DE(Corr)= -0.19679666     E(CORR)=     -25.086672353     Delta= 1.33D-04
 NORM(A)=   0.16474622D+01
 Iteration Nr.   9
 **********************
 DD1Dir will call FoFMem   1 times, MxPair=         6
 NAB=     3 NAA=     0 NBB=     0.
 A-vector RMS=  4.9370014D-05 Max=  1.0213435D-03 conv= 1.00D-05.
 RLE energy=       -0.1969275570
 DE(Corr)= -0.19700371     E(CORR)=     -25.086879401     Delta=-2.07D-04
 NORM(A)=   0.16461946D+01
 Iteration Nr.  10
 **********************
 DD1Dir will call FoFMem   1 times, MxPair=         6
 NAB=     3 NAA=     0 NBB=     0.
 A-vector RMS=  1.2175347D-04 Max=  9.3398990D-04 conv= 1.00D-05.
 RLE energy=       -0.1969957911
 DE(Corr)= -0.19704127     E(CORR)=     -25.086916959     Delta=-3.76D-05
 NORM(A)=   0.16459031D+01
 Iteration Nr.  11
 **********************
 DD1Dir will call FoFMem   1 times, MxPair=         6
 NAB=     3 NAA=     0 NBB=     0.
 A-vector RMS=  9.6840305D-05 Max=  7.2796223D-04 conv= 1.00D-05.
 RLE energy=       -0.1969227285
 DE(Corr)= -0.19684827     E(CORR)=     -25.086723961     Delta= 1.93D-04
 NORM(A)=   0.16456991D+01
 Iteration Nr.  12
 **********************
 DD1Dir will call FoFMem   1 times, MxPair=         6
 NAB=     3 NAA=     0 NBB=     0.
 A-vector RMS=  1.0224842D-05 Max=  9.4522965D-05 conv= 1.00D-05.
 RLE energy=       -0.1969377429
 DE(Corr)= -0.19694522     E(CORR)=     -25.086820910     Delta=-9.69D-05
 NORM(A)=   0.16457812D+01
 Iteration Nr.  13
 **********************
 DD1Dir will call FoFMem   1 times, MxPair=         6
 NAB=     3 NAA=     0 NBB=     0.
 A-vector RMS=  7.5072802D-06 Max=  5.6551749D-05 conv= 1.00D-05.
 RLE energy=       -0.1969315143
 DE(Corr)= -0.19693766     E(CORR)=     -25.086813348     Delta= 7.56D-06
 NORM(A)=   0.16456955D+01
 Iteration Nr.  14
 **********************
 DD1Dir will call FoFMem   1 times, MxPair=         6
 NAB=     3 NAA=     0 NBB=     0.
 A-vector RMS=  2.9351130D-06 Max=  2.1975901D-05 conv= 1.00D-05.
 RLE energy=       -0.1969317925
 DE(Corr)= -0.19692843     E(CORR)=     -25.086804120     Delta= 9.23D-06
 NORM(A)=   0.16457075D+01
 Iteration Nr.  15
 **********************
 DD1Dir will call FoFMem   1 times, MxPair=         6
 NAB=     3 NAA=     0 NBB=     0.
 A-vector RMS=  4.5040484D-07 Max=  2.6127631D-06 conv= 1.00D-05.
 RLE energy=       -0.1969317149
 DE(Corr)= -0.19693163     E(CORR)=     -25.086807315     Delta=-3.19D-06
 NORM(A)=   0.16457084D+01
 Iteration Nr.  16
 **********************
 DD1Dir will call FoFMem   1 times, MxPair=         6
 NAB=     3 NAA=     0 NBB=     0.
 A-vector RMS=  8.7548913D-07 Max=  6.6745191D-06 conv= 1.00D-05.
 RLE energy=       -0.1969317514
 DE(Corr)= -0.19693217     E(CORR)=     -25.086807856     Delta=-5.41D-07
 NORM(A)=   0.16457029D+01
 Iteration Nr.  17
 **********************
 DD1Dir will call FoFMem   1 times, MxPair=         6
 NAB=     3 NAA=     0 NBB=     0.
 A-vector RMS=  7.2047608D-07 Max=  5.4488394D-06 conv= 1.00D-05.
 RLE energy=       -0.1969312609
 DE(Corr)= -0.19693081     E(CORR)=     -25.086806503     Delta= 1.35D-06
 NORM(A)=   0.16457019D+01
 Iteration Nr.  18
 **********************
 DD1Dir will call FoFMem   1 times, MxPair=         6
 NAB=     3 NAA=     0 NBB=     0.
 A-vector RMS=  4.3387809D-08 Max=  1.3281510D-06 conv= 1.00D-05.
 RLE energy=       -0.1969315828
 DE(Corr)= -0.19693147     E(CORR)=     -25.086807156     Delta=-6.53D-07
 NORM(A)=   0.16457044D+01
 Iteration Nr.  19
 **********************
 DD1Dir will call FoFMem   1 times, MxPair=         6
 NAB=     3 NAA=     0 NBB=     0.
 A-vector RMS=  4.1793170D-08 Max=  4.5973009D-07 conv= 1.00D-05.
 RLE energy=       -0.1969314863
 DE(Corr)= -0.19693153     E(CORR)=     -25.086807215     Delta=-5.91D-08
 NORM(A)=   0.16457033D+01
 CI/CC converged in   19 iterations to DelEn=-5.91D-08 Conv= 1.00D-07 ErrA1= 4.18D-08 Conv= 1.00D-05
 Wavefunction amplitudes converged. E(Corr)=     -25.086807215    
 Dominant configurations:
 ***********************
 Spin Case        I    J    A    B          Value
    AA            3         4           -0.451694D+00
    AA            3        17            0.109052D+00
   ABAB           2    2    5    5      -0.123535D+00
   ABAB           2    2    6    6      -0.123535D+00
   ABAB           3    3    4    4      -0.101536D+01
   ABAB           3    3    4    7       0.122864D+00
   ABAB           3    3    4   11       0.100203D+00
   ABAB           3    3    7    4       0.122864D+00
   ABAB           3    3   11    4       0.100203D+00
 Largest amplitude= 1.02D+00
 Discarding MO integrals.
 Leave Link  913 at Sun May 22 15:48:33 2022, MaxMem=   104857600 cpu:               4.6 elap:               4.6
 (Enter /apps/software/g16/l601.exe)
 Copying SCF densities to generalized density rwf, IOpCl= 0 IROHF=0.

 **********************************************************************

            Population analysis using the SCF density.

 **********************************************************************

 Orbital symmetries:
       Occupied  (SG) (SG) (SG)
       Virtual   (SG) (PI) (PI) (SG) (PI) (PI) (SG) (SG) (DLTA)
                 (DLTA) (PI) (PI) (SG) (SG) (PI) (PI) (PI) (PI)
                 (SG) (SG) (PHI) (PHI) (DLTA) (DLTA) (DLTA) (DLTA)
                 (SG) (PI) (PI) (PI) (PI) (SG) (SG) (DLTA) (DLTA)
                 (PI) (PI) (SG) (PI) (PI) (SG) (PI) (PI) (SG) (SG)
                 (?A) (?A) (DLTA) (DLTA) (PHI) (PHI) (DLTA) (DLTA)
                 (PI) (PI) (PI) (PI) (SG) (SG) (PHI) (PHI) (DLTA)
                 (DLTA) (PI) (PI) (SG) (PHI) (PHI) (DLTA) (DLTA)
                 (PI) (PI) (SG) (SG) (DLTA) (DLTA) (PI) (PI) (SG)
                 (PI) (PI) (SG) (PI) (PI) (SG) (?A) (?A) (DLTA)
                 (DLTA) (PHI) (PHI) (DLTA) (DLTA) (PI) (PI) (PI)
                 (PI) (SG) (SG) (PHI) (PHI) (DLTA) (DLTA) (PI)
                 (PI) (SG) (PHI) (PHI) (DLTA) (DLTA) (PI) (PI)
                 (SG) (SG) (PI) (PI) (SG) (DLTA) (DLTA) (PI) (PI)
                 (SG) (SG)
 The electronic state is 1-SG.
 Alpha  occ. eigenvalues --   -7.89333  -0.62448  -0.22873
 Alpha virt. eigenvalues --   -0.08271  -0.04965  -0.04965   0.02191   0.04145
 Alpha virt. eigenvalues --    0.04145   0.06034   0.09906   0.11741   0.11741
 Alpha virt. eigenvalues --    0.12540   0.12540   0.15200   0.23588   0.24143
 Alpha virt. eigenvalues --    0.24143   0.25003   0.25003   0.28824   0.32908
 Alpha virt. eigenvalues --    0.41388   0.41388   0.42130   0.42130   0.43183
 Alpha virt. eigenvalues --    0.43183   0.43209   0.43549   0.43549   0.44492
 Alpha virt. eigenvalues --    0.44492   0.46746   0.54763   0.69321   0.69321
 Alpha virt. eigenvalues --    0.72342   0.72342   0.77138   0.87035   0.87035
 Alpha virt. eigenvalues --    0.93536   0.93970   0.93970   1.00428   1.28749
 Alpha virt. eigenvalues --    1.29257   1.29257   1.29906   1.29906   1.30157
 Alpha virt. eigenvalues --    1.30157   1.30860   1.30860   1.31142   1.31142
 Alpha virt. eigenvalues --    1.31700   1.31700   1.32506   1.34284   1.34541
 Alpha virt. eigenvalues --    1.34541   1.35630   1.35630   1.37494   1.37494
 Alpha virt. eigenvalues --    1.43491   1.64970   1.64970   1.65135   1.65135
 Alpha virt. eigenvalues --    1.66604   1.66604   1.68291   1.78148   2.55977
 Alpha virt. eigenvalues --    2.55977   2.57766   2.57766   2.61944   2.68528
 Alpha virt. eigenvalues --    2.68528   2.76067   3.57791   3.57791   3.61740
 Alpha virt. eigenvalues --    3.79808   3.79808   3.80600   3.80600   3.80858
 Alpha virt. eigenvalues --    3.80858   3.81636   3.81636   3.81987   3.81987
 Alpha virt. eigenvalues --    3.82294   3.82294   3.82984   3.84709   3.94810
 Alpha virt. eigenvalues --    3.94810   3.95995   3.95995   3.97629   3.97629
 Alpha virt. eigenvalues --    4.01785   6.65821   6.65821   6.65890   6.65890
 Alpha virt. eigenvalues --    6.66238   6.66238   6.66969   7.54035   8.04770
 Alpha virt. eigenvalues --    8.04770   8.09090   8.49491   8.49491   8.50665
 Alpha virt. eigenvalues --    8.50665   8.54851  12.87233
          Condensed to atoms (all electrons):
               1          2
     1  B    4.499895   0.101469
     2  H    0.101469   1.297167
 Mulliken charges:
               1
     1  B    0.398636
     2  H   -0.398636
 Sum of Mulliken charges =  -0.00000
 Mulliken charges with hydrogens summed into heavy atoms:
               1
     1  B   -0.000000
 Electronic spatial extent (au):  <R**2>=             96.5280
 Charge=             -0.0000 electrons
 Dipole moment (field-independent basis, Debye):
    X=              0.0000    Y=              0.0000    Z=              9.0138  Tot=              9.0138
 Quadrupole moment (field-independent basis, Debye-Ang):
   XX=             -9.2348   YY=             -9.2348   ZZ=            -33.8721
   XY=              0.0000   XZ=              0.0000   YZ=              0.0000
 Traceless Quadrupole moment (field-independent basis, Debye-Ang):
   XX=              8.2124   YY=              8.2124   ZZ=            -16.4249
   XY=              0.0000   XZ=              0.0000   YZ=              0.0000
 Octapole moment (field-independent basis, Debye-Ang**2):
  XXX=              0.0000  YYY=              0.0000  ZZZ=            105.1595  XYY=              0.0000
  XXY=              0.0000  XXZ=             10.5210  XZZ=              0.0000  YZZ=              0.0000
  YYZ=             10.5210  XYZ=              0.0000
 Hexadecapole moment (field-independent basis, Debye-Ang**3):
 XXXX=            -21.2436 YYYY=            -21.2436 ZZZZ=           -596.8816 XXXY=              0.0000
 XXXZ=              0.0000 YYYX=              0.0000 YYYZ=              0.0000 ZZZX=              0.0000
 ZZZY=              0.0000 XXYY=             -7.0812 XXZZ=            -58.7489 YYZZ=            -58.7489
 XXYZ=              0.0000 YYXZ=              0.0000 ZZXY=              0.0000
 N-N= 6.013377396818D-01 E-N=-5.824992928281D+01  KE= 2.476058538351D+01
 Symmetry A1   KE= 2.476058538351D+01
 Symmetry A2   KE= 7.181253819469D-52
 Symmetry B1   KE= 0.000000000000D+00
 Symmetry B2   KE= 0.000000000000D+00
 Leave Link  601 at Sun May 22 15:48:33 2022, MaxMem=   104857600 cpu:               0.1 elap:               0.1
 (Enter /apps/software/g16/l9999.exe)
 1\1\GINC-CNODE10\SP\RCCSD-FC\Aug-CC-pVQZ\B1H1\LCZ\22-May-2022\0\\#p RH
 F/aug-cc-pVQZ guess=read CCSD=FC\\BH RHF at 4.4 Angstrom\\0,1\B,0,0.,0
 .,0.\H,0,4.4,0.,0.\\Version=ES64L-G16RevA.03\State=1-SG\HF=-24.8898757
 \MP2=-25.0142693\MP3=-25.045145\MP4D=-25.0705773\MP4DQ=-25.0502068\MP4
 SDQ=-25.0958674\CCSD=-25.0868072\RMSD=1.993e-10\PG=C*V [C*(H1B1)]\\@


 "ANNA, YOU MUSN'T SPEAK OF OXIDIZED MURIATIC ACID
 ANYMORE, FROM NOW ON YOU MUST SAY CHLORINE."
   -- JENS JACOB BERZELIUS, IN 1820, TO HIS COOK, WHO HAD
 COMPLAINED OF THE SMELL OF THE FLASK SHE WAS CLEANING.
 Job cpu time:       0 days  0 hours  0 minutes 13.6 seconds.
 Elapsed time:       0 days  0 hours  0 minutes 13.6 seconds.
 File lengths (MBytes):  RWF=    106 Int=      0 D2E=      0 Chk=     67 Scr=      1
 Normal termination of Gaussian 16 at Sun May 22 15:48:33 2022.

Sender: Unischeduler System <lcz@mgt01>
Subject: Job 134061: <#!/bin/bash
#BSUB -J intel
#BSUB -o BH-4.4-CCSD-G.out
#BSUB -n 8
#BSUB -q cqueue
#BSUB -R span[hosts=1]
export g16root=/apps/software
source /apps/software/g16/bsd/g16.profile
export GAUSS_SCRDIR=/scratch
/apps/software/g16/g16 < BH-4.4-CCSD-G.inp > BH-4.4-CCSD-G.out> Done

Job <#!/bin/bash
#BSUB -J intel
#BSUB -o BH-4.4-CCSD-G.out
#BSUB -n 8
#BSUB -q cqueue
#BSUB -R span[hosts=1]
export g16root=/apps/software
source /apps/software/g16/bsd/g16.profile
export GAUSS_SCRDIR=/scratch
/apps/software/g16/g16 < BH-4.4-CCSD-G.inp > BH-4.4-CCSD-G.out> was submitted from host <mgt01> by user <lcz>.
Job was executed on host(s) <8*cnode10>, in queue <cqueue>, as user <lcz>.
</apps/users/lcz> was used as the home directory.
</apps/users/lcz/exe13/CCSD> was used as the working directory.
Started at 2022-05-22 15:48:19
Results reported at 2022-05-22 15:48:33

Your job looked like:

------------------------------------------------------------
# User input
#!/bin/bash
#BSUB -J intel
#BSUB -o BH-4.4-CCSD-G.out
#BSUB -n 8
#BSUB -q cqueue
#BSUB -R span[hosts=1]
export g16root=/apps/software
source /apps/software/g16/bsd/g16.profile
export GAUSS_SCRDIR=/scratch
/apps/software/g16/g16 < BH-4.4-CCSD-G.inp > BH-4.4-CCSD-G.out
------------------------------------------------------------

Successfully completed.

Resource usage summary:

    CPU time   :            9.73 sec.
    Max Memory :               356 MB
    Max Processes  :               5


The output (if any) follows:

