 Entering Gaussian System, Link 0=/apps/software/g16/g16
 Initial command:
 /apps/software/g16/l1.exe "/scratch/Gau-382514.inp" -scrdir="/scratch/"
 Entering Link 1 = /apps/software/g16/l1.exe PID=    382515.
  
 Copyright (c) 1988,1990,1992,1993,1995,1998,2003,2009,2016,
            Gaussian, Inc.  All Rights Reserved.
  
 This is part of the Gaussian(R) 16 program.  It is based on
 the Gaussian(R) 09 system (copyright 2009, Gaussian, Inc.),
 the Gaussian(R) 03 system (copyright 2003, Gaussian, Inc.),
 the Gaussian(R) 98 system (copyright 1998, Gaussian, Inc.),
 the Gaussian(R) 94 system (copyright 1995, Gaussian, Inc.),
 the Gaussian 92(TM) system (copyright 1992, Gaussian, Inc.),
 the Gaussian 90(TM) system (copyright 1990, Gaussian, Inc.),
 the Gaussian 88(TM) system (copyright 1988, Gaussian, Inc.),
 the Gaussian 86(TM) system (copyright 1986, Carnegie Mellon
 University), and the Gaussian 82(TM) system (copyright 1983,
 Carnegie Mellon University). Gaussian is a federally registered
 trademark of Gaussian, Inc.
  
 This software contains proprietary and confidential information,
 including trade secrets, belonging to Gaussian, Inc.
  
 This software is provided under written license and may be
 used, copied, transmitted, or stored only in accord with that
 written license.
  
 The following legend is applicable only to US Government
 contracts under FAR:
  
                    RESTRICTED RIGHTS LEGEND
  
 Use, reproduction and disclosure by the US Government is
 subject to restrictions as set forth in subparagraphs (a)
 and (c) of the Commercial Computer Software - Restricted
 Rights clause in FAR 52.227-19.
  
 Gaussian, Inc.
 340 Quinnipiac St., Bldg. 40, Wallingford CT 06492
  
  
 ---------------------------------------------------------------
 Warning -- This program may not be used in any manner that
 competes with the business of Gaussian, Inc. or will provide
 assistance to any competitor of Gaussian, Inc.  The licensee
 of this program is prohibited from giving any competitor of
 Gaussian, Inc. access to this program.  By using this program,
 the user acknowledges that Gaussian, Inc. is engaged in the
 business of creating and licensing software in the field of
 computational chemistry and represents and warrants to the
 licensee that it is not a competitor of Gaussian, Inc. and that
 it will not use this program in any manner prohibited above.
 ---------------------------------------------------------------
  

 Cite this work as:
 Gaussian 16, Revision A.03,
 M. J. Frisch, G. W. Trucks, H. B. Schlegel, G. E. Scuseria, 
 M. A. Robb, J. R. Cheeseman, G. Scalmani, V. Barone, 
 G. A. Petersson, H. Nakatsuji, X. Li, M. Caricato, A. V. Marenich, 
 J. Bloino, B. G. Janesko, R. Gomperts, B. Mennucci, H. P. Hratchian, 
 J. V. Ortiz, A. F. Izmaylov, J. L. Sonnenberg, D. Williams-Young, 
 F. Ding, F. Lipparini, F. Egidi, J. Goings, B. Peng, A. Petrone, 
 T. Henderson, D. Ranasinghe, V. G. Zakrzewski, J. Gao, N. Rega, 
 G. Zheng, W. Liang, M. Hada, M. Ehara, K. Toyota, R. Fukuda, 
 J. Hasegawa, M. Ishida, T. Nakajima, Y. Honda, O. Kitao, H. Nakai, 
 T. Vreven, K. Throssell, J. A. Montgomery, Jr., J. E. Peralta, 
 F. Ogliaro, M. J. Bearpark, J. J. Heyd, E. N. Brothers, K. N. Kudin, 
 V. N. Staroverov, T. A. Keith, R. Kobayashi, J. Normand, 
 K. Raghavachari, A. P. Rendell, J. C. Burant, S. S. Iyengar, 
 J. Tomasi, M. Cossi, J. M. Millam, M. Klene, C. Adamo, R. Cammi, 
 J. W. Ochterski, R. L. Martin, K. Morokuma, O. Farkas, 
 J. B. Foresman, and D. J. Fox, Gaussian, Inc., Wallingford CT, 2016.
 
 ******************************************
 Gaussian 16:  ES64L-G16RevA.03 25-Dec-2016
                22-May-2022 
 ******************************************
 %oldchk=BH-4.0-RHF-G.chk
 %chk=BH-4.0-CCSD-G.chk
 Copying data from "BH-4.0-RHF-G.chk" to current chk file "BH-4.0-CCSD-G.chk"
 IOpt=  2 FromEx=T IUOpen= 4 IOptOp= 5 NList=   0 IFRang= 0 IUIn= 4 IUOut= 2.
 -------------------------------------
 #p RHF/aug-cc-pVQZ guess=read CCSD=FC
 -------------------------------------
 1/38=1,172=1/1;
 2/12=2,17=6,18=5,40=1/2;
 3/5=16,6=2,7=10,11=1,25=1,30=1,116=1/1,2,3;
 4/5=1/1;
 5/5=2,38=6/2;
 8/6=4,9=120000,10=1/1,4;
 9/5=7/13;
 6/7=2,8=2,9=2,10=2/1;
 99/5=1,9=1/99;
 Leave Link    1 at Sun May 22 15:52:25 2022, MaxMem=   104857600 cpu:               0.0 elap:               0.0
 (Enter /apps/software/g16/l101.exe)
 ----------------------
 BH RHF at 4.0 Angstrom
 ----------------------
 Symbolic Z-matrix:
 Charge =  0 Multiplicity = 1
 B                     0.        0.        0. 
 H                     4.        0.        0. 
 
 ITRead=  0  0
 MicOpt= -1 -1
 NAtoms=      2 NQM=        2 NQMF=       0 NMMI=      0 NMMIF=      0
                NMic=       0 NMicF=      0.
                    Isotopes and Nuclear Properties:
 (Nuclear quadrupole moments (NQMom) in fm**2, nuclear magnetic moments (NMagM)
  in nuclear magnetons)

  Atom         1           2
 IAtWgt=          11           1
 AtmWgt=  11.0093053   1.0078250
 NucSpn=           3           1
 AtZEff=  -0.0000000  -0.0000000
 NQMom=    4.0590000   0.0000000
 NMagM=    2.6886370   2.7928460
 AtZNuc=   5.0000000   1.0000000
 Leave Link  101 at Sun May 22 15:52:25 2022, MaxMem=   104857600 cpu:               0.1 elap:               0.1
 (Enter /apps/software/g16/l202.exe)
                          Input orientation:                          
 ---------------------------------------------------------------------
 Center     Atomic      Atomic             Coordinates (Angstroms)
 Number     Number       Type             X           Y           Z
 ---------------------------------------------------------------------
      1          5           0        0.000000    0.000000    0.000000
      2          1           0        4.000000    0.000000    0.000000
 ---------------------------------------------------------------------
 Stoichiometry    BH
 Framework group  C*V[C*(HB)]
 Deg. of freedom     1
 Full point group                 C*V     NOp   4
 Largest Abelian subgroup         C2V     NOp   4
 Largest concise Abelian subgroup C1      NOp   1
                         Standard orientation:                         
 ---------------------------------------------------------------------
 Center     Atomic      Atomic             Coordinates (Angstroms)
 Number     Number       Type             X           Y           Z
 ---------------------------------------------------------------------
      1          5           0        0.000000    0.000000    0.666667
      2          1           0        0.000000    0.000000   -3.333333
 ---------------------------------------------------------------------
 Rotational constants (GHZ):           0.0000000          34.2099886          34.2099886
 Leave Link  202 at Sun May 22 15:52:25 2022, MaxMem=   104857600 cpu:               0.0 elap:               0.0
 (Enter /apps/software/g16/l301.exe)
 Standard basis: Aug-CC-pVQZ (5D, 7F)
 Ernie: Thresh=  0.10000D-02 Tol=  0.10000D-05 Strict=F.
 Ernie:  4 primitive shells out of 54 were deleted.
 There are    68 symmetry adapted cartesian basis functions of A1  symmetry.
 There are    18 symmetry adapted cartesian basis functions of A2  symmetry.
 There are    37 symmetry adapted cartesian basis functions of B1  symmetry.
 There are    37 symmetry adapted cartesian basis functions of B2  symmetry.
 There are    50 symmetry adapted basis functions of A1  symmetry.
 There are    16 symmetry adapted basis functions of A2  symmetry.
 There are    30 symmetry adapted basis functions of B1  symmetry.
 There are    30 symmetry adapted basis functions of B2  symmetry.
   126 basis functions,   180 primitive gaussians,   160 cartesian basis functions
     3 alpha electrons        3 beta electrons
       nuclear repulsion energy         0.6614715137 Hartrees.
 IExCor=    0 DFT=F Ex=HF Corr=None ExCW=0 ScaHFX=  1.000000
 ScaDFX=  1.000000  1.000000  1.000000  1.000000 ScalE2=  1.000000  1.000000
 IRadAn=      5 IRanWt=     -1 IRanGd=            0 ICorTp=0 IEmpDi=  4
 NAtoms=    2 NActive=    2 NUniq=    2 SFac= 1.00D+00 NAtFMM=   60 NAOKFM=F Big=F
 Integral buffers will be    131072 words long.
 Raffenetti 1 integral format.
 Two-electron integral symmetry is turned on.
 Leave Link  301 at Sun May 22 15:52:25 2022, MaxMem=   104857600 cpu:               0.1 elap:               0.1
 (Enter /apps/software/g16/l302.exe)
 NPDir=0 NMtPBC=     1 NCelOv=     1 NCel=       1 NClECP=     1 NCelD=      1
         NCelK=      1 NCelE2=     1 NClLst=     1 CellRange=     0.0.
 One-electron integrals computed using PRISM.
 One-electron integral symmetry used in STVInt
 NBasis=   126 RedAO= T EigKep=  1.13D-02  NBF=    50    16    30    30
 NBsUse=   126 1.00D-06 EigRej= -1.00D+00 NBFU=    50    16    30    30
 Leave Link  302 at Sun May 22 15:52:25 2022, MaxMem=   104857600 cpu:               0.1 elap:               0.1
 (Enter /apps/software/g16/l303.exe)
 DipDrv:  MaxL=1.
 Leave Link  303 at Sun May 22 15:52:25 2022, MaxMem=   104857600 cpu:               0.1 elap:               0.0
 (Enter /apps/software/g16/l401.exe)
 Initial guess from the checkpoint file:  "BH-4.0-CCSD-G.chk"
 B after Tr=     0.000000    0.000000    0.000000
         Rot=    1.000000    0.000000    0.000000    0.000000 Ang=   0.00 deg.
 Guess basis will be translated and rotated to current coordinates.
 JPrj=2 DoOrth=T DoCkMO=T.
 Initial guess orbital symmetries:
       Occupied  (SG) (SG) (SG)
       Virtual   (SG) (PI) (PI) (SG) (PI) (PI) (SG) (SG) (DLTA)
                 (DLTA) (PI) (PI) (SG) (PI) (PI) (SG) (PI) (PI)
                 (SG) (SG) (PHI) (PHI) (DLTA) (DLTA) (DLTA) (DLTA)
                 (SG) (PI) (PI) (PI) (PI) (SG) (SG) (DLTA) (DLTA)
                 (PI) (PI) (SG) (PI) (PI) (PI) (PI) (SG) (SG) (SG)
                 (?A) (?A) (DLTA) (DLTA) (PHI) (PHI) (DLTA) (DLTA)
                 (PI) (PI) (PI) (PI) (SG) (PHI) (PHI) (DLTA) (DLTA)
                 (SG) (PI) (PI) (SG) (PHI) (PHI) (DLTA) (DLTA)
                 (PI) (PI) (SG) (SG) (DLTA) (DLTA) (PI) (PI) (SG)
                 (PI) (PI) (SG) (PI) (PI) (SG) (?A) (?A) (DLTA)
                 (DLTA) (PHI) (PHI) (DLTA) (DLTA) (PI) (PI) (SG)
                 (PI) (PI) (SG) (PHI) (PHI) (DLTA) (DLTA) (PI)
                 (PI) (SG) (PHI) (PHI) (DLTA) (DLTA) (PI) (PI)
                 (SG) (SG) (PI) (PI) (SG) (DLTA) (DLTA) (PI) (PI)
                 (SG) (SG)
 The electronic state of the initial guess is 1-SG.
 Leave Link  401 at Sun May 22 15:52:25 2022, MaxMem=   104857600 cpu:               0.1 elap:               0.1
 (Enter /apps/software/g16/l502.exe)
 Keep R1 ints in memory in symmetry-blocked form, NReq=40143665.
 FoFCou: FMM=F IPFlag=           0 FMFlag=           0 FMFlg1=           0
         NFxFlg=           0 DoJE=F BraDBF=F KetDBF=F FulRan=T
         wScrn=  0.000000 ICntrl=       600 IOpCl=  0 I1Cent=           0 NGrid=           0
         NMat0=    1 NMatS0=   8001 NMatT0=    0 NMatD0=    1 NMtDS0=    0 NMtDT0=    0
 Petite list used in FoFCou.
 Closed shell SCF:
 Using DIIS extrapolation, IDIIS=  1040.
 NGot=   104857600 LenX=    96673173 LenY=    96647132
 Requested convergence on RMS density matrix=1.00D-08 within 128 cycles.
 Requested convergence on MAX density matrix=1.00D-06.
 Requested convergence on             energy=1.00D-06.
 No special actions if energy rises.

 Cycle   1  Pass 1  IDiag  1:
 E= -24.9032699729396    
 DIIS: error= 1.01D-09 at cycle   1 NSaved=   1.
 NSaved= 1 IEnMin= 1 EnMin= -24.9032699729396     IErMin= 1 ErrMin= 1.01D-09
 ErrMax= 1.01D-09  0.00D+00 EMaxC= 1.00D-01 BMatC= 2.86D-17 BMatP= 2.86D-17
 IDIUse=1 WtCom= 1.00D+00 WtEn= 0.00D+00
 Coeff-Com:  0.100D+01
 Coeff:      0.100D+01
 Gap=     0.168 Goal=   None    Shift=    0.000
 RMSDP=1.72D-10 MaxDP=7.46D-09              OVMax= 1.38D-08

 SCF Done:  E(RHF) =  -24.9032699729     A.U. after    1 cycles
            NFock=  1  Conv=0.17D-09     -V/T= 2.0060
 KE= 2.475366664089D+01 PE=-5.839296707120D+01 EE= 8.074558943725D+00
 Leave Link  502 at Sun May 22 15:52:29 2022, MaxMem=   104857600 cpu:               3.6 elap:               3.6
 (Enter /apps/software/g16/l801.exe)
 Windowed orbitals will be sorted by symmetry type.
 ExpMin= 1.88D-02 ExpMax= 2.39D+04 ExpMxC= 2.30D+02 IAcc=3 IRadAn=         5 AccDes= 0.00D+00
 HarFok:  IExCor=  205 AccDes= 0.00D+00 IRadAn=         5 IDoV=-2 UseB2=F ITyADJ=14
 ICtDFT= 12500011 ScaDFX=  1.000000  1.000000  1.000000  1.000000
 Largest valence mixing into a core orbital is  4.03D-04
 Largest core mixing into a valence orbital is  1.74D-04
 Range of M.O.s used for correlation:     2   126
 NBasis=   126 NAE=     3 NBE=     3 NFC=     1 NFV=     0
 NROrb=    125 NOA=     2 NOB=     2 NVA=   123 NVB=   123
 Leave Link  801 at Sun May 22 15:52:29 2022, MaxMem=   104857600 cpu:               0.1 elap:               0.1
 (Enter /apps/software/g16/l804.exe)
 Closed-shell transformation, MDV=   104857600 ITran=4 ISComp=2.
 Unit  1 TFree=        535169 TCopy=        350885.
 Semi-Direct transformation.
 ModeAB=           2 MOrb=             2 LenV=     104242514
 LASXX=       493564 LTotXX=      493564 LenRXX=      493564
 LTotAB=      509833 MaxLAS=     3220000 LenRXY=     3220000
 NonZer=     3309250 LenScr=     5672960 LnRSAI=           0
 LnScr1=           0 LExtra=           0 Total=      9386524
 MaxDsk=          -1 SrtSym=           F ITran=            4
 DoSDTr:  NPSUse=  1
 JobTyp=0 Pass  1:  I=   1 to   2.
 (rs|ai) integrals will be sorted in core.
 Complete sort for first half transformation.
 First half transformation complete.
 Complete sort for second half transformation.
 Second half transformation complete.
 Spin components of T(2) and E(2):
     alpha-alpha T2 =       0.1631147050D-02 E2=     -0.2211196583D-02
     alpha-beta  T2 =       0.1665891326D+00 E2=     -0.1094708072D+00
     beta-beta   T2 =       0.1631147050D-02 E2=     -0.2211196583D-02
 ANorm=    0.1081596702D+01
 E2 =    -0.1138932004D+00 EUMP2 =    -0.25017163173325D+02
 Leave Link  804 at Sun May 22 15:52:34 2022, MaxMem=   104857600 cpu:               5.0 elap:               5.0
 (Enter /apps/software/g16/l913.exe)
 CIDS:  MDV=   104857600.
 Frozen-core window:  NFC=   1 NFV=   0.
 IFCWin=0 IBDFC=1 NFBD=     0     0 NFCmp=     0     0 NFFFC=     0     0
 Using DD3R+UMP44R for 1st iteration.
 Using DD4RQ for 2nd and later iterations.
 Keep R2 and R3 ints in memory in symmetry-blocked form, NReq=40146875.
 FoFCou: FMM=F IPFlag=           0 FMFlag=           0 FMFlg1=           0
         NFxFlg=           0 DoJE=F BraDBF=F KetDBF=F FulRan=T
         wScrn=  0.000000 ICntrl=       600 IOpCl=  0 I1Cent=           0 NGrid=           0
         NMat0=    1 NMatS0=   8001 NMatT0=    0 NMatD0=    1 NMtDS0=    0 NMtDT0=    0
 Petite list used in FoFCou.
 CIDS: In Core Option IDoMem=           1.
 Coupled Cluster theory with single and double substitutions
 ===========================================================
 Iterations=  50 Convergence= 0.100D-06
 Produce multiple copies of IABC intergrals
 Iteration Nr.   1
 **********************
 DD1Dir will call FoFMem   1 times, MxPair=         6
 NAB=     3 NAA=     0 NBB=     0.
 MP4(R+Q)=  0.13800653D-01
 Maximum subspace dimension=  5
 A-vector RMS=  3.4708048D-02 Max=  2.5591153D-01 conv= 1.00D-05.
 RLE energy=       -0.1221397208
 E3=       -0.29246962D-01        EUMP3=      -0.25046410136D+02
 E4(DQ)=   -0.80874618D-02        UMP4(DQ)=   -0.25054497598D+02
 E4(SDQ)=  -0.35416678D-01        UMP4(SDQ)=  -0.25081826813D+02
 VARIATIONAL ENERGIES WITH THE FIRST-ORDER WAVEFUNCTION:
 DE(Corr)= -0.12214944     E(Corr)=     -25.025419414    
 NORM(A)=   0.12031577D+01
 Iteration Nr.   2
 **********************
 DD1Dir will call FoFMem   1 times, MxPair=         6
 NAB=     3 NAA=     0 NBB=     0.
 A-vector RMS=  2.6065509D-02 Max=  3.0111802D-01 conv= 1.00D-05.
 RLE energy=       -0.1751633075
 DE(Corr)= -0.17531542     E(CORR)=     -25.078585392     Delta=-5.32D-02
 NORM(A)=   0.13296403D+01
 Iteration Nr.   3
 **********************
 DD1Dir will call FoFMem   1 times, MxPair=         6
 NAB=     3 NAA=     0 NBB=     0.
 A-vector RMS=  2.4744552D-02 Max=  1.8629929D-01 conv= 1.00D-05.
 RLE energy=       -0.1818472116
 DE(Corr)= -0.15715269     E(CORR)=     -25.060422665     Delta= 1.82D-02
 NORM(A)=   0.15347681D+01
 Iteration Nr.   4
 **********************
 DD1Dir will call FoFMem   1 times, MxPair=         6
 NAB=     3 NAA=     0 NBB=     0.
 A-vector RMS=  1.4098653D-02 Max=  1.0647615D-01 conv= 1.00D-05.
 RLE energy=       -0.1793274728
 DE(Corr)= -0.19304059     E(CORR)=     -25.096310562     Delta=-3.59D-02
 NORM(A)=   0.14711211D+01
 Iteration Nr.   5
 **********************
 DD1Dir will call FoFMem   1 times, MxPair=         6
 NAB=     3 NAA=     0 NBB=     0.
 A-vector RMS=  8.4481026D-03 Max=  6.4558111D-02 conv= 1.00D-05.
 RLE energy=       -0.1868839452
 DE(Corr)= -0.17711309     E(CORR)=     -25.080383067     Delta= 1.59D-02
 NORM(A)=   0.15793977D+01
 Iteration Nr.   6
 **********************
 DD1Dir will call FoFMem   1 times, MxPair=         6
 NAB=     3 NAA=     0 NBB=     0.
 A-vector RMS=  2.0200192D-03 Max=  1.5225495D-02 conv= 1.00D-05.
 RLE energy=       -0.1847291715
 DE(Corr)= -0.18702847     E(CORR)=     -25.090298442     Delta=-9.92D-03
 NORM(A)=   0.15544638D+01
 Iteration Nr.   7
 **********************
 DD1Dir will call FoFMem   1 times, MxPair=         6
 NAB=     3 NAA=     0 NBB=     0.
 A-vector RMS=  3.0143882D-04 Max=  1.9234972D-03 conv= 1.00D-05.
 RLE energy=       -0.1844739631
 DE(Corr)= -0.18454779     E(CORR)=     -25.087817761     Delta= 2.48D-03
 NORM(A)=   0.15540785D+01
 Iteration Nr.   8
 **********************
 DD1Dir will call FoFMem   1 times, MxPair=         6
 NAB=     3 NAA=     0 NBB=     0.
 A-vector RMS=  2.1666747D-04 Max=  1.5793195D-03 conv= 1.00D-05.
 RLE energy=       -0.1848664231
 DE(Corr)= -0.18458589     E(CORR)=     -25.087855860     Delta=-3.81D-05
 NORM(A)=   0.15584640D+01
 Iteration Nr.   9
 **********************
 DD1Dir will call FoFMem   1 times, MxPair=         6
 NAB=     3 NAA=     0 NBB=     0.
 A-vector RMS=  3.3014193D-05 Max=  4.5221648D-04 conv= 1.00D-05.
 RLE energy=       -0.1847627218
 DE(Corr)= -0.18482643     E(CORR)=     -25.088096402     Delta=-2.41D-04
 NORM(A)=   0.15577424D+01
 Iteration Nr.  10
 **********************
 DD1Dir will call FoFMem   1 times, MxPair=         6
 NAB=     3 NAA=     0 NBB=     0.
 A-vector RMS=  7.1736570D-05 Max=  5.4598877D-04 conv= 1.00D-05.
 RLE energy=       -0.1848063231
 DE(Corr)= -0.18482654     E(CORR)=     -25.088096518     Delta=-1.16D-07
 NORM(A)=   0.15575995D+01
 Iteration Nr.  11
 **********************
 DD1Dir will call FoFMem   1 times, MxPair=         6
 NAB=     3 NAA=     0 NBB=     0.
 A-vector RMS=  4.8669345D-05 Max=  3.6279339D-04 conv= 1.00D-05.
 RLE energy=       -0.1847613804
 DE(Corr)= -0.18473664     E(CORR)=     -25.088006616     Delta= 8.99D-05
 NORM(A)=   0.15574341D+01
 Iteration Nr.  12
 **********************
 DD1Dir will call FoFMem   1 times, MxPair=         6
 NAB=     3 NAA=     0 NBB=     0.
 A-vector RMS=  3.4769973D-06 Max=  6.1847323D-05 conv= 1.00D-05.
 RLE energy=       -0.1847728775
 DE(Corr)= -0.18477348     E(CORR)=     -25.088043457     Delta=-3.68D-05
 NORM(A)=   0.15575095D+01
 Iteration Nr.  13
 **********************
 DD1Dir will call FoFMem   1 times, MxPair=         6
 NAB=     3 NAA=     0 NBB=     0.
 A-vector RMS=  2.6000537D-06 Max=  1.9203068D-05 conv= 1.00D-05.
 RLE energy=       -0.1847702487
 DE(Corr)= -0.18477224     E(CORR)=     -25.088042216     Delta= 1.24D-06
 NORM(A)=   0.15574754D+01
 Iteration Nr.  14
 **********************
 DD1Dir will call FoFMem   1 times, MxPair=         6
 NAB=     3 NAA=     0 NBB=     0.
 A-vector RMS=  9.6985891D-07 Max=  7.1129271D-06 conv= 1.00D-05.
 RLE energy=       -0.1847702230
 DE(Corr)= -0.18476910     E(CORR)=     -25.088039073     Delta= 3.14D-06
 NORM(A)=   0.15574796D+01
 Iteration Nr.  15
 **********************
 DD1Dir will call FoFMem   1 times, MxPair=         6
 NAB=     3 NAA=     0 NBB=     0.
 A-vector RMS=  4.0676622D-07 Max=  2.7070158D-06 conv= 1.00D-05.
 RLE energy=       -0.1847700942
 DE(Corr)= -0.18477048     E(CORR)=     -25.088040451     Delta=-1.38D-06
 NORM(A)=   0.15574771D+01
 Iteration Nr.  16
 **********************
 DD1Dir will call FoFMem   1 times, MxPair=         6
 NAB=     3 NAA=     0 NBB=     0.
 A-vector RMS=  1.5717746D-07 Max=  1.1526446D-06 conv= 1.00D-05.
 RLE energy=       -0.1847701243
 DE(Corr)= -0.18477016     E(CORR)=     -25.088040134     Delta= 3.17D-07
 NORM(A)=   0.15574759D+01
 Iteration Nr.  17
 **********************
 DD1Dir will call FoFMem   1 times, MxPair=         6
 NAB=     3 NAA=     0 NBB=     0.
 A-vector RMS=  2.1515614D-07 Max=  1.5874880D-06 conv= 1.00D-05.
 RLE energy=       -0.1847700126
 DE(Corr)= -0.18476990     E(CORR)=     -25.088039878     Delta= 2.57D-07
 NORM(A)=   0.15574760D+01
 Iteration Nr.  18
 **********************
 DD1Dir will call FoFMem   1 times, MxPair=         6
 NAB=     3 NAA=     0 NBB=     0.
 A-vector RMS=  1.4452529D-08 Max=  2.8832437D-07 conv= 1.00D-05.
 RLE energy=       -0.1847701159
 DE(Corr)= -0.18477007     E(CORR)=     -25.088040044     Delta=-1.67D-07
 NORM(A)=   0.15574768D+01
 Iteration Nr.  19
 **********************
 DD1Dir will call FoFMem   1 times, MxPair=         6
 NAB=     3 NAA=     0 NBB=     0.
 A-vector RMS=  4.1404973D-08 Max=  3.1288575D-07 conv= 1.00D-05.
 RLE energy=       -0.1847700676
 DE(Corr)= -0.18477011     E(CORR)=     -25.088040083     Delta=-3.85D-08
 NORM(A)=   0.15574763D+01
 CI/CC converged in   19 iterations to DelEn=-3.85D-08 Conv= 1.00D-07 ErrA1= 4.14D-08 Conv= 1.00D-05
 Wavefunction amplitudes converged. E(Corr)=     -25.088040083    
 Dominant configurations:
 ***********************
 Spin Case        I    J    A    B          Value
    AA            3         4           -0.413014D+00
    AA            3        19            0.104386D+00
   ABAB           2    2    6    6      -0.122589D+00
   ABAB           2    2    5    5      -0.122589D+00
   ABAB           3    3    4    4      -0.909290D+00
   ABAB           3    3    4    7       0.131485D+00
   ABAB           3    3    7    4       0.131485D+00
 Largest amplitude= 9.09D-01
 Discarding MO integrals.
 Leave Link  913 at Sun May 22 15:52:38 2022, MaxMem=   104857600 cpu:               4.2 elap:               4.2
 (Enter /apps/software/g16/l601.exe)
 Copying SCF densities to generalized density rwf, IOpCl= 0 IROHF=0.

 **********************************************************************

            Population analysis using the SCF density.

 **********************************************************************

 Orbital symmetries:
       Occupied  (SG) (SG) (SG)
       Virtual   (SG) (PI) (PI) (SG) (PI) (PI) (SG) (SG) (DLTA)
                 (DLTA) (PI) (PI) (SG) (PI) (PI) (SG) (PI) (PI)
                 (SG) (SG) (PHI) (PHI) (DLTA) (DLTA) (DLTA) (DLTA)
                 (SG) (PI) (PI) (PI) (PI) (SG) (SG) (DLTA) (DLTA)
                 (PI) (PI) (SG) (PI) (PI) (PI) (PI) (SG) (SG) (SG)
                 (?A) (?A) (DLTA) (DLTA) (PHI) (PHI) (DLTA) (DLTA)
                 (PI) (PI) (PI) (PI) (SG) (PHI) (PHI) (DLTA) (DLTA)
                 (SG) (PI) (PI) (SG) (PHI) (PHI) (DLTA) (DLTA)
                 (PI) (PI) (SG) (SG) (DLTA) (DLTA) (PI) (PI) (SG)
                 (PI) (PI) (SG) (PI) (PI) (SG) (?A) (?A) (DLTA)
                 (DLTA) (PHI) (PHI) (DLTA) (DLTA) (PI) (PI) (SG)
                 (PI) (PI) (SG) (PHI) (PHI) (DLTA) (DLTA) (PI)
                 (PI) (SG) (PHI) (PHI) (DLTA) (DLTA) (PI) (PI)
                 (SG) (SG) (PI) (PI) (SG) (DLTA) (DLTA) (PI) (PI)
                 (SG) (SG)
 The electronic state is 1-SG.
 Alpha  occ. eigenvalues --   -7.88834  -0.61869  -0.23806
 Alpha virt. eigenvalues --   -0.07053  -0.04441  -0.04441   0.02397   0.04357
 Alpha virt. eigenvalues --    0.04357   0.06369   0.09581   0.12079   0.12079
 Alpha virt. eigenvalues --    0.12860   0.12860   0.15740   0.24305   0.24305
 Alpha virt. eigenvalues --    0.24671   0.25749   0.25749   0.29139   0.33929
 Alpha virt. eigenvalues --    0.41837   0.41837   0.42550   0.42550   0.43721
 Alpha virt. eigenvalues --    0.43721   0.44188   0.44296   0.44296   0.45554
 Alpha virt. eigenvalues --    0.45554   0.47536   0.56453   0.69393   0.69393
 Alpha virt. eigenvalues --    0.74354   0.74354   0.82102   0.87504   0.87504
 Alpha virt. eigenvalues --    0.94614   0.94614   0.96121   0.99408   1.29285
 Alpha virt. eigenvalues --    1.29786   1.29786   1.30453   1.30453   1.30755
 Alpha virt. eigenvalues --    1.30755   1.31512   1.31512   1.31552   1.31552
 Alpha virt. eigenvalues --    1.32667   1.32667   1.33018   1.35084   1.35084
 Alpha virt. eigenvalues --    1.36260   1.36260   1.37166   1.39141   1.39141
 Alpha virt. eigenvalues --    1.47838   1.64731   1.64731   1.65281   1.65281
 Alpha virt. eigenvalues --    1.69106   1.69106   1.70950   1.83624   2.55948
 Alpha virt. eigenvalues --    2.55948   2.59246   2.59246   2.66950   2.68901
 Alpha virt. eigenvalues --    2.68901   2.77320   3.58380   3.58380   3.62356
 Alpha virt. eigenvalues --    3.80364   3.80364   3.81136   3.81136   3.81446
 Alpha virt. eigenvalues --    3.81446   3.82285   3.82285   3.82589   3.82589
 Alpha virt. eigenvalues --    3.83483   3.83586   3.83586   3.90487   3.95362
 Alpha virt. eigenvalues --    3.95362   3.96653   3.96653   3.99049   3.99049
 Alpha virt. eigenvalues --    4.04023   6.65639   6.65639   6.65803   6.65803
 Alpha virt. eigenvalues --    6.66699   6.66699   6.68386   7.55771   8.04907
 Alpha virt. eigenvalues --    8.04907   8.09184   8.49423   8.49423   8.51673
 Alpha virt. eigenvalues --    8.51673   8.58621  12.89808
          Condensed to atoms (all electrons):
               1          2
     1  B    4.485773   0.128369
     2  H    0.128369   1.257489
 Mulliken charges:
               1
     1  B    0.385858
     2  H   -0.385858
 Sum of Mulliken charges =   0.00000
 Mulliken charges with hydrogens summed into heavy atoms:
               1
     1  B    0.000000
 Electronic spatial extent (au):  <R**2>=             82.8696
 Charge=              0.0000 electrons
 Dipole moment (field-independent basis, Debye):
    X=              0.0000    Y=              0.0000    Z=              8.0929  Tot=              8.0929
 Quadrupole moment (field-independent basis, Debye-Ang):
   XX=             -9.1322   YY=             -9.1322   ZZ=            -29.1553
   XY=              0.0000   XZ=              0.0000   YZ=              0.0000
 Traceless Quadrupole moment (field-independent basis, Debye-Ang):
   XX=              6.6744   YY=              6.6744   ZZ=            -13.3487
   XY=              0.0000   XZ=              0.0000   YZ=              0.0000
 Octapole moment (field-independent basis, Debye-Ang**2):
  XXX=              0.0000  YYY=              0.0000  ZZZ=             78.6259  XYY=              0.0000
  XXY=              0.0000  XXZ=              9.2930  XZZ=              0.0000  YZZ=              0.0000
  YYZ=              9.2930  XYZ=              0.0000
 Hexadecapole moment (field-independent basis, Debye-Ang**3):
 XXXX=            -20.2189 YYYY=            -20.2189 ZZZZ=           -435.3306 XXXY=              0.0000
 XXXZ=              0.0000 YYYX=              0.0000 YYYZ=              0.0000 ZZZX=              0.0000
 ZZZY=              0.0000 XXYY=             -6.7396 XXZZ=            -48.3558 YYZZ=            -48.3558
 XXYZ=              0.0000 YYXZ=              0.0000 ZZXY=              0.0000
 N-N= 6.614715136500D-01 E-N=-5.839296707215D+01  KE= 2.475366664089D+01
 Symmetry A1   KE= 2.475366664089D+01
 Symmetry A2   KE= 2.514029926654D-52
 Symmetry B1   KE= 0.000000000000D+00
 Symmetry B2   KE= 0.000000000000D+00
 Leave Link  601 at Sun May 22 15:52:38 2022, MaxMem=   104857600 cpu:               0.1 elap:               0.1
 (Enter /apps/software/g16/l9999.exe)
 1\1\GINC-CNODE13\SP\RCCSD-FC\Aug-CC-pVQZ\B1H1\LCZ\22-May-2022\0\\#p RH
 F/aug-cc-pVQZ guess=read CCSD=FC\\BH RHF at 4.0 Angstrom\\0,1\B,0,0.,0
 .,0.\H,0,4.,0.,0.\\Version=ES64L-G16RevA.03\State=1-SG\HF=-24.90327\MP
 2=-25.0171632\MP3=-25.0464101\MP4D=-25.0682983\MP4DQ=-25.0544976\MP4SD
 Q=-25.0818268\CCSD=-25.0880401\RMSD=1.717e-10\PG=C*V [C*(H1B1)]\\@


 SUCCESS IS COUNTED SWEETEST
 BY THOSE WHO NE'ER SUCCEED.
 TO COMPREHEND NECTAR
 REQUIRES SOREST NEED.
           EMILY DICKINSON
 Job cpu time:       0 days  0 hours  0 minutes 13.4 seconds.
 Elapsed time:       0 days  0 hours  0 minutes 13.4 seconds.
 File lengths (MBytes):  RWF=     80 Int=      0 D2E=      0 Chk=     67 Scr=      1
 Normal termination of Gaussian 16 at Sun May 22 15:52:38 2022.

Sender: Unischeduler System <lcz@mgt01>
Subject: Job 134059: <#!/bin/bash
#BSUB -J intel
#BSUB -o BH-4.0-CCSD-G.out
#BSUB -n 8
#BSUB -q cqueue
#BSUB -R span[hosts=1]
export g16root=/apps/software
source /apps/software/g16/bsd/g16.profile
export GAUSS_SCRDIR=/scratch
/apps/software/g16/g16 < BH-4.0-CCSD-G.inp > BH-4.0-CCSD-G.out> Done

Job <#!/bin/bash
#BSUB -J intel
#BSUB -o BH-4.0-CCSD-G.out
#BSUB -n 8
#BSUB -q cqueue
#BSUB -R span[hosts=1]
export g16root=/apps/software
source /apps/software/g16/bsd/g16.profile
export GAUSS_SCRDIR=/scratch
/apps/software/g16/g16 < BH-4.0-CCSD-G.inp > BH-4.0-CCSD-G.out> was submitted from host <mgt01> by user <lcz>.
Job was executed on host(s) <8*cnode13>, in queue <cqueue>, as user <lcz>.
</apps/users/lcz> was used as the home directory.
</apps/users/lcz/exe13/CCSD> was used as the working directory.
Started at 2022-05-22 15:52:25
Results reported at 2022-05-22 15:52:38

Your job looked like:

------------------------------------------------------------
# User input
#!/bin/bash
#BSUB -J intel
#BSUB -o BH-4.0-CCSD-G.out
#BSUB -n 8
#BSUB -q cqueue
#BSUB -R span[hosts=1]
export g16root=/apps/software
source /apps/software/g16/bsd/g16.profile
export GAUSS_SCRDIR=/scratch
/apps/software/g16/g16 < BH-4.0-CCSD-G.inp > BH-4.0-CCSD-G.out
------------------------------------------------------------

Successfully completed.

Resource usage summary:

    CPU time   :            7.08 sec.
    Max Memory :               216 MB
    Max Processes  :               5


The output (if any) follows:

