
                                        *****************
                                        * O   R   C   A *
                                        *****************

                                            #,                                       
                                            ###                                      
                                            ####                                     
                                            #####                                    
                                            ######                                   
                                           ########,                                 
                                     ,,################,,,,,                         
                               ,,#################################,,                 
                          ,,##########################################,,             
                       ,#########################################, ''#####,          
                    ,#############################################,,   '####,        
                  ,##################################################,,,,####,       
                ,###########''''           ''''###############################       
              ,#####''   ,,,,##########,,,,          '''####'''          '####       
            ,##' ,,,,###########################,,,                        '##       
           ' ,,###''''                  '''############,,,                           
         ,,##''                                '''############,,,,        ,,,,,,###''
      ,#''                                            '''#######################'''  
     '                                                          ''''####''''         
             ,#######,   #######,   ,#######,      ##                                
            ,#'     '#,  ##    ##  ,#'     '#,    #''#        ######   ,####,        
            ##       ##  ##   ,#'  ##            #'  '#       #        #'  '#        
            ##       ##  #######   ##           ,######,      #####,   #    #        
            '#,     ,#'  ##    ##  '#,     ,#' ,#      #,         ##   #,  ,#        
             '#######'   ##     ##  '#######'  #'      '#     #####' # '####'        



                  #######################################################
                  #                        -***-                        #
                  #          Department of theory and spectroscopy      #
                  #    Directorship and core code : Frank Neese         #
                  #        Max Planck Institute fuer Kohlenforschung    #
                  #                Kaiser Wilhelm Platz 1               #
                  #                 D-45470 Muelheim/Ruhr               #
                  #                      Germany                        #
                  #                                                     #
                  #                  All rights reserved                #
                  #                        -***-                        #
                  #######################################################


                         Program Version 5.0.0 -  RELEASE  -
                                (SVN: $Rev: 19529$)
                ($Date: 2021-06-28 11:36:33 +0200 (Mo, 28 Jun 2021) $)


 With contributions from (in alphabetic order):
   Daniel Aravena         : Magnetic Suceptibility
   Michael Atanasov       : Ab Initio Ligand Field Theory (pilot matlab implementation)
   Alexander A. Auer      : GIAO ZORA, VPT2 properties, NMR spectrum
   Ute Becker             : Parallelization
   Giovanni Bistoni       : ED, misc. LED, open-shell LED, HFLD
   Martin Brehm           : Molecular dynamics
   Dmytro Bykov           : SCF Hessian
   Vijay G. Chilkuri      : MRCI spin determinant printing, contributions to CSF-ICE
   Dipayan Datta          : RHF DLPNO-CCSD density
   Achintya Kumar Dutta   : EOM-CC, STEOM-CC
   Dmitry Ganyushin       : Spin-Orbit,Spin-Spin,Magnetic field MRCI
   Miquel Garcia          : C-PCM Hessian, Gaussian charge scheme
   Yang Guo               : DLPNO-NEVPT2, F12-NEVPT2, CIM, IAO-localization
   Andreas Hansen         : Spin unrestricted coupled pair/coupled cluster methods
   Benjamin Helmich-Paris : MC-RPA, TRAH-SCF, COSX integrals
   Lee Huntington         : MR-EOM, pCC
   Robert Izsak           : Overlap fitted RIJCOSX, COSX-SCS-MP3, EOM
   Marcus Kettner         : VPT2
   Christian Kollmar      : KDIIS, OOCD, Brueckner-CCSD(T), CCSD density, CASPT2, CASPT2-K
   Simone Kossmann        : Meta GGA functionals, TD-DFT gradient, OOMP2, MP2 Hessian
   Martin Krupicka        : Initial AUTO-CI
   Lucas Lang             : DCDCAS
   Marvin Lechner         : AUTO-CI (C++ implementation), FIC-MRCC
   Dagmar Lenk            : GEPOL surface, SMD
   Dimitrios Liakos       : Extrapolation schemes; Compound Job, initial MDCI parallelization
   Dimitrios Manganas     : Further ROCIS development; embedding schemes
   Dimitrios Pantazis     : SARC Basis sets
   Anastasios Papadopoulos: AUTO-CI, single reference methods and gradients
   Taras Petrenko         : DFT Hessian,TD-DFT gradient, ASA, ECA, R-Raman, ABS, FL, XAS/XES, NRVS
   Peter Pinski           : DLPNO-MP2, DLPNO-MP2 Gradient
   Christoph Reimann      : Effective Core Potentials
   Marius Retegan         : Local ZFS, SOC
   Christoph Riplinger    : Optimizer, TS searches, QM/MM, DLPNO-CCSD(T), (RO)-DLPNO pert. Triples
   Tobias Risthaus        : Range-separated hybrids, TD-DFT gradient, RPA, STAB
   Michael Roemelt        : Original ROCIS implementation
   Masaaki Saitow         : Open-shell DLPNO-CCSD energy and density
   Barbara Sandhoefer     : DKH picture change effects
   Avijit Sen             : IP-ROCIS
   Kantharuban Sivalingam : CASSCF convergence, NEVPT2, FIC-MRCI
   Bernardo de Souza      : ESD, SOC TD-DFT
   Georgi Stoychev        : AutoAux, RI-MP2 NMR
   Willem Van den Heuvel  : Paramagnetic NMR
   Boris Wezisla          : Elementary symmetry handling
   Frank Wennmohs         : Technical directorship


 We gratefully acknowledge several colleagues who have allowed us to
 interface, adapt or use parts of their codes:
   Stefan Grimme, W. Hujo, H. Kruse, P. Pracht,  : VdW corrections, initial TS optimization,
                  C. Bannwarth, S. Ehlert          DFT functionals, gCP, sTDA/sTD-DF
   Ed Valeev, F. Pavosevic, A. Kumar             : LibInt (2-el integral package), F12 methods
   Garnet Chan, S. Sharma, J. Yang, R. Olivares  : DMRG
   Ulf Ekstrom                                   : XCFun DFT Library
   Mihaly Kallay                                 : mrcc  (arbitrary order and MRCC methods)
   Jiri Pittner, Ondrej Demel                    : Mk-CCSD
   Frank Weinhold                                : gennbo (NPA and NBO analysis)
   Christopher J. Cramer and Donald G. Truhlar   : smd solvation model
   Lars Goerigk                                  : TD-DFT with DH, B97 family of functionals
   V. Asgeirsson, H. Jonsson                     : NEB implementation
   FAccTs GmbH                                   : IRC, NEB, NEB-TS, DLPNO-Multilevel, CI-OPT
                                                   MM, QMMM, 2- and 3-layer-ONIOM, Crystal-QMMM,
                                                   LR-CPCM, SF, NACMEs, symmetry and pop. for TD-DFT,
                                                   nearIR, NL-DFT gradient (VV10), updates on ESD,
                                                   ML-optimized integration grids
   S Lehtola, MJT Oliveira, MAL Marques          : LibXC Library
   Liviu Ungur et al                             : ANISO software


 Your calculation uses the libint2 library for the computation of 2-el integrals
 For citations please refer to: http://libint.valeyev.net

 Your ORCA version has been built with support for libXC version: 5.1.0
 For citations please refer to: https://tddft.org/programs/libxc/

 This ORCA versions uses:
   CBLAS   interface :  Fast vector & matrix operations
   LAPACKE interface :  Fast linear algebra routines
   SCALAPACK package :  Parallel linear algebra routines
   Shared memory     :  Shared parallel matrices
   BLAS/LAPACK       :  OpenBLAS 0.3.15  USE64BITINT DYNAMIC_ARCH NO_AFFINITY SkylakeX SINGLE_THREADED
        Core in use  :  SkylakeX
   Copyright (c) 2011-2014, The OpenBLAS Project


================================================================================

----- Orbital basis set information -----
Your calculation utilizes the basis: aug-cc-pVQZ 
    H, B-Ne : Obtained from the ccRepo (grant-hill.group.shef.ac.uk/ccrepo) Feb. 2017
              R. A. Kendall, T. H. Dunning, Jr., R. J. Harrison, J. Chem. Phys. 96, 6796 (1992)
         He : Obtained from the ccRepo (grant-hill.group.shef.ac.uk/ccrepo) Feb. 2017
              D. E. Woon, T. H. Dunning, Jr., J. Chem. Phys. 100, 2975 (1994)
  Li-Be, Na : Obtained from the ccRepo (grant-hill.group.shef.ac.uk/ccrepo) Feb. 2017
              B. P. Prascher, D. E. Woon, K. A. Peterson, T. H. Dunning, Jr., A. K. Wilson, Theor. Chem. Acc. 128, 69 (2011)
         Mg : Obtained from the Peterson Research Group Website (tyr0.chem.wsu.edu/~kipeters) Feb. 2017
              B. P. Prascher, D. E. Woon, K. A. Peterson, T. H. Dunning, Jr., A. K. Wilson, Theor. Chem. Acc. 128, 69 (2011)
      Al-Ar : Obtained from the ccRepo (grant-hill.group.shef.ac.uk/ccrepo) Feb. 2017
              D. E. Woon, T. H. Dunning, Jr., J. Chem. Phys. 98, 1358 (1993)
      Sc-Zn : Obtained from the ccRepo (grant-hill.group.shef.ac.uk/ccrepo) Feb. 2017
              N. B. Balabanov, K. A. Peterson, J. Chem. Phys. 123, 064107 (2005)
              N. B. Balabanov, K. A. Peterson, J. Chem. Phys. 125, 074110 (2006)
      Ga-Kr : Obtained from the ccRepo (grant-hill.group.shef.ac.uk/ccrepo) Feb. 2017
              A. K. Wilson, D. E. Woon, K. A. Peterson, T. H. Dunning, Jr., J. Chem. Phys. 110, 7667 (1999)

================================================================================
                                        WARNINGS
                       Please study these warnings very carefully!
================================================================================


WARNING: Post HF methods need fully converged wavefunctions
  ===> : Setting SCFConvForced true
         You can overwrite this default with %scf ConvForced false 


WARNING: MDCI localization with Augmented Hessian Foster-Boys
  ===> : Switching off randomization!

INFO   : the flag for use of the SHARK integral package has been found!

================================================================================
                                       INPUT FILE
================================================================================
NAME = /scratch/BH-4.8-CCSD-O_690/BH-4.8-CCSD-O.inp
|  1> ! RHF CCSD aug-cc-pVQZ VeryTightSCF
|  2> 
|  3> *xyz 0 1
|  4>  B	0.0	0.0	0.0
|  5>  H	4.8	0.0	0.0
|  6> **                         ****END OF INPUT****
================================================================================

                       ****************************
                       * Single Point Calculation *
                       ****************************

---------------------------------
CARTESIAN COORDINATES (ANGSTROEM)
---------------------------------
  B      0.000000    0.000000    0.000000
  H      4.800000    0.000000    0.000000

----------------------------
CARTESIAN COORDINATES (A.U.)
----------------------------
  NO LB      ZA    FRAG     MASS         X           Y           Z
   0 B     5.0000    0    10.810    0.000000    0.000000    0.000000
   1 H     1.0000    0     1.008    9.070685    0.000000    0.000000

--------------------------------
INTERNAL COORDINATES (ANGSTROEM)
--------------------------------
 B      0   0   0     0.000000000000     0.00000000     0.00000000
 H      1   0   0     4.800000000000     0.00000000     0.00000000

---------------------------
INTERNAL COORDINATES (A.U.)
---------------------------
 B      0   0   0     0.000000000000     0.00000000     0.00000000
 H      1   0   0     9.070685442822     0.00000000     0.00000000

---------------------
BASIS SET INFORMATION
---------------------
There are 2 groups of distinct atoms

 Group   1 Type B   : 22s7p4d3f2g contracted to 6s5p4d3f2g pattern {991111/31111/1111/111/11}
 Group   2 Type H   : 7s4p3d2f contracted to 5s4p3d2f pattern {31111/1111/111/11}

Atom   0B    basis set group =>   1
Atom   1H    basis set group =>   2
------------------------------------------------------------------------------
                           ORCA GTO INTEGRAL CALCULATION
------------------------------------------------------------------------------
------------------------------------------------------------------------------
                   ___                                                        
                  /   \      - P O W E R E D   B Y -                         
                 /     \                                                     
                 |  |  |   _    _      __       _____    __    __             
                 |  |  |  | |  | |    /  \     |  _  \  |  |  /  |          
                  \  \/   | |  | |   /    \    | | | |  |  | /  /          
                 / \  \   | |__| |  /  /\  \   | |_| |  |  |/  /          
                |  |  |   |  __  | /  /__\  \  |    /   |      \           
                |  |  |   | |  | | |   __   |  |    \   |  |\   \          
                \     /   | |  | | |  |  |  |  | |\  \  |  | \   \       
                 \___/    |_|  |_| |__|  |__|  |_| \__\ |__|  \__/        
                                                                              
                      - O R C A' S   B I G   F R I E N D -                    
                                      &                                       
                       - I N T E G R A L  F E E D E R -                       
                                                                              
 v1 FN, 2020, v2 2021                                                         
------------------------------------------------------------------------------


Reading SHARK input file /scratch/BH-4.8-CCSD-O_690/BH-4.8-CCSD-O.SHARKINP.tmp ... ok
----------------------
SHARK INTEGRAL PACKAGE
----------------------

Number of atoms                             ...      2
Number of basis functions                   ...    126
Number of shells                            ...     34
Maximum angular momentum                    ...      4
Integral batch strategy                     ... SHARK/LIBINT Hybrid
RI-J (if used) integral strategy            ... SPLIT-RIJ (Revised 2003 algorithm where possible)
Printlevel                                  ...      1
Contraction scheme used                     ... SEGMENTED contraction
Coulomb Range Separation                    ... NOT USED
Exchange Range Separation                   ... NOT USED
Finite Nucleus Model                        ... NOT USED
Auxiliary Coulomb fitting basis             ... NOT available
Auxiliary J/K fitting basis                 ... NOT available
Auxiliary Correlation fitting basis         ... NOT available
Auxiliary 'external' fitting basis          ... NOT available
Integral threshold                          ...     1.000000e-12
Primitive cut-off                           ...     1.000000e-14
Primitive pair pre-selection threshold      ...     1.000000e-14

Calculating pre-screening integrals         ... done (  0.1 sec) Dimension = 34
Organizing shell pair data                  ... done (  0.0 sec)
Shell pair information
Total number of shell pairs                 ...       595
Shell pairs after pre-screening             ...       561
Total number of primitive shell pairs       ...      1563
Primitive shell pairs kept                  ...      1349
          la=0 lb=0:     61 shell pairs
          la=1 lb=0:     92 shell pairs
          la=1 lb=1:     43 shell pairs
          la=2 lb=0:     71 shell pairs
          la=2 lb=1:     60 shell pairs
          la=2 lb=2:     27 shell pairs
          la=3 lb=0:     52 shell pairs
          la=3 lb=1:     43 shell pairs
          la=3 lb=2:     33 shell pairs
          la=3 lb=3:     14 shell pairs
          la=4 lb=0:     21 shell pairs
          la=4 lb=1:     17 shell pairs
          la=4 lb=2:     14 shell pairs
          la=4 lb=3:     10 shell pairs
          la=4 lb=4:      3 shell pairs

Calculating one electron integrals          ... done (  0.0 sec)
Calculating Nuclear repulsion               ... done (  0.0 sec) ENN=      0.551226258646 Eh

SHARK setup successfully completed in   0.1 seconds

Maximum memory used throughout the entire GTOINT-calculation: 31.6 MB
-------------------------------------------------------------------------------
                                 ORCA SCF
-------------------------------------------------------------------------------

------------
SCF SETTINGS
------------
Hamiltonian:
 Ab initio Hamiltonian  Method          .... Hartree-Fock(GTOs)


General Settings:
 Integral files         IntName         .... /scratch/BH-4.8-CCSD-O_690/BH-4.8-CCSD-O
 Hartree-Fock type      HFTyp           .... RHF
 Total Charge           Charge          ....    0
 Multiplicity           Mult            ....    1
 Number of Electrons    NEL             ....    6
 Basis Dimension        Dim             ....  126
 Nuclear Repulsion      ENuc            ....      0.5512262586 Eh

Convergence Acceleration:
 DIIS                   CNVDIIS         .... on
   Start iteration      DIISMaxIt       ....    12
   Startup error        DIISStart       ....  0.200000
   # of expansion vecs  DIISMaxEq       ....     5
   Bias factor          DIISBfac        ....   1.050
   Max. coefficient     DIISMaxC        ....  10.000
 Trust-Rad. Augm. Hess. CNVTRAH         .... auto
   Auto Start mean grad. ratio tolernc. ....  1.125000
   Auto Start start iteration           ....    20
   Auto Start num. interpolation iter.  ....    10
   Max. Number of Micro iterations      ....    16
   Max. Number of Macro iterations      .... Maxiter - #DIIS iter
   Number of Davidson start vectors     ....     2
   Converg. threshold I  (grad. norm)   ....   2.000e-06
   Converg. threshold II (energy diff.) ....   1.000e-09
   Grad. Scal. Fac. for Micro threshold ....   0.100
   Minimum threshold for Micro iter.    ....   0.010
   NR start threshold (gradient norm)   ....   0.001
   Initial trust radius                 ....   0.400
   Minimum AH scaling param. (alpha)    ....   1.000
   Maximum AH scaling param. (alpha)    .... 1000.000
   Orbital update algorithm             .... Taylor
   White noise on init. David. guess    .... on
   Maximum white noise                  ....   0.010
   Quad. conv. algorithm                .... NR
 SOSCF                  CNVSOSCF        .... on
   Start iteration      SOSCFMaxIt      ....   150
   Startup grad/error   SOSCFStart      ....  0.003300
 Level Shifting         CNVShift        .... on
   Level shift para.    LevelShift      ....    0.2500
   Turn off err/grad.   ShiftErr        ....    0.0010
 Zerner damping         CNVZerner       .... off
 Static damping         CNVDamp         .... on
   Fraction old density DampFac         ....    0.7000
   Max. Damping (<1)    DampMax         ....    0.9800
   Min. Damping (>=0)   DampMin         ....    0.0000
   Turn off err/grad.   DampErr         ....    0.1000
 Fernandez-Rico         CNVRico         .... off

SCF Procedure:
 Maximum # iterations   MaxIter         ....   125
 SCF integral mode      SCFMode         .... Direct
   Integral package                     .... SHARK and LIBINT hybrid scheme
 Reset frequency        DirectResetFreq ....    20
 Integral Threshold     Thresh          ....  1.000e-12 Eh
 Primitive CutOff       TCut            ....  1.000e-14 Eh

Convergence Tolerance:
 Convergence Check Mode ConvCheckMode   .... Total+1el-Energy
 Convergence forced     ConvForced      .... 1
 Energy Change          TolE            ....  1.000e-09 Eh
 1-El. energy change                    ....  1.000e-06 Eh
 Orbital Gradient       TolG            ....  2.000e-06
 Orbital Rotation angle TolX            ....  2.000e-06
 DIIS Error             TolErr          ....  1.000e-08


Diagonalization of the overlap matrix:
Smallest eigenvalue                        ... 4.882e-03
Time for diagonalization                   ...    0.001 sec
Threshold for overlap eigenvalues          ... 1.000e-08
Number of eigenvalues below threshold      ... 0
Time for construction of square roots      ...    0.000 sec
Total time needed                          ...    0.002 sec

Time for model grid setup =    0.013 sec

------------------------------
INITIAL GUESS: MODEL POTENTIAL
------------------------------
Loading Hartree-Fock densities                     ... done
Calculating cut-offs                               ... done
Initializing the effective Hamiltonian             ... done
Setting up the integral package (SHARK)            ... done
Starting the Coulomb interaction                   ... done (   0.0 sec)
Reading the grid                                   ... done
Mapping shells                                     ... done
Starting the XC term evaluation                    ... done (   0.0 sec)
Transforming the Hamiltonian                       ... done (   0.0 sec)
Diagonalizing the Hamiltonian                      ... done (   0.0 sec)
Back transforming the eigenvectors                 ... done (   0.0 sec)
Now organizing SCF variables                       ... done
                      ------------------
                      INITIAL GUESS DONE (   0.0 sec)
                      ------------------
--------------
SCF ITERATIONS
--------------
ITER       Energy         Delta-E        Max-DP      RMS-DP      [F,P]     Damp
               ***  Starting incremental Fock matrix formation  ***
  0    -24.7615287971   0.000000000000 0.04798525  0.00093948  0.2064849 0.7000
  1    -24.7815305033  -0.020001706191 0.04592636  0.00092335  0.1624820 0.7000
                               ***Turning on DIIS***
  2    -24.8042161409  -0.022685637591 0.04031495  0.00086431  0.1153936 0.7000
  3    -24.7543627160   0.049853424865 0.09956629  0.00231451  0.0721677 0.0000
  4    -24.9205858859  -0.166223169870 0.02098166  0.00037429  0.0228019 0.0000
  5    -24.8965074751   0.024078410786 0.01259409  0.00029595  0.0119739 0.0000
  6    -24.8833882725   0.013119202590 0.00853866  0.00014492  0.0044411 0.0000
                      *** Initiating the SOSCF procedure ***
                           *** Shutting down DIIS ***
                      *** Re-Reading the Fockian *** 
                      *** Removing any level shift *** 
ITER      Energy       Delta-E        Grad      Rot      Max-DP    RMS-DP
  7    -24.87919732   0.0041909528  0.001516  0.001516  0.003502  0.000068
               *** Restarting incremental Fock matrix formation ***
  8    -24.87929675  -0.0000994347  0.000689  0.002130  0.003268  0.000060
  9    -24.87930353  -0.0000067746  0.000326  0.002079  0.002796  0.000053
 10    -24.87930433  -0.0000007971  0.000248  0.000803  0.000896  0.000015
 11    -24.87930502  -0.0000006922  0.000013  0.000055  0.000073  0.000001
 12    -24.87930502  -0.0000000033  0.000003  0.000011  0.000012  0.000000
 13    -24.87930502  -0.0000000003  0.000001  0.000005  0.000004  0.000000
                 **** Energy Check signals convergence ****
              ***Rediagonalizing the Fockian in SOSCF/NRSCF***

               *****************************************************
               *                     SUCCESS                       *
               *           SCF CONVERGED AFTER  14 CYCLES          *
               *****************************************************


----------------
TOTAL SCF ENERGY
----------------

Total Energy       :          -24.87930502 Eh            -677.00031 eV

Components:
Nuclear Repulsion  :            0.55122626 Eh              14.99963 eV
Electronic Energy  :          -25.43053128 Eh            -691.99994 eV
One Electron Energy:          -33.37054579 Eh            -908.05872 eV
Two Electron Energy:            7.94001451 Eh             216.05878 eV

Virial components:
Potential Energy   :          -49.64711176 Eh           -1350.96659 eV
Kinetic Energy     :           24.76780674 Eh             673.96629 eV
Virial Ratio       :            2.00450174


---------------
SCF CONVERGENCE
---------------

  Last Energy change         ...   -3.0056e-11  Tolerance :   1.0000e-09
  Last MAX-Density change    ...    3.5691e-07  Tolerance :   1.0000e-08
  Last RMS-Density change    ...    8.7493e-09  Tolerance :   1.0000e-09
  Last Orbital Gradient      ...    9.6828e-08  Tolerance :   2.0000e-06
  Last Orbital Rotation      ...    2.9820e-07  Tolerance :   2.0000e-06

             **** THE GBW FILE WAS UPDATED (/scratch/BH-4.8-CCSD-O_690/BH-4.8-CCSD-O.gbw) ****
             **** DENSITY /scratch/BH-4.8-CCSD-O_690/BH-4.8-CCSD-O.scfp WAS UPDATED ****
             **** ENERGY FILE WAS UPDATED (/scratch/BH-4.8-CCSD-O_690/BH-4.8-CCSD-O.en.tmp) ****
             **** THE GBW FILE WAS UPDATED (/scratch/BH-4.8-CCSD-O_690/BH-4.8-CCSD-O.gbw) ****
             **** DENSITY /scratch/BH-4.8-CCSD-O_690/BH-4.8-CCSD-O.scfp WAS UPDATED ****
----------------
ORBITAL ENERGIES
----------------

  NO   OCC          E(Eh)            E(eV) 
   0   2.0000      -7.895819      -214.8561 
   1   2.0000      -0.628170       -17.0934 
   2   2.0000      -0.221270        -6.0211 
   3   0.0000      -0.092165        -2.5079 
   4   0.0000      -0.053229        -1.4484 
   5   0.0000      -0.053229        -1.4484 
   6   0.0000       0.020351         0.5538 
   7   0.0000       0.039694         1.0801 
   8   0.0000       0.039694         1.0801 
   9   0.0000       0.057052         1.5525 
  10   0.0000       0.101630         2.7655 
  11   0.0000       0.114539         3.1168 
  12   0.0000       0.114539         3.1168 
  13   0.0000       0.122215         3.3256 
  14   0.0000       0.122215         3.3256 
  15   0.0000       0.145772         3.9666 
  16   0.0000       0.229510         6.2453 
  17   0.0000       0.240548         6.5456 
  18   0.0000       0.240548         6.5456 
  19   0.0000       0.244550         6.6545 
  20   0.0000       0.244550         6.6545 
  21   0.0000       0.286300         7.7906 
  22   0.0000       0.314496         8.5579 
  23   0.0000       0.410340        11.1659 
  24   0.0000       0.410340        11.1659 
  25   0.0000       0.417729        11.3670 
  26   0.0000       0.417729        11.3670 
  27   0.0000       0.426627        11.6091 
  28   0.0000       0.427789        11.6407 
  29   0.0000       0.427789        11.6407 
  30   0.0000       0.428314        11.6550 
  31   0.0000       0.428314        11.6550 
  32   0.0000       0.438745        11.9388 
  33   0.0000       0.438745        11.9388 
  34   0.0000       0.461535        12.5590 
  35   0.0000       0.530393        14.4327 
  36   0.0000       0.693729        18.8773 
  37   0.0000       0.693729        18.8773 
  38   0.0000       0.710457        19.3325 
  39   0.0000       0.710457        19.3325 
  40   0.0000       0.739606        20.1257 
  41   0.0000       0.866482        23.5782 
  42   0.0000       0.866482        23.5782 
  43   0.0000       0.915519        24.9125 
  44   0.0000       0.935181        25.4476 
  45   0.0000       0.935181        25.4476 
  46   0.0000       0.996398        27.1134 
  47   0.0000       1.282372        34.8951 
  48   0.0000       1.288751        35.0687 
  49   0.0000       1.288751        35.0687 
  50   0.0000       1.295446        35.2509 
  51   0.0000       1.295446        35.2509 
  52   0.0000       1.297254        35.3001 
  53   0.0000       1.297254        35.3001 
  54   0.0000       1.303752        35.4769 
  55   0.0000       1.303752        35.4769 
  56   0.0000       1.307998        35.5924 
  57   0.0000       1.307998        35.5924 
  58   0.0000       1.309631        35.6369 
  59   0.0000       1.309631        35.6369 
  60   0.0000       1.316614        35.8269 
  61   0.0000       1.325609        36.0716 
  62   0.0000       1.341655        36.5083 
  63   0.0000       1.341655        36.5083 
  64   0.0000       1.352004        36.7899 
  65   0.0000       1.352004        36.7899 
  66   0.0000       1.364468        37.1291 
  67   0.0000       1.364468        37.1291 
  68   0.0000       1.408530        38.3281 
  69   0.0000       1.651437        44.9379 
  70   0.0000       1.651437        44.9379 
  71   0.0000       1.651951        44.9519 
  72   0.0000       1.651951        44.9519 
  73   0.0000       1.657298        45.0974 
  74   0.0000       1.657298        45.0974 
  75   0.0000       1.667212        45.3672 
  76   0.0000       1.750967        47.6462 
  77   0.0000       2.560616        69.6779 
  78   0.0000       2.560616        69.6779 
  79   0.0000       2.569900        69.9305 
  80   0.0000       2.569900        69.9305 
  81   0.0000       2.592835        70.5546 
  82   0.0000       2.682152        72.9851 
  83   0.0000       2.682152        72.9851 
  84   0.0000       2.744640        74.6854 
  85   0.0000       3.574380        97.2638 
  86   0.0000       3.574380        97.2638 
  87   0.0000       3.606271        98.1316 
  88   0.0000       3.794521       103.2542 
  89   0.0000       3.794521       103.2542 
  90   0.0000       3.802813       103.4798 
  91   0.0000       3.802813       103.4798 
  92   0.0000       3.804892       103.5364 
  93   0.0000       3.804892       103.5364 
  94   0.0000       3.812473       103.7427 
  95   0.0000       3.812473       103.7427 
  96   0.0000       3.816753       103.8591 
  97   0.0000       3.816753       103.8591 
  98   0.0000       3.817468       103.8786 
  99   0.0000       3.817468       103.8786 
 100   0.0000       3.823090       104.0316 
 101   0.0000       3.829370       104.2025 
 102   0.0000       3.944729       107.3415 
 103   0.0000       3.944729       107.3415 
 104   0.0000       3.956232       107.6545 
 105   0.0000       3.956232       107.6545 
 106   0.0000       3.967255       107.9545 
 107   0.0000       3.967255       107.9545 
 108   0.0000       3.996576       108.7524 
 109   0.0000       6.659660       181.2186 
 110   0.0000       6.659660       181.2186 
 111   0.0000       6.660019       181.2283 
 112   0.0000       6.660019       181.2283 
 113   0.0000       6.661386       181.2655 
 114   0.0000       6.661386       181.2655 
 115   0.0000       6.664414       181.3479 
 116   0.0000       7.526943       204.8185 
 117   0.0000       8.046097       218.9454 
 118   0.0000       8.046097       218.9454 
 119   0.0000       8.087098       220.0611 
 120   0.0000       8.495964       231.1869 
 121   0.0000       8.495964       231.1869 
 122   0.0000       8.501814       231.3461 
 123   0.0000       8.501814       231.3461 
 124   0.0000       8.524905       231.9745 
 125   0.0000      12.859766       349.9320 

                    ********************************
                    * MULLIKEN POPULATION ANALYSIS *
                    ********************************

-----------------------
MULLIKEN ATOMIC CHARGES
-----------------------
   0 B :    0.406393
   1 H :   -0.406393
Sum of atomic charges:   -0.0000000

--------------------------------
MULLIKEN REDUCED ORBITAL CHARGES
--------------------------------
  0 B s       :     4.006965  s :     4.006965
      pz      :     0.000000  p :     0.576332
      px      :     0.576332
      py      :     0.000000
      dz2     :     0.002507  d :     0.010030
      dxz     :     0.000000
      dyz     :     0.000000
      dx2y2   :     0.007522
      dxy     :     0.000000
      f0      :     0.000000  f :     0.000278
      f+1     :     0.000104
      f-1     :     0.000000
      f+2     :     0.000000
      f-2     :     0.000000
      f+3     :     0.000174
      f-3     :     0.000000
      g0      :     0.000000  g :     0.000002
      g+1     :     0.000000
      g-1     :     0.000000
      g+2     :     0.000001
      g-2     :     0.000000
      g+3     :     0.000000
      g-3     :     0.000000
      g+4     :     0.000001
      g-4     :     0.000000
  1 H s       :     1.402152  s :     1.402152
      pz      :    -0.000000  p :     0.004142
      px      :     0.004142
      py      :    -0.000000
      dz2     :     0.000024  d :     0.000098
      dxz     :    -0.000000
      dyz     :     0.000000
      dx2y2   :     0.000073
      dxy     :    -0.000000
      f0      :     0.000000  f :     0.000001
      f+1     :     0.000000
      f-1     :    -0.000000
      f+2     :     0.000000
      f-2     :     0.000000
      f+3     :     0.000000
      f-3     :    -0.000000


                     *******************************
                     * LOEWDIN POPULATION ANALYSIS *
                     *******************************

----------------------
LOEWDIN ATOMIC CHARGES
----------------------
   0 B :    0.368901
   1 H :   -0.368901

-------------------------------
LOEWDIN REDUCED ORBITAL CHARGES
-------------------------------
  0 B s       :     4.006163  s :     4.006163
      pz      :     0.000000  p :     0.603298
      px      :     0.603298
      py      :     0.000000
      dz2     :     0.005137  d :     0.020549
      dxz     :     0.000000
      dyz     :     0.000000
      dx2y2   :     0.015412
      dxy     :     0.000000
      f0      :     0.000000  f :     0.001078
      f+1     :     0.000404
      f-1     :     0.000000
      f+2     :     0.000000
      f-2     :     0.000000
      f+3     :     0.000674
      f-3     :     0.000000
      g0      :     0.000002  g :     0.000011
      g+1     :     0.000000
      g-1     :     0.000000
      g+2     :     0.000003
      g-2     :     0.000000
      g+3     :     0.000000
      g-3     :     0.000000
      g+4     :     0.000006
      g-4     :     0.000000
  1 H s       :     1.365388  s :     1.365388
      pz      :     0.000000  p :     0.003327
      px      :     0.003327
      py      :     0.000000
      dz2     :     0.000045  d :     0.000180
      dxz     :     0.000000
      dyz     :     0.000000
      dx2y2   :     0.000135
      dxy     :     0.000000
      f0      :     0.000000  f :     0.000006
      f+1     :     0.000002
      f-1     :     0.000000
      f+2     :     0.000000
      f-2     :     0.000000
      f+3     :     0.000004
      f-3     :     0.000000


                      *****************************
                      * MAYER POPULATION ANALYSIS *
                      *****************************

  NA   - Mulliken gross atomic population
  ZA   - Total nuclear charge
  QA   - Mulliken gross atomic charge
  VA   - Mayer's total valence
  BVA  - Mayer's bonded valence
  FA   - Mayer's free valence

  ATOM       NA         ZA         QA         VA         BVA        FA
  0 B      4.5936     5.0000     0.4064     0.8350     0.8350    -0.0000
  1 H      1.4064     1.0000    -0.4064     0.8350     0.8350    -0.0000

  Mayer bond orders larger than 0.100000
B(  0-B ,  1-H ) :   0.8350 

-------
TIMINGS
-------

Total SCF time: 0 days 0 hours 0 min 10 sec 

Total time                  ....      10.148 sec
Sum of individual times     ....      10.020 sec  ( 98.7%)

Fock matrix formation       ....       9.962 sec  ( 98.2%)
Diagonalization             ....       0.012 sec  (  0.1%)
Density matrix formation    ....       0.001 sec  (  0.0%)
Population analysis         ....       0.001 sec  (  0.0%)
Initial guess               ....       0.020 sec  (  0.2%)
Orbital Transformation      ....       0.000 sec  (  0.0%)
Orbital Orthonormalization  ....       0.000 sec  (  0.0%)
DIIS solution               ....       0.004 sec  (  0.0%)
SOSCF solution              ....       0.007 sec  (  0.1%)

Maximum memory used throughout the entire SCF-calculation: 255.6 MB


------------------------------------------------------------------------------- 
                              ORCA-MATRIX DRIVEN CI                            
------------------------------------------------------------------------------- 

--------------------------------
AUTOMATIC CHOICE OF INCORE LEVEL
--------------------------------

Memory available                           ...    256.00 MB
Memory needed for S+T                      ...      1.04 MB
Memory needed for J+K                      ...      2.08 MB
Memory needed for DIIS                     ...     14.54 MB
Memory needed for 3-ext                    ...     28.39 MB
Memory needed for 4-ext                    ...    880.23 MB
Memory needed for triples                  ...      0.00 MB
 -> Final InCoreLevel    ... 4

Wavefunction type
-----------------
Correlation treatment                      ...      CCSD     
Single excitations                         ... ON
Orbital optimization                       ... OFF
Calculation of Z vector                    ... OFF
Calculation of Brueckner orbitals          ... OFF
Perturbative triple excitations            ... OFF
Calculation of F12 correction              ... OFF
Frozen core treatment                      ... chemical core (2 el)
Reference Wavefunction                     ... RHF
  Internal Orbitals:     1 ...    2 (  2 MO's/  4 electrons)
  Virtual  Orbitals:     3 ...  125 (123 MO's              )
Number of AO's                             ...    126
Number of electrons                        ...      6
Number of correlated electrons             ...      4

Algorithmic settings
--------------------
Integral transformation                    ... AO direct full transformation
K(C) Formation                             ... FULL-MO TRAFO
Maximum number of iterations               ...        50
Convergence tolerance (max. residuum)      ... 1.000e-06
Level shift for amplitude update           ... 2.000e-01
Maximum number of DIIS vectors             ...         7
DIIS turned on at iteration                ...         0
Damping before turning on DIIS             ...     0.500
Damping after turning on DIIS              ...     0.000
Pair specific amplitude update             ... OFF
Natural orbital iterations                 ... OFF
Perturbative natural orbital generation    ... OFF
Printlevel                                 ... 2

Memory handling:
----------------
Maximum memory for working arrays          ...    256 MB
Data storage in matrix containers          ... UNCOMPRESSED
Data type for integral storage             ... DOUBLE
In-Core Storage of quantities:
   Amplitudes+Sigma Vector      ... YES
   J+K operators                ... YES
   DIIS vectors                 ... YES
   3-external integrals         ... YES
   4-external integrals         ... NO


Initializing the integral package          ... done
Warning: reference  - re-canonicalizations have been set to INT 1 VIRT 1

--------------------------
CLOSED-SHELL FOCK OPERATOR
--------------------------

Restoring SHARK [2] ... ok
Recanonicalizing the internal orbitals
Recanonicalizing the virtual orbitals
Time needed for Fock operator              ...            0.882 sec
Reference energy                           ...    -24.879305022

------------------------------
PARTIAL COULOMB TRANSFORMATION
------------------------------

Transformation type                        ... one-operator
Dimension of the basis                     ...  126
Number of internal MOs                     ...  125 (1-125)
Pair cutoff                                ... 0.000e+00 Eh
Number of AO pairs included in the trafo   ... 8001
Total Number of distinct AO pairs          ... 8001
Memory devoted for trafo                   ...  256.0 MB 
Max. Number of MO pairs treated together   ... 4193      
Max. Number of MOs treated per batch       ...   33      
Number Format for Storage                  ... Double (8 Byte)
AO-integral source                         ... DIRECT
Integral package used                      ... LIBINT

Starting integral evaluation:
<ss|**>:        33733 b        0 skpd     0.060 s (  0.002 ms/b)
<sp|**>:        50323 b        0 skpd     0.114 s (  0.002 ms/b)
<sd|**>:        38710 b        0 skpd     0.152 s (  0.004 ms/b)
<sf|**>:        28203 b        0 skpd     0.181 s (  0.006 ms/b)
<sg|**>:        11613 b        0 skpd     0.131 s (  0.011 ms/b)
<pp|**>:        23226 b        0 skpd     0.118 s (  0.005 ms/b)
<pd|**>:        32074 b        0 skpd     0.291 s (  0.009 ms/b)
<pf|**>:        23226 b        0 skpd     0.326 s (  0.014 ms/b)
<pg|**>:         9401 b        0 skpd     0.191 s (  0.020 ms/b)
<dd|**>:        14931 b        0 skpd     0.225 s (  0.015 ms/b)
<df|**>:        18249 b        0 skpd     0.451 s (  0.025 ms/b)
<dg|**>:         7189 b        0 skpd     0.258 s (  0.036 ms/b)
<ff|**>:         7742 b        0 skpd     0.317 s (  0.041 ms/b)
<fg|**>:         5530 b        0 skpd     0.324 s (  0.059 ms/b)
<gg|**>:         1659 b        0 skpd     0.130 s (  0.079 ms/b)
Closing buffer AOJ ( 0.44 GB; CompressionRatio= 1.00)
Collecting buffer AOJ 
    ... done with AO integral generation
Number of MO pairs included in the trafo   ... 7875
    ... Now sorting integrals
IBATCH = 1 of  2
IBATCH = 2 of  2
Closing buffer JAO ( 0.47 GB; CompressionRatio= 1.00)
Collecting buffer JAO 
TOTAL TIME for half transformation         ...     6.625 sec
AO-integral generation                     ...     1.733 sec
Half transformation                        ...     1.541 sec
J-integral sorting                         ...     3.308 sec

-------------------------- SECOND HALF TRANSFORMATION -------------------------
Formation of (pq|rs)                       ... ok (     1.669 sec)
Integral sorting                           ... ok (     2.008 sec)

------------------
CLOSED SHELL GUESS
------------------

Initial guess performed in     0.000 sec
E(0)                                       ...    -24.879305022
E(MP2)                                     ...     -0.136322436
Initial E(tot)                             ...    -25.015627458
<T|T>                                      ...      0.288238876
Number of pairs included                   ... 3
Total number of pairs                      ... 3

------------------------------------------------
                  RHF COUPLED CLUSTER ITERATIONS
------------------------------------------------

Number of amplitudes to be optimized       ... 45633

Iter       E(tot)           E(Corr)          Delta-E          Residual     Time
  0    -25.015627458     -0.136322436      0.000000000      0.063757743    0.59
                           *** Turning on DIIS ***
  1    -25.013682982     -0.134377960      0.001944477      0.083687057    1.57
  2    -25.033656915     -0.154351893     -0.019973933      0.053922120    1.46
  3    -25.055992089     -0.176687067     -0.022335175      0.041872238    1.46
  4    -25.076361329     -0.197056307     -0.020369240      0.020972872    1.63
  5    -25.083371759     -0.204066737     -0.007010430      0.005555640    1.55
  6    -25.085328395     -0.206023373     -0.001956636      0.002110221    1.49
  7    -25.086504503     -0.207199481     -0.001176108      0.000557133    1.45
  8    -25.086211872     -0.206906850      0.000292630      0.000192576    1.47
  9    -25.086266057     -0.206961035     -0.000054185      0.000086030    1.49
 10    -25.086270547     -0.206965525     -0.000004490      0.000022919    1.50
 11    -25.086268356     -0.206963334      0.000002191      0.000010980    1.60
 12    -25.086263872     -0.206958850      0.000004484      0.000003382    1.56
 13    -25.086264396     -0.206959374     -0.000000524      0.000002023    1.50
 14    -25.086264385     -0.206959363      0.000000011      0.000001122    1.49
 15    -25.086264403     -0.206959381     -0.000000018      0.000000493    1.48
               --- The Coupled-Cluster iterations have converged ---

----------------------
COUPLED CLUSTER ENERGY
----------------------

E(0)                                       ...    -24.879305022
E(CORR)                                    ...     -0.206959381
E(TOT)                                     ...    -25.086264403
Singles Norm <S|S>**1/2                    ...      0.518099289  
T1 diagnostic                              ...      0.259049644  

------------------
LARGEST AMPLITUDES
------------------
   2->  3   2->  3       1.083185
   2->  3  -1-> -1       0.472236
   1->  4   1->  4       0.123832
   1->  5   1->  5       0.123832
   2->  3   2->  6       0.113454
   2->  6   2->  3       0.113454
   2->  3   2-> 10       0.107643
   2-> 10   2->  3       0.107643
   2-> 16  -1-> -1       0.105870
   2->  9  -1-> -1       0.104917
   2-> 10  -1-> -1       0.080765
   2-> 27   2->  3       0.073300
   2->  3   2-> 27       0.073300
   2->  3   2-> 15       0.067677
   2-> 15   2->  3       0.067677
   2-> 35   2->  3       0.067320


        !!!!!!!!!!!!!!!!!!!!!!!!!!!!!!!!!!!!!!!!!!!!!!!!!!!!!!!!!!!!!!!!!!!!!!!!!! 
        !  Warning: Densities are linearized densities !                         !
        !!!!!!!!!!!!!!!!!!!!!!!!!!!!!!!!!!!!!!!!!!!!!!!!!!!!!!!!!!!!!!!!!!!!!!!!!! 

Trace of internal density part =     -3.253654579
Trace of external density part =      3.253654579
NORM  =      2.895254162 sqrt=     1.701544640
W(HF) =      0.345392820
------------------------------------------------------------------------------
                           ORCA POPULATION ANALYSIS
------------------------------------------------------------------------------
Input electron density              ... /scratch/BH-4.8-CCSD-O_690/BH-4.8-CCSD-O.mdcip
BaseName (.gbw .S,...)              ... /scratch/BH-4.8-CCSD-O_690/BH-4.8-CCSD-O

                    ********************************
                    * MULLIKEN POPULATION ANALYSIS *
                    ********************************

-----------------------
MULLIKEN ATOMIC CHARGES
-----------------------
   0 B :   -0.787969
   1 H :    0.787969
Sum of atomic charges:   -0.0000000

--------------------------------
MULLIKEN REDUCED ORBITAL CHARGES
--------------------------------
  0 B s       :     3.859188  s :     3.859188
      pz      :     0.054344  p :     1.908635
      px      :     1.799947
      py      :     0.054344
      dz2     :     0.001395  d :     0.019349
      dxz     :     0.007024
      dyz     :     0.000278
      dx2y2   :     0.003629
      dxy     :     0.007024
      f0      :     0.000117  f :     0.000648
      f+1     :     0.000002
      f-1     :     0.000040
      f+2     :     0.000178
      f-2     :     0.000158
      f+3     :    -0.000102
      f-3     :     0.000255
      g0      :     0.000011  g :     0.000148
      g+1     :     0.000020
      g-1     :     0.000005
      g+2     :     0.000014
      g-2     :     0.000015
      g+3     :     0.000019
      g-3     :     0.000018
      g+4     :     0.000022
      g-4     :     0.000024
  1 H s       :     0.220013  s :     0.220013
      pz      :     0.000055  p :    -0.007746
      px      :    -0.007855
      py      :     0.000055
      dz2     :    -0.000061  d :    -0.000233
      dxz     :     0.000007
      dyz     :     0.000000
      dx2y2   :    -0.000185
      dxy     :     0.000007
      f0      :     0.000000  f :    -0.000003
      f+1     :    -0.000001
      f-1     :     0.000000
      f+2     :     0.000000
      f-2     :     0.000000
      f+3     :    -0.000002
      f-3     :     0.000000


                     *******************************
                     * LOEWDIN POPULATION ANALYSIS *
                     *******************************

----------------------
LOEWDIN ATOMIC CHARGES
----------------------
   0 B :   -0.743299
   1 H :    0.743299

-------------------------------
LOEWDIN REDUCED ORBITAL CHARGES
-------------------------------
  0 B s       :     3.858966  s :     3.858966
      pz      :     0.054345  p :     1.868934
      px      :     1.760245
      py      :     0.054345
      dz2     :     0.000335  d :     0.015115
      dxz     :     0.007026
      dyz     :     0.000278
      dx2y2   :     0.000451
      dxy     :     0.007026
      f0      :     0.000117  f :     0.000142
      f+1     :    -0.000188
      f-1     :     0.000040
      f+2     :     0.000178
      f-2     :     0.000158
      f+3     :    -0.000419
      f-3     :     0.000255
      g0      :     0.000010  g :     0.000141
      g+1     :     0.000020
      g-1     :     0.000005
      g+2     :     0.000011
      g-2     :     0.000015
      g+3     :     0.000019
      g-3     :     0.000018
      g+4     :     0.000018
      g-4     :     0.000024
  1 H s       :     0.260021  s :     0.260021
      pz      :     0.000053  p :    -0.003322
      px      :    -0.003427
      py      :     0.000053
      dz2     :    -0.000004  d :    -0.000003
      dxz     :     0.000006
      dyz     :     0.000000
      dx2y2   :    -0.000012
      dxy     :     0.000006
      f0      :     0.000000  f :     0.000005
      f+1     :     0.000002
      f-1     :     0.000000
      f+2     :     0.000000
      f-2     :     0.000000
      f+3     :     0.000003
      f-3     :     0.000000


                      *****************************
                      * MAYER POPULATION ANALYSIS *
                      *****************************

  NA   - Mulliken gross atomic population
  ZA   - Total nuclear charge
  QA   - Mulliken gross atomic charge
  VA   - Mayer's total valence
  BVA  - Mayer's bonded valence
  FA   - Mayer's free valence

  ATOM       NA         ZA         QA         VA         BVA        FA
  0 B      5.7880     5.0000    -0.7880     0.3369     3.1198    -2.7828
  1 H      0.2120     1.0000     0.7880    -0.2601     3.1198    -3.3798

  Mayer bond orders larger than 0.100000
B(  0-B ,  1-H ) :   3.1198 



------------------------------------------------------------------------------- 
                                     TIMINGS                                   
------------------------------------------------------------------------------- 


Total execution time                   ...       35.085 sec

Fock Matrix Formation                  ...        0.882 sec (  2.5%)
Initial Guess                          ...        0.000 sec (  0.0%)
DIIS Solver                            ...        0.047 sec (  0.1%)
State Vector Update                    ...        0.001 sec (  0.0%)
Sigma-vector construction              ...       23.242 sec ( 66.2%)
  <0|H|D>                              ...        0.004 sec (  0.0% of sigma)
  <D|H|D>(0-ext)                       ...        0.009 sec (  0.0% of sigma)
  <D|H|D>(2-ext Fock)                  ...        0.008 sec (  0.0% of sigma)
  <D|H|D>(2-ext)                       ...        0.056 sec (  0.2% of sigma)
  <D|H|D>(4-ext)                       ...        7.071 sec ( 30.4% of sigma)
  <D|H|D>(4-ext-corr)                  ...        1.324 sec (  5.7% of sigma)
  <S|H|0>                              ...        0.003 sec (  0.0% of sigma)
  <S|H|S>                              ...        0.005 sec (  0.0% of sigma)
  <S|H|D>(1-ext)                       ...        0.006 sec (  0.0% of sigma)
  <D|H|S>(1-ext)                       ...        0.011 sec (  0.0% of sigma)
  <S|H|D>(3-ext)                       ...        0.230 sec (  1.0% of sigma)
  Fock-dressing                        ...       14.070 sec ( 60.5% of sigma)
  (ik|jl)-dressing                     ...        0.006 sec (  0.0% of sigma)
  (ij|ab),(ia|jb)-dressing             ...        0.365 sec (  1.6% of sigma)
  Pair energies                        ...        0.005 sec (  0.0% of sigma)
One-particle density matrix            ...        0.001 sec (  0.0%)


Maximum memory used throughout the entire MDCI-calculation: 400.0 MB

-------------------------   --------------------
FINAL SINGLE POINT ENERGY       -25.086264403288
-------------------------   --------------------


                            ***************************************
                            *     ORCA property calculations      *
                            ***************************************

                                    ---------------------
                                    Active property flags
                                    ---------------------
   (+) Dipole Moment


------------------------------------------------------------------------------
                       ORCA ELECTRIC PROPERTIES CALCULATION
------------------------------------------------------------------------------

Dipole Moment Calculation                       ... on
Quadrupole Moment Calculation                   ... off
Polarizability Calculation                      ... off
GBWName                                         ... /scratch/BH-4.8-CCSD-O_690/BH-4.8-CCSD-O.gbw
Electron density file                           ... /scratch/BH-4.8-CCSD-O_690/BH-4.8-CCSD-O.scfp
The origin for moment calculation is the CENTER OF MASS  = ( 0.773672,  0.000000  0.000000)

-------------
DIPOLE MOMENT
-------------
                                X             Y             Z
Electronic contribution:     -8.30045      -0.00000      -0.00000
Nuclear contribution   :      4.42866       0.00000       0.00000
                        -----------------------------------------
Total Dipole Moment    :     -3.87179      -0.00000      -0.00000
                        -----------------------------------------
Magnitude (a.u.)       :      3.87179
Magnitude (Debye)      :      9.84132



--------------------
Rotational spectrum 
--------------------
 
Rotational constants in cm-1:     0.000000     0.793546     0.793546 
Rotational constants in MHz :     0.000000 23789.914915 23789.914915 

 Dipole components along the rotational axes: 
x,y,z [a.u.] :    -3.871793    -0.000000    -0.000000 
x,y,z [Debye]:    -9.841317    -0.000000    -0.000000 

 

                           *** MDCI DENSITY ***

------------------------------------------------------------------------------
                       ORCA ELECTRIC PROPERTIES CALCULATION
------------------------------------------------------------------------------

Dipole Moment Calculation                       ... on
Quadrupole Moment Calculation                   ... off
Polarizability Calculation                      ... off
GBWName                                         ... /scratch/BH-4.8-CCSD-O_690/BH-4.8-CCSD-O.gbw
Electron density file                           ... /scratch/BH-4.8-CCSD-O_690/BH-4.8-CCSD-O.mdcip
The origin for moment calculation is the CENTER OF MASS  = ( 0.773672,  0.000000  0.000000)

-------------
DIPOLE MOMENT
-------------
                                X             Y             Z
Electronic contribution:      3.03812       0.00000       0.00000
Nuclear contribution   :      4.42866       0.00000       0.00000
                        -----------------------------------------
Total Dipole Moment    :      7.46677       0.00000       0.00000
                        -----------------------------------------
Magnitude (a.u.)       :      7.46677
Magnitude (Debye)      :     18.97903



--------------------
Rotational spectrum 
--------------------
 
Rotational constants in cm-1:     0.000000     0.793546     0.793546 
Rotational constants in MHz :     0.000000 23789.914915 23789.914915 

 Dipole components along the rotational axes: 
x,y,z [a.u.] :     7.466773     0.000000     0.000000 
x,y,z [Debye]:    18.979028     0.000000     0.000000 

 

Timings for individual modules:

Sum of individual times         ...       45.587 sec (=   0.760 min)
GTO integral calculation        ...        0.124 sec (=   0.002 min)   0.3 %
SCF iterations                  ...       10.163 sec (=   0.169 min)  22.3 %
MDCI module                     ...       35.300 sec (=   0.588 min)  77.4 %
                             ****ORCA TERMINATED NORMALLY****
TOTAL RUN TIME: 0 days 0 hours 0 minutes 45 seconds 712 msec

Sender: Unischeduler System <lcz@mgt01>
Subject: Job 134099: <#!/bin/bash
#BSUB -J intel
#BSUB -o BH-4.8-CCSD-O.out
#BSUB -n 1
#BSUB -q cqueue
export LD_LIBRARY_PATH=/apps/software/openmpi-4.1.1/lib:/apps/software/orca_5_0_0:$LD_LIBRARY_PATH
export PATH=/apps/software/openmpi-4.1.1/bin:/apps/software/orca_5_0_0:$PATH
mkdir /scratch/BH-4.8-CCSD-O_690
scp $USER@mgt01:/apps/users/lcz/exe13/CCSD/BH-4.8-CCSD-O.inp /scratch/BH-4.8-CCSD-O_690
/apps/software/orca_5_0_0/orca /scratch/BH-4.8-CCSD-O_690/BH-4.8-CCSD-O.inp >& BH-4.8-CCSD-O.out
scp /scratch/BH-4.8-CCSD-O_690/*.gbw $USER@mgt01:/apps/users/lcz/exe13/CCSD
scp /scratch/BH-4.8-CCSD-O_690/*.xyz $USER@mgt01:/apps/users/lcz/exe13/CCSD
scp /scratch/BH-4.8-CCSD-O_690/*.trj $USER@mgt01:/apps/users/lcz/exe13/CCSD> Exited

Job <#!/bin/bash
#BSUB -J intel
#BSUB -o BH-4.8-CCSD-O.out
#BSUB -n 1
#BSUB -q cqueue
export LD_LIBRARY_PATH=/apps/software/openmpi-4.1.1/lib:/apps/software/orca_5_0_0:$LD_LIBRARY_PATH
export PATH=/apps/software/openmpi-4.1.1/bin:/apps/software/orca_5_0_0:$PATH
mkdir /scratch/BH-4.8-CCSD-O_690
scp $USER@mgt01:/apps/users/lcz/exe13/CCSD/BH-4.8-CCSD-O.inp /scratch/BH-4.8-CCSD-O_690
/apps/software/orca_5_0_0/orca /scratch/BH-4.8-CCSD-O_690/BH-4.8-CCSD-O.inp >& BH-4.8-CCSD-O.out
scp /scratch/BH-4.8-CCSD-O_690/*.gbw $USER@mgt01:/apps/users/lcz/exe13/CCSD
scp /scratch/BH-4.8-CCSD-O_690/*.xyz $USER@mgt01:/apps/users/lcz/exe13/CCSD
scp /scratch/BH-4.8-CCSD-O_690/*.trj $USER@mgt01:/apps/users/lcz/exe13/CCSD> was submitted from host <mgt01> by user <lcz>.
Job was executed on host(s) <1*cnode08>, in queue <cqueue>, as user <lcz>.
</apps/users/lcz> was used as the home directory.
</apps/users/lcz/exe13/CCSD> was used as the working directory.
Started at 2022-05-22 16:14:29
Results reported at 2022-05-22 16:15:16

Your job looked like:

------------------------------------------------------------
# User input
#!/bin/bash
#BSUB -J intel
#BSUB -o BH-4.8-CCSD-O.out
#BSUB -n 1
#BSUB -q cqueue
export LD_LIBRARY_PATH=/apps/software/openmpi-4.1.1/lib:/apps/software/orca_5_0_0:$LD_LIBRARY_PATH
export PATH=/apps/software/openmpi-4.1.1/bin:/apps/software/orca_5_0_0:$PATH
mkdir /scratch/BH-4.8-CCSD-O_690
scp $USER@mgt01:/apps/users/lcz/exe13/CCSD/BH-4.8-CCSD-O.inp /scratch/BH-4.8-CCSD-O_690
/apps/software/orca_5_0_0/orca /scratch/BH-4.8-CCSD-O_690/BH-4.8-CCSD-O.inp >& BH-4.8-CCSD-O.out
scp /scratch/BH-4.8-CCSD-O_690/*.gbw $USER@mgt01:/apps/users/lcz/exe13/CCSD
scp /scratch/BH-4.8-CCSD-O_690/*.xyz $USER@mgt01:/apps/users/lcz/exe13/CCSD
scp /scratch/BH-4.8-CCSD-O_690/*.trj $USER@mgt01:/apps/users/lcz/exe13/CCSD
------------------------------------------------------------

Exited with exit code 1.

Resource usage summary:

    CPU time   :           37.84 sec.
    Max Memory :               413 MB
    Max Processes  :               5


The output (if any) follows:

/scratch/BH-4.8-CCSD-O_690/*.xyz: No such file or directory
/scratch/BH-4.8-CCSD-O_690/*.trj: No such file or directory
