 Entering Gaussian System, Link 0=/apps/software/g16/g16
 Initial command:
 /apps/software/g16/l1.exe "/scratch/Gau-288921.inp" -scrdir="/scratch/"
 Entering Link 1 = /apps/software/g16/l1.exe PID=    288922.
  
 Copyright (c) 1988,1990,1992,1993,1995,1998,2003,2009,2016,
            Gaussian, Inc.  All Rights Reserved.
  
 This is part of the Gaussian(R) 16 program.  It is based on
 the Gaussian(R) 09 system (copyright 2009, Gaussian, Inc.),
 the Gaussian(R) 03 system (copyright 2003, Gaussian, Inc.),
 the Gaussian(R) 98 system (copyright 1998, Gaussian, Inc.),
 the Gaussian(R) 94 system (copyright 1995, Gaussian, Inc.),
 the Gaussian 92(TM) system (copyright 1992, Gaussian, Inc.),
 the Gaussian 90(TM) system (copyright 1990, Gaussian, Inc.),
 the Gaussian 88(TM) system (copyright 1988, Gaussian, Inc.),
 the Gaussian 86(TM) system (copyright 1986, Carnegie Mellon
 University), and the Gaussian 82(TM) system (copyright 1983,
 Carnegie Mellon University). Gaussian is a federally registered
 trademark of Gaussian, Inc.
  
 This software contains proprietary and confidential information,
 including trade secrets, belonging to Gaussian, Inc.
  
 This software is provided under written license and may be
 used, copied, transmitted, or stored only in accord with that
 written license.
  
 The following legend is applicable only to US Government
 contracts under FAR:
  
                    RESTRICTED RIGHTS LEGEND
  
 Use, reproduction and disclosure by the US Government is
 subject to restrictions as set forth in subparagraphs (a)
 and (c) of the Commercial Computer Software - Restricted
 Rights clause in FAR 52.227-19.
  
 Gaussian, Inc.
 340 Quinnipiac St., Bldg. 40, Wallingford CT 06492
  
  
 ---------------------------------------------------------------
 Warning -- This program may not be used in any manner that
 competes with the business of Gaussian, Inc. or will provide
 assistance to any competitor of Gaussian, Inc.  The licensee
 of this program is prohibited from giving any competitor of
 Gaussian, Inc. access to this program.  By using this program,
 the user acknowledges that Gaussian, Inc. is engaged in the
 business of creating and licensing software in the field of
 computational chemistry and represents and warrants to the
 licensee that it is not a competitor of Gaussian, Inc. and that
 it will not use this program in any manner prohibited above.
 ---------------------------------------------------------------
  

 Cite this work as:
 Gaussian 16, Revision A.03,
 M. J. Frisch, G. W. Trucks, H. B. Schlegel, G. E. Scuseria, 
 M. A. Robb, J. R. Cheeseman, G. Scalmani, V. Barone, 
 G. A. Petersson, H. Nakatsuji, X. Li, M. Caricato, A. V. Marenich, 
 J. Bloino, B. G. Janesko, R. Gomperts, B. Mennucci, H. P. Hratchian, 
 J. V. Ortiz, A. F. Izmaylov, J. L. Sonnenberg, D. Williams-Young, 
 F. Ding, F. Lipparini, F. Egidi, J. Goings, B. Peng, A. Petrone, 
 T. Henderson, D. Ranasinghe, V. G. Zakrzewski, J. Gao, N. Rega, 
 G. Zheng, W. Liang, M. Hada, M. Ehara, K. Toyota, R. Fukuda, 
 J. Hasegawa, M. Ishida, T. Nakajima, Y. Honda, O. Kitao, H. Nakai, 
 T. Vreven, K. Throssell, J. A. Montgomery, Jr., J. E. Peralta, 
 F. Ogliaro, M. J. Bearpark, J. J. Heyd, E. N. Brothers, K. N. Kudin, 
 V. N. Staroverov, T. A. Keith, R. Kobayashi, J. Normand, 
 K. Raghavachari, A. P. Rendell, J. C. Burant, S. S. Iyengar, 
 J. Tomasi, M. Cossi, J. M. Millam, M. Klene, C. Adamo, R. Cammi, 
 J. W. Ochterski, R. L. Martin, K. Morokuma, O. Farkas, 
 J. B. Foresman, and D. J. Fox, Gaussian, Inc., Wallingford CT, 2016.
 
 ******************************************
 Gaussian 16:  ES64L-G16RevA.03 25-Dec-2016
                22-May-2022 
 ******************************************
 %oldchk=BH-4.6-RHF-G.chk
 %chk=BH-4.6-CCSD-G.chk
 Copying data from "BH-4.6-RHF-G.chk" to current chk file "BH-4.6-CCSD-G.chk"
 IOpt=  2 FromEx=T IUOpen= 4 IOptOp= 5 NList=   0 IFRang= 0 IUIn= 4 IUOut= 2.
 -------------------------------------
 #p RHF/aug-cc-pVQZ guess=read CCSD=FC
 -------------------------------------
 1/38=1,172=1/1;
 2/12=2,17=6,18=5,40=1/2;
 3/5=16,6=2,7=10,11=1,25=1,30=1,116=1/1,2,3;
 4/5=1/1;
 5/5=2,38=6/2;
 8/6=4,9=120000,10=1/1,4;
 9/5=7/13;
 6/7=2,8=2,9=2,10=2/1;
 99/5=1,9=1/99;
 Leave Link    1 at Sun May 22 15:48:25 2022, MaxMem=   104857600 cpu:               0.0 elap:               0.0
 (Enter /apps/software/g16/l101.exe)
 ----------------------
 BH RHF at 4.6 Angstrom
 ----------------------
 Symbolic Z-matrix:
 Charge =  0 Multiplicity = 1
 B                     0.        0.        0. 
 H                     4.6       0.        0. 
 
 ITRead=  0  0
 MicOpt= -1 -1
 NAtoms=      2 NQM=        2 NQMF=       0 NMMI=      0 NMMIF=      0
                NMic=       0 NMicF=      0.
                    Isotopes and Nuclear Properties:
 (Nuclear quadrupole moments (NQMom) in fm**2, nuclear magnetic moments (NMagM)
  in nuclear magnetons)

  Atom         1           2
 IAtWgt=          11           1
 AtmWgt=  11.0093053   1.0078250
 NucSpn=           3           1
 AtZEff=  -0.0000000  -0.0000000
 NQMom=    4.0590000   0.0000000
 NMagM=    2.6886370   2.7928460
 AtZNuc=   5.0000000   1.0000000
 Leave Link  101 at Sun May 22 15:48:25 2022, MaxMem=   104857600 cpu:               0.1 elap:               0.1
 (Enter /apps/software/g16/l202.exe)
                          Input orientation:                          
 ---------------------------------------------------------------------
 Center     Atomic      Atomic             Coordinates (Angstroms)
 Number     Number       Type             X           Y           Z
 ---------------------------------------------------------------------
      1          5           0        0.000000    0.000000    0.000000
      2          1           0        4.600000    0.000000    0.000000
 ---------------------------------------------------------------------
 Stoichiometry    BH
 Framework group  C*V[C*(HB)]
 Deg. of freedom     1
 Full point group                 C*V     NOp   4
 Largest Abelian subgroup         C2V     NOp   4
 Largest concise Abelian subgroup C1      NOp   1
                         Standard orientation:                         
 ---------------------------------------------------------------------
 Center     Atomic      Atomic             Coordinates (Angstroms)
 Number     Number       Type             X           Y           Z
 ---------------------------------------------------------------------
      1          5           0        0.000000    0.000000    0.766667
      2          1           0        0.000000    0.000000   -3.833333
 ---------------------------------------------------------------------
 Rotational constants (GHZ):           0.0000000          25.8676663          25.8676663
 Leave Link  202 at Sun May 22 15:48:25 2022, MaxMem=   104857600 cpu:               0.0 elap:               0.0
 (Enter /apps/software/g16/l301.exe)
 Standard basis: Aug-CC-pVQZ (5D, 7F)
 Ernie: Thresh=  0.10000D-02 Tol=  0.10000D-05 Strict=F.
 Ernie:  4 primitive shells out of 54 were deleted.
 There are    68 symmetry adapted cartesian basis functions of A1  symmetry.
 There are    18 symmetry adapted cartesian basis functions of A2  symmetry.
 There are    37 symmetry adapted cartesian basis functions of B1  symmetry.
 There are    37 symmetry adapted cartesian basis functions of B2  symmetry.
 There are    50 symmetry adapted basis functions of A1  symmetry.
 There are    16 symmetry adapted basis functions of A2  symmetry.
 There are    30 symmetry adapted basis functions of B1  symmetry.
 There are    30 symmetry adapted basis functions of B2  symmetry.
   126 basis functions,   180 primitive gaussians,   160 cartesian basis functions
     3 alpha electrons        3 beta electrons
       nuclear repulsion energy         0.5751926206 Hartrees.
 IExCor=    0 DFT=F Ex=HF Corr=None ExCW=0 ScaHFX=  1.000000
 ScaDFX=  1.000000  1.000000  1.000000  1.000000 ScalE2=  1.000000  1.000000
 IRadAn=      5 IRanWt=     -1 IRanGd=            0 ICorTp=0 IEmpDi=  4
 NAtoms=    2 NActive=    2 NUniq=    2 SFac= 1.00D+00 NAtFMM=   60 NAOKFM=F Big=F
 Integral buffers will be    131072 words long.
 Raffenetti 1 integral format.
 Two-electron integral symmetry is turned on.
 Leave Link  301 at Sun May 22 15:48:26 2022, MaxMem=   104857600 cpu:               0.0 elap:               0.0
 (Enter /apps/software/g16/l302.exe)
 NPDir=0 NMtPBC=     1 NCelOv=     1 NCel=       1 NClECP=     1 NCelD=      1
         NCelK=      1 NCelE2=     1 NClLst=     1 CellRange=     0.0.
 One-electron integrals computed using PRISM.
 One-electron integral symmetry used in STVInt
 NBasis=   126 RedAO= T EigKep=  1.19D-02  NBF=    50    16    30    30
 NBsUse=   126 1.00D-06 EigRej= -1.00D+00 NBFU=    50    16    30    30
 Leave Link  302 at Sun May 22 15:48:26 2022, MaxMem=   104857600 cpu:               0.1 elap:               0.1
 (Enter /apps/software/g16/l303.exe)
 DipDrv:  MaxL=1.
 Leave Link  303 at Sun May 22 15:48:26 2022, MaxMem=   104857600 cpu:               0.0 elap:               0.0
 (Enter /apps/software/g16/l401.exe)
 Initial guess from the checkpoint file:  "BH-4.6-CCSD-G.chk"
 B after Tr=     0.000000    0.000000    0.000000
         Rot=    1.000000    0.000000    0.000000    0.000000 Ang=   0.00 deg.
 Guess basis will be translated and rotated to current coordinates.
 JPrj=2 DoOrth=T DoCkMO=T.
 Initial guess orbital symmetries:
       Occupied  (SG) (SG) (SG)
       Virtual   (SG) (PI) (PI) (SG) (PI) (PI) (SG) (SG) (DLTA)
                 (DLTA) (PI) (PI) (SG) (SG) (PI) (PI) (PI) (PI)
                 (SG) (SG) (PHI) (PHI) (DLTA) (DLTA) (SG) (DLTA)
                 (DLTA) (PI) (PI) (PI) (PI) (SG) (SG) (DLTA) (DLTA)
                 (PI) (PI) (SG) (PI) (PI) (SG) (PI) (PI) (SG) (SG)
                 (?A) (?A) (DLTA) (DLTA) (PHI) (PHI) (DLTA) (DLTA)
                 (PI) (PI) (PI) (PI) (SG) (SG) (PHI) (PHI) (DLTA)
                 (DLTA) (PI) (PI) (SG) (PHI) (PHI) (DLTA) (DLTA)
                 (PI) (PI) (SG) (SG) (DLTA) (DLTA) (PI) (PI) (SG)
                 (PI) (PI) (SG) (PI) (PI) (SG) (?A) (?A) (DLTA)
                 (DLTA) (PHI) (PHI) (DLTA) (DLTA) (PI) (PI) (PI)
                 (PI) (SG) (SG) (PHI) (PHI) (DLTA) (DLTA) (PI)
                 (PI) (SG) (PHI) (PHI) (DLTA) (DLTA) (PI) (PI)
                 (SG) (SG) (PI) (PI) (SG) (DLTA) (DLTA) (PI) (PI)
                 (SG) (SG)
 The electronic state of the initial guess is 1-SG.
 Leave Link  401 at Sun May 22 15:48:26 2022, MaxMem=   104857600 cpu:               0.1 elap:               0.1
 (Enter /apps/software/g16/l502.exe)
 Keep R1 ints in memory in symmetry-blocked form, NReq=40143665.
 FoFCou: FMM=F IPFlag=           0 FMFlag=           0 FMFlg1=           0
         NFxFlg=           0 DoJE=F BraDBF=F KetDBF=F FulRan=T
         wScrn=  0.000000 ICntrl=       600 IOpCl=  0 I1Cent=           0 NGrid=           0
         NMat0=    1 NMatS0=   8001 NMatT0=    0 NMatD0=    1 NMtDS0=    0 NMtDT0=    0
 Petite list used in FoFCou.
 Closed shell SCF:
 Using DIIS extrapolation, IDIIS=  1040.
 NGot=   104857600 LenX=    96673173 LenY=    96647132
 Requested convergence on RMS density matrix=1.00D-08 within 128 cycles.
 Requested convergence on MAX density matrix=1.00D-06.
 Requested convergence on             energy=1.00D-06.
 No special actions if energy rises.

 Cycle   1  Pass 1  IDiag  1:
 E= -24.8842824160588    
 DIIS: error= 2.64D-08 at cycle   1 NSaved=   1.
 NSaved= 1 IEnMin= 1 EnMin= -24.8842824160588     IErMin= 1 ErrMin= 2.64D-08
 ErrMax= 2.64D-08  0.00D+00 EMaxC= 1.00D-01 BMatC= 2.35D-14 BMatP= 2.35D-14
 IDIUse=1 WtCom= 1.00D+00 WtEn= 0.00D+00
 Coeff-Com:  0.100D+01
 Coeff:      0.100D+01
 Gap=     0.137 Goal=   None    Shift=    0.000
 RMSDP=3.09D-09 MaxDP=1.11D-07              OVMax= 5.36D-07

 SCF Done:  E(RHF) =  -24.8842824161     A.U. after    1 cycles
            NFock=  1  Conv=0.31D-08     -V/T= 2.0048
 KE= 2.476419928452D+01 PE=-5.819081623797D+01 EE= 7.967141916823D+00
 Leave Link  502 at Sun May 22 15:48:29 2022, MaxMem=   104857600 cpu:               3.6 elap:               3.7
 (Enter /apps/software/g16/l801.exe)
 Windowed orbitals will be sorted by symmetry type.
 ExpMin= 1.88D-02 ExpMax= 2.39D+04 ExpMxC= 2.30D+02 IAcc=3 IRadAn=         5 AccDes= 0.00D+00
 HarFok:  IExCor=  205 AccDes= 0.00D+00 IRadAn=         5 IDoV=-2 UseB2=F ITyADJ=14
 ICtDFT= 12500011 ScaDFX=  1.000000  1.000000  1.000000  1.000000
 DSYEVD-2 returned Info=        3401 IAlg= 4 N=    80 NDim=    80 NE2=     1309686 trying  DSYEV.
 Largest valence mixing into a core orbital is  4.02D-04
 Largest core mixing into a valence orbital is  1.73D-04
 Range of M.O.s used for correlation:     2   126
 NBasis=   126 NAE=     3 NBE=     3 NFC=     1 NFV=     0
 NROrb=    125 NOA=     2 NOB=     2 NVA=   123 NVB=   123
 Leave Link  801 at Sun May 22 15:48:30 2022, MaxMem=   104857600 cpu:               0.1 elap:               0.1
 (Enter /apps/software/g16/l804.exe)
 Closed-shell transformation, MDV=   104857600 ITran=4 ISComp=2.
 Unit  1 TFree=        535169 TCopy=        350885.
 Semi-Direct transformation.
 ModeAB=           4 MOrb=             2 LenV=     104244285
 LASXX=       493564 LTotXX=      493564 LenRXX=     1003397
 LTotAB=      509833 MaxLAS=     3163250 LenRXY=           0
 NonZer=     1496961 LenScr=     2992128 LnRSAI=     3163250
 LnScr1=     5501440 LExtra=           0 Total=     12660215
 MaxDsk=          -1 SrtSym=           T ITran=            4
 DoSDTr:  NPSUse=  1
 JobTyp=0 Pass  1:  I=   1 to   2.
 (rs|ai) integrals will be sorted in core.
 Complete sort for first half transformation.
 First half transformation complete.
 Complete sort for second half transformation.
 Second half transformation complete.
 Spin components of T(2) and E(2):
     alpha-alpha T2 =       0.1700456763D-02 E2=     -0.2245615185D-02
     alpha-beta  T2 =       0.2498860143D+00 E2=     -0.1257035149D+00
     beta-beta   T2 =       0.1700456763D-02 E2=     -0.2245615185D-02
 ANorm=    0.1119502982D+01
 E2 =    -0.1301947452D+00 EUMP2 =    -0.25014477161289D+02
 Leave Link  804 at Sun May 22 15:48:34 2022, MaxMem=   104857600 cpu:               4.7 elap:               4.7
 (Enter /apps/software/g16/l913.exe)
 CIDS:  MDV=   104857600.
 Frozen-core window:  NFC=   1 NFV=   0.
 IFCWin=0 IBDFC=1 NFBD=     0     0 NFCmp=     0     0 NFFFC=     0     0
 Using DD3R+UMP44R for 1st iteration.
 Using DD4RQ for 2nd and later iterations.
 Keep R2 and R3 ints in memory in symmetry-blocked form, NReq=40146875.
 FoFCou: FMM=F IPFlag=           0 FMFlag=           0 FMFlg1=           0
         NFxFlg=           0 DoJE=F BraDBF=F KetDBF=F FulRan=T
         wScrn=  0.000000 ICntrl=       600 IOpCl=  0 I1Cent=           0 NGrid=           0
         NMat0=    1 NMatS0=   8001 NMatT0=    0 NMatD0=    1 NMtDS0=    0 NMtDT0=    0
 Petite list used in FoFCou.
 CIDS: In Core Option IDoMem=           1.
 Coupled Cluster theory with single and double substitutions
 ===========================================================
 Iterations=  50 Convergence= 0.100D-06
 Produce multiple copies of IABC intergrals
 Iteration Nr.   1
 **********************
 DD1Dir will call FoFMem   1 times, MxPair=         6
 NAB=     3 NAA=     0 NBB=     0.
 MP4(R+Q)=  0.24726950D-01
 Maximum subspace dimension=  5
 A-vector RMS=  5.6511339D-02 Max=  4.2529641D-01 conv= 1.00D-05.
 RLE energy=       -0.1138976979
 E3=       -0.31530518D-01        EUMP3=      -0.25046007680D+02
 E4(DQ)=   -0.25950418D-02        UMP4(DQ)=   -0.25048602721D+02
 E4(SDQ)=  -0.60489127D-01        UMP4(SDQ)=  -0.25106496807D+02
 VARIATIONAL ENERGIES WITH THE FIRST-ORDER WAVEFUNCTION:
 DE(Corr)= -0.11591199     E(Corr)=     -25.000194409    
 NORM(A)=   0.13099421D+01
 Iteration Nr.   2
 **********************
 DD1Dir will call FoFMem   1 times, MxPair=         6
 NAB=     3 NAA=     0 NBB=     0.
 A-vector RMS=  6.7199484D-02 Max=  5.0750429D-01 conv= 1.00D-05.
 RLE energy=       -0.1876111139
 DE(Corr)= -0.21097370     E(CORR)=     -25.095256119     Delta=-9.51D-02
 NORM(A)=   0.14013356D+01
 Iteration Nr.   3
 **********************
 DD1Dir will call FoFMem   1 times, MxPair=         6
 NAB=     3 NAA=     0 NBB=     0.
 A-vector RMS=  3.1644301D-02 Max=  2.4067165D-01 conv= 1.00D-05.
 RLE energy=       -0.2031781493
 DE(Corr)= -0.16575799     E(CORR)=     -25.050040409     Delta= 4.52D-02
 NORM(A)=   0.17291913D+01
 Iteration Nr.   4
 **********************
 DD1Dir will call FoFMem   1 times, MxPair=         6
 NAB=     3 NAA=     0 NBB=     0.
 A-vector RMS=  2.8225049D-02 Max=  2.1706562D-01 conv= 1.00D-05.
 RLE energy=       -0.1928540762
 DE(Corr)= -0.22091360     E(CORR)=     -25.105196013     Delta=-5.52D-02
 NORM(A)=   0.15422574D+01
 Iteration Nr.   5
 **********************
 DD1Dir will call FoFMem   1 times, MxPair=         6
 NAB=     3 NAA=     0 NBB=     0.
 A-vector RMS=  1.5028079D-02 Max=  1.1517794D-01 conv= 1.00D-05.
 RLE energy=       -0.2042160236
 DE(Corr)= -0.18842739     E(CORR)=     -25.072709804     Delta= 3.25D-02
 NORM(A)=   0.16973584D+01
 Iteration Nr.   6
 **********************
 DD1Dir will call FoFMem   1 times, MxPair=         6
 NAB=     3 NAA=     0 NBB=     0.
 A-vector RMS=  2.3501948D-03 Max=  1.7566857D-02 conv= 1.00D-05.
 RLE energy=       -0.2027081868
 DE(Corr)= -0.20461751     E(CORR)=     -25.088899922     Delta=-1.62D-02
 NORM(A)=   0.16805586D+01
 Iteration Nr.   7
 **********************
 DD1Dir will call FoFMem   1 times, MxPair=         6
 NAB=     3 NAA=     0 NBB=     0.
 A-vector RMS=  4.6057410D-04 Max=  3.0010973D-03 conv= 1.00D-05.
 RLE energy=       -0.2015623386
 DE(Corr)= -0.20245676     E(CORR)=     -25.086739175     Delta= 2.16D-03
 NORM(A)=   0.16713614D+01
 Iteration Nr.   8
 **********************
 DD1Dir will call FoFMem   1 times, MxPair=         6
 NAB=     3 NAA=     0 NBB=     0.
 A-vector RMS=  1.8771629D-04 Max=  4.7404820D-03 conv= 1.00D-05.
 RLE energy=       -0.2024434669
 DE(Corr)= -0.20215650     E(CORR)=     -25.086438914     Delta= 3.00D-04
 NORM(A)=   0.16794801D+01
 Iteration Nr.   9
 **********************
 DD1Dir will call FoFMem   1 times, MxPair=         6
 NAB=     3 NAA=     0 NBB=     0.
 A-vector RMS=  5.0246871D-05 Max=  1.5014467D-03 conv= 1.00D-05.
 RLE energy=       -0.2021927552
 DE(Corr)= -0.20225757     E(CORR)=     -25.086539986     Delta=-1.01D-04
 NORM(A)=   0.16778537D+01
 Iteration Nr.  10
 **********************
 DD1Dir will call FoFMem   1 times, MxPair=         6
 NAB=     3 NAA=     0 NBB=     0.
 A-vector RMS=  1.5336381D-04 Max=  1.1780905D-03 conv= 1.00D-05.
 RLE energy=       -0.2022779151
 DE(Corr)= -0.20234380     E(CORR)=     -25.086626219     Delta=-8.62D-05
 NORM(A)=   0.16775057D+01
 Iteration Nr.  11
 **********************
 DD1Dir will call FoFMem   1 times, MxPair=         6
 NAB=     3 NAA=     0 NBB=     0.
 A-vector RMS=  1.2729520D-04 Max=  9.5970343D-04 conv= 1.00D-05.
 RLE energy=       -0.2021950321
 DE(Corr)= -0.20207875     E(CORR)=     -25.086361171     Delta= 2.65D-04
 NORM(A)=   0.16773407D+01
 Iteration Nr.  12
 **********************
 DD1Dir will call FoFMem   1 times, MxPair=         6
 NAB=     3 NAA=     0 NBB=     0.
 A-vector RMS=  1.6094022D-05 Max=  1.0323307D-04 conv= 1.00D-05.
 RLE energy=       -0.2022059496
 DE(Corr)= -0.20221936     E(CORR)=     -25.086501779     Delta=-1.41D-04
 NORM(A)=   0.16773711D+01
 Iteration Nr.  13
 **********************
 DD1Dir will call FoFMem   1 times, MxPair=         6
 NAB=     3 NAA=     0 NBB=     0.
 A-vector RMS=  9.5406182D-06 Max=  7.1881945D-05 conv= 1.00D-05.
 RLE energy=       -0.2021978629
 DE(Corr)= -0.20220555     E(CORR)=     -25.086487965     Delta= 1.38D-05
 NORM(A)=   0.16772615D+01
 Iteration Nr.  14
 **********************
 DD1Dir will call FoFMem   1 times, MxPair=         6
 NAB=     3 NAA=     0 NBB=     0.
 A-vector RMS=  5.1119884D-06 Max=  3.8860852D-05 conv= 1.00D-05.
 RLE energy=       -0.2021989570
 DE(Corr)= -0.20219333     E(CORR)=     -25.086475749     Delta= 1.22D-05
 NORM(A)=   0.16772850D+01
 Iteration Nr.  15
 **********************
 DD1Dir will call FoFMem   1 times, MxPair=         6
 NAB=     3 NAA=     0 NBB=     0.
 A-vector RMS=  6.3572711D-07 Max=  3.8949298D-06 conv= 1.00D-05.
 RLE energy=       -0.2021985313
 DE(Corr)= -0.20219835     E(CORR)=     -25.086480765     Delta=-5.02D-06
 NORM(A)=   0.16772840D+01
 Iteration Nr.  16
 **********************
 DD1Dir will call FoFMem   1 times, MxPair=         6
 NAB=     3 NAA=     0 NBB=     0.
 A-vector RMS=  9.3897300D-07 Max=  7.0790721D-06 conv= 1.00D-05.
 RLE energy=       -0.2021987544
 DE(Corr)= -0.20219908     E(CORR)=     -25.086481493     Delta=-7.28D-07
 NORM(A)=   0.16772786D+01
 Iteration Nr.  17
 **********************
 DD1Dir will call FoFMem   1 times, MxPair=         6
 NAB=     3 NAA=     0 NBB=     0.
 A-vector RMS=  1.0870864D-06 Max=  8.2505363D-06 conv= 1.00D-05.
 RLE energy=       -0.2021980360
 DE(Corr)= -0.20219730     E(CORR)=     -25.086479712     Delta= 1.78D-06
 NORM(A)=   0.16772772D+01
 Iteration Nr.  18
 **********************
 DD1Dir will call FoFMem   1 times, MxPair=         6
 NAB=     3 NAA=     0 NBB=     0.
 A-vector RMS=  6.0998314D-08 Max=  2.2221224D-06 conv= 1.00D-05.
 RLE energy=       -0.2021984823
 DE(Corr)= -0.20219842     E(CORR)=     -25.086480834     Delta=-1.12D-06
 NORM(A)=   0.16772804D+01
 Iteration Nr.  19
 **********************
 DD1Dir will call FoFMem   1 times, MxPair=         6
 NAB=     3 NAA=     0 NBB=     0.
 A-vector RMS=  5.0412209D-08 Max=  6.0767024D-07 conv= 1.00D-05.
 RLE energy=       -0.2021983555
 DE(Corr)= -0.20219841     E(CORR)=     -25.086480826     Delta= 7.37D-09
 NORM(A)=   0.16772790D+01
 CI/CC converged in   19 iterations to DelEn= 7.37D-09 Conv= 1.00D-07 ErrA1= 5.04D-08 Conv= 1.00D-05
 Wavefunction amplitudes converged. E(Corr)=     -25.086480826    
 Dominant configurations:
 ***********************
 Spin Case        I    J    A    B          Value
    AA            3         4           -0.463839D+00
    AA            3        10           -0.100564D+00
    AA            3        17            0.108279D+00
   ABAB           2    2    6    6      -0.123743D+00
   ABAB           2    2    5    5      -0.123743D+00
   ABAB           3    3    4    4      -0.105347D+01
   ABAB           3    3    4    7       0.118211D+00
   ABAB           3    3    4   11       0.104004D+00
   ABAB           3    3    7    4       0.118211D+00
   ABAB           3    3   11    4       0.104004D+00
 Largest amplitude= 1.05D+00
 Discarding MO integrals.
 Leave Link  913 at Sun May 22 15:48:38 2022, MaxMem=   104857600 cpu:               4.1 elap:               4.1
 (Enter /apps/software/g16/l601.exe)
 Copying SCF densities to generalized density rwf, IOpCl= 0 IROHF=0.

 **********************************************************************

            Population analysis using the SCF density.

 **********************************************************************

 Orbital symmetries:
       Occupied  (SG) (SG) (SG)
       Virtual   (SG) (PI) (PI) (SG) (PI) (PI) (SG) (SG) (DLTA)
                 (DLTA) (PI) (PI) (SG) (SG) (PI) (PI) (PI) (PI)
                 (SG) (SG) (PHI) (PHI) (DLTA) (DLTA) (SG) (DLTA)
                 (DLTA) (PI) (PI) (PI) (PI) (SG) (SG) (DLTA) (DLTA)
                 (PI) (PI) (SG) (PI) (PI) (SG) (PI) (PI) (SG) (SG)
                 (?A) (?A) (DLTA) (DLTA) (PHI) (PHI) (DLTA) (DLTA)
                 (PI) (PI) (PI) (PI) (SG) (SG) (PHI) (PHI) (DLTA)
                 (DLTA) (PI) (PI) (SG) (PHI) (PHI) (DLTA) (DLTA)
                 (PI) (PI) (SG) (SG) (DLTA) (DLTA) (PI) (PI) (SG)
                 (PI) (PI) (SG) (PI) (PI) (SG) (?A) (?A) (DLTA)
                 (DLTA) (PHI) (PHI) (DLTA) (DLTA) (PI) (PI) (PI)
                 (PI) (SG) (SG) (PHI) (PHI) (DLTA) (DLTA) (PI)
                 (PI) (SG) (PHI) (PHI) (DLTA) (DLTA) (PI) (PI)
                 (SG) (SG) (PI) (PI) (SG) (DLTA) (DLTA) (PI) (PI)
                 (SG) (SG)
 The electronic state is 1-SG.
 Alpha  occ. eigenvalues --   -7.89482  -0.62654  -0.22480
 Alpha virt. eigenvalues --   -0.08773  -0.05161  -0.05161   0.02108   0.04054
 Alpha virt. eigenvalues --    0.04054   0.05868   0.10043   0.11592   0.11592
 Alpha virt. eigenvalues --    0.12380   0.12380   0.14899   0.23209   0.24100
 Alpha virt. eigenvalues --    0.24100   0.24698   0.24698   0.28716   0.32209
 Alpha virt. eigenvalues --    0.41200   0.41200   0.41944   0.41944   0.42879
 Alpha virt. eigenvalues --    0.42965   0.42965   0.43172   0.43172   0.44152
 Alpha virt. eigenvalues --    0.44152   0.46447   0.53905   0.69338   0.69338
 Alpha virt. eigenvalues --    0.71611   0.71611   0.75333   0.86830   0.86830
 Alpha virt. eigenvalues --    0.92450   0.93718   0.93718   1.00248   1.28485
 Alpha virt. eigenvalues --    1.29050   1.29050   1.29705   1.29705   1.29923
 Alpha virt. eigenvalues --    1.29923   1.30597   1.30597   1.30968   1.30968
 Alpha virt. eigenvalues --    1.31288   1.31288   1.32156   1.33166   1.34335
 Alpha virt. eigenvalues --    1.34335   1.35395   1.35395   1.36912   1.36912
 Alpha virt. eigenvalues --    1.42052   1.65063   1.65063   1.65155   1.65155
 Alpha virt. eigenvalues --    1.66045   1.66045   1.67389   1.76367   2.56016
 Alpha virt. eigenvalues --    2.56016   2.57311   2.57311   2.60396   2.68361
 Alpha virt. eigenvalues --    2.68361   2.75276   3.57587   3.57587   3.61240
 Alpha virt. eigenvalues --    3.79609   3.79609   3.80418   3.80418   3.80651
 Alpha virt. eigenvalues --    3.80651   3.81417   3.81417   3.81808   3.81808
 Alpha virt. eigenvalues --    3.81972   3.81972   3.82754   3.83365   3.94619
 Alpha virt. eigenvalues --    3.94619   3.95781   3.95781   3.97111   3.97111
 Alpha virt. eigenvalues --    4.00680   6.65897   6.65897   6.65946   6.65946
 Alpha virt. eigenvalues --    6.66163   6.66163   6.66636   7.53303   8.04689
 Alpha virt. eigenvalues --    8.04689   8.08956   8.49542   8.49542   8.50373
 Alpha virt. eigenvalues --    8.50373   8.53504  12.86484
          Condensed to atoms (all electrons):
               1          2
     1  B    4.507215   0.089723
     2  H    0.089723   1.313340
 Mulliken charges:
               1
     1  B    0.403063
     2  H   -0.403063
 Sum of Mulliken charges =  -0.00000
 Mulliken charges with hydrogens summed into heavy atoms:
               1
     1  B   -0.000000
 Electronic spatial extent (au):  <R**2>=            103.7899
 Charge=             -0.0000 electrons
 Dipole moment (field-independent basis, Debye):
    X=              0.0000    Y=              0.0000    Z=              9.4375  Tot=              9.4375
 Quadrupole moment (field-independent basis, Debye-Ang):
   XX=             -9.2680   YY=             -9.2680   ZZ=            -36.3685
   XY=              0.0000   XZ=              0.0000   YZ=              0.0000
 Traceless Quadrupole moment (field-independent basis, Debye-Ang):
   XX=              9.0335   YY=              9.0335   ZZ=            -18.0670
   XY=              0.0000   XZ=              0.0000   YZ=              0.0000
 Octapole moment (field-independent basis, Debye-Ang**2):
  XXX=              0.0000  YYY=              0.0000  ZZZ=            120.1375  XYY=              0.0000
  XXY=              0.0000  XXZ=             11.0890  XZZ=              0.0000  YZZ=              0.0000
  YYZ=             11.0890  XYZ=              0.0000
 Hexadecapole moment (field-independent basis, Debye-Ang**3):
 XXXX=            -21.6319 YYYY=            -21.6319 ZZZZ=           -692.6003 XXXY=              0.0000
 XXXZ=              0.0000 YYYX=              0.0000 YYYZ=              0.0000 ZZZX=              0.0000
 ZZZY=              0.0000 XXYY=             -7.2106 XXZZ=            -64.2485 YYZZ=            -64.2485
 XXYZ=              0.0000 YYXZ=              0.0000 ZZXY=              0.0000
 N-N= 5.751926205652D-01 E-N=-5.819081496240D+01  KE= 2.476419928452D+01
 Symmetry A1   KE= 2.476419928452D+01
 Symmetry A2   KE= 1.424016914110D-50
 Symmetry B1   KE= 0.000000000000D+00
 Symmetry B2   KE= 0.000000000000D+00
 Leave Link  601 at Sun May 22 15:48:38 2022, MaxMem=   104857600 cpu:               0.0 elap:               0.0
 (Enter /apps/software/g16/l9999.exe)
 1\1\GINC-CNODE10\SP\RCCSD-FC\Aug-CC-pVQZ\B1H1\LCZ\22-May-2022\0\\#p RH
 F/aug-cc-pVQZ guess=read CCSD=FC\\BH RHF at 4.6 Angstrom\\0,1\B,0,0.,0
 .,0.\H,0,4.6,0.,0.\\Version=ES64L-G16RevA.03\State=1-SG\HF=-24.8842824
 \MP2=-25.0144772\MP3=-25.0460077\MP4D=-25.0733297\MP4DQ=-25.0486027\MP
 4SDQ=-25.1064968\CCSD=-25.0864808\RMSD=3.094e-09\PG=C*V [C*(H1B1)]\\@


 I think that all right-thinking people in this
 country are sick and tired of being told that
 ordinary, decent people are fed up in this country
 with being sick and tired.  I'm certainly not!
 But I'm sick and tired of being told that I am!
                               -- Monty Python
 Job cpu time:       0 days  0 hours  0 minutes 13.2 seconds.
 Elapsed time:       0 days  0 hours  0 minutes 13.2 seconds.
 File lengths (MBytes):  RWF=    105 Int=      0 D2E=      0 Chk=     67 Scr=      1
 Normal termination of Gaussian 16 at Sun May 22 15:48:39 2022.

Sender: Unischeduler System <lcz@mgt01>
Subject: Job 134062: <#!/bin/bash
#BSUB -J intel
#BSUB -o BH-4.6-CCSD-G.out
#BSUB -n 8
#BSUB -q cqueue
#BSUB -R span[hosts=1]
export g16root=/apps/software
source /apps/software/g16/bsd/g16.profile
export GAUSS_SCRDIR=/scratch
/apps/software/g16/g16 < BH-4.6-CCSD-G.inp > BH-4.6-CCSD-G.out> Done

Job <#!/bin/bash
#BSUB -J intel
#BSUB -o BH-4.6-CCSD-G.out
#BSUB -n 8
#BSUB -q cqueue
#BSUB -R span[hosts=1]
export g16root=/apps/software
source /apps/software/g16/bsd/g16.profile
export GAUSS_SCRDIR=/scratch
/apps/software/g16/g16 < BH-4.6-CCSD-G.inp > BH-4.6-CCSD-G.out> was submitted from host <mgt01> by user <lcz>.
Job was executed on host(s) <8*cnode10>, in queue <cqueue>, as user <lcz>.
</apps/users/lcz> was used as the home directory.
</apps/users/lcz/exe13/CCSD> was used as the working directory.
Started at 2022-05-22 15:48:25
Results reported at 2022-05-22 15:48:39

Your job looked like:

------------------------------------------------------------
# User input
#!/bin/bash
#BSUB -J intel
#BSUB -o BH-4.6-CCSD-G.out
#BSUB -n 8
#BSUB -q cqueue
#BSUB -R span[hosts=1]
export g16root=/apps/software
source /apps/software/g16/bsd/g16.profile
export GAUSS_SCRDIR=/scratch
/apps/software/g16/g16 < BH-4.6-CCSD-G.inp > BH-4.6-CCSD-G.out
------------------------------------------------------------

Successfully completed.

Resource usage summary:

    CPU time   :            3.78 sec.
    Max Memory :               387 MB
    Max Processes  :               5


The output (if any) follows:

