 Entering Gaussian System, Link 0=/apps/software/g16/g16
 Initial command:
 /apps/software/g16/l1.exe "/scratch/Gau-288867.inp" -scrdir="/scratch/"
 Entering Link 1 = /apps/software/g16/l1.exe PID=    288868.
  
 Copyright (c) 1988,1990,1992,1993,1995,1998,2003,2009,2016,
            Gaussian, Inc.  All Rights Reserved.
  
 This is part of the Gaussian(R) 16 program.  It is based on
 the Gaussian(R) 09 system (copyright 2009, Gaussian, Inc.),
 the Gaussian(R) 03 system (copyright 2003, Gaussian, Inc.),
 the Gaussian(R) 98 system (copyright 1998, Gaussian, Inc.),
 the Gaussian(R) 94 system (copyright 1995, Gaussian, Inc.),
 the Gaussian 92(TM) system (copyright 1992, Gaussian, Inc.),
 the Gaussian 90(TM) system (copyright 1990, Gaussian, Inc.),
 the Gaussian 88(TM) system (copyright 1988, Gaussian, Inc.),
 the Gaussian 86(TM) system (copyright 1986, Carnegie Mellon
 University), and the Gaussian 82(TM) system (copyright 1983,
 Carnegie Mellon University). Gaussian is a federally registered
 trademark of Gaussian, Inc.
  
 This software contains proprietary and confidential information,
 including trade secrets, belonging to Gaussian, Inc.
  
 This software is provided under written license and may be
 used, copied, transmitted, or stored only in accord with that
 written license.
  
 The following legend is applicable only to US Government
 contracts under FAR:
  
                    RESTRICTED RIGHTS LEGEND
  
 Use, reproduction and disclosure by the US Government is
 subject to restrictions as set forth in subparagraphs (a)
 and (c) of the Commercial Computer Software - Restricted
 Rights clause in FAR 52.227-19.
  
 Gaussian, Inc.
 340 Quinnipiac St., Bldg. 40, Wallingford CT 06492
  
  
 ---------------------------------------------------------------
 Warning -- This program may not be used in any manner that
 competes with the business of Gaussian, Inc. or will provide
 assistance to any competitor of Gaussian, Inc.  The licensee
 of this program is prohibited from giving any competitor of
 Gaussian, Inc. access to this program.  By using this program,
 the user acknowledges that Gaussian, Inc. is engaged in the
 business of creating and licensing software in the field of
 computational chemistry and represents and warrants to the
 licensee that it is not a competitor of Gaussian, Inc. and that
 it will not use this program in any manner prohibited above.
 ---------------------------------------------------------------
  

 Cite this work as:
 Gaussian 16, Revision A.03,
 M. J. Frisch, G. W. Trucks, H. B. Schlegel, G. E. Scuseria, 
 M. A. Robb, J. R. Cheeseman, G. Scalmani, V. Barone, 
 G. A. Petersson, H. Nakatsuji, X. Li, M. Caricato, A. V. Marenich, 
 J. Bloino, B. G. Janesko, R. Gomperts, B. Mennucci, H. P. Hratchian, 
 J. V. Ortiz, A. F. Izmaylov, J. L. Sonnenberg, D. Williams-Young, 
 F. Ding, F. Lipparini, F. Egidi, J. Goings, B. Peng, A. Petrone, 
 T. Henderson, D. Ranasinghe, V. G. Zakrzewski, J. Gao, N. Rega, 
 G. Zheng, W. Liang, M. Hada, M. Ehara, K. Toyota, R. Fukuda, 
 J. Hasegawa, M. Ishida, T. Nakajima, Y. Honda, O. Kitao, H. Nakai, 
 T. Vreven, K. Throssell, J. A. Montgomery, Jr., J. E. Peralta, 
 F. Ogliaro, M. J. Bearpark, J. J. Heyd, E. N. Brothers, K. N. Kudin, 
 V. N. Staroverov, T. A. Keith, R. Kobayashi, J. Normand, 
 K. Raghavachari, A. P. Rendell, J. C. Burant, S. S. Iyengar, 
 J. Tomasi, M. Cossi, J. M. Millam, M. Klene, C. Adamo, R. Cammi, 
 J. W. Ochterski, R. L. Martin, K. Morokuma, O. Farkas, 
 J. B. Foresman, and D. J. Fox, Gaussian, Inc., Wallingford CT, 2016.
 
 ******************************************
 Gaussian 16:  ES64L-G16RevA.03 25-Dec-2016
                22-May-2022 
 ******************************************
 %oldchk=BH-4.2-RHF-G.chk
 %chk=BH-4.2-CCSD-G.chk
 Copying data from "BH-4.2-RHF-G.chk" to current chk file "BH-4.2-CCSD-G.chk"
 IOpt=  2 FromEx=T IUOpen= 4 IOptOp= 5 NList=   0 IFRang= 0 IUIn= 4 IUOut= 2.
 -------------------------------------
 #p RHF/aug-cc-pVQZ guess=read CCSD=FC
 -------------------------------------
 1/38=1,172=1/1;
 2/12=2,17=6,18=5,40=1/2;
 3/5=16,6=2,7=10,11=1,25=1,30=1,116=1/1,2,3;
 4/5=1/1;
 5/5=2,38=6/2;
 8/6=4,9=120000,10=1/1,4;
 9/5=7/13;
 6/7=2,8=2,9=2,10=2/1;
 99/5=1,9=1/99;
 Leave Link    1 at Sun May 22 15:48:17 2022, MaxMem=   104857600 cpu:               0.0 elap:               0.0
 (Enter /apps/software/g16/l101.exe)
 ----------------------
 BH RHF at 4.2 Angstrom
 ----------------------
 Symbolic Z-matrix:
 Charge =  0 Multiplicity = 1
 B                     0.        0.        0. 
 H                     4.2       0.        0. 
 
 ITRead=  0  0
 MicOpt= -1 -1
 NAtoms=      2 NQM=        2 NQMF=       0 NMMI=      0 NMMIF=      0
                NMic=       0 NMicF=      0.
                    Isotopes and Nuclear Properties:
 (Nuclear quadrupole moments (NQMom) in fm**2, nuclear magnetic moments (NMagM)
  in nuclear magnetons)

  Atom         1           2
 IAtWgt=          11           1
 AtmWgt=  11.0093053   1.0078250
 NucSpn=           3           1
 AtZEff=  -0.0000000  -0.0000000
 NQMom=    4.0590000   0.0000000
 NMagM=    2.6886370   2.7928460
 AtZNuc=   5.0000000   1.0000000
 Leave Link  101 at Sun May 22 15:48:17 2022, MaxMem=   104857600 cpu:               0.1 elap:               0.1
 (Enter /apps/software/g16/l202.exe)
                          Input orientation:                          
 ---------------------------------------------------------------------
 Center     Atomic      Atomic             Coordinates (Angstroms)
 Number     Number       Type             X           Y           Z
 ---------------------------------------------------------------------
      1          5           0        0.000000    0.000000    0.000000
      2          1           0        4.200000    0.000000    0.000000
 ---------------------------------------------------------------------
 Stoichiometry    BH
 Framework group  C*V[C*(HB)]
 Deg. of freedom     1
 Full point group                 C*V     NOp   4
 Largest Abelian subgroup         C2V     NOp   4
 Largest concise Abelian subgroup C1      NOp   1
                         Standard orientation:                         
 ---------------------------------------------------------------------
 Center     Atomic      Atomic             Coordinates (Angstroms)
 Number     Number       Type             X           Y           Z
 ---------------------------------------------------------------------
      1          5           0        0.000000    0.000000    0.700000
      2          1           0        0.000000    0.000000   -3.500000
 ---------------------------------------------------------------------
 Rotational constants (GHZ):           0.0000000          31.0294682          31.0294682
 Leave Link  202 at Sun May 22 15:48:17 2022, MaxMem=   104857600 cpu:               0.0 elap:               0.0
 (Enter /apps/software/g16/l301.exe)
 Standard basis: Aug-CC-pVQZ (5D, 7F)
 Ernie: Thresh=  0.10000D-02 Tol=  0.10000D-05 Strict=F.
 Ernie:  4 primitive shells out of 54 were deleted.
 There are    68 symmetry adapted cartesian basis functions of A1  symmetry.
 There are    18 symmetry adapted cartesian basis functions of A2  symmetry.
 There are    37 symmetry adapted cartesian basis functions of B1  symmetry.
 There are    37 symmetry adapted cartesian basis functions of B2  symmetry.
 There are    50 symmetry adapted basis functions of A1  symmetry.
 There are    16 symmetry adapted basis functions of A2  symmetry.
 There are    30 symmetry adapted basis functions of B1  symmetry.
 There are    30 symmetry adapted basis functions of B2  symmetry.
   126 basis functions,   180 primitive gaussians,   160 cartesian basis functions
     3 alpha electrons        3 beta electrons
       nuclear repulsion energy         0.6299728701 Hartrees.
 IExCor=    0 DFT=F Ex=HF Corr=None ExCW=0 ScaHFX=  1.000000
 ScaDFX=  1.000000  1.000000  1.000000  1.000000 ScalE2=  1.000000  1.000000
 IRadAn=      5 IRanWt=     -1 IRanGd=            0 ICorTp=0 IEmpDi=  4
 NAtoms=    2 NActive=    2 NUniq=    2 SFac= 1.00D+00 NAtFMM=   60 NAOKFM=F Big=F
 Integral buffers will be    131072 words long.
 Raffenetti 1 integral format.
 Two-electron integral symmetry is turned on.
 Leave Link  301 at Sun May 22 15:48:17 2022, MaxMem=   104857600 cpu:               0.0 elap:               0.0
 (Enter /apps/software/g16/l302.exe)
 NPDir=0 NMtPBC=     1 NCelOv=     1 NCel=       1 NClECP=     1 NCelD=      1
         NCelK=      1 NCelE2=     1 NClLst=     1 CellRange=     0.0.
 One-electron integrals computed using PRISM.
 One-electron integral symmetry used in STVInt
 NBasis=   126 RedAO= T EigKep=  1.15D-02  NBF=    50    16    30    30
 NBsUse=   126 1.00D-06 EigRej= -1.00D+00 NBFU=    50    16    30    30
 Leave Link  302 at Sun May 22 15:48:18 2022, MaxMem=   104857600 cpu:               0.1 elap:               0.1
 (Enter /apps/software/g16/l303.exe)
 DipDrv:  MaxL=1.
 Leave Link  303 at Sun May 22 15:48:18 2022, MaxMem=   104857600 cpu:               0.0 elap:               0.0
 (Enter /apps/software/g16/l401.exe)
 Initial guess from the checkpoint file:  "BH-4.2-CCSD-G.chk"
 B after Tr=     0.000000    0.000000    0.000000
         Rot=    1.000000    0.000000    0.000000    0.000000 Ang=   0.00 deg.
 Guess basis will be translated and rotated to current coordinates.
 JPrj=2 DoOrth=T DoCkMO=T.
 Initial guess orbital symmetries:
       Occupied  (SG) (SG) (SG)
       Virtual   (SG) (PI) (PI) (SG) (PI) (PI) (SG) (SG) (DLTA)
                 (DLTA) (PI) (PI) (SG) (SG) (PI) (PI) (PI) (PI)
                 (SG) (SG) (PHI) (PHI) (DLTA) (DLTA) (DLTA) (DLTA)
                 (SG) (PI) (PI) (PI) (PI) (SG) (SG) (DLTA) (DLTA)
                 (PI) (PI) (SG) (PI) (PI) (PI) (PI) (SG) (SG) (SG)
                 (?A) (?A) (DLTA) (DLTA) (PHI) (PHI) (DLTA) (DLTA)
                 (PI) (PI) (PI) (PI) (SG) (PHI) (PHI) (SG) (DLTA)
                 (DLTA) (PI) (PI) (SG) (PHI) (PHI) (DLTA) (DLTA)
                 (PI) (PI) (SG) (SG) (DLTA) (DLTA) (PI) (PI) (SG)
                 (PI) (PI) (SG) (PI) (PI) (SG) (?A) (?A) (DLTA)
                 (DLTA) (PHI) (PHI) (DLTA) (DLTA) (PI) (PI) (PI)
                 (PI) (SG) (SG) (PHI) (PHI) (DLTA) (DLTA) (PI)
                 (PI) (SG) (PHI) (PHI) (DLTA) (DLTA) (PI) (PI)
                 (SG) (SG) (PI) (PI) (SG) (DLTA) (DLTA) (PI) (PI)
                 (SG) (SG)
 The electronic state of the initial guess is 1-SG.
 Leave Link  401 at Sun May 22 15:48:18 2022, MaxMem=   104857600 cpu:               0.1 elap:               0.1
 (Enter /apps/software/g16/l502.exe)
 Keep R1 ints in memory in symmetry-blocked form, NReq=40143665.
 FoFCou: FMM=F IPFlag=           0 FMFlag=           0 FMFlg1=           0
         NFxFlg=           0 DoJE=F BraDBF=F KetDBF=F FulRan=T
         wScrn=  0.000000 ICntrl=       600 IOpCl=  0 I1Cent=           0 NGrid=           0
         NMat0=    1 NMatS0=   8001 NMatT0=    0 NMatD0=    1 NMtDS0=    0 NMtDT0=    0
 Petite list used in FoFCou.
 Closed shell SCF:
 Using DIIS extrapolation, IDIIS=  1040.
 NGot=   104857600 LenX=    96673173 LenY=    96647132
 Requested convergence on RMS density matrix=1.00D-08 within 128 cycles.
 Requested convergence on MAX density matrix=1.00D-06.
 Requested convergence on             energy=1.00D-06.
 No special actions if energy rises.

 Cycle   1  Pass 1  IDiag  1:
 E= -24.8961719554596    
 DIIS: error= 1.58D-09 at cycle   1 NSaved=   1.
 NSaved= 1 IEnMin= 1 EnMin= -24.8961719554596     IErMin= 1 ErrMin= 1.58D-09
 ErrMax= 1.58D-09  0.00D+00 EMaxC= 1.00D-01 BMatC= 5.50D-17 BMatP= 5.50D-17
 IDIUse=1 WtCom= 1.00D+00 WtEn= 0.00D+00
 Coeff-Com:  0.100D+01
 Coeff:      0.100D+01
 Gap=     0.156 Goal=   None    Shift=    0.000
 RMSDP=3.31D-10 MaxDP=1.54D-08              OVMax= 2.38D-08

 SCF Done:  E(RHF) =  -24.8961719555     A.U. after    1 cycles
            NFock=  1  Conv=0.33D-09     -V/T= 2.0056
 KE= 2.475703150383D+01 PE=-5.831685083146D+01 EE= 8.033674502023D+00
 Leave Link  502 at Sun May 22 15:48:21 2022, MaxMem=   104857600 cpu:               3.5 elap:               3.5
 (Enter /apps/software/g16/l801.exe)
 Windowed orbitals will be sorted by symmetry type.
 ExpMin= 1.88D-02 ExpMax= 2.39D+04 ExpMxC= 2.30D+02 IAcc=3 IRadAn=         5 AccDes= 0.00D+00
 HarFok:  IExCor=  205 AccDes= 0.00D+00 IRadAn=         5 IDoV=-2 UseB2=F ITyADJ=14
 ICtDFT= 12500011 ScaDFX=  1.000000  1.000000  1.000000  1.000000
 Largest valence mixing into a core orbital is  4.03D-04
 Largest core mixing into a valence orbital is  1.74D-04
 Range of M.O.s used for correlation:     2   126
 NBasis=   126 NAE=     3 NBE=     3 NFC=     1 NFV=     0
 NROrb=    125 NOA=     2 NOB=     2 NVA=   123 NVB=   123
 Leave Link  801 at Sun May 22 15:48:21 2022, MaxMem=   104857600 cpu:               0.1 elap:               0.1
 (Enter /apps/software/g16/l804.exe)
 Closed-shell transformation, MDV=   104857600 ITran=4 ISComp=2.
 Unit  1 TFree=        535169 TCopy=        350885.
 Semi-Direct transformation.
 ModeAB=           2 MOrb=             2 LenV=     104242979
 LASXX=       493564 LTotXX=      493564 LenRXX=      493564
 LTotAB=      509833 MaxLAS=     3220000 LenRXY=     3220000
 NonZer=     3274500 LenScr=     5611520 LnRSAI=           0
 LnScr1=           0 LExtra=           0 Total=      9325084
 MaxDsk=          -1 SrtSym=           F ITran=            4
 DoSDTr:  NPSUse=  1
 JobTyp=0 Pass  1:  I=   1 to   2.
 (rs|ai) integrals will be sorted in core.
 Complete sort for first half transformation.
 First half transformation complete.
 Complete sort for second half transformation.
 Second half transformation complete.
 Spin components of T(2) and E(2):
     alpha-alpha T2 =       0.1652269329D-02 E2=     -0.2217334719D-02
     alpha-beta  T2 =       0.1909367482D+00 E2=     -0.1145159250D+00
     beta-beta   T2 =       0.1652269329D-02 E2=     -0.2217334719D-02
 ANorm=    0.1092813473D+01
 E2 =    -0.1189505944D+00 EUMP2 =    -0.25015122549887D+02
 Leave Link  804 at Sun May 22 15:48:26 2022, MaxMem=   104857600 cpu:               4.9 elap:               4.9
 (Enter /apps/software/g16/l913.exe)
 CIDS:  MDV=   104857600.
 Frozen-core window:  NFC=   1 NFV=   0.
 IFCWin=0 IBDFC=1 NFBD=     0     0 NFCmp=     0     0 NFFFC=     0     0
 Using DD3R+UMP44R for 1st iteration.
 Using DD4RQ for 2nd and later iterations.
 Keep R2 and R3 ints in memory in symmetry-blocked form, NReq=40146875.
 FoFCou: FMM=F IPFlag=           0 FMFlag=           0 FMFlg1=           0
         NFxFlg=           0 DoJE=F BraDBF=F KetDBF=F FulRan=T
         wScrn=  0.000000 ICntrl=       600 IOpCl=  0 I1Cent=           0 NGrid=           0
         NMat0=    1 NMatS0=   8001 NMatT0=    0 NMatD0=    1 NMtDS0=    0 NMtDT0=    0
 Petite list used in FoFCou.
 CIDS: In Core Option IDoMem=           1.
 Coupled Cluster theory with single and double substitutions
 ===========================================================
 Iterations=  50 Convergence= 0.100D-06
 Produce multiple copies of IABC intergrals
 Iteration Nr.   1
 **********************
 DD1Dir will call FoFMem   1 times, MxPair=         6
 NAB=     3 NAA=     0 NBB=     0.
 MP4(R+Q)=  0.16761095D-01
 Maximum subspace dimension=  5
 A-vector RMS=  4.1190121D-02 Max=  3.0636027D-01 conv= 1.00D-05.
 RLE energy=       -0.1206719215
 E3=       -0.30108176D-01        EUMP3=      -0.25045230726D+02
 E4(DQ)=   -0.68574714D-02        UMP4(DQ)=   -0.25052088197D+02
 E4(SDQ)=  -0.42409820D-01        UMP4(SDQ)=  -0.25087640546D+02
 VARIATIONAL ENERGIES WITH THE FIRST-ORDER WAVEFUNCTION:
 DE(Corr)= -0.12180494     E(Corr)=     -25.017976895    
 NORM(A)=   0.12356190D+01
 Iteration Nr.   2
 **********************
 DD1Dir will call FoFMem   1 times, MxPair=         6
 NAB=     3 NAA=     0 NBB=     0.
 A-vector RMS=  3.7336539D-02 Max=  3.6732618D-01 conv= 1.00D-05.
 RLE energy=       -0.1804216908
 DE(Corr)= -0.18748027     E(CORR)=     -25.083652225     Delta=-6.57D-02
 NORM(A)=   0.13591609D+01
 Iteration Nr.   3
 **********************
 DD1Dir will call FoFMem   1 times, MxPair=         6
 NAB=     3 NAA=     0 NBB=     0.
 A-vector RMS=  2.7806158D-02 Max=  2.1035522D-01 conv= 1.00D-05.
 RLE energy=       -0.1887641733
 DE(Corr)= -0.15965366     E(CORR)=     -25.055825619     Delta= 2.78D-02
 NORM(A)=   0.16009611D+01
 Iteration Nr.   4
 **********************
 DD1Dir will call FoFMem   1 times, MxPair=         6
 NAB=     3 NAA=     0 NBB=     0.
 A-vector RMS=  1.8160851D-02 Max=  1.3820284D-01 conv= 1.00D-05.
 RLE energy=       -0.1845864148
 DE(Corr)= -0.20272107     E(CORR)=     -25.098893024     Delta=-4.31D-02
 NORM(A)=   0.15036352D+01
 Iteration Nr.   5
 **********************
 DD1Dir will call FoFMem   1 times, MxPair=         6
 NAB=     3 NAA=     0 NBB=     0.
 A-vector RMS=  1.0529608D-02 Max=  8.0651438D-02 conv= 1.00D-05.
 RLE energy=       -0.1933490416
 DE(Corr)= -0.18152022     E(CORR)=     -25.077692176     Delta= 2.12D-02
 NORM(A)=   0.16287102D+01
 Iteration Nr.   6
 **********************
 DD1Dir will call FoFMem   1 times, MxPair=         6
 NAB=     3 NAA=     0 NBB=     0.
 A-vector RMS=  2.1517916D-03 Max=  1.6156036D-02 conv= 1.00D-05.
 RLE energy=       -0.1911210424
 DE(Corr)= -0.19347457     E(CORR)=     -25.089646525     Delta=-1.20D-02
 NORM(A)=   0.16033645D+01
 Iteration Nr.   7
 **********************
 DD1Dir will call FoFMem   1 times, MxPair=         6
 NAB=     3 NAA=     0 NBB=     0.
 A-vector RMS=  2.5241917D-04 Max=  1.5446125D-03 conv= 1.00D-05.
 RLE energy=       -0.1907633057
 DE(Corr)= -0.19096158     E(CORR)=     -25.087133536     Delta= 2.51D-03
 NORM(A)=   0.16019560D+01
 Iteration Nr.   8
 **********************
 DD1Dir will call FoFMem   1 times, MxPair=         6
 NAB=     3 NAA=     0 NBB=     0.
 A-vector RMS=  2.3119560D-04 Max=  2.1725591D-03 conv= 1.00D-05.
 RLE energy=       -0.1912624960
 DE(Corr)= -0.19095386     E(CORR)=     -25.087125816     Delta= 7.72D-06
 NORM(A)=   0.16072886D+01
 Iteration Nr.   9
 **********************
 DD1Dir will call FoFMem   1 times, MxPair=         6
 NAB=     3 NAA=     0 NBB=     0.
 A-vector RMS=  4.2805046D-05 Max=  6.9544299D-04 conv= 1.00D-05.
 RLE energy=       -0.1911200598
 DE(Corr)= -0.19119515     E(CORR)=     -25.087367104     Delta=-2.41D-04
 NORM(A)=   0.16063080D+01
 Iteration Nr.  10
 **********************
 DD1Dir will call FoFMem   1 times, MxPair=         6
 NAB=     3 NAA=     0 NBB=     0.
 A-vector RMS=  9.7776198D-05 Max=  7.4753599D-04 conv= 1.00D-05.
 RLE energy=       -0.1911775809
 DE(Corr)= -0.19121018     E(CORR)=     -25.087382138     Delta=-1.50D-05
 NORM(A)=   0.16061004D+01
 Iteration Nr.  11
 **********************
 DD1Dir will call FoFMem   1 times, MxPair=         6
 NAB=     3 NAA=     0 NBB=     0.
 A-vector RMS=  6.9642890D-05 Max=  5.2098855D-04 conv= 1.00D-05.
 RLE energy=       -0.1911173279
 DE(Corr)= -0.19107302     E(CORR)=     -25.087244971     Delta= 1.37D-04
 NORM(A)=   0.16058922D+01
 Iteration Nr.  12
 **********************
 DD1Dir will call FoFMem   1 times, MxPair=         6
 NAB=     3 NAA=     0 NBB=     0.
 A-vector RMS=  6.0928043D-06 Max=  8.1898027D-05 conv= 1.00D-05.
 RLE energy=       -0.1911312890
 DE(Corr)= -0.19113455     E(CORR)=     -25.087306503     Delta=-6.15D-05
 NORM(A)=   0.16059788D+01
 Iteration Nr.  13
 **********************
 DD1Dir will call FoFMem   1 times, MxPair=         6
 NAB=     3 NAA=     0 NBB=     0.
 A-vector RMS=  4.7568676D-06 Max=  3.5597447D-05 conv= 1.00D-05.
 RLE energy=       -0.1911270715
 DE(Corr)= -0.19113090     E(CORR)=     -25.087302851     Delta= 3.65D-06
 NORM(A)=   0.16059210D+01
 Iteration Nr.  14
 **********************
 DD1Dir will call FoFMem   1 times, MxPair=         6
 NAB=     3 NAA=     0 NBB=     0.
 A-vector RMS=  1.7997480D-06 Max=  1.3393185D-05 conv= 1.00D-05.
 RLE energy=       -0.1911271958
 DE(Corr)= -0.19112505     E(CORR)=     -25.087297010     Delta= 5.84D-06
 NORM(A)=   0.16059293D+01
 Iteration Nr.  15
 **********************
 DD1Dir will call FoFMem   1 times, MxPair=         6
 NAB=     3 NAA=     0 NBB=     0.
 A-vector RMS=  4.7970546D-07 Max=  2.6699297D-06 conv= 1.00D-05.
 RLE energy=       -0.1911270176
 DE(Corr)= -0.19112739     E(CORR)=     -25.087299341     Delta=-2.33D-06
 NORM(A)=   0.16059269D+01
 Iteration Nr.  16
 **********************
 DD1Dir will call FoFMem   1 times, MxPair=         6
 NAB=     3 NAA=     0 NBB=     0.
 A-vector RMS=  4.3430552D-07 Max=  3.2926759D-06 conv= 1.00D-05.
 RLE energy=       -0.1911270627
 DE(Corr)= -0.19112723     E(CORR)=     -25.087299184     Delta= 1.57D-07
 NORM(A)=   0.16059241D+01
 Iteration Nr.  17
 **********************
 DD1Dir will call FoFMem   1 times, MxPair=         6
 NAB=     3 NAA=     0 NBB=     0.
 A-vector RMS=  4.2025154D-07 Max=  3.1626251D-06 conv= 1.00D-05.
 RLE energy=       -0.1911268033
 DE(Corr)= -0.19112656     E(CORR)=     -25.087298516     Delta= 6.68D-07
 NORM(A)=   0.16059238D+01
 Iteration Nr.  18
 **********************
 DD1Dir will call FoFMem   1 times, MxPair=         6
 NAB=     3 NAA=     0 NBB=     0.
 A-vector RMS=  2.7216196D-08 Max=  6.3048304D-07 conv= 1.00D-05.
 RLE energy=       -0.1911269975
 DE(Corr)= -0.19112690     E(CORR)=     -25.087298858     Delta=-3.43D-07
 NORM(A)=   0.16059253D+01
 Iteration Nr.  19
 **********************
 DD1Dir will call FoFMem   1 times, MxPair=         6
 NAB=     3 NAA=     0 NBB=     0.
 A-vector RMS=  4.4866520D-08 Max=  3.2498825D-07 conv= 1.00D-05.
 RLE energy=       -0.1911269197
 DE(Corr)= -0.19112697     E(CORR)=     -25.087298921     Delta=-6.28D-08
 NORM(A)=   0.16059245D+01
 CI/CC converged in   19 iterations to DelEn=-6.28D-08 Conv= 1.00D-07 ErrA1= 4.49D-08 Conv= 1.00D-05
 Wavefunction amplitudes converged. E(Corr)=     -25.087298921    
 Dominant configurations:
 ***********************
 Spin Case        I    J    A    B          Value
    AA            3         4           -0.435012D+00
    AA            3        17            0.107836D+00
   ABAB           2    2    5    5      -0.123168D+00
   ABAB           2    2    6    6      -0.123168D+00
   ABAB           3    3    4    4      -0.967625D+00
   ABAB           3    3    4    7       0.127319D+00
   ABAB           3    3    7    4       0.127319D+00
 Largest amplitude= 9.68D-01
 Discarding MO integrals.
 Leave Link  913 at Sun May 22 15:48:31 2022, MaxMem=   104857600 cpu:               4.5 elap:               4.6
 (Enter /apps/software/g16/l601.exe)
 Copying SCF densities to generalized density rwf, IOpCl= 0 IROHF=0.

 **********************************************************************

            Population analysis using the SCF density.

 **********************************************************************

 Orbital symmetries:
       Occupied  (SG) (SG) (SG)
       Virtual   (SG) (PI) (PI) (SG) (PI) (PI) (SG) (SG) (DLTA)
                 (DLTA) (PI) (PI) (SG) (SG) (PI) (PI) (PI) (PI)
                 (SG) (SG) (PHI) (PHI) (DLTA) (DLTA) (DLTA) (DLTA)
                 (SG) (PI) (PI) (PI) (PI) (SG) (SG) (DLTA) (DLTA)
                 (PI) (PI) (SG) (PI) (PI) (PI) (PI) (SG) (SG) (SG)
                 (?A) (?A) (DLTA) (DLTA) (PHI) (PHI) (DLTA) (DLTA)
                 (PI) (PI) (PI) (PI) (SG) (PHI) (PHI) (SG) (DLTA)
                 (DLTA) (PI) (PI) (SG) (PHI) (PHI) (DLTA) (DLTA)
                 (PI) (PI) (SG) (SG) (DLTA) (DLTA) (PI) (PI) (SG)
                 (PI) (PI) (SG) (PI) (PI) (SG) (?A) (?A) (DLTA)
                 (DLTA) (PHI) (PHI) (DLTA) (DLTA) (PI) (PI) (PI)
                 (PI) (SG) (SG) (PHI) (PHI) (DLTA) (DLTA) (PI)
                 (PI) (SG) (PHI) (PHI) (DLTA) (DLTA) (PI) (PI)
                 (SG) (SG) (PI) (PI) (SG) (DLTA) (DLTA) (PI) (PI)
                 (SG) (SG)
 The electronic state is 1-SG.
 Alpha  occ. eigenvalues --   -7.89122  -0.62189  -0.23313
 Alpha virt. eigenvalues --   -0.07702  -0.04727  -0.04727   0.02287   0.04246
 Alpha virt. eigenvalues --    0.04246   0.06201   0.09752   0.11904   0.11904
 Alpha virt. eigenvalues --    0.12701   0.12701   0.15481   0.24078   0.24209
 Alpha virt. eigenvalues --    0.24209   0.25356   0.25356   0.28966   0.33496
 Alpha virt. eigenvalues --    0.41599   0.41599   0.42330   0.42330   0.43435
 Alpha virt. eigenvalues --    0.43435   0.43654   0.43935   0.43935   0.44943
 Alpha virt. eigenvalues --    0.44943   0.47086   0.55611   0.69334   0.69334
 Alpha virt. eigenvalues --    0.73252   0.73252   0.79407   0.87260   0.87260
 Alpha virt. eigenvalues --    0.94272   0.94272   0.94778   1.00131   1.29016
 Alpha virt. eigenvalues --    1.29500   1.29500   1.30153   1.30153   1.30432
 Alpha virt. eigenvalues --    1.30432   1.31167   1.31167   1.31331   1.31331
 Alpha virt. eigenvalues --    1.32180   1.32180   1.32801   1.34788   1.34788
 Alpha virt. eigenvalues --    1.35682   1.35914   1.35914   1.38223   1.38223
 Alpha virt. eigenvalues --    1.45335   1.64860   1.64860   1.65161   1.65161
 Alpha virt. eigenvalues --    1.67549   1.67549   1.69464   1.80564   2.55951
 Alpha virt. eigenvalues --    2.55951   2.58394   2.58394   2.64073   2.68710
 Alpha virt. eigenvalues --    2.68710   2.76777   3.58054   3.58054   3.62076
 Alpha virt. eigenvalues --    3.80057   3.80057   3.80835   3.80835   3.81120
 Alpha virt. eigenvalues --    3.81120   3.81919   3.81919   3.82243   3.82243
 Alpha virt. eigenvalues --    3.82782   3.82782   3.83203   3.87040   3.95054
 Alpha virt. eigenvalues --    3.95054   3.96280   3.96280   3.98282   3.98282
 Alpha virt. eigenvalues --    4.02918   6.65735   6.65735   6.65840   6.65840
 Alpha virt. eigenvalues --    6.66399   6.66399   6.67515   7.54871   8.04845
 Alpha virt. eigenvalues --    8.04845   8.09128   8.49449   8.49449   8.51087
 Alpha virt. eigenvalues --    8.51087   8.56566  12.88345
          Condensed to atoms (all electrons):
               1          2
     1  B    4.492679   0.114350
     2  H    0.114350   1.278621
 Mulliken charges:
               1
     1  B    0.392971
     2  H   -0.392971
 Sum of Mulliken charges =  -0.00000
 Mulliken charges with hydrogens summed into heavy atoms:
               1
     1  B   -0.000000
 Electronic spatial extent (au):  <R**2>=             89.5545
 Charge=             -0.0000 electrons
 Dipole moment (field-independent basis, Debye):
    X=              0.0000    Y=              0.0000    Z=              8.5668  Tot=              8.5668
 Quadrupole moment (field-independent basis, Debye-Ang):
   XX=             -9.1902   YY=             -9.1902   ZZ=            -31.4664
   XY=              0.0000   XZ=              0.0000   YZ=              0.0000
 Traceless Quadrupole moment (field-independent basis, Debye-Ang):
   XX=              7.4254   YY=              7.4254   ZZ=            -14.8508
   XY=              0.0000   XZ=              0.0000   YZ=              0.0000
 Octapole moment (field-independent basis, Debye-Ang**2):
  XXX=              0.0000  YYY=              0.0000  ZZZ=             91.3365  XYY=              0.0000
  XXY=              0.0000  XXZ=              9.9233  XZZ=              0.0000  YZZ=              0.0000
  YYZ=              9.9233  XYZ=              0.0000
 Hexadecapole moment (field-independent basis, Debye-Ang**3):
 XXXX=            -20.7746 YYYY=            -20.7746 ZZZZ=           -511.3608 XXXY=              0.0000
 XXXZ=              0.0000 YYYX=              0.0000 YYYZ=              0.0000 ZZZX=              0.0000
 ZZZY=              0.0000 XXYY=             -6.9249 XXZZ=            -53.4490 YYZZ=            -53.4490
 XXYZ=              0.0000 YYXZ=              0.0000 ZZXY=              0.0000
 N-N= 6.299728701429D-01 E-N=-5.831685082948D+01  KE= 2.475703150383D+01
 Symmetry A1   KE= 2.475703150383D+01
 Symmetry A2   KE= 1.607761378073D-52
 Symmetry B1   KE= 0.000000000000D+00
 Symmetry B2   KE= 0.000000000000D+00
 Leave Link  601 at Sun May 22 15:48:31 2022, MaxMem=   104857600 cpu:               0.1 elap:               0.1
 (Enter /apps/software/g16/l9999.exe)
 1\1\GINC-CNODE10\SP\RCCSD-FC\Aug-CC-pVQZ\B1H1\LCZ\22-May-2022\0\\#p RH
 F/aug-cc-pVQZ guess=read CCSD=FC\\BH RHF at 4.2 Angstrom\\0,1\B,0,0.,0
 .,0.\H,0,4.2,0.,0.\\Version=ES64L-G16RevA.03\State=1-SG\HF=-24.896172\
 MP2=-25.0151225\MP3=-25.0452307\MP4D=-25.0688493\MP4DQ=-25.0520882\MP4
 SDQ=-25.0876405\CCSD=-25.0872989\RMSD=3.312e-10\PG=C*V [C*(H1B1)]\\@


 FIREWORKS ENDED
 AND SPECTATORS GONE AWAY....
 AH, HOW VAST AND DARK
                     SHIKI
 Job cpu time:       0 days  0 hours  0 minutes 13.7 seconds.
 Elapsed time:       0 days  0 hours  0 minutes 13.6 seconds.
 File lengths (MBytes):  RWF=     80 Int=      0 D2E=      0 Chk=     67 Scr=      1
 Normal termination of Gaussian 16 at Sun May 22 15:48:31 2022.

Sender: Unischeduler System <lcz@mgt01>
Subject: Job 134060: <#!/bin/bash
#BSUB -J intel
#BSUB -o BH-4.2-CCSD-G.out
#BSUB -n 8
#BSUB -q cqueue
#BSUB -R span[hosts=1]
export g16root=/apps/software
source /apps/software/g16/bsd/g16.profile
export GAUSS_SCRDIR=/scratch
/apps/software/g16/g16 < BH-4.2-CCSD-G.inp > BH-4.2-CCSD-G.out> Done

Job <#!/bin/bash
#BSUB -J intel
#BSUB -o BH-4.2-CCSD-G.out
#BSUB -n 8
#BSUB -q cqueue
#BSUB -R span[hosts=1]
export g16root=/apps/software
source /apps/software/g16/bsd/g16.profile
export GAUSS_SCRDIR=/scratch
/apps/software/g16/g16 < BH-4.2-CCSD-G.inp > BH-4.2-CCSD-G.out> was submitted from host <mgt01> by user <lcz>.
Job was executed on host(s) <8*cnode10>, in queue <cqueue>, as user <lcz>.
</apps/users/lcz> was used as the home directory.
</apps/users/lcz/exe13/CCSD> was used as the working directory.
Started at 2022-05-22 15:48:17
Results reported at 2022-05-22 15:48:31

Your job looked like:

------------------------------------------------------------
# User input
#!/bin/bash
#BSUB -J intel
#BSUB -o BH-4.2-CCSD-G.out
#BSUB -n 8
#BSUB -q cqueue
#BSUB -R span[hosts=1]
export g16root=/apps/software
source /apps/software/g16/bsd/g16.profile
export GAUSS_SCRDIR=/scratch
/apps/software/g16/g16 < BH-4.2-CCSD-G.inp > BH-4.2-CCSD-G.out
------------------------------------------------------------

Successfully completed.

Resource usage summary:

    CPU time   :           11.65 sec.
    Max Memory :               477 MB
    Max Processes  :               5


The output (if any) follows:

