 Entering Gaussian System, Link 0=/apps/software/g16/g16
 Initial command:
 /apps/software/g16/l1.exe "/scratch/Gau-382130.inp" -scrdir="/scratch/"
 Entering Link 1 = /apps/software/g16/l1.exe PID=    382131.
  
 Copyright (c) 1988,1990,1992,1993,1995,1998,2003,2009,2016,
            Gaussian, Inc.  All Rights Reserved.
  
 This is part of the Gaussian(R) 16 program.  It is based on
 the Gaussian(R) 09 system (copyright 2009, Gaussian, Inc.),
 the Gaussian(R) 03 system (copyright 2003, Gaussian, Inc.),
 the Gaussian(R) 98 system (copyright 1998, Gaussian, Inc.),
 the Gaussian(R) 94 system (copyright 1995, Gaussian, Inc.),
 the Gaussian 92(TM) system (copyright 1992, Gaussian, Inc.),
 the Gaussian 90(TM) system (copyright 1990, Gaussian, Inc.),
 the Gaussian 88(TM) system (copyright 1988, Gaussian, Inc.),
 the Gaussian 86(TM) system (copyright 1986, Carnegie Mellon
 University), and the Gaussian 82(TM) system (copyright 1983,
 Carnegie Mellon University). Gaussian is a federally registered
 trademark of Gaussian, Inc.
  
 This software contains proprietary and confidential information,
 including trade secrets, belonging to Gaussian, Inc.
  
 This software is provided under written license and may be
 used, copied, transmitted, or stored only in accord with that
 written license.
  
 The following legend is applicable only to US Government
 contracts under FAR:
  
                    RESTRICTED RIGHTS LEGEND
  
 Use, reproduction and disclosure by the US Government is
 subject to restrictions as set forth in subparagraphs (a)
 and (c) of the Commercial Computer Software - Restricted
 Rights clause in FAR 52.227-19.
  
 Gaussian, Inc.
 340 Quinnipiac St., Bldg. 40, Wallingford CT 06492
  
  
 ---------------------------------------------------------------
 Warning -- This program may not be used in any manner that
 competes with the business of Gaussian, Inc. or will provide
 assistance to any competitor of Gaussian, Inc.  The licensee
 of this program is prohibited from giving any competitor of
 Gaussian, Inc. access to this program.  By using this program,
 the user acknowledges that Gaussian, Inc. is engaged in the
 business of creating and licensing software in the field of
 computational chemistry and represents and warrants to the
 licensee that it is not a competitor of Gaussian, Inc. and that
 it will not use this program in any manner prohibited above.
 ---------------------------------------------------------------
  

 Cite this work as:
 Gaussian 16, Revision A.03,
 M. J. Frisch, G. W. Trucks, H. B. Schlegel, G. E. Scuseria, 
 M. A. Robb, J. R. Cheeseman, G. Scalmani, V. Barone, 
 G. A. Petersson, H. Nakatsuji, X. Li, M. Caricato, A. V. Marenich, 
 J. Bloino, B. G. Janesko, R. Gomperts, B. Mennucci, H. P. Hratchian, 
 J. V. Ortiz, A. F. Izmaylov, J. L. Sonnenberg, D. Williams-Young, 
 F. Ding, F. Lipparini, F. Egidi, J. Goings, B. Peng, A. Petrone, 
 T. Henderson, D. Ranasinghe, V. G. Zakrzewski, J. Gao, N. Rega, 
 G. Zheng, W. Liang, M. Hada, M. Ehara, K. Toyota, R. Fukuda, 
 J. Hasegawa, M. Ishida, T. Nakajima, Y. Honda, O. Kitao, H. Nakai, 
 T. Vreven, K. Throssell, J. A. Montgomery, Jr., J. E. Peralta, 
 F. Ogliaro, M. J. Bearpark, J. J. Heyd, E. N. Brothers, K. N. Kudin, 
 V. N. Staroverov, T. A. Keith, R. Kobayashi, J. Normand, 
 K. Raghavachari, A. P. Rendell, J. C. Burant, S. S. Iyengar, 
 J. Tomasi, M. Cossi, J. M. Millam, M. Klene, C. Adamo, R. Cammi, 
 J. W. Ochterski, R. L. Martin, K. Morokuma, O. Farkas, 
 J. B. Foresman, and D. J. Fox, Gaussian, Inc., Wallingford CT, 2016.
 
 ******************************************
 Gaussian 16:  ES64L-G16RevA.03 25-Dec-2016
                22-May-2022 
 ******************************************
 %chk=BH-5.2-RHF-G.chk
 ------------------
 #p RHF/aug-cc-pVQZ
 ------------------
 1/38=1,172=1/1;
 2/12=2,17=6,18=5,40=1/2;
 3/5=16,6=2,7=10,11=1,25=1,30=1,116=1/1,2,3;
 4//1;
 5/5=2,38=5/2;
 6/7=2,8=2,9=2,10=2,28=1/1;
 99/5=1,9=1/99;
 Leave Link    1 at Sun May 22 15:49:50 2022, MaxMem=           0 cpu:               0.0 elap:               0.0
 (Enter /apps/software/g16/l101.exe)
 ----------------------
 BH RHF at 5.2 Angstrom
 ----------------------
 Symbolic Z-matrix:
 Charge =  0 Multiplicity = 1
 B                     0.        0.        0. 
 H                     5.2       0.        0. 
 
 ITRead=  0  0
 MicOpt= -1 -1
 NAtoms=      2 NQM=        2 NQMF=       0 NMMI=      0 NMMIF=      0
                NMic=       0 NMicF=      0.
                    Isotopes and Nuclear Properties:
 (Nuclear quadrupole moments (NQMom) in fm**2, nuclear magnetic moments (NMagM)
  in nuclear magnetons)

  Atom         1           2
 IAtWgt=          11           1
 AtmWgt=  11.0093053   1.0078250
 NucSpn=           3           1
 AtZEff=  -0.0000000  -0.0000000
 NQMom=    4.0590000   0.0000000
 NMagM=    2.6886370   2.7928460
 AtZNuc=   5.0000000   1.0000000
 Leave Link  101 at Sun May 22 15:49:50 2022, MaxMem=   104857600 cpu:               0.1 elap:               0.1
 (Enter /apps/software/g16/l202.exe)
                          Input orientation:                          
 ---------------------------------------------------------------------
 Center     Atomic      Atomic             Coordinates (Angstroms)
 Number     Number       Type             X           Y           Z
 ---------------------------------------------------------------------
      1          5           0        0.000000    0.000000    0.000000
      2          1           0        5.200000    0.000000    0.000000
 ---------------------------------------------------------------------
 Stoichiometry    BH
 Framework group  C*V[C*(HB)]
 Deg. of freedom     1
 Full point group                 C*V     NOp   4
 Largest Abelian subgroup         C2V     NOp   4
 Largest concise Abelian subgroup C1      NOp   1
                         Standard orientation:                         
 ---------------------------------------------------------------------
 Center     Atomic      Atomic             Coordinates (Angstroms)
 Number     Number       Type             X           Y           Z
 ---------------------------------------------------------------------
      1          5           0        0.000000    0.000000    0.866667
      2          1           0        0.000000    0.000000   -4.333333
 ---------------------------------------------------------------------
 Rotational constants (GHZ):           0.0000000          20.2425968          20.2425968
 Leave Link  202 at Sun May 22 15:49:50 2022, MaxMem=   104857600 cpu:               0.0 elap:               0.0
 (Enter /apps/software/g16/l301.exe)
 Standard basis: Aug-CC-pVQZ (5D, 7F)
 Ernie: Thresh=  0.10000D-02 Tol=  0.10000D-05 Strict=F.
 Ernie:  4 primitive shells out of 54 were deleted.
 There are    68 symmetry adapted cartesian basis functions of A1  symmetry.
 There are    18 symmetry adapted cartesian basis functions of A2  symmetry.
 There are    37 symmetry adapted cartesian basis functions of B1  symmetry.
 There are    37 symmetry adapted cartesian basis functions of B2  symmetry.
 There are    50 symmetry adapted basis functions of A1  symmetry.
 There are    16 symmetry adapted basis functions of A2  symmetry.
 There are    30 symmetry adapted basis functions of B1  symmetry.
 There are    30 symmetry adapted basis functions of B2  symmetry.
   126 basis functions,   180 primitive gaussians,   160 cartesian basis functions
     3 alpha electrons        3 beta electrons
       nuclear repulsion energy         0.5088242413 Hartrees.
 IExCor=    0 DFT=F Ex=HF Corr=None ExCW=0 ScaHFX=  1.000000
 ScaDFX=  1.000000  1.000000  1.000000  1.000000 ScalE2=  1.000000  1.000000
 IRadAn=      5 IRanWt=     -1 IRanGd=            0 ICorTp=0 IEmpDi=  4
 NAtoms=    2 NActive=    2 NUniq=    2 SFac= 1.00D+00 NAtFMM=   60 NAOKFM=F Big=F
 Integral buffers will be    131072 words long.
 Raffenetti 1 integral format.
 Two-electron integral symmetry is turned on.
 Leave Link  301 at Sun May 22 15:49:50 2022, MaxMem=   104857600 cpu:               0.1 elap:               0.1
 (Enter /apps/software/g16/l302.exe)
 NPDir=0 NMtPBC=     1 NCelOv=     1 NCel=       1 NClECP=     1 NCelD=      1
         NCelK=      1 NCelE2=     1 NClLst=     1 CellRange=     0.0.
 One-electron integrals computed using PRISM.
 One-electron integral symmetry used in STVInt
 NBasis=   126 RedAO= T EigKep=  1.23D-02  NBF=    50    16    30    30
 NBsUse=   126 1.00D-06 EigRej= -1.00D+00 NBFU=    50    16    30    30
 Leave Link  302 at Sun May 22 15:49:50 2022, MaxMem=   104857600 cpu:               0.1 elap:               0.1
 (Enter /apps/software/g16/l303.exe)
 DipDrv:  MaxL=1.
 Leave Link  303 at Sun May 22 15:49:50 2022, MaxMem=   104857600 cpu:               0.0 elap:               0.0
 (Enter /apps/software/g16/l401.exe)
 ExpMin= 1.88D-02 ExpMax= 2.39D+04 ExpMxC= 2.30D+02 IAcc=3 IRadAn=         5 AccDes= 0.00D+00
 Harris functional with IExCor=  205 and IRadAn=       5 diagonalized for initial guess.
 HarFok:  IExCor=  205 AccDes= 0.00D+00 IRadAn=         5 IDoV= 1 UseB2=F ITyADJ=14
 ICtDFT=  3500011 ScaDFX=  1.000000  1.000000  1.000000  1.000000
 FoFCou: FMM=F IPFlag=           0 FMFlag=      100000 FMFlg1=           0
         NFxFlg=           0 DoJE=T BraDBF=F KetDBF=T FulRan=T
         wScrn=  0.000000 ICntrl=       500 IOpCl=  0 I1Cent=   200000004 NGrid=           0
         NMat0=    1 NMatS0=      1 NMatT0=    0 NMatD0=    1 NMtDS0=    0 NMtDT0=    0
 Petite list used in FoFCou.
 Harris En= -24.9882028463655    
 JPrj=0 DoOrth=F DoCkMO=F.
 Initial guess orbital symmetries:
       Occupied  (SG) (SG) (SG)
       Virtual   (SG) (PI) (PI) (SG) (SG) (PI) (PI) (SG) (PI) (PI)
                 (SG) (DLTA) (DLTA) (PI) (PI) (SG) (PI) (PI) (SG)
                 (SG) (SG) (DLTA) (DLTA) (PI) (PI) (SG) (PI) (PI)
                 (DLTA) (DLTA) (PHI) (PHI) (SG) (DLTA) (DLTA) (PI)
                 (PI) (SG) (PI) (PI) (SG) (PI) (PI) (SG) (SG) (DLTA)
                 (DLTA) (PI) (PI) (SG) (DLTA) (?A) (DLTA) (?B)
                 (?B) (?A) (?B) (?B) (SG) (DLTA) (DLTA) (PHI) (PHI)
                 (PI) (PI) (SG) (SG) (PHI) (PHI) (DLTA) (DLTA)
                 (PI) (PI) (SG) (DLTA) (DLTA) (PI) (PI) (SG) (PI)
                 (PI) (SG) (PI) (PI) (SG) (DLTA) (DLTA) (PI) (PI)
                 (SG) (DLTA) (?A) (?B) (?B) (?A) (DLTA) (?B) (?B)
                 (SG) (DLTA) (PHI) (PHI) (DLTA) (PI) (PI) (SG)
                 (PHI) (PHI) (DLTA) (DLTA) (PI) (PI) (SG) (SG)
                 (PI) (PI) (SG) (DLTA) (DLTA) (PI) (PI) (SG) (SG)
 The electronic state of the initial guess is 1-SG.
 Leave Link  401 at Sun May 22 15:49:50 2022, MaxMem=   104857600 cpu:               0.2 elap:               0.2
 (Enter /apps/software/g16/l502.exe)
 Keep R1 ints in memory in symmetry-blocked form, NReq=40143665.
 FoFCou: FMM=F IPFlag=           0 FMFlag=           0 FMFlg1=           0
         NFxFlg=           0 DoJE=F BraDBF=F KetDBF=F FulRan=T
         wScrn=  0.000000 ICntrl=       600 IOpCl=  0 I1Cent=           0 NGrid=           0
         NMat0=    1 NMatS0=   8001 NMatT0=    0 NMatD0=    1 NMtDS0=    0 NMtDT0=    0
 Petite list used in FoFCou.
 Closed shell SCF:
 Using DIIS extrapolation, IDIIS=  1040.
 NGot=   104857600 LenX=    96673173 LenY=    96647132
 Requested convergence on RMS density matrix=1.00D-08 within 128 cycles.
 Requested convergence on MAX density matrix=1.00D-06.
 Requested convergence on             energy=1.00D-06.
 No special actions if energy rises.

 Cycle   1  Pass 1  IDiag  1:
 E= -24.7418054082968    
 DIIS: error= 4.56D-02 at cycle   1 NSaved=   1.
 NSaved= 1 IEnMin= 1 EnMin= -24.7418054082968     IErMin= 1 ErrMin= 4.56D-02
 ErrMax= 4.56D-02  0.00D+00 EMaxC= 1.00D-01 BMatC= 6.03D-02 BMatP= 6.03D-02
 IDIUse=3 WtCom= 5.44D-01 WtEn= 4.56D-01
 Coeff-Com:  0.100D+01
 Coeff-En:   0.100D+01
 Coeff:      0.100D+01
 Gap=     0.000 Goal=   None    Shift=    0.000
 GapD=    0.000 DampG=0.250 DampE=0.500 DampFc=0.2500 IDamp=-1.
 Damping current iteration by 2.50D-01
 RMSDP=4.84D-03 MaxDP=2.22D-01              OVMax= 1.04D-01

 Cycle   2  Pass 1  IDiag  1:
 E= -24.7942660055696     Delta-E=       -0.052460597273 Rises=F Damp=T
 DIIS: error= 2.63D-02 at cycle   2 NSaved=   2.
 NSaved= 2 IEnMin= 2 EnMin= -24.7942660055696     IErMin= 2 ErrMin= 2.63D-02
 ErrMax= 2.63D-02  0.00D+00 EMaxC= 1.00D-01 BMatC= 2.33D-02 BMatP= 6.03D-02
 IDIUse=3 WtCom= 7.37D-01 WtEn= 2.63D-01
 Coeff-Com: -0.117D+01 0.217D+01
 Coeff-En:   0.000D+00 0.100D+01
 Coeff:     -0.862D+00 0.186D+01
 Gap=     0.151 Goal=   None    Shift=    0.000
 RMSDP=1.31D-03 MaxDP=8.46D-02 DE=-5.25D-02 OVMax= 1.74D-01

 Cycle   3  Pass 1  IDiag  1:
 E= -24.7852108440559     Delta-E=        0.009055161514 Rises=F Damp=F
 DIIS: error= 1.87D-02 at cycle   3 NSaved=   3.
 NSaved= 3 IEnMin= 2 EnMin= -24.7942660055696     IErMin= 3 ErrMin= 1.87D-02
 ErrMax= 1.87D-02  0.00D+00 EMaxC= 1.00D-01 BMatC= 1.27D-02 BMatP= 2.33D-02
 IDIUse=3 WtCom= 8.13D-01 WtEn= 1.87D-01
 Coeff-Com: -0.104D+01 0.136D+01 0.684D+00
 Coeff-En:   0.000D+00 0.686D+00 0.314D+00
 Coeff:     -0.847D+00 0.123D+01 0.615D+00
 Gap=     0.045 Goal=   None    Shift=    0.000
 RMSDP=6.74D-04 MaxDP=2.94D-02 DE= 9.06D-03 OVMax= 6.78D-02

 Cycle   4  Pass 1  IDiag  1:
 E= -24.8084396314313     Delta-E=       -0.023228787375 Rises=F Damp=F
 DIIS: error= 1.22D-02 at cycle   4 NSaved=   4.
 NSaved= 4 IEnMin= 4 EnMin= -24.8084396314313     IErMin= 4 ErrMin= 1.22D-02
 ErrMax= 1.22D-02  0.00D+00 EMaxC= 1.00D-01 BMatC= 5.80D-03 BMatP= 1.27D-02
 IDIUse=3 WtCom= 8.78D-01 WtEn= 1.22D-01
 Coeff-Com: -0.847D+00 0.112D+01 0.179D+00 0.545D+00
 Coeff-En:   0.000D+00 0.000D+00 0.000D+00 0.100D+01
 Coeff:     -0.744D+00 0.987D+00 0.157D+00 0.601D+00
 Gap=     0.032 Goal=   None    Shift=    0.000
 RMSDP=3.51D-04 MaxDP=1.38D-02 DE=-2.32D-02 OVMax= 4.25D-02

 Cycle   5  Pass 1  IDiag  1:
 E= -24.8177026009632     Delta-E=       -0.009262969532 Rises=F Damp=F
 DIIS: error= 1.03D-02 at cycle   5 NSaved=   5.
 NSaved= 5 IEnMin= 5 EnMin= -24.8177026009632     IErMin= 5 ErrMin= 1.03D-02
 ErrMax= 1.03D-02  0.00D+00 EMaxC= 1.00D-01 BMatC= 3.68D-03 BMatP= 5.80D-03
 IDIUse=3 WtCom= 8.97D-01 WtEn= 1.03D-01
 Coeff-Com: -0.839D+00 0.109D+01 0.770D+00-0.140D+01 0.138D+01
 Coeff-En:   0.000D+00 0.000D+00 0.000D+00 0.000D+00 0.100D+01
 Coeff:     -0.753D+00 0.982D+00 0.691D+00-0.126D+01 0.134D+01
 Gap=     0.038 Goal=   None    Shift=    0.000
 RMSDP=1.14D-04 MaxDP=6.17D-03 DE=-9.26D-03 OVMax= 2.18D-02

 Cycle   6  Pass 1  IDiag  1:
 E= -24.8196247056974     Delta-E=       -0.001922104734 Rises=F Damp=F
 DIIS: error= 1.13D-02 at cycle   6 NSaved=   6.
 NSaved= 6 IEnMin= 6 EnMin= -24.8196247056974     IErMin= 5 ErrMin= 1.03D-02
 ErrMax= 1.13D-02  0.00D+00 EMaxC= 1.00D-01 BMatC= 3.67D-03 BMatP= 3.68D-03
 IDIUse=3 WtCom= 8.97D-01 WtEn= 1.03D-01
 Large coefficients: NSaved=  6 BigCof=   13.26 CofMax=   10.00 Det=-6.59D-07
 Inversion failed.  Reducing to  5 matrices.
 Large coefficients: NSaved=  5 BigCof=   23.54 CofMax=   10.00 Det=-9.90D-07
 Inversion failed.  Reducing to  4 matrices.
 Large coefficients: NSaved=  4 BigCof=   10.33 CofMax=   10.00 Det=-9.76D-06
 Inversion failed.  Reducing to  3 matrices.
 Large coefficients: NSaved=  3 BigCof=   10.13 CofMax=   10.00 Det=-9.82D-06
 Inversion failed.  Reducing to  2 matrices.
 Coeff-Com:  0.457D+00 0.543D+00
 Coeff-En:   0.000D+00 0.100D+01
 Coeff:      0.410D+00 0.590D+00
 Gap=     0.010 Goal=   None    Shift=    0.000
 RMSDP=4.50D-03 MaxDP=2.16D-01 DE=-1.92D-03 OVMax= 7.99D-02

 Cycle   7  Pass 1  IDiag  1:
 E= -24.4584263515874     Delta-E=        0.361198354110 Rises=F Damp=F
 DIIS: error= 5.03D-02 at cycle   7 NSaved=   3.
 NSaved= 3 IEnMin= 2 EnMin= -24.8196247056974     IErMin= 1 ErrMin= 1.03D-02
 ErrMax= 5.03D-02  0.00D+00 EMaxC= 1.00D-01 BMatC= 3.90D-02 BMatP= 3.67D-03
 IDIUse=2 WtCom= 0.00D+00 WtEn= 1.00D+00
 Coeff-En:   0.000D+00 0.859D+00 0.141D+00
 Coeff:      0.000D+00 0.859D+00 0.141D+00
 Gap=     0.043 Goal=   None    Shift=    0.000
 RMSDP=4.42D-03 MaxDP=2.16D-01 DE= 3.61D-01 OVMax= 5.29D-02

 Cycle   8  Pass 1  IDiag  1:
 E= -24.8438258399278     Delta-E=       -0.385399488340 Rises=F Damp=F
 DIIS: error= 1.30D-02 at cycle   8 NSaved=   4.
 NSaved= 4 IEnMin= 4 EnMin= -24.8438258399278     IErMin= 1 ErrMin= 1.03D-02
 ErrMax= 1.30D-02  0.00D+00 EMaxC= 1.00D-01 BMatC= 1.58D-03 BMatP= 3.67D-03
 IDIUse=3 WtCom= 8.97D-01 WtEn= 1.03D-01
 Coeff-Com:  0.825D+01-0.872D+01 0.660D-01 0.140D+01
 Coeff-En:   0.000D+00 0.000D+00 0.000D+00 0.100D+01
 Coeff:      0.740D+01-0.782D+01 0.592D-01 0.136D+01
 Gap=     0.019 Goal=   None    Shift=    0.000
 RMSDP=1.41D-03 MaxDP=4.94D-02 DE=-3.85D-01 OVMax= 3.18D-01

 Cycle   9  Pass 1  IDiag  1:
 E= -24.8672390178542     Delta-E=       -0.023413177926 Rises=F Damp=F
 DIIS: error= 6.37D-03 at cycle   9 NSaved=   5.
 NSaved= 5 IEnMin= 5 EnMin= -24.8672390178542     IErMin= 5 ErrMin= 6.37D-03
 ErrMax= 6.37D-03  0.00D+00 EMaxC= 1.00D-01 BMatC= 1.26D-03 BMatP= 1.58D-03
 IDIUse=3 WtCom= 9.36D-01 WtEn= 6.37D-02
 Coeff-Com: -0.159D+01 0.197D+01 0.532D-03-0.412D-01 0.659D+00
 Coeff-En:   0.000D+00 0.000D+00 0.000D+00 0.000D+00 0.100D+01
 Coeff:     -0.149D+01 0.184D+01 0.498D-03-0.386D-01 0.680D+00
 Gap=     0.090 Goal=   None    Shift=    0.000
 RMSDP=3.60D-04 MaxDP=1.55D-02 DE=-2.34D-02 OVMax= 3.95D-02

 Cycle  10  Pass 1  IDiag  1:
 E= -24.8681300286608     Delta-E=       -0.000891010807 Rises=F Damp=F
 DIIS: error= 7.17D-03 at cycle  10 NSaved=   6.
 NSaved= 6 IEnMin= 6 EnMin= -24.8681300286608     IErMin= 5 ErrMin= 6.37D-03
 ErrMax= 7.17D-03  0.00D+00 EMaxC= 1.00D-01 BMatC= 8.31D-04 BMatP= 1.26D-03
 IDIUse=3 WtCom= 9.36D-01 WtEn= 6.37D-02
 Coeff-Com:  0.289D+00-0.469D+00 0.230D-02 0.607D+00-0.967D+00 0.154D+01
 Coeff-En:   0.000D+00 0.000D+00 0.000D+00 0.000D+00 0.000D+00 0.100D+01
 Coeff:      0.270D+00-0.440D+00 0.215D-02 0.568D+00-0.905D+00 0.150D+01
 Gap=     0.106 Goal=   None    Shift=    0.000
 RMSDP=3.16D-04 MaxDP=9.68D-03 DE=-8.91D-04 OVMax= 5.26D-02

 Cycle  11  Pass 1  IDiag  1:
 E= -24.8707978262964     Delta-E=       -0.002667797636 Rises=F Damp=F
 DIIS: error= 8.60D-04 at cycle  11 NSaved=   7.
 NSaved= 7 IEnMin= 7 EnMin= -24.8707978262964     IErMin= 7 ErrMin= 8.60D-04
 ErrMax= 8.60D-04  0.00D+00 EMaxC= 1.00D-01 BMatC= 2.60D-05 BMatP= 8.31D-04
 IDIUse=3 WtCom= 9.91D-01 WtEn= 8.60D-03
 Coeff-Com:  0.453D+00-0.407D+00 0.473D-03-0.918D-01 0.586D-01-0.330D+00
 Coeff-Com:  0.132D+01
 Coeff-En:   0.000D+00 0.000D+00 0.000D+00 0.000D+00 0.000D+00 0.000D+00
 Coeff-En:   0.100D+01
 Coeff:      0.449D+00-0.404D+00 0.469D-03-0.910D-01 0.581D-01-0.328D+00
 Coeff:      0.131D+01
 Gap=     0.112 Goal=   None    Shift=    0.000
 RMSDP=1.02D-04 MaxDP=3.79D-03 DE=-2.67D-03 OVMax= 1.08D-02

 Cycle  12  Pass 1  IDiag  1:
 E= -24.8708582206930     Delta-E=       -0.000060394397 Rises=F Damp=F
 DIIS: error= 8.63D-04 at cycle  12 NSaved=   8.
 NSaved= 8 IEnMin= 8 EnMin= -24.8708582206930     IErMin= 7 ErrMin= 8.60D-04
 ErrMax= 8.63D-04  0.00D+00 EMaxC= 1.00D-01 BMatC= 1.23D-05 BMatP= 2.60D-05
 IDIUse=3 WtCom= 9.91D-01 WtEn= 8.60D-03
 Coeff-Com: -0.963D-01 0.101D+00-0.241D-03 0.219D-01-0.163D-01-0.592D-01
 Coeff-Com: -0.205D+00 0.125D+01
 Coeff-En:   0.000D+00 0.000D+00 0.000D+00 0.000D+00 0.000D+00 0.000D+00
 Coeff-En:   0.000D+00 0.100D+01
 Coeff:     -0.955D-01 0.100D+00-0.239D-03 0.217D-01-0.162D-01-0.587D-01
 Coeff:     -0.203D+00 0.125D+01
 Gap=     0.115 Goal=   None    Shift=    0.000
 RMSDP=3.93D-05 MaxDP=1.41D-03 DE=-6.04D-05 OVMax= 4.91D-03

 Cycle  13  Pass 1  IDiag  1:
 E= -24.8708963301440     Delta-E=       -0.000038109451 Rises=F Damp=F
 DIIS: error= 2.21D-04 at cycle  13 NSaved=   9.
 NSaved= 9 IEnMin= 9 EnMin= -24.8708963301440     IErMin= 9 ErrMin= 2.21D-04
 ErrMax= 2.21D-04  0.00D+00 EMaxC= 1.00D-01 BMatC= 7.02D-07 BMatP= 1.23D-05
 IDIUse=3 WtCom= 9.98D-01 WtEn= 2.21D-03
 Coeff-Com:  0.252D-01-0.279D-01 0.123D-03 0.799D-02-0.575D-02 0.517D-01
 Coeff-Com:  0.431D-01-0.798D+00 0.170D+01
 Coeff-En:   0.000D+00 0.000D+00 0.000D+00 0.000D+00 0.000D+00 0.000D+00
 Coeff-En:   0.000D+00 0.000D+00 0.100D+01
 Coeff:      0.252D-01-0.278D-01 0.123D-03 0.797D-02-0.574D-02 0.516D-01
 Coeff:      0.430D-01-0.796D+00 0.170D+01
 Gap=     0.115 Goal=   None    Shift=    0.000
 RMSDP=1.21D-05 MaxDP=4.23D-04 DE=-3.81D-05 OVMax= 1.61D-03

 Cycle  14  Pass 1  IDiag  1:
 E= -24.8708988193945     Delta-E=       -0.000002489250 Rises=F Damp=F
 DIIS: error= 3.16D-05 at cycle  14 NSaved=  10.
 NSaved=10 IEnMin=10 EnMin= -24.8708988193945     IErMin=10 ErrMin= 3.16D-05
 ErrMax= 3.16D-05  0.00D+00 EMaxC= 1.00D-01 BMatC= 2.74D-08 BMatP= 7.02D-07
 IDIUse=1 WtCom= 1.00D+00 WtEn= 0.00D+00
 Coeff-Com:  0.373D-02-0.252D-02-0.219D-04-0.337D-02-0.154D-02-0.179D-01
 Coeff-Com: -0.109D-01 0.296D+00-0.887D+00 0.162D+01
 Coeff:      0.373D-02-0.252D-02-0.219D-04-0.337D-02-0.154D-02-0.179D-01
 Coeff:     -0.109D-01 0.296D+00-0.887D+00 0.162D+01
 Gap=     0.116 Goal=   None    Shift=    0.000
 RMSDP=3.84D-06 MaxDP=1.30D-04 DE=-2.49D-06 OVMax= 3.50D-04

 Cycle  15  Pass 1  IDiag  1:
 E= -24.8708989055823     Delta-E=       -0.000000086188 Rises=F Damp=F
 DIIS: error= 7.65D-06 at cycle  15 NSaved=  11.
 NSaved=11 IEnMin=11 EnMin= -24.8708989055823     IErMin=11 ErrMin= 7.65D-06
 ErrMax= 7.65D-06  0.00D+00 EMaxC= 1.00D-01 BMatC= 5.85D-10 BMatP= 2.74D-08
 IDIUse=1 WtCom= 1.00D+00 WtEn= 0.00D+00
 Coeff-Com: -0.111D-02 0.122D-02 0.748D-06-0.182D-04 0.306D-03-0.968D-03
 Coeff-Com:  0.453D-02-0.132D-01 0.444D-01-0.507D-01 0.102D+01
 Coeff:     -0.111D-02 0.122D-02 0.748D-06-0.182D-04 0.306D-03-0.968D-03
 Coeff:      0.453D-02-0.132D-01 0.444D-01-0.507D-01 0.102D+01
 Gap=     0.116 Goal=   None    Shift=    0.000
 RMSDP=5.51D-07 MaxDP=1.87D-05 DE=-8.62D-08 OVMax= 9.03D-05

 Cycle  16  Pass 1  IDiag  1:
 E= -24.8708989091213     Delta-E=       -0.000000003539 Rises=F Damp=F
 DIIS: error= 2.90D-07 at cycle  16 NSaved=  12.
 NSaved=12 IEnMin=12 EnMin= -24.8708989091213     IErMin=12 ErrMin= 2.90D-07
 ErrMax= 2.90D-07  0.00D+00 EMaxC= 1.00D-01 BMatC= 2.08D-12 BMatP= 5.85D-10
 IDIUse=1 WtCom= 1.00D+00 WtEn= 0.00D+00
 Coeff-Com:  0.218D-03-0.240D-03 0.299D-06 0.295D-04 0.254D-06 0.241D-03
 Coeff-Com: -0.744D-03 0.114D-02-0.132D-02-0.230D-01-0.217D+00 0.124D+01
 Coeff:      0.218D-03-0.240D-03 0.299D-06 0.295D-04 0.254D-06 0.241D-03
 Coeff:     -0.744D-03 0.114D-02-0.132D-02-0.230D-01-0.217D+00 0.124D+01
 Gap=     0.116 Goal=   None    Shift=    0.000
 RMSDP=3.20D-08 MaxDP=1.20D-06 DE=-3.54D-09 OVMax= 2.56D-06

 Cycle  17  Pass 1  IDiag  1:
 E= -24.8708989091297     Delta-E=       -0.000000000008 Rises=F Damp=F
 DIIS: error= 9.40D-08 at cycle  17 NSaved=  13.
 NSaved=13 IEnMin=13 EnMin= -24.8708989091297     IErMin=13 ErrMin= 9.40D-08
 ErrMax= 9.40D-08  0.00D+00 EMaxC= 1.00D-01 BMatC= 2.39D-13 BMatP= 2.08D-12
 IDIUse=1 WtCom= 1.00D+00 WtEn= 0.00D+00
 Coeff-Com: -0.246D-04 0.276D-04-0.363D-07-0.909D-06-0.909D-05-0.227D-04
 Coeff-Com:  0.164D-03-0.798D-03 0.161D-02 0.443D-02 0.440D-01-0.371D+00
 Coeff-Com:  0.132D+01
 Coeff:     -0.246D-04 0.276D-04-0.363D-07-0.909D-06-0.909D-05-0.227D-04
 Coeff:      0.164D-03-0.798D-03 0.161D-02 0.443D-02 0.440D-01-0.371D+00
 Coeff:      0.132D+01
 Gap=     0.116 Goal=   None    Shift=    0.000
 RMSDP=1.30D-08 MaxDP=4.37D-07 DE=-8.35D-12 OVMax= 9.63D-07

 Cycle  18  Pass 1  IDiag  1:
 E= -24.8708989091305     Delta-E=       -0.000000000001 Rises=F Damp=F
 DIIS: error= 2.74D-08 at cycle  18 NSaved=  14.
 NSaved=14 IEnMin=14 EnMin= -24.8708989091305     IErMin=14 ErrMin= 2.74D-08
 ErrMax= 2.74D-08  0.00D+00 EMaxC= 1.00D-01 BMatC= 9.52D-15 BMatP= 2.39D-13
 IDIUse=1 WtCom= 1.00D+00 WtEn= 0.00D+00
 Coeff-Com: -0.112D-05 0.831D-06 0.206D-08 0.108D-05 0.340D-06 0.846D-06
 Coeff-Com: -0.338D-04 0.196D-03-0.452D-03-0.455D-03-0.706D-02 0.608D-01
 Coeff-Com: -0.281D+00 0.123D+01
 Coeff:     -0.112D-05 0.831D-06 0.206D-08 0.108D-05 0.340D-06 0.846D-06
 Coeff:     -0.338D-04 0.196D-03-0.452D-03-0.455D-03-0.706D-02 0.608D-01
 Coeff:     -0.281D+00 0.123D+01
 Gap=     0.116 Goal=   None    Shift=    0.000
 RMSDP=1.14D-09 MaxDP=4.42D-08 DE=-8.14D-13 OVMax= 2.03D-07

 SCF Done:  E(RHF) =  -24.8708989091     A.U. after   18 cycles
            NFock= 18  Conv=0.11D-08     -V/T= 2.0039
 KE= 2.477455544638D+01 PE=-5.804938842541D+01 EE= 7.895109828622D+00
 Leave Link  502 at Sun May 22 15:49:53 2022, MaxMem=   104857600 cpu:               3.4 elap:               3.4
 (Enter /apps/software/g16/l601.exe)
 Copying SCF densities to generalized density rwf, IOpCl= 0 IROHF=0.

 **********************************************************************

            Population analysis using the SCF density.

 **********************************************************************

 Orbital symmetries:
       Occupied  (SG) (SG) (SG)
       Virtual   (SG) (PI) (PI) (SG) (PI) (PI) (SG) (SG) (DLTA)
                 (DLTA) (PI) (PI) (SG) (SG) (PI) (PI) (PI) (PI)
                 (SG) (SG) (PHI) (PHI) (DLTA) (DLTA) (PI) (PI)
                 (SG) (DLTA) (DLTA) (PI) (PI) (SG) (SG) (DLTA)
                 (DLTA) (PI) (PI) (SG) (PI) (PI) (SG) (PI) (PI)
                 (SG) (SG) (?A) (?A) (DLTA) (DLTA) (PHI) (PHI)
                 (DLTA) (DLTA) (PI) (PI) (PI) (PI) (SG) (SG) (PHI)
                 (PHI) (DLTA) (DLTA) (PI) (PI) (SG) (PHI) (PHI)
                 (DLTA) (DLTA) (PI) (PI) (SG) (SG) (DLTA) (DLTA)
                 (PI) (PI) (SG) (PI) (PI) (SG) (PI) (PI) (SG) (?A)
                 (?A) (DLTA) (DLTA) (PHI) (PHI) (DLTA) (DLTA) (PI)
                 (PI) (PI) (PI) (SG) (SG) (PHI) (PHI) (DLTA) (DLTA)
                 (PI) (PI) (SG) (PHI) (PHI) (DLTA) (DLTA) (PI)
                 (PI) (SG) (SG) (PI) (PI) (SG) (DLTA) (DLTA) (PI)
                 (PI) (SG) (SG)
 The electronic state is 1-SG.
 Alpha  occ. eigenvalues --   -7.89671  -0.63040  -0.21519
 Alpha virt. eigenvalues --   -0.09958  -0.05562  -0.05562   0.01913   0.03820
 Alpha virt. eigenvalues --    0.03820   0.05396   0.10352   0.11213   0.11213
 Alpha virt. eigenvalues --    0.11922   0.11922   0.13882   0.22797   0.23815
 Alpha virt. eigenvalues --    0.23815   0.24267   0.24267   0.28385   0.29994
 Alpha virt. eigenvalues --    0.40759   0.40759   0.41470   0.41470   0.42268
 Alpha virt. eigenvalues --    0.42268   0.42473   0.42487   0.42487   0.43428
 Alpha virt. eigenvalues --    0.43428   0.45566   0.51337   0.69465   0.69465
 Alpha virt. eigenvalues --    0.70321   0.70321   0.72226   0.86357   0.86357
 Alpha virt. eigenvalues --    0.90333   0.93259   0.93259   0.97671   1.27857
 Alpha virt. eigenvalues --    1.28605   1.28605   1.29318   1.29318   1.29420
 Alpha virt. eigenvalues --    1.29420   1.30033   1.30033   1.30443   1.30443
 Alpha virt. eigenvalues --    1.30563   1.30563   1.30774   1.32273   1.33912
 Alpha virt. eigenvalues --    1.33912   1.34911   1.34911   1.35798   1.35798
 Alpha virt. eigenvalues --    1.38863   1.65275   1.65275   1.65291   1.65291
 Alpha virt. eigenvalues --    1.65485   1.65485   1.65949   1.73582   2.56158
 Alpha virt. eigenvalues --    2.56158   2.56625   2.56625   2.57938   2.67991
 Alpha virt. eigenvalues --    2.67991   2.72912   3.57271   3.57271   3.59483
 Alpha virt. eigenvalues --    3.79234   3.79234   3.80111   3.80111   3.80270
 Alpha virt. eigenvalues --    3.80270   3.81021   3.81021   3.81445   3.81445
 Alpha virt. eigenvalues --    3.81505   3.81505   3.81727   3.82843   3.94281
 Alpha virt. eigenvalues --    3.94281   3.95427   3.95427   3.96272   3.96272
 Alpha virt. eigenvalues --    3.98023   6.66086   6.66086   6.66107   6.66107
 Alpha virt. eigenvalues --    6.66165   6.66165   6.66287   7.51850   8.04480
 Alpha virt. eigenvalues --    8.04480   8.07987   8.49705   8.49705   8.49993
 Alpha virt. eigenvalues --    8.49993   8.51233  12.85682
          Condensed to atoms (all electrons):
               1          2
     1  B    4.528710   0.061013
     2  H    0.061013   1.349265
 Mulliken charges:
               1
     1  B    0.410277
     2  H   -0.410277
 Sum of Mulliken charges =   0.00000
 Mulliken charges with hydrogens summed into heavy atoms:
               1
     1  B    0.000000
 Electronic spatial extent (au):  <R**2>=            127.3121
 Charge=              0.0000 electrons
 Dipole moment (field-independent basis, Debye):
    X=              0.0000    Y=              0.0000    Z=             10.5996  Tot=             10.5996
 Quadrupole moment (field-independent basis, Debye-Ang):
   XX=             -9.3170   YY=             -9.3170   ZZ=            -44.3730
   XY=              0.0000   XZ=              0.0000   YZ=              0.0000
 Traceless Quadrupole moment (field-independent basis, Debye-Ang):
   XX=             11.6853   YY=             11.6853   ZZ=            -23.3707
   XY=              0.0000   XZ=              0.0000   YZ=              0.0000
 Octapole moment (field-independent basis, Debye-Ang**2):
  XXX=              0.0000  YYY=              0.0000  ZZZ=            172.4384  XYY=              0.0000
  XXY=              0.0000  XXZ=             12.6436  XZZ=              0.0000  YZZ=              0.0000
  YYZ=             12.6436  XYZ=              0.0000
 Hexadecapole moment (field-independent basis, Debye-Ang**3):
 XXXX=            -22.3934 YYYY=            -22.3934 ZZZZ=          -1048.4744 XXXY=              0.0000
 XXXZ=              0.0000 YYYX=              0.0000 YYYZ=              0.0000 ZZZX=              0.0000
 ZZZY=              0.0000 XXYY=             -7.4645 XXZZ=            -81.9070 YYZZ=            -81.9070
 XXYZ=              0.0000 YYXZ=              0.0000 ZZXY=              0.0000
 N-N= 5.088242412692D-01 E-N=-5.804938796070D+01  KE= 2.477455544638D+01
 Symmetry A1   KE= 2.477455544639D+01
 Symmetry A2   KE= 1.859662523672D-51
 Symmetry B1   KE= 0.000000000000D+00
 Symmetry B2   KE= 0.000000000000D+00
 No NMR shielding tensors so no spin-rotation constants.
 Leave Link  601 at Sun May 22 15:49:54 2022, MaxMem=   104857600 cpu:               0.1 elap:               0.1
 (Enter /apps/software/g16/l9999.exe)
 1\1\GINC-CNODE13\SP\RHF\Aug-CC-pVQZ\B1H1\LCZ\22-May-2022\0\\#p RHF/aug
 -cc-pVQZ\\BH RHF at 5.2 Angstrom\\0,1\B,0,0.,0.,0.\H,0,5.2,0.,0.\\Vers
 ion=ES64L-G16RevA.03\State=1-SG\HF=-24.8708989\RMSD=1.137e-09\Dipole=-
 4.1702217,0.,0.\Quadrupole=-17.3755386,8.6877693,8.6877693,0.,0.,0.\PG
 =C*V [C*(H1B1)]\\@


 LENDING MONEY TO FRIENDS CAUSES THEM TO LOSE THEIR MEMORIES.

    --  PETER'S THEORY OF RECIPROCAL INHIBITION OF FISCAL RECALL
 Job cpu time:       0 days  0 hours  0 minutes  4.2 seconds.
 Elapsed time:       0 days  0 hours  0 minutes  4.1 seconds.
 File lengths (MBytes):  RWF=     10 Int=      0 D2E=      0 Chk=      3 Scr=      1
 Normal termination of Gaussian 16 at Sun May 22 15:49:54 2022.

Sender: Unischeduler System <lcz@mgt01>
Subject: Job 134036: <#!/bin/bash
#BSUB -J intel
#BSUB -o BH-5.2-RHF-G.out
#BSUB -n 8
#BSUB -q cqueue
#BSUB -R span[hosts=1]
export g16root=/apps/software
source /apps/software/g16/bsd/g16.profile
export GAUSS_SCRDIR=/scratch
/apps/software/g16/g16 < BH-5.2-RHF-G.inp > BH-5.2-RHF-G.out> Done

Job <#!/bin/bash
#BSUB -J intel
#BSUB -o BH-5.2-RHF-G.out
#BSUB -n 8
#BSUB -q cqueue
#BSUB -R span[hosts=1]
export g16root=/apps/software
source /apps/software/g16/bsd/g16.profile
export GAUSS_SCRDIR=/scratch
/apps/software/g16/g16 < BH-5.2-RHF-G.inp > BH-5.2-RHF-G.out> was submitted from host <mgt01> by user <lcz>.
Job was executed on host(s) <8*cnode13>, in queue <cqueue>, as user <lcz>.
</apps/users/lcz> was used as the home directory.
</apps/users/lcz/exe13/CCSD> was used as the working directory.
Started at 2022-05-22 15:49:49
Results reported at 2022-05-22 15:49:54

Your job looked like:

------------------------------------------------------------
# User input
#!/bin/bash
#BSUB -J intel
#BSUB -o BH-5.2-RHF-G.out
#BSUB -n 8
#BSUB -q cqueue
#BSUB -R span[hosts=1]
export g16root=/apps/software
source /apps/software/g16/bsd/g16.profile
export GAUSS_SCRDIR=/scratch
/apps/software/g16/g16 < BH-5.2-RHF-G.inp > BH-5.2-RHF-G.out
------------------------------------------------------------

Successfully completed.

Resource usage summary:

    CPU time   :            2.15 sec.
    Max Memory :               478 MB
    Max Processes  :               5


The output (if any) follows:

