 Entering Gaussian System, Link 0=/apps/software/g16/g16
 Initial command:
 /apps/software/g16/l1.exe "/scratch/Gau-89159.inp" -scrdir="/scratch/"
 Entering Link 1 = /apps/software/g16/l1.exe PID=     89160.
  
 Copyright (c) 1988,1990,1992,1993,1995,1998,2003,2009,2016,
            Gaussian, Inc.  All Rights Reserved.
  
 This is part of the Gaussian(R) 16 program.  It is based on
 the Gaussian(R) 09 system (copyright 2009, Gaussian, Inc.),
 the Gaussian(R) 03 system (copyright 2003, Gaussian, Inc.),
 the Gaussian(R) 98 system (copyright 1998, Gaussian, Inc.),
 the Gaussian(R) 94 system (copyright 1995, Gaussian, Inc.),
 the Gaussian 92(TM) system (copyright 1992, Gaussian, Inc.),
 the Gaussian 90(TM) system (copyright 1990, Gaussian, Inc.),
 the Gaussian 88(TM) system (copyright 1988, Gaussian, Inc.),
 the Gaussian 86(TM) system (copyright 1986, Carnegie Mellon
 University), and the Gaussian 82(TM) system (copyright 1983,
 Carnegie Mellon University). Gaussian is a federally registered
 trademark of Gaussian, Inc.
  
 This software contains proprietary and confidential information,
 including trade secrets, belonging to Gaussian, Inc.
  
 This software is provided under written license and may be
 used, copied, transmitted, or stored only in accord with that
 written license.
  
 The following legend is applicable only to US Government
 contracts under FAR:
  
                    RESTRICTED RIGHTS LEGEND
  
 Use, reproduction and disclosure by the US Government is
 subject to restrictions as set forth in subparagraphs (a)
 and (c) of the Commercial Computer Software - Restricted
 Rights clause in FAR 52.227-19.
  
 Gaussian, Inc.
 340 Quinnipiac St., Bldg. 40, Wallingford CT 06492
  
  
 ---------------------------------------------------------------
 Warning -- This program may not be used in any manner that
 competes with the business of Gaussian, Inc. or will provide
 assistance to any competitor of Gaussian, Inc.  The licensee
 of this program is prohibited from giving any competitor of
 Gaussian, Inc. access to this program.  By using this program,
 the user acknowledges that Gaussian, Inc. is engaged in the
 business of creating and licensing software in the field of
 computational chemistry and represents and warrants to the
 licensee that it is not a competitor of Gaussian, Inc. and that
 it will not use this program in any manner prohibited above.
 ---------------------------------------------------------------
  

 Cite this work as:
 Gaussian 16, Revision A.03,
 M. J. Frisch, G. W. Trucks, H. B. Schlegel, G. E. Scuseria, 
 M. A. Robb, J. R. Cheeseman, G. Scalmani, V. Barone, 
 G. A. Petersson, H. Nakatsuji, X. Li, M. Caricato, A. V. Marenich, 
 J. Bloino, B. G. Janesko, R. Gomperts, B. Mennucci, H. P. Hratchian, 
 J. V. Ortiz, A. F. Izmaylov, J. L. Sonnenberg, D. Williams-Young, 
 F. Ding, F. Lipparini, F. Egidi, J. Goings, B. Peng, A. Petrone, 
 T. Henderson, D. Ranasinghe, V. G. Zakrzewski, J. Gao, N. Rega, 
 G. Zheng, W. Liang, M. Hada, M. Ehara, K. Toyota, R. Fukuda, 
 J. Hasegawa, M. Ishida, T. Nakajima, Y. Honda, O. Kitao, H. Nakai, 
 T. Vreven, K. Throssell, J. A. Montgomery, Jr., J. E. Peralta, 
 F. Ogliaro, M. J. Bearpark, J. J. Heyd, E. N. Brothers, K. N. Kudin, 
 V. N. Staroverov, T. A. Keith, R. Kobayashi, J. Normand, 
 K. Raghavachari, A. P. Rendell, J. C. Burant, S. S. Iyengar, 
 J. Tomasi, M. Cossi, J. M. Millam, M. Klene, C. Adamo, R. Cammi, 
 J. W. Ochterski, R. L. Martin, K. Morokuma, O. Farkas, 
 J. B. Foresman, and D. J. Fox, Gaussian, Inc., Wallingford CT, 2016.
 
 ******************************************
 Gaussian 16:  ES64L-G16RevA.03 25-Dec-2016
                22-May-2022 
 ******************************************
 %oldchk=BH-5.2-RHF-G.chk
 %chk=BH-5.2-CCSD-G.chk
 Copying data from "BH-5.2-RHF-G.chk" to current chk file "BH-5.2-CCSD-G.chk"
 IOpt=  2 FromEx=T IUOpen= 4 IOptOp= 5 NList=   0 IFRang= 0 IUIn= 4 IUOut= 2.
 -------------------------------------
 #p RHF/aug-cc-pVQZ guess=read CCSD=FC
 -------------------------------------
 1/38=1,172=1/1;
 2/12=2,17=6,18=5,40=1/2;
 3/5=16,6=2,7=10,11=1,25=1,30=1,116=1/1,2,3;
 4/5=1/1;
 5/5=2,38=6/2;
 8/6=4,9=120000,10=1/1,4;
 9/5=7/13;
 6/7=2,8=2,9=2,10=2/1;
 99/5=1,9=1/99;
 Leave Link    1 at Sun May 22 15:52:59 2022, MaxMem=   104857600 cpu:               0.0 elap:               0.0
 (Enter /apps/software/g16/l101.exe)
 ----------------------
 BH RHF at 5.2 Angstrom
 ----------------------
 Symbolic Z-matrix:
 Charge =  0 Multiplicity = 1
 B                     0.        0.        0. 
 H                     5.2       0.        0. 
 
 ITRead=  0  0
 MicOpt= -1 -1
 NAtoms=      2 NQM=        2 NQMF=       0 NMMI=      0 NMMIF=      0
                NMic=       0 NMicF=      0.
                    Isotopes and Nuclear Properties:
 (Nuclear quadrupole moments (NQMom) in fm**2, nuclear magnetic moments (NMagM)
  in nuclear magnetons)

  Atom         1           2
 IAtWgt=          11           1
 AtmWgt=  11.0093053   1.0078250
 NucSpn=           3           1
 AtZEff=  -0.0000000  -0.0000000
 NQMom=    4.0590000   0.0000000
 NMagM=    2.6886370   2.7928460
 AtZNuc=   5.0000000   1.0000000
 Leave Link  101 at Sun May 22 15:52:59 2022, MaxMem=   104857600 cpu:               0.1 elap:               0.1
 (Enter /apps/software/g16/l202.exe)
                          Input orientation:                          
 ---------------------------------------------------------------------
 Center     Atomic      Atomic             Coordinates (Angstroms)
 Number     Number       Type             X           Y           Z
 ---------------------------------------------------------------------
      1          5           0        0.000000    0.000000    0.000000
      2          1           0        5.200000    0.000000    0.000000
 ---------------------------------------------------------------------
 Stoichiometry    BH
 Framework group  C*V[C*(HB)]
 Deg. of freedom     1
 Full point group                 C*V     NOp   4
 Largest Abelian subgroup         C2V     NOp   4
 Largest concise Abelian subgroup C1      NOp   1
                         Standard orientation:                         
 ---------------------------------------------------------------------
 Center     Atomic      Atomic             Coordinates (Angstroms)
 Number     Number       Type             X           Y           Z
 ---------------------------------------------------------------------
      1          5           0        0.000000    0.000000    0.866667
      2          1           0        0.000000    0.000000   -4.333333
 ---------------------------------------------------------------------
 Rotational constants (GHZ):           0.0000000          20.2425968          20.2425968
 Leave Link  202 at Sun May 22 15:52:59 2022, MaxMem=   104857600 cpu:               0.0 elap:               0.0
 (Enter /apps/software/g16/l301.exe)
 Standard basis: Aug-CC-pVQZ (5D, 7F)
 Ernie: Thresh=  0.10000D-02 Tol=  0.10000D-05 Strict=F.
 Ernie:  4 primitive shells out of 54 were deleted.
 There are    68 symmetry adapted cartesian basis functions of A1  symmetry.
 There are    18 symmetry adapted cartesian basis functions of A2  symmetry.
 There are    37 symmetry adapted cartesian basis functions of B1  symmetry.
 There are    37 symmetry adapted cartesian basis functions of B2  symmetry.
 There are    50 symmetry adapted basis functions of A1  symmetry.
 There are    16 symmetry adapted basis functions of A2  symmetry.
 There are    30 symmetry adapted basis functions of B1  symmetry.
 There are    30 symmetry adapted basis functions of B2  symmetry.
   126 basis functions,   180 primitive gaussians,   160 cartesian basis functions
     3 alpha electrons        3 beta electrons
       nuclear repulsion energy         0.5088242413 Hartrees.
 IExCor=    0 DFT=F Ex=HF Corr=None ExCW=0 ScaHFX=  1.000000
 ScaDFX=  1.000000  1.000000  1.000000  1.000000 ScalE2=  1.000000  1.000000
 IRadAn=      5 IRanWt=     -1 IRanGd=            0 ICorTp=0 IEmpDi=  4
 NAtoms=    2 NActive=    2 NUniq=    2 SFac= 1.00D+00 NAtFMM=   60 NAOKFM=F Big=F
 Integral buffers will be    131072 words long.
 Raffenetti 1 integral format.
 Two-electron integral symmetry is turned on.
 Leave Link  301 at Sun May 22 15:52:59 2022, MaxMem=   104857600 cpu:               0.1 elap:               0.1
 (Enter /apps/software/g16/l302.exe)
 NPDir=0 NMtPBC=     1 NCelOv=     1 NCel=       1 NClECP=     1 NCelD=      1
         NCelK=      1 NCelE2=     1 NClLst=     1 CellRange=     0.0.
 One-electron integrals computed using PRISM.
 One-electron integral symmetry used in STVInt
 NBasis=   126 RedAO= T EigKep=  1.23D-02  NBF=    50    16    30    30
 NBsUse=   126 1.00D-06 EigRej= -1.00D+00 NBFU=    50    16    30    30
 Leave Link  302 at Sun May 22 15:52:59 2022, MaxMem=   104857600 cpu:               0.1 elap:               0.1
 (Enter /apps/software/g16/l303.exe)
 DipDrv:  MaxL=1.
 Leave Link  303 at Sun May 22 15:52:59 2022, MaxMem=   104857600 cpu:               0.0 elap:               0.0
 (Enter /apps/software/g16/l401.exe)
 Initial guess from the checkpoint file:  "BH-5.2-CCSD-G.chk"
 B after Tr=     0.000000    0.000000    0.000000
         Rot=    1.000000    0.000000    0.000000    0.000000 Ang=   0.00 deg.
 Guess basis will be translated and rotated to current coordinates.
 JPrj=2 DoOrth=T DoCkMO=T.
 Initial guess orbital symmetries:
       Occupied  (SG) (SG) (SG)
       Virtual   (SG) (PI) (PI) (SG) (PI) (PI) (SG) (SG) (DLTA)
                 (DLTA) (PI) (PI) (SG) (SG) (PI) (PI) (PI) (PI)
                 (SG) (SG) (PHI) (PHI) (DLTA) (DLTA) (PI) (PI)
                 (SG) (DLTA) (DLTA) (PI) (PI) (SG) (SG) (DLTA)
                 (DLTA) (PI) (PI) (SG) (PI) (PI) (SG) (PI) (PI)
                 (SG) (SG) (?A) (?A) (DLTA) (DLTA) (PHI) (PHI)
                 (DLTA) (DLTA) (PI) (PI) (PI) (PI) (SG) (SG) (PHI)
                 (PHI) (DLTA) (DLTA) (PI) (PI) (SG) (PHI) (PHI)
                 (DLTA) (DLTA) (PI) (PI) (SG) (SG) (DLTA) (DLTA)
                 (PI) (PI) (SG) (PI) (PI) (SG) (PI) (PI) (SG) (?A)
                 (?A) (DLTA) (DLTA) (PHI) (PHI) (DLTA) (DLTA) (PI)
                 (PI) (PI) (PI) (SG) (SG) (PHI) (PHI) (DLTA) (DLTA)
                 (PI) (PI) (SG) (PHI) (PHI) (DLTA) (DLTA) (PI)
                 (PI) (SG) (SG) (PI) (PI) (SG) (DLTA) (DLTA) (PI)
                 (PI) (SG) (SG)
 The electronic state of the initial guess is 1-SG.
 Leave Link  401 at Sun May 22 15:52:59 2022, MaxMem=   104857600 cpu:               0.1 elap:               0.1
 (Enter /apps/software/g16/l502.exe)
 Keep R1 ints in memory in symmetry-blocked form, NReq=40143665.
 FoFCou: FMM=F IPFlag=           0 FMFlag=           0 FMFlg1=           0
         NFxFlg=           0 DoJE=F BraDBF=F KetDBF=F FulRan=T
         wScrn=  0.000000 ICntrl=       600 IOpCl=  0 I1Cent=           0 NGrid=           0
         NMat0=    1 NMatS0=   8001 NMatT0=    0 NMatD0=    1 NMtDS0=    0 NMtDT0=    0
 Petite list used in FoFCou.
 Closed shell SCF:
 Using DIIS extrapolation, IDIIS=  1040.
 NGot=   104857600 LenX=    96673173 LenY=    96647132
 Requested convergence on RMS density matrix=1.00D-08 within 128 cycles.
 Requested convergence on MAX density matrix=1.00D-06.
 Requested convergence on             energy=1.00D-06.
 No special actions if energy rises.

 Cycle   1  Pass 1  IDiag  1:
 E= -24.8708989091305    
 DIIS: error= 1.81D-09 at cycle   1 NSaved=   1.
 NSaved= 1 IEnMin= 1 EnMin= -24.8708989091305     IErMin= 1 ErrMin= 1.81D-09
 ErrMax= 1.81D-09  0.00D+00 EMaxC= 1.00D-01 BMatC= 6.91D-17 BMatP= 6.91D-17
 IDIUse=1 WtCom= 1.00D+00 WtEn= 0.00D+00
 Coeff-Com:  0.100D+01
 Coeff:      0.100D+01
 Gap=     0.116 Goal=   None    Shift=    0.000
 RMSDP=1.76D-10 MaxDP=6.29D-09              OVMax= 3.02D-08

 SCF Done:  E(RHF) =  -24.8708989091     A.U. after    1 cycles
            NFock=  1  Conv=0.18D-09     -V/T= 2.0039
 KE= 2.477455541865D+01 PE=-5.804938793297D+01 EE= 7.895109363919D+00
 Leave Link  502 at Sun May 22 15:53:03 2022, MaxMem=   104857600 cpu:               3.3 elap:               3.3
 (Enter /apps/software/g16/l801.exe)
 Windowed orbitals will be sorted by symmetry type.
 ExpMin= 1.88D-02 ExpMax= 2.39D+04 ExpMxC= 2.30D+02 IAcc=3 IRadAn=         5 AccDes= 0.00D+00
 HarFok:  IExCor=  205 AccDes= 0.00D+00 IRadAn=         5 IDoV=-2 UseB2=F ITyADJ=14
 ICtDFT= 12500011 ScaDFX=  1.000000  1.000000  1.000000  1.000000
 Largest valence mixing into a core orbital is  4.00D-04
 Largest core mixing into a valence orbital is  1.72D-04
 Range of M.O.s used for correlation:     2   126
 NBasis=   126 NAE=     3 NBE=     3 NFC=     1 NFV=     0
 NROrb=    125 NOA=     2 NOB=     2 NVA=   123 NVB=   123
 Leave Link  801 at Sun May 22 15:53:03 2022, MaxMem=   104857600 cpu:               0.1 elap:               0.1
 (Enter /apps/software/g16/l804.exe)
 Closed-shell transformation, MDV=   104857600 ITran=4 ISComp=2.
 Unit  1 TFree=        535169 TCopy=        350885.
 Semi-Direct transformation.
 ModeAB=           4 MOrb=             2 LenV=     104245550
 LASXX=       493564 LTotXX=      493564 LenRXX=     1003397
 LTotAB=      509833 MaxLAS=     3092750 LenRXY=           0
 NonZer=     1496961 LenScr=     2992128 LnRSAI=     3092750
 LnScr1=     5411840 LExtra=           0 Total=     12500115
 MaxDsk=          -1 SrtSym=           T ITran=            4
 DoSDTr:  NPSUse=  1
 JobTyp=0 Pass  1:  I=   1 to   2.
 (rs|ai) integrals will be sorted in core.
 Complete sort for first half transformation.
 First half transformation complete.
 Complete sort for second half transformation.
 Second half transformation complete.
 Spin components of T(2) and E(2):
     alpha-alpha T2 =       0.1778988633D-02 E2=     -0.2309314926D-02
     alpha-beta  T2 =       0.3658326326D+00 E2=     -0.1447966358D+00
     beta-beta   T2 =       0.1778988633D-02 E2=     -0.2309314926D-02
 ANorm=    0.1170209644D+01
 E2 =    -0.1494152656D+00 EUMP2 =    -0.25020314174741D+02
 Leave Link  804 at Sun May 22 15:53:07 2022, MaxMem=   104857600 cpu:               4.4 elap:               4.5
 (Enter /apps/software/g16/l913.exe)
 CIDS:  MDV=   104857600.
 Frozen-core window:  NFC=   1 NFV=   0.
 IFCWin=0 IBDFC=1 NFBD=     0     0 NFCmp=     0     0 NFFFC=     0     0
 Using DD3R+UMP44R for 1st iteration.
 Using DD4RQ for 2nd and later iterations.
 Keep R2 and R3 ints in memory in symmetry-blocked form, NReq=40146875.
 FoFCou: FMM=F IPFlag=           0 FMFlag=           0 FMFlg1=           0
         NFxFlg=           0 DoJE=F BraDBF=F KetDBF=F FulRan=T
         wScrn=  0.000000 ICntrl=       600 IOpCl=  0 I1Cent=           0 NGrid=           0
         NMat0=    1 NMatS0=   8001 NMatT0=    0 NMatD0=    1 NMtDS0=    0 NMtDT0=    0
 Petite list used in FoFCou.
 CIDS: In Core Option IDoMem=           1.
 Coupled Cluster theory with single and double substitutions
 ===========================================================
 Iterations=  50 Convergence= 0.100D-06
 Produce multiple copies of IABC intergrals
 Iteration Nr.   1
 **********************
 DD1Dir will call FoFMem   1 times, MxPair=         6
 NAB=     3 NAA=     0 NBB=     0.
 MP4(R+Q)=  0.43279258D-01
 Maximum subspace dimension=  5
 A-vector RMS=  8.5462664D-02 Max=  6.4869925D-01 conv= 1.00D-05.
 RLE energy=       -0.0938981036
 E3=       -0.32635124D-01        EUMP3=      -0.25052949298D+02
 E4(DQ)=    0.99137423D-02        UMP4(DQ)=   -0.25043035556D+02
 E4(SDQ)=  -0.99624245D-01        UMP4(SDQ)=  -0.25152573544D+02
 VARIATIONAL ENERGIES WITH THE FIRST-ORDER WAVEFUNCTION:
 DE(Corr)= -0.86464701E-01 E(Corr)=     -24.957363610    
 NORM(A)=   0.14349958D+01
 Iteration Nr.   2
 **********************
 DD1Dir will call FoFMem   1 times, MxPair=         6
 NAB=     3 NAA=     0 NBB=     0.
 A-vector RMS=  1.2624913D-01 Max=  9.5264656D-01 conv= 1.00D-05.
 RLE energy=       -0.1887082759
 DE(Corr)= -0.22429667     E(CORR)=     -25.095195578     Delta=-1.38D-01
 NORM(A)=   0.14110981D+01
 Iteration Nr.   3
 **********************
 DD1Dir will call FoFMem   1 times, MxPair=         6
 NAB=     3 NAA=     0 NBB=     0.
 A-vector RMS=  3.1713679D-02 Max=  2.3868881D-01 conv= 1.00D-05.
 RLE energy=       -0.2301981889
 DE(Corr)= -0.18221198     E(CORR)=     -25.053110892     Delta= 4.21D-02
 NORM(A)=   0.19495476D+01
 Iteration Nr.   4
 **********************
 DD1Dir will call FoFMem   1 times, MxPair=         6
 NAB=     3 NAA=     0 NBB=     0.
 A-vector RMS=  5.4798774D-02 Max=  4.2060286D-01 conv= 1.00D-05.
 RLE energy=       -0.2003122339
 DE(Corr)= -0.24040099     E(CORR)=     -25.111299897     Delta=-5.82D-02
 NORM(A)=   0.15467205D+01
 Iteration Nr.   5
 **********************
 DD1Dir will call FoFMem   1 times, MxPair=         6
 NAB=     3 NAA=     0 NBB=     0.
 A-vector RMS=  2.2585238D-02 Max=  1.7242109D-01 conv= 1.00D-05.
 RLE energy=       -0.2153297098
 DE(Corr)= -0.19485532     E(CORR)=     -25.065754230     Delta= 4.55D-02
 NORM(A)=   0.17363969D+01
 Iteration Nr.   6
 **********************
 DD1Dir will call FoFMem   1 times, MxPair=         6
 NAB=     3 NAA=     0 NBB=     0.
 A-vector RMS=  3.1532379D-03 Max=  2.3810912D-02 conv= 1.00D-05.
 RLE energy=       -0.2171395672
 DE(Corr)= -0.21848513     E(CORR)=     -25.089384036     Delta=-2.36D-02
 NORM(A)=   0.17475741D+01
 Iteration Nr.   7
 **********************
 DD1Dir will call FoFMem   1 times, MxPair=         6
 NAB=     3 NAA=     0 NBB=     0.
 A-vector RMS=  7.4327733D-04 Max=  1.5737063D-02 conv= 1.00D-05.
 RLE energy=       -0.2146331079
 DE(Corr)= -0.21539319     E(CORR)=     -25.086292104     Delta= 3.09D-03
 NORM(A)=   0.17297362D+01
 Iteration Nr.   8
 **********************
 DD1Dir will call FoFMem   1 times, MxPair=         6
 NAB=     3 NAA=     0 NBB=     0.
 A-vector RMS=  7.0155283D-04 Max=  5.1549300D-03 conv= 1.00D-05.
 RLE energy=       -0.2154189751
 DE(Corr)= -0.21588715     E(CORR)=     -25.086786056     Delta=-4.94D-04
 NORM(A)=   0.17343100D+01
 Iteration Nr.   9
 **********************
 DD1Dir will call FoFMem   1 times, MxPair=         6
 NAB=     3 NAA=     0 NBB=     0.
 A-vector RMS=  1.4104107D-04 Max=  2.1321950D-03 conv= 1.00D-05.
 RLE energy=       -0.2150535787
 DE(Corr)= -0.21501430     E(CORR)=     -25.085913212     Delta= 8.73D-04
 NORM(A)=   0.17329465D+01
 Iteration Nr.  10
 **********************
 DD1Dir will call FoFMem   1 times, MxPair=         6
 NAB=     3 NAA=     0 NBB=     0.
 A-vector RMS=  3.3159836D-04 Max=  2.5375575D-03 conv= 1.00D-05.
 RLE energy=       -0.2152494511
 DE(Corr)= -0.21548876     E(CORR)=     -25.086387670     Delta=-4.74D-04
 NORM(A)=   0.17328583D+01
 Iteration Nr.  11
 **********************
 DD1Dir will call FoFMem   1 times, MxPair=         6
 NAB=     3 NAA=     0 NBB=     0.
 A-vector RMS=  1.6576910D-04 Max=  1.2844833D-03 conv= 1.00D-05.
 RLE energy=       -0.2151157950
 DE(Corr)= -0.21492519     E(CORR)=     -25.085824102     Delta= 5.64D-04
 NORM(A)=   0.17323680D+01
 Iteration Nr.  12
 **********************
 DD1Dir will call FoFMem   1 times, MxPair=         6
 NAB=     3 NAA=     0 NBB=     0.
 A-vector RMS=  2.1035771D-05 Max=  1.4075476D-04 conv= 1.00D-05.
 RLE energy=       -0.2151377301
 DE(Corr)= -0.21511999     E(CORR)=     -25.086018894     Delta=-1.95D-04
 NORM(A)=   0.17326393D+01
 Iteration Nr.  13
 **********************
 DD1Dir will call FoFMem   1 times, MxPair=         6
 NAB=     3 NAA=     0 NBB=     0.
 A-vector RMS=  3.7398015D-05 Max=  2.8779189D-04 conv= 1.00D-05.
 RLE energy=       -0.2151264479
 DE(Corr)= -0.21515888     E(CORR)=     -25.086057788     Delta=-3.89D-05
 NORM(A)=   0.17323966D+01
 Iteration Nr.  14
 **********************
 DD1Dir will call FoFMem   1 times, MxPair=         6
 NAB=     3 NAA=     0 NBB=     0.
 A-vector RMS=  1.7195198D-05 Max=  1.3115585D-04 conv= 1.00D-05.
 RLE energy=       -0.2151253245
 DE(Corr)= -0.21510630     E(CORR)=     -25.086005206     Delta= 5.26D-05
 NORM(A)=   0.17324345D+01
 Iteration Nr.  15
 **********************
 DD1Dir will call FoFMem   1 times, MxPair=         6
 NAB=     3 NAA=     0 NBB=     0.
 A-vector RMS=  1.4464542D-06 Max=  9.9414030D-06 conv= 1.00D-05.
 RLE energy=       -0.2151245917
 DE(Corr)= -0.21512403     E(CORR)=     -25.086022940     Delta=-1.77D-05
 NORM(A)=   0.17324273D+01
 Iteration Nr.  16
 **********************
 DD1Dir will call FoFMem   1 times, MxPair=         6
 NAB=     3 NAA=     0 NBB=     0.
 A-vector RMS=  5.6003003D-07 Max=  4.7096858D-06 conv= 1.00D-05.
 RLE energy=       -0.2151253561
 DE(Corr)= -0.21512424     E(CORR)=     -25.086023149     Delta=-2.08D-07
 NORM(A)=   0.17324263D+01
 Iteration Nr.  17
 **********************
 DD1Dir will call FoFMem   1 times, MxPair=         6
 NAB=     3 NAA=     0 NBB=     0.
 A-vector RMS=  1.6469755D-06 Max=  1.2353770D-05 conv= 1.00D-05.
 RLE energy=       -0.2151236138
 DE(Corr)= -0.21512241     E(CORR)=     -25.086021324     Delta= 1.82D-06
 NORM(A)=   0.17324186D+01
 Iteration Nr.  18
 **********************
 DD1Dir will call FoFMem   1 times, MxPair=         6
 NAB=     3 NAA=     0 NBB=     0.
 A-vector RMS=  1.9310335D-07 Max=  6.2810995D-06 conv= 1.00D-05.
 RLE energy=       -0.2151245094
 DE(Corr)= -0.21512472     E(CORR)=     -25.086023634     Delta=-2.31D-06
 NORM(A)=   0.17324262D+01
 Iteration Nr.  19
 **********************
 DD1Dir will call FoFMem   1 times, MxPair=         6
 NAB=     3 NAA=     0 NBB=     0.
 A-vector RMS=  6.0568259D-07 Max=  4.6732759D-06 conv= 1.00D-05.
 RLE energy=       -0.2151245002
 DE(Corr)= -0.21512499     E(CORR)=     -25.086023898     Delta=-2.64D-07
 NORM(A)=   0.17324227D+01
 Iteration Nr.  20
 **********************
 DD1Dir will call FoFMem   1 times, MxPair=         6
 NAB=     3 NAA=     0 NBB=     0.
 A-vector RMS=  5.3096269D-07 Max=  4.0653214D-06 conv= 1.00D-05.
 RLE energy=       -0.2151243420
 DE(Corr)= -0.21512389     E(CORR)=     -25.086022798     Delta= 1.10D-06
 NORM(A)=   0.17324234D+01
 Iteration Nr.  21
 **********************
 DD1Dir will call FoFMem   1 times, MxPair=         6
 NAB=     3 NAA=     0 NBB=     0.
 A-vector RMS=  1.0478623D-07 Max=  8.8558365D-07 conv= 1.00D-05.
 RLE energy=       -0.2151244462
 DE(Corr)= -0.21512457     E(CORR)=     -25.086023476     Delta=-6.78D-07
 NORM(A)=   0.17324239D+01
 Iteration Nr.  22
 **********************
 DD1Dir will call FoFMem   1 times, MxPair=         6
 NAB=     3 NAA=     0 NBB=     0.
 A-vector RMS=  3.7158313D-08 Max=  2.6627792D-07 conv= 1.00D-05.
 RLE energy=       -0.2151244569
 DE(Corr)= -0.21512450     E(CORR)=     -25.086023405     Delta= 7.09D-08
 NORM(A)=   0.17324238D+01
 CI/CC converged in   22 iterations to DelEn= 7.09D-08 Conv= 1.00D-07 ErrA1= 3.72D-08 Conv= 1.00D-05
 Wavefunction amplitudes converged. E(Corr)=     -25.086023405    
 Dominant configurations:
 ***********************
 Spin Case        I    J    A    B          Value
    AA            3         4           -0.480632D+00
    AA            3        10            0.111983D+00
   ABAB           2    2    5    5      -0.123765D+00
   ABAB           2    2    6    6      -0.123765D+00
   ABAB           3    3    4    4      -0.112266D+01
   ABAB           3    3    4    7       0.103927D+00
   ABAB           3    3    4   11       0.114423D+00
   ABAB           3    3    7    4       0.103927D+00
   ABAB           3    3   11    4       0.114423D+00
 Largest amplitude= 1.12D+00
 Discarding MO integrals.
 Leave Link  913 at Sun May 22 15:53:12 2022, MaxMem=   104857600 cpu:               4.2 elap:               4.2
 (Enter /apps/software/g16/l601.exe)
 Copying SCF densities to generalized density rwf, IOpCl= 0 IROHF=0.

 **********************************************************************

            Population analysis using the SCF density.

 **********************************************************************

 Orbital symmetries:
       Occupied  (SG) (SG) (SG)
       Virtual   (SG) (PI) (PI) (SG) (PI) (PI) (SG) (SG) (DLTA)
                 (DLTA) (PI) (PI) (SG) (SG) (PI) (PI) (PI) (PI)
                 (SG) (SG) (PHI) (PHI) (DLTA) (DLTA) (PI) (PI)
                 (SG) (DLTA) (DLTA) (PI) (PI) (SG) (SG) (DLTA)
                 (DLTA) (PI) (PI) (SG) (PI) (PI) (SG) (PI) (PI)
                 (SG) (SG) (?A) (?A) (DLTA) (DLTA) (PHI) (PHI)
                 (DLTA) (DLTA) (PI) (PI) (PI) (PI) (SG) (SG) (PHI)
                 (PHI) (DLTA) (DLTA) (PI) (PI) (SG) (PHI) (PHI)
                 (DLTA) (DLTA) (PI) (PI) (SG) (SG) (DLTA) (DLTA)
                 (PI) (PI) (SG) (PI) (PI) (SG) (PI) (PI) (SG) (?A)
                 (?A) (DLTA) (DLTA) (PHI) (PHI) (DLTA) (DLTA) (PI)
                 (PI) (PI) (PI) (SG) (SG) (PHI) (PHI) (DLTA) (DLTA)
                 (PI) (PI) (SG) (PHI) (PHI) (DLTA) (DLTA) (PI)
                 (PI) (SG) (SG) (PI) (PI) (SG) (DLTA) (DLTA) (PI)
                 (PI) (SG) (SG)
 The electronic state is 1-SG.
 Alpha  occ. eigenvalues --   -7.89671  -0.63040  -0.21519
 Alpha virt. eigenvalues --   -0.09958  -0.05562  -0.05562   0.01913   0.03820
 Alpha virt. eigenvalues --    0.03820   0.05396   0.10352   0.11213   0.11213
 Alpha virt. eigenvalues --    0.11922   0.11922   0.13882   0.22797   0.23815
 Alpha virt. eigenvalues --    0.23815   0.24267   0.24267   0.28385   0.29994
 Alpha virt. eigenvalues --    0.40759   0.40759   0.41470   0.41470   0.42268
 Alpha virt. eigenvalues --    0.42268   0.42473   0.42487   0.42487   0.43428
 Alpha virt. eigenvalues --    0.43428   0.45566   0.51337   0.69465   0.69465
 Alpha virt. eigenvalues --    0.70321   0.70321   0.72226   0.86357   0.86357
 Alpha virt. eigenvalues --    0.90333   0.93259   0.93259   0.97671   1.27857
 Alpha virt. eigenvalues --    1.28605   1.28605   1.29318   1.29318   1.29420
 Alpha virt. eigenvalues --    1.29420   1.30033   1.30033   1.30443   1.30443
 Alpha virt. eigenvalues --    1.30563   1.30563   1.30774   1.32273   1.33912
 Alpha virt. eigenvalues --    1.33912   1.34911   1.34911   1.35798   1.35798
 Alpha virt. eigenvalues --    1.38863   1.65275   1.65275   1.65291   1.65291
 Alpha virt. eigenvalues --    1.65485   1.65485   1.65949   1.73582   2.56158
 Alpha virt. eigenvalues --    2.56158   2.56625   2.56625   2.57938   2.67991
 Alpha virt. eigenvalues --    2.67991   2.72912   3.57271   3.57271   3.59483
 Alpha virt. eigenvalues --    3.79234   3.79234   3.80111   3.80111   3.80270
 Alpha virt. eigenvalues --    3.80270   3.81021   3.81021   3.81445   3.81445
 Alpha virt. eigenvalues --    3.81505   3.81505   3.81727   3.82843   3.94281
 Alpha virt. eigenvalues --    3.94281   3.95427   3.95427   3.96272   3.96272
 Alpha virt. eigenvalues --    3.98023   6.66086   6.66086   6.66107   6.66107
 Alpha virt. eigenvalues --    6.66165   6.66165   6.66287   7.51850   8.04480
 Alpha virt. eigenvalues --    8.04480   8.07987   8.49705   8.49705   8.49992
 Alpha virt. eigenvalues --    8.49992   8.51233  12.85682
          Condensed to atoms (all electrons):
               1          2
     1  B    4.528710   0.061013
     2  H    0.061013   1.349265
 Mulliken charges:
               1
     1  B    0.410277
     2  H   -0.410277
 Sum of Mulliken charges =  -0.00000
 Mulliken charges with hydrogens summed into heavy atoms:
               1
     1  B   -0.000000
 Electronic spatial extent (au):  <R**2>=            127.3121
 Charge=             -0.0000 electrons
 Dipole moment (field-independent basis, Debye):
    X=              0.0000    Y=              0.0000    Z=             10.5996  Tot=             10.5996
 Quadrupole moment (field-independent basis, Debye-Ang):
   XX=             -9.3170   YY=             -9.3170   ZZ=            -44.3730
   XY=              0.0000   XZ=              0.0000   YZ=              0.0000
 Traceless Quadrupole moment (field-independent basis, Debye-Ang):
   XX=             11.6853   YY=             11.6853   ZZ=            -23.3707
   XY=              0.0000   XZ=              0.0000   YZ=              0.0000
 Octapole moment (field-independent basis, Debye-Ang**2):
  XXX=              0.0000  YYY=              0.0000  ZZZ=            172.4384  XYY=              0.0000
  XXY=              0.0000  XXZ=             12.6436  XZZ=              0.0000  YZZ=              0.0000
  YYZ=             12.6436  XYZ=              0.0000
 Hexadecapole moment (field-independent basis, Debye-Ang**3):
 XXXX=            -22.3934 YYYY=            -22.3934 ZZZZ=          -1048.4745 XXXY=              0.0000
 XXXZ=              0.0000 YYYX=              0.0000 YYYZ=              0.0000 ZZZX=              0.0000
 ZZZY=              0.0000 XXYY=             -7.4645 XXZZ=            -81.9070 YYZZ=            -81.9070
 XXYZ=              0.0000 YYXZ=              0.0000 ZZXY=              0.0000
 N-N= 5.088242412692D-01 E-N=-5.804938786359D+01  KE= 2.477455541865D+01
 Symmetry A1   KE= 2.477455541865D+01
 Symmetry A2   KE= 4.260351675983D-53
 Symmetry B1   KE= 0.000000000000D+00
 Symmetry B2   KE= 0.000000000000D+00
 Leave Link  601 at Sun May 22 15:53:12 2022, MaxMem=   104857600 cpu:               0.1 elap:               0.1
 (Enter /apps/software/g16/l9999.exe)
 1\1\GINC-CNODE07\SP\RCCSD-FC\Aug-CC-pVQZ\B1H1\LCZ\22-May-2022\0\\#p RH
 F/aug-cc-pVQZ guess=read CCSD=FC\\BH RHF at 5.2 Angstrom\\0,1\B,0,0.,0
 .,0.\H,0,5.2,0.,0.\\Version=ES64L-G16RevA.03\State=1-SG\HF=-24.8708989
 \MP2=-25.0203142\MP3=-25.0529493\MP4D=-25.0863148\MP4DQ=-25.0430356\MP
 4SDQ=-25.1525735\CCSD=-25.0860234\RMSD=1.757e-10\PG=C*V [C*(H1B1)]\\@


 THERE ARE PEOPLE SO ADDICTED TO EXAGERATING THEY
 CAN'T TELL THE TRUTH WITHOUT LYING. -- FORTUNE COOKIE
 Job cpu time:       0 days  0 hours  0 minutes 12.7 seconds.
 Elapsed time:       0 days  0 hours  0 minutes 12.7 seconds.
 File lengths (MBytes):  RWF=    104 Int=      0 D2E=      0 Chk=     67 Scr=      1
 Normal termination of Gaussian 16 at Sun May 22 15:53:12 2022.

Sender: Unischeduler System <lcz@mgt01>
Subject: Job 134065: <#!/bin/bash
#BSUB -J intel
#BSUB -o BH-5.2-CCSD-G.out
#BSUB -n 8
#BSUB -q cqueue
#BSUB -R span[hosts=1]
export g16root=/apps/software
source /apps/software/g16/bsd/g16.profile
export GAUSS_SCRDIR=/scratch
/apps/software/g16/g16 < BH-5.2-CCSD-G.inp > BH-5.2-CCSD-G.out> Done

Job <#!/bin/bash
#BSUB -J intel
#BSUB -o BH-5.2-CCSD-G.out
#BSUB -n 8
#BSUB -q cqueue
#BSUB -R span[hosts=1]
export g16root=/apps/software
source /apps/software/g16/bsd/g16.profile
export GAUSS_SCRDIR=/scratch
/apps/software/g16/g16 < BH-5.2-CCSD-G.inp > BH-5.2-CCSD-G.out> was submitted from host <mgt01> by user <lcz>.
Job was executed on host(s) <8*cnode07>, in queue <cqueue>, as user <lcz>.
</apps/users/lcz> was used as the home directory.
</apps/users/lcz/exe13/CCSD> was used as the working directory.
Started at 2022-05-22 15:52:59
Results reported at 2022-05-22 15:53:12

Your job looked like:

------------------------------------------------------------
# User input
#!/bin/bash
#BSUB -J intel
#BSUB -o BH-5.2-CCSD-G.out
#BSUB -n 8
#BSUB -q cqueue
#BSUB -R span[hosts=1]
export g16root=/apps/software
source /apps/software/g16/bsd/g16.profile
export GAUSS_SCRDIR=/scratch
/apps/software/g16/g16 < BH-5.2-CCSD-G.inp > BH-5.2-CCSD-G.out
------------------------------------------------------------

Successfully completed.

Resource usage summary:

    CPU time   :            2.77 sec.
    Max Memory :               478 MB
    Max Processes  :               5


The output (if any) follows:

