
                                        *****************
                                        * O   R   C   A *
                                        *****************

                                            #,                                       
                                            ###                                      
                                            ####                                     
                                            #####                                    
                                            ######                                   
                                           ########,                                 
                                     ,,################,,,,,                         
                               ,,#################################,,                 
                          ,,##########################################,,             
                       ,#########################################, ''#####,          
                    ,#############################################,,   '####,        
                  ,##################################################,,,,####,       
                ,###########''''           ''''###############################       
              ,#####''   ,,,,##########,,,,          '''####'''          '####       
            ,##' ,,,,###########################,,,                        '##       
           ' ,,###''''                  '''############,,,                           
         ,,##''                                '''############,,,,        ,,,,,,###''
      ,#''                                            '''#######################'''  
     '                                                          ''''####''''         
             ,#######,   #######,   ,#######,      ##                                
            ,#'     '#,  ##    ##  ,#'     '#,    #''#        ######   ,####,        
            ##       ##  ##   ,#'  ##            #'  '#       #        #'  '#        
            ##       ##  #######   ##           ,######,      #####,   #    #        
            '#,     ,#'  ##    ##  '#,     ,#' ,#      #,         ##   #,  ,#        
             '#######'   ##     ##  '#######'  #'      '#     #####' # '####'        



                  #######################################################
                  #                        -***-                        #
                  #          Department of theory and spectroscopy      #
                  #    Directorship and core code : Frank Neese         #
                  #        Max Planck Institute fuer Kohlenforschung    #
                  #                Kaiser Wilhelm Platz 1               #
                  #                 D-45470 Muelheim/Ruhr               #
                  #                      Germany                        #
                  #                                                     #
                  #                  All rights reserved                #
                  #                        -***-                        #
                  #######################################################


                         Program Version 5.0.0 -  RELEASE  -
                                (SVN: $Rev: 19529$)
                ($Date: 2021-06-28 11:36:33 +0200 (Mo, 28 Jun 2021) $)


 With contributions from (in alphabetic order):
   Daniel Aravena         : Magnetic Suceptibility
   Michael Atanasov       : Ab Initio Ligand Field Theory (pilot matlab implementation)
   Alexander A. Auer      : GIAO ZORA, VPT2 properties, NMR spectrum
   Ute Becker             : Parallelization
   Giovanni Bistoni       : ED, misc. LED, open-shell LED, HFLD
   Martin Brehm           : Molecular dynamics
   Dmytro Bykov           : SCF Hessian
   Vijay G. Chilkuri      : MRCI spin determinant printing, contributions to CSF-ICE
   Dipayan Datta          : RHF DLPNO-CCSD density
   Achintya Kumar Dutta   : EOM-CC, STEOM-CC
   Dmitry Ganyushin       : Spin-Orbit,Spin-Spin,Magnetic field MRCI
   Miquel Garcia          : C-PCM Hessian, Gaussian charge scheme
   Yang Guo               : DLPNO-NEVPT2, F12-NEVPT2, CIM, IAO-localization
   Andreas Hansen         : Spin unrestricted coupled pair/coupled cluster methods
   Benjamin Helmich-Paris : MC-RPA, TRAH-SCF, COSX integrals
   Lee Huntington         : MR-EOM, pCC
   Robert Izsak           : Overlap fitted RIJCOSX, COSX-SCS-MP3, EOM
   Marcus Kettner         : VPT2
   Christian Kollmar      : KDIIS, OOCD, Brueckner-CCSD(T), CCSD density, CASPT2, CASPT2-K
   Simone Kossmann        : Meta GGA functionals, TD-DFT gradient, OOMP2, MP2 Hessian
   Martin Krupicka        : Initial AUTO-CI
   Lucas Lang             : DCDCAS
   Marvin Lechner         : AUTO-CI (C++ implementation), FIC-MRCC
   Dagmar Lenk            : GEPOL surface, SMD
   Dimitrios Liakos       : Extrapolation schemes; Compound Job, initial MDCI parallelization
   Dimitrios Manganas     : Further ROCIS development; embedding schemes
   Dimitrios Pantazis     : SARC Basis sets
   Anastasios Papadopoulos: AUTO-CI, single reference methods and gradients
   Taras Petrenko         : DFT Hessian,TD-DFT gradient, ASA, ECA, R-Raman, ABS, FL, XAS/XES, NRVS
   Peter Pinski           : DLPNO-MP2, DLPNO-MP2 Gradient
   Christoph Reimann      : Effective Core Potentials
   Marius Retegan         : Local ZFS, SOC
   Christoph Riplinger    : Optimizer, TS searches, QM/MM, DLPNO-CCSD(T), (RO)-DLPNO pert. Triples
   Tobias Risthaus        : Range-separated hybrids, TD-DFT gradient, RPA, STAB
   Michael Roemelt        : Original ROCIS implementation
   Masaaki Saitow         : Open-shell DLPNO-CCSD energy and density
   Barbara Sandhoefer     : DKH picture change effects
   Avijit Sen             : IP-ROCIS
   Kantharuban Sivalingam : CASSCF convergence, NEVPT2, FIC-MRCI
   Bernardo de Souza      : ESD, SOC TD-DFT
   Georgi Stoychev        : AutoAux, RI-MP2 NMR
   Willem Van den Heuvel  : Paramagnetic NMR
   Boris Wezisla          : Elementary symmetry handling
   Frank Wennmohs         : Technical directorship


 We gratefully acknowledge several colleagues who have allowed us to
 interface, adapt or use parts of their codes:
   Stefan Grimme, W. Hujo, H. Kruse, P. Pracht,  : VdW corrections, initial TS optimization,
                  C. Bannwarth, S. Ehlert          DFT functionals, gCP, sTDA/sTD-DF
   Ed Valeev, F. Pavosevic, A. Kumar             : LibInt (2-el integral package), F12 methods
   Garnet Chan, S. Sharma, J. Yang, R. Olivares  : DMRG
   Ulf Ekstrom                                   : XCFun DFT Library
   Mihaly Kallay                                 : mrcc  (arbitrary order and MRCC methods)
   Jiri Pittner, Ondrej Demel                    : Mk-CCSD
   Frank Weinhold                                : gennbo (NPA and NBO analysis)
   Christopher J. Cramer and Donald G. Truhlar   : smd solvation model
   Lars Goerigk                                  : TD-DFT with DH, B97 family of functionals
   V. Asgeirsson, H. Jonsson                     : NEB implementation
   FAccTs GmbH                                   : IRC, NEB, NEB-TS, DLPNO-Multilevel, CI-OPT
                                                   MM, QMMM, 2- and 3-layer-ONIOM, Crystal-QMMM,
                                                   LR-CPCM, SF, NACMEs, symmetry and pop. for TD-DFT,
                                                   nearIR, NL-DFT gradient (VV10), updates on ESD,
                                                   ML-optimized integration grids
   S Lehtola, MJT Oliveira, MAL Marques          : LibXC Library
   Liviu Ungur et al                             : ANISO software


 Your calculation uses the libint2 library for the computation of 2-el integrals
 For citations please refer to: http://libint.valeyev.net

 Your ORCA version has been built with support for libXC version: 5.1.0
 For citations please refer to: https://tddft.org/programs/libxc/

 This ORCA versions uses:
   CBLAS   interface :  Fast vector & matrix operations
   LAPACKE interface :  Fast linear algebra routines
   SCALAPACK package :  Parallel linear algebra routines
   Shared memory     :  Shared parallel matrices
   BLAS/LAPACK       :  OpenBLAS 0.3.15  USE64BITINT DYNAMIC_ARCH NO_AFFINITY SkylakeX SINGLE_THREADED
        Core in use  :  SkylakeX
   Copyright (c) 2011-2014, The OpenBLAS Project


================================================================================

----- Orbital basis set information -----
Your calculation utilizes the basis: aug-cc-pVQZ 
    H, B-Ne : Obtained from the ccRepo (grant-hill.group.shef.ac.uk/ccrepo) Feb. 2017
              R. A. Kendall, T. H. Dunning, Jr., R. J. Harrison, J. Chem. Phys. 96, 6796 (1992)
         He : Obtained from the ccRepo (grant-hill.group.shef.ac.uk/ccrepo) Feb. 2017
              D. E. Woon, T. H. Dunning, Jr., J. Chem. Phys. 100, 2975 (1994)
  Li-Be, Na : Obtained from the ccRepo (grant-hill.group.shef.ac.uk/ccrepo) Feb. 2017
              B. P. Prascher, D. E. Woon, K. A. Peterson, T. H. Dunning, Jr., A. K. Wilson, Theor. Chem. Acc. 128, 69 (2011)
         Mg : Obtained from the Peterson Research Group Website (tyr0.chem.wsu.edu/~kipeters) Feb. 2017
              B. P. Prascher, D. E. Woon, K. A. Peterson, T. H. Dunning, Jr., A. K. Wilson, Theor. Chem. Acc. 128, 69 (2011)
      Al-Ar : Obtained from the ccRepo (grant-hill.group.shef.ac.uk/ccrepo) Feb. 2017
              D. E. Woon, T. H. Dunning, Jr., J. Chem. Phys. 98, 1358 (1993)
      Sc-Zn : Obtained from the ccRepo (grant-hill.group.shef.ac.uk/ccrepo) Feb. 2017
              N. B. Balabanov, K. A. Peterson, J. Chem. Phys. 123, 064107 (2005)
              N. B. Balabanov, K. A. Peterson, J. Chem. Phys. 125, 074110 (2006)
      Ga-Kr : Obtained from the ccRepo (grant-hill.group.shef.ac.uk/ccrepo) Feb. 2017
              A. K. Wilson, D. E. Woon, K. A. Peterson, T. H. Dunning, Jr., J. Chem. Phys. 110, 7667 (1999)

================================================================================
                                        WARNINGS
                       Please study these warnings very carefully!
================================================================================


WARNING: Post HF methods need fully converged wavefunctions
  ===> : Setting SCFConvForced true
         You can overwrite this default with %scf ConvForced false 


WARNING: MDCI localization with Augmented Hessian Foster-Boys
  ===> : Switching off randomization!

INFO   : the flag for use of the SHARK integral package has been found!

================================================================================
                                       INPUT FILE
================================================================================
NAME = /scratch/BH-5.0-CCSD-O_305/BH-5.0-CCSD-O.inp
|  1> ! RHF CCSD aug-cc-pVQZ VeryTightSCF
|  2> 
|  3> *xyz 0 1
|  4>  B	0.0	0.0	0.0
|  5>  H	5.0	0.0	0.0
|  6> **                         ****END OF INPUT****
================================================================================

                       ****************************
                       * Single Point Calculation *
                       ****************************

---------------------------------
CARTESIAN COORDINATES (ANGSTROEM)
---------------------------------
  B      0.000000    0.000000    0.000000
  H      5.000000    0.000000    0.000000

----------------------------
CARTESIAN COORDINATES (A.U.)
----------------------------
  NO LB      ZA    FRAG     MASS         X           Y           Z
   0 B     5.0000    0    10.810    0.000000    0.000000    0.000000
   1 H     1.0000    0     1.008    9.448631    0.000000    0.000000

--------------------------------
INTERNAL COORDINATES (ANGSTROEM)
--------------------------------
 B      0   0   0     0.000000000000     0.00000000     0.00000000
 H      1   0   0     5.000000000000     0.00000000     0.00000000

---------------------------
INTERNAL COORDINATES (A.U.)
---------------------------
 B      0   0   0     0.000000000000     0.00000000     0.00000000
 H      1   0   0     9.448630669606     0.00000000     0.00000000

---------------------
BASIS SET INFORMATION
---------------------
There are 2 groups of distinct atoms

 Group   1 Type B   : 22s7p4d3f2g contracted to 6s5p4d3f2g pattern {991111/31111/1111/111/11}
 Group   2 Type H   : 7s4p3d2f contracted to 5s4p3d2f pattern {31111/1111/111/11}

Atom   0B    basis set group =>   1
Atom   1H    basis set group =>   2
------------------------------------------------------------------------------
                           ORCA GTO INTEGRAL CALCULATION
------------------------------------------------------------------------------
------------------------------------------------------------------------------
                   ___                                                        
                  /   \      - P O W E R E D   B Y -                         
                 /     \                                                     
                 |  |  |   _    _      __       _____    __    __             
                 |  |  |  | |  | |    /  \     |  _  \  |  |  /  |          
                  \  \/   | |  | |   /    \    | | | |  |  | /  /          
                 / \  \   | |__| |  /  /\  \   | |_| |  |  |/  /          
                |  |  |   |  __  | /  /__\  \  |    /   |      \           
                |  |  |   | |  | | |   __   |  |    \   |  |\   \          
                \     /   | |  | | |  |  |  |  | |\  \  |  | \   \       
                 \___/    |_|  |_| |__|  |__|  |_| \__\ |__|  \__/        
                                                                              
                      - O R C A' S   B I G   F R I E N D -                    
                                      &                                       
                       - I N T E G R A L  F E E D E R -                       
                                                                              
 v1 FN, 2020, v2 2021                                                         
------------------------------------------------------------------------------


Reading SHARK input file /scratch/BH-5.0-CCSD-O_305/BH-5.0-CCSD-O.SHARKINP.tmp ... ok
----------------------
SHARK INTEGRAL PACKAGE
----------------------

Number of atoms                             ...      2
Number of basis functions                   ...    126
Number of shells                            ...     34
Maximum angular momentum                    ...      4
Integral batch strategy                     ... SHARK/LIBINT Hybrid
RI-J (if used) integral strategy            ... SPLIT-RIJ (Revised 2003 algorithm where possible)
Printlevel                                  ...      1
Contraction scheme used                     ... SEGMENTED contraction
Coulomb Range Separation                    ... NOT USED
Exchange Range Separation                   ... NOT USED
Finite Nucleus Model                        ... NOT USED
Auxiliary Coulomb fitting basis             ... NOT available
Auxiliary J/K fitting basis                 ... NOT available
Auxiliary Correlation fitting basis         ... NOT available
Auxiliary 'external' fitting basis          ... NOT available
Integral threshold                          ...     1.000000e-12
Primitive cut-off                           ...     1.000000e-14
Primitive pair pre-selection threshold      ...     1.000000e-14

Calculating pre-screening integrals         ... done (  0.1 sec) Dimension = 34
Organizing shell pair data                  ... done (  0.0 sec)
Shell pair information
Total number of shell pairs                 ...       595
Shell pairs after pre-screening             ...       556
Total number of primitive shell pairs       ...      1563
Primitive shell pairs kept                  ...      1339
          la=0 lb=0:     61 shell pairs
          la=1 lb=0:     91 shell pairs
          la=1 lb=1:     42 shell pairs
          la=2 lb=0:     71 shell pairs
          la=2 lb=1:     59 shell pairs
          la=2 lb=2:     27 shell pairs
          la=3 lb=0:     51 shell pairs
          la=3 lb=1:     43 shell pairs
          la=3 lb=2:     33 shell pairs
          la=3 lb=3:     14 shell pairs
          la=4 lb=0:     21 shell pairs
          la=4 lb=1:     17 shell pairs
          la=4 lb=2:     13 shell pairs
          la=4 lb=3:     10 shell pairs
          la=4 lb=4:      3 shell pairs

Calculating one electron integrals          ... done (  0.0 sec)
Calculating Nuclear repulsion               ... done (  0.0 sec) ENN=      0.529177208300 Eh

SHARK setup successfully completed in   0.1 seconds

Maximum memory used throughout the entire GTOINT-calculation: 31.0 MB
-------------------------------------------------------------------------------
                                 ORCA SCF
-------------------------------------------------------------------------------

------------
SCF SETTINGS
------------
Hamiltonian:
 Ab initio Hamiltonian  Method          .... Hartree-Fock(GTOs)


General Settings:
 Integral files         IntName         .... /scratch/BH-5.0-CCSD-O_305/BH-5.0-CCSD-O
 Hartree-Fock type      HFTyp           .... RHF
 Total Charge           Charge          ....    0
 Multiplicity           Mult            ....    1
 Number of Electrons    NEL             ....    6
 Basis Dimension        Dim             ....  126
 Nuclear Repulsion      ENuc            ....      0.5291772083 Eh

Convergence Acceleration:
 DIIS                   CNVDIIS         .... on
   Start iteration      DIISMaxIt       ....    12
   Startup error        DIISStart       ....  0.200000
   # of expansion vecs  DIISMaxEq       ....     5
   Bias factor          DIISBfac        ....   1.050
   Max. coefficient     DIISMaxC        ....  10.000
 Trust-Rad. Augm. Hess. CNVTRAH         .... auto
   Auto Start mean grad. ratio tolernc. ....  1.125000
   Auto Start start iteration           ....    20
   Auto Start num. interpolation iter.  ....    10
   Max. Number of Micro iterations      ....    16
   Max. Number of Macro iterations      .... Maxiter - #DIIS iter
   Number of Davidson start vectors     ....     2
   Converg. threshold I  (grad. norm)   ....   2.000e-06
   Converg. threshold II (energy diff.) ....   1.000e-09
   Grad. Scal. Fac. for Micro threshold ....   0.100
   Minimum threshold for Micro iter.    ....   0.010
   NR start threshold (gradient norm)   ....   0.001
   Initial trust radius                 ....   0.400
   Minimum AH scaling param. (alpha)    ....   1.000
   Maximum AH scaling param. (alpha)    .... 1000.000
   Orbital update algorithm             .... Taylor
   White noise on init. David. guess    .... on
   Maximum white noise                  ....   0.010
   Quad. conv. algorithm                .... NR
 SOSCF                  CNVSOSCF        .... on
   Start iteration      SOSCFMaxIt      ....   150
   Startup grad/error   SOSCFStart      ....  0.003300
 Level Shifting         CNVShift        .... on
   Level shift para.    LevelShift      ....    0.2500
   Turn off err/grad.   ShiftErr        ....    0.0010
 Zerner damping         CNVZerner       .... off
 Static damping         CNVDamp         .... on
   Fraction old density DampFac         ....    0.7000
   Max. Damping (<1)    DampMax         ....    0.9800
   Min. Damping (>=0)   DampMin         ....    0.0000
   Turn off err/grad.   DampErr         ....    0.1000
 Fernandez-Rico         CNVRico         .... off

SCF Procedure:
 Maximum # iterations   MaxIter         ....   125
 SCF integral mode      SCFMode         .... Direct
   Integral package                     .... SHARK and LIBINT hybrid scheme
 Reset frequency        DirectResetFreq ....    20
 Integral Threshold     Thresh          ....  1.000e-12 Eh
 Primitive CutOff       TCut            ....  1.000e-14 Eh

Convergence Tolerance:
 Convergence Check Mode ConvCheckMode   .... Total+1el-Energy
 Convergence forced     ConvForced      .... 1
 Energy Change          TolE            ....  1.000e-09 Eh
 1-El. energy change                    ....  1.000e-06 Eh
 Orbital Gradient       TolG            ....  2.000e-06
 Orbital Rotation angle TolX            ....  2.000e-06
 DIIS Error             TolErr          ....  1.000e-08


Diagonalization of the overlap matrix:
Smallest eigenvalue                        ... 4.885e-03
Time for diagonalization                   ...    0.001 sec
Threshold for overlap eigenvalues          ... 1.000e-08
Number of eigenvalues below threshold      ... 0
Time for construction of square roots      ...    0.000 sec
Total time needed                          ...    0.002 sec

Time for model grid setup =    0.012 sec

------------------------------
INITIAL GUESS: MODEL POTENTIAL
------------------------------
Loading Hartree-Fock densities                     ... done
Calculating cut-offs                               ... done
Initializing the effective Hamiltonian             ... done
Setting up the integral package (SHARK)            ... done
Starting the Coulomb interaction                   ... done (   0.0 sec)
Reading the grid                                   ... done
Mapping shells                                     ... done
Starting the XC term evaluation                    ... done (   0.0 sec)
Transforming the Hamiltonian                       ... done (   0.0 sec)
Diagonalizing the Hamiltonian                      ... done (   0.0 sec)
Back transforming the eigenvectors                 ... done (   0.0 sec)
Now organizing SCF variables                       ... done
                      ------------------
                      INITIAL GUESS DONE (   0.0 sec)
                      ------------------
--------------
SCF ITERATIONS
--------------
ITER       Energy         Delta-E        Max-DP      RMS-DP      [F,P]     Damp
               ***  Starting incremental Fock matrix formation  ***
  0    -24.7564428043   0.000000000000 0.04927175  0.00094006  0.2068486 0.7000
  1    -24.7758306095  -0.019387805216 0.04557733  0.00091920  0.1631859 0.7000
                               ***Turning on DIIS***
  2    -24.7975564063  -0.021725796827 0.04021824  0.00086941  0.1168449 0.7000
  3    -24.7559992272   0.041557179144 0.10193065  0.00241645  0.0738430 0.0000
  4    -24.9209215525  -0.164922325353 0.02332378  0.00040624  0.0245932 0.0000
  5    -24.8951420493   0.025779503249 0.01393824  0.00032214  0.0135479 0.0000
  6    -24.8802115402   0.014930509143 0.00956421  0.00016403  0.0053486 0.0000
                      *** Initiating the SOSCF procedure ***
                           *** Shutting down DIIS ***
                      *** Re-Reading the Fockian *** 
                      *** Removing any level shift *** 
ITER      Energy       Delta-E        Grad      Rot      Max-DP    RMS-DP
  7    -24.87506297   0.0051485750  0.001699  0.001699  0.003983  0.000075
               *** Restarting incremental Fock matrix formation ***
  8    -24.87485573   0.0002072386  0.000784  0.002442  0.003600  0.000067
  9    -24.87486445  -0.0000087252  0.000365  0.002346  0.003296  0.000060
 10    -24.87486524  -0.0000007849  0.000322  0.001091  0.001039  0.000017
 11    -24.87486630  -0.0000010678  0.000025  0.000112  0.000132  0.000003
 12    -24.87486631  -0.0000000088  0.000004  0.000013  0.000016  0.000000
 13    -24.87486631  -0.0000000004  0.000001  0.000008  0.000007  0.000000
                 **** Energy Check signals convergence ****
              ***Rediagonalizing the Fockian in SOSCF/NRSCF***

               *****************************************************
               *                     SUCCESS                       *
               *           SCF CONVERGED AFTER  14 CYCLES          *
               *****************************************************


----------------
TOTAL SCF ENERGY
----------------

Total Energy       :          -24.87486631 Eh            -676.87952 eV

Components:
Nuclear Repulsion  :            0.52917721 Eh              14.39964 eV
Electronic Energy  :          -25.40404352 Eh            -691.27917 eV
One Electron Energy:          -33.32021639 Eh            -906.68918 eV
Two Electron Energy:            7.91617287 Eh             215.41002 eV

Virial components:
Potential Energy   :          -49.64614190 Eh           -1350.94020 eV
Kinetic Energy     :           24.77127558 Eh             674.06068 eV
Virial Ratio       :            2.00418189


---------------
SCF CONVERGENCE
---------------

  Last Energy change         ...   -5.9057e-11  Tolerance :   1.0000e-09
  Last MAX-Density change    ...    5.0896e-07  Tolerance :   1.0000e-08
  Last RMS-Density change    ...    1.2912e-08  Tolerance :   1.0000e-09
  Last Orbital Gradient      ...    1.0878e-07  Tolerance :   2.0000e-06
  Last Orbital Rotation      ...    6.9810e-07  Tolerance :   2.0000e-06

             **** THE GBW FILE WAS UPDATED (/scratch/BH-5.0-CCSD-O_305/BH-5.0-CCSD-O.gbw) ****
             **** DENSITY /scratch/BH-5.0-CCSD-O_305/BH-5.0-CCSD-O.scfp WAS UPDATED ****
             **** ENERGY FILE WAS UPDATED (/scratch/BH-5.0-CCSD-O_305/BH-5.0-CCSD-O.en.tmp) ****
             **** THE GBW FILE WAS UPDATED (/scratch/BH-5.0-CCSD-O_305/BH-5.0-CCSD-O.gbw) ****
             **** DENSITY /scratch/BH-5.0-CCSD-O_305/BH-5.0-CCSD-O.scfp WAS UPDATED ****
----------------
ORBITAL ENERGIES
----------------

  NO   OCC          E(Eh)            E(eV) 
   0   2.0000      -7.896420      -214.8725 
   1   2.0000      -0.629434       -17.1278 
   2   2.0000      -0.218081        -5.9343 
   3   0.0000      -0.096090        -2.6148 
   4   0.0000      -0.054546        -1.4843 
   5   0.0000      -0.054546        -1.4843 
   6   0.0000       0.019705         0.5362 
   7   0.0000       0.038919         1.0590 
   8   0.0000       0.038919         1.0590 
   9   0.0000       0.055475         1.5095 
  10   0.0000       0.102661         2.7935 
  11   0.0000       0.113278         3.0825 
  12   0.0000       0.113278         3.0825 
  13   0.0000       0.120679         3.2838 
  14   0.0000       0.120679         3.2838 
  15   0.0000       0.142360         3.8738 
  16   0.0000       0.228166         6.2087 
  17   0.0000       0.239631         6.5207 
  18   0.0000       0.239631         6.5207 
  19   0.0000       0.243113         6.6154 
  20   0.0000       0.243113         6.6154 
  21   0.0000       0.285402         7.7662 
  22   0.0000       0.306847         8.3497 
  23   0.0000       0.408879        11.1262 
  24   0.0000       0.408879        11.1262 
  25   0.0000       0.416146        11.3239 
  26   0.0000       0.416146        11.3239 
  27   0.0000       0.425310        11.5733 
  28   0.0000       0.425310        11.5733 
  29   0.0000       0.425394        11.5756 
  30   0.0000       0.426207        11.5977 
  31   0.0000       0.426207        11.5977 
  32   0.0000       0.436364        11.8741 
  33   0.0000       0.436364        11.8741 
  34   0.0000       0.458559        12.4780 
  35   0.0000       0.521770        14.1981 
  36   0.0000       0.694172        18.8894 
  37   0.0000       0.694172        18.8894 
  38   0.0000       0.706241        19.2178 
  39   0.0000       0.706241        19.2178 
  40   0.0000       0.729527        19.8514 
  41   0.0000       0.864904        23.5352 
  42   0.0000       0.864904        23.5352 
  43   0.0000       0.908505        24.7217 
  44   0.0000       0.933676        25.4066 
  45   0.0000       0.933676        25.4066 
  46   0.0000       0.987284        26.8654 
  47   0.0000       1.280233        34.8369 
  48   0.0000       1.287281        35.0287 
  49   0.0000       1.287281        35.0287 
  50   0.0000       1.294174        35.2163 
  51   0.0000       1.294174        35.2163 
  52   0.0000       1.295595        35.2549 
  53   0.0000       1.295595        35.2549 
  54   0.0000       1.301890        35.4262 
  55   0.0000       1.301890        35.4262 
  56   0.0000       1.306238        35.5445 
  57   0.0000       1.306238        35.5445 
  58   0.0000       1.307273        35.5727 
  59   0.0000       1.307273        35.5727 
  60   0.0000       1.311477        35.6871 
  61   0.0000       1.323461        36.0132 
  62   0.0000       1.340262        36.4704 
  63   0.0000       1.340262        36.4704 
  64   0.0000       1.350409        36.7465 
  65   0.0000       1.350409        36.7465 
  66   0.0000       1.360801        37.0293 
  67   0.0000       1.360801        37.0293 
  68   0.0000       1.398035        38.0425 
  69   0.0000       1.652134        44.9568 
  70   0.0000       1.652134        44.9568 
  71   0.0000       1.652425        44.9648 
  72   0.0000       1.652425        44.9648 
  73   0.0000       1.655635        45.0521 
  74   0.0000       1.655635        45.0521 
  75   0.0000       1.662545        45.2401 
  76   0.0000       1.742030        47.4030 
  77   0.0000       2.561098        69.6910 
  78   0.0000       2.561098        69.6910 
  79   0.0000       2.567702        69.8707 
  80   0.0000       2.567702        69.8707 
  81   0.0000       2.584936        70.3397 
  82   0.0000       2.680915        72.9514 
  83   0.0000       2.680915        72.9514 
  84   0.0000       2.736678        74.4688 
  85   0.0000       3.573359        97.2360 
  86   0.0000       3.573359        97.2360 
  87   0.0000       3.600112        97.9640 
  88   0.0000       3.793291       103.2207 
  89   0.0000       3.793291       103.2207 
  90   0.0000       3.801813       103.4526 
  91   0.0000       3.801813       103.4526 
  92   0.0000       3.803644       103.5024 
  93   0.0000       3.803644       103.5024 
  94   0.0000       3.811180       103.7075 
  95   0.0000       3.811180       103.7075 
  96   0.0000       3.815573       103.8270 
  97   0.0000       3.815573       103.8270 
  98   0.0000       3.815971       103.8379 
  99   0.0000       3.815971       103.8379 
 100   0.0000       3.819382       103.9307 
 101   0.0000       3.828618       104.1820 
 102   0.0000       3.943626       107.3115 
 103   0.0000       3.943626       107.3115 
 104   0.0000       3.955085       107.6233 
 105   0.0000       3.955085       107.6233 
 106   0.0000       3.964538       107.8806 
 107   0.0000       3.964538       107.8806 
 108   0.0000       3.987627       108.5089 
 109   0.0000       6.660286       181.2356 
 110   0.0000       6.660286       181.2356 
 111   0.0000       6.660558       181.2430 
 112   0.0000       6.660558       181.2430 
 113   0.0000       6.661438       181.2669 
 114   0.0000       6.661438       181.2669 
 115   0.0000       6.663359       181.3192 
 116   0.0000       7.522117       204.6872 
 117   0.0000       8.045390       218.9262 
 118   0.0000       8.045390       218.9262 
 119   0.0000       8.083754       219.9701 
 120   0.0000       8.496515       231.2019 
 121   0.0000       8.496515       231.2019 
 122   0.0000       8.500617       231.3135 
 123   0.0000       8.500617       231.3135 
 124   0.0000       8.517542       231.7741 
 125   0.0000      12.857383       349.8672 

                    ********************************
                    * MULLIKEN POPULATION ANALYSIS *
                    ********************************

-----------------------
MULLIKEN ATOMIC CHARGES
-----------------------
   0 B :    0.408756
   1 H :   -0.408756
Sum of atomic charges:   -0.0000000

--------------------------------
MULLIKEN REDUCED ORBITAL CHARGES
--------------------------------
  0 B s       :     4.006201  s :     4.006201
      pz      :     0.000000  p :     0.576219
      px      :     0.576219
      py      :     0.000000
      dz2     :     0.002150  d :     0.008599
      dxz     :     0.000000
      dyz     :     0.000000
      dx2y2   :     0.006449
      dxy     :     0.000000
      f0      :     0.000000  f :     0.000224
      f+1     :     0.000084
      f-1     :     0.000000
      f+2     :     0.000000
      f-2     :     0.000000
      f+3     :     0.000140
      f-3     :     0.000000
      g0      :     0.000000  g :     0.000002
      g+1     :     0.000000
      g-1     :     0.000000
      g+2     :     0.000000
      g-2     :     0.000000
      g+3     :     0.000000
      g-3     :     0.000000
      g+4     :     0.000001
      g-4     :     0.000000
  1 H s       :     1.404989  s :     1.404989
      pz      :    -0.000000  p :     0.003680
      px      :     0.003680
      py      :    -0.000000
      dz2     :     0.000022  d :     0.000086
      dxz     :    -0.000000
      dyz     :     0.000000
      dx2y2   :     0.000065
      dxy     :    -0.000000
      f0      :     0.000000  f :     0.000001
      f+1     :     0.000000
      f-1     :     0.000000
      f+2     :    -0.000000
      f-2     :     0.000000
      f+3     :     0.000000
      f-3     :    -0.000000


                     *******************************
                     * LOEWDIN POPULATION ANALYSIS *
                     *******************************

----------------------
LOEWDIN ATOMIC CHARGES
----------------------
   0 B :    0.376943
   1 H :   -0.376943

-------------------------------
LOEWDIN REDUCED ORBITAL CHARGES
-------------------------------
  0 B s       :     4.005245  s :     4.005245
      pz      :     0.000000  p :     0.600630
      px      :     0.600630
      py      :     0.000000
      dz2     :     0.004116  d :     0.016465
      dxz     :     0.000000
      dyz     :     0.000000
      dx2y2   :     0.012348
      dxy     :     0.000000
      f0      :     0.000000  f :     0.000711
      f+1     :     0.000267
      f-1     :     0.000000
      f+2     :     0.000000
      f-2     :     0.000000
      f+3     :     0.000444
      f-3     :     0.000000
      g0      :     0.000001  g :     0.000006
      g+1     :     0.000000
      g-1     :     0.000000
      g+2     :     0.000002
      g-2     :     0.000000
      g+3     :     0.000000
      g-3     :     0.000000
      g+4     :     0.000003
      g-4     :     0.000000
  1 H s       :     1.373981  s :     1.373981
      pz      :     0.000000  p :     0.002822
      px      :     0.002822
      py      :     0.000000
      dz2     :     0.000034  d :     0.000136
      dxz     :     0.000000
      dyz     :     0.000000
      dx2y2   :     0.000102
      dxy     :     0.000000
      f0      :     0.000000  f :     0.000004
      f+1     :     0.000002
      f-1     :     0.000000
      f+2     :     0.000000
      f-2     :     0.000000
      f+3     :     0.000003
      f-3     :     0.000000


                      *****************************
                      * MAYER POPULATION ANALYSIS *
                      *****************************

  NA   - Mulliken gross atomic population
  ZA   - Total nuclear charge
  QA   - Mulliken gross atomic charge
  VA   - Mayer's total valence
  BVA  - Mayer's bonded valence
  FA   - Mayer's free valence

  ATOM       NA         ZA         QA         VA         BVA        FA
  0 B      4.5912     5.0000     0.4088     0.8330     0.8330     0.0000
  1 H      1.4088     1.0000    -0.4088     0.8330     0.8330    -0.0000

  Mayer bond orders larger than 0.100000
B(  0-B ,  1-H ) :   0.8330 

-------
TIMINGS
-------

Total SCF time: 0 days 0 hours 0 min 9 sec 

Total time                  ....       9.794 sec
Sum of individual times     ....       9.670 sec  ( 98.7%)

Fock matrix formation       ....       9.613 sec  ( 98.1%)
Diagonalization             ....       0.012 sec  (  0.1%)
Density matrix formation    ....       0.001 sec  (  0.0%)
Population analysis         ....       0.001 sec  (  0.0%)
Initial guess               ....       0.019 sec  (  0.2%)
Orbital Transformation      ....       0.000 sec  (  0.0%)
Orbital Orthonormalization  ....       0.000 sec  (  0.0%)
DIIS solution               ....       0.005 sec  (  0.0%)
SOSCF solution              ....       0.007 sec  (  0.1%)

Maximum memory used throughout the entire SCF-calculation: 255.0 MB


------------------------------------------------------------------------------- 
                              ORCA-MATRIX DRIVEN CI                            
------------------------------------------------------------------------------- 

--------------------------------
AUTOMATIC CHOICE OF INCORE LEVEL
--------------------------------

Memory available                           ...    256.00 MB
Memory needed for S+T                      ...      1.04 MB
Memory needed for J+K                      ...      2.08 MB
Memory needed for DIIS                     ...     14.54 MB
Memory needed for 3-ext                    ...     28.39 MB
Memory needed for 4-ext                    ...    880.23 MB
Memory needed for triples                  ...      0.00 MB
 -> Final InCoreLevel    ... 4

Wavefunction type
-----------------
Correlation treatment                      ...      CCSD     
Single excitations                         ... ON
Orbital optimization                       ... OFF
Calculation of Z vector                    ... OFF
Calculation of Brueckner orbitals          ... OFF
Perturbative triple excitations            ... OFF
Calculation of F12 correction              ... OFF
Frozen core treatment                      ... chemical core (2 el)
Reference Wavefunction                     ... RHF
  Internal Orbitals:     1 ...    2 (  2 MO's/  4 electrons)
  Virtual  Orbitals:     3 ...  125 (123 MO's              )
Number of AO's                             ...    126
Number of electrons                        ...      6
Number of correlated electrons             ...      4

Algorithmic settings
--------------------
Integral transformation                    ... AO direct full transformation
K(C) Formation                             ... FULL-MO TRAFO
Maximum number of iterations               ...        50
Convergence tolerance (max. residuum)      ... 1.000e-06
Level shift for amplitude update           ... 2.000e-01
Maximum number of DIIS vectors             ...         7
DIIS turned on at iteration                ...         0
Damping before turning on DIIS             ...     0.500
Damping after turning on DIIS              ...     0.000
Pair specific amplitude update             ... OFF
Natural orbital iterations                 ... OFF
Perturbative natural orbital generation    ... OFF
Printlevel                                 ... 2

Memory handling:
----------------
Maximum memory for working arrays          ...    256 MB
Data storage in matrix containers          ... UNCOMPRESSED
Data type for integral storage             ... DOUBLE
In-Core Storage of quantities:
   Amplitudes+Sigma Vector      ... YES
   J+K operators                ... YES
   DIIS vectors                 ... YES
   3-external integrals         ... YES
   4-external integrals         ... NO


Initializing the integral package          ... done
Warning: reference  - re-canonicalizations have been set to INT 1 VIRT 1

--------------------------
CLOSED-SHELL FOCK OPERATOR
--------------------------

Restoring SHARK [2] ... ok
Recanonicalizing the internal orbitals
Recanonicalizing the virtual orbitals
Time needed for Fock operator              ...            0.850 sec
Reference energy                           ...    -24.874866314

------------------------------
PARTIAL COULOMB TRANSFORMATION
------------------------------

Transformation type                        ... one-operator
Dimension of the basis                     ...  126
Number of internal MOs                     ...  125 (1-125)
Pair cutoff                                ... 0.000e+00 Eh
Number of AO pairs included in the trafo   ... 8001
Total Number of distinct AO pairs          ... 8001
Memory devoted for trafo                   ...  256.0 MB 
Max. Number of MO pairs treated together   ... 4193      
Max. Number of MOs treated per batch       ...   33      
Number Format for Storage                  ... Double (8 Byte)
AO-integral source                         ... DIRECT
Integral package used                      ... LIBINT

Starting integral evaluation:
<ss|**>:        33489 b        0 skpd     0.058 s (  0.002 ms/b)
<sp|**>:        49959 b        0 skpd     0.113 s (  0.002 ms/b)
<sd|**>:        37881 b        0 skpd     0.149 s (  0.004 ms/b)
<sf|**>:        27450 b        0 skpd     0.174 s (  0.006 ms/b)
<sg|**>:        11529 b        0 skpd     0.136 s (  0.012 ms/b)
<pp|**>:        23058 b        0 skpd     0.120 s (  0.005 ms/b)
<pd|**>:        31842 b        0 skpd     0.296 s (  0.009 ms/b)
<pf|**>:        23058 b        0 skpd     0.324 s (  0.014 ms/b)
<pg|**>:         9333 b        0 skpd     0.196 s (  0.021 ms/b)
<dd|**>:        14274 b        0 skpd     0.223 s (  0.016 ms/b)
<df|**>:        18117 b        0 skpd     0.462 s (  0.025 ms/b)
<dg|**>:         7137 b        0 skpd     0.256 s (  0.036 ms/b)
<ff|**>:         7686 b        0 skpd     0.299 s (  0.039 ms/b)
<fg|**>:         4941 b        0 skpd     0.288 s (  0.058 ms/b)
<gg|**>:         1647 b        0 skpd     0.135 s (  0.082 ms/b)
Closing buffer AOJ ( 0.44 GB; CompressionRatio= 1.00)
Collecting buffer AOJ 
    ... done with AO integral generation
Number of MO pairs included in the trafo   ... 7875
    ... Now sorting integrals
IBATCH = 1 of  2
IBATCH = 2 of  2
Closing buffer JAO ( 0.47 GB; CompressionRatio= 1.00)
Collecting buffer JAO 
TOTAL TIME for half transformation         ...     6.471 sec
AO-integral generation                     ...     1.721 sec
Half transformation                        ...     1.512 sec
J-integral sorting                         ...     3.197 sec

-------------------------- SECOND HALF TRANSFORMATION -------------------------
Formation of (pq|rs)                       ... ok (     1.695 sec)
Integral sorting                           ... ok (     2.118 sec)

------------------
CLOSED SHELL GUESS
------------------

Initial guess performed in     0.001 sec
E(0)                                       ...    -24.874866314
E(MP2)                                     ...     -0.142741380
Initial E(tot)                             ...    -25.017607693
<T|T>                                      ...      0.326928667
Number of pairs included                   ... 3
Total number of pairs                      ... 3

------------------------------------------------
                  RHF COUPLED CLUSTER ITERATIONS
------------------------------------------------

Number of amplitudes to be optimized       ... 45633

Iter       E(tot)           E(Corr)          Delta-E          Residual     Time
  0    -25.017607693     -0.142741380      0.000000000      0.069334392    0.60
                           *** Turning on DIIS ***
  1    -25.011096253     -0.136229939      0.006511440      0.091081514    1.47
  2    -25.032956856     -0.158090542     -0.021860603      0.056157296    1.46
  3    -25.055844134     -0.180977820     -0.022887278      0.041593689    1.51
  4    -25.076972538     -0.202106224     -0.021128404      0.019555399    1.53
  5    -25.083491515     -0.208625202     -0.006518977      0.004946009    1.44
  6    -25.085079203     -0.210212889     -0.001587688      0.002230892    1.48
  7    -25.086368668     -0.211502354     -0.001289465      0.000551301    1.47
  8    -25.086075113     -0.211208799      0.000293555      0.000190419    1.55
  9    -25.086115791     -0.211249477     -0.000040678      0.000078863    1.57
 10    -25.086125968     -0.211259654     -0.000010177      0.000022331    1.48
 11    -25.086123689     -0.211257375      0.000002279      0.000010327    1.51
 12    -25.086119630     -0.211253316      0.000004059      0.000002536    1.49
 13    -25.086119962     -0.211253649     -0.000000333      0.000001523    1.50
 14    -25.086119916     -0.211253603      0.000000046      0.000000873    1.50
               --- The Coupled-Cluster iterations have converged ---

----------------------
COUPLED CLUSTER ENERGY
----------------------

E(0)                                       ...    -24.874866314
E(CORR)                                    ...     -0.211253603
E(TOT)                                     ...    -25.086119916
Singles Norm <S|S>**1/2                    ...      0.524398784  
T1 diagnostic                              ...      0.262199392  

------------------
LARGEST AMPLITUDES
------------------
   2->  3   2->  3       1.105828
   2->  3  -1-> -1       0.477618
   1->  5   1->  5       0.123832
   1->  4   1->  4       0.123832
   2-> 10   2->  3       0.111118
   2->  3   2-> 10       0.111118
   2->  9  -1-> -1       0.108705
   2->  3   2->  6       0.108674
   2->  6   2->  3       0.108674
   2-> 16  -1-> -1       0.102278
   2-> 10  -1-> -1       0.087029
   2->  3   2-> 35       0.072463
   2-> 35   2->  3       0.072463
   2->  3   2-> 29       0.068526
   2-> 29   2->  3       0.068526
   2-> 35  -1-> -1       0.061826


        !!!!!!!!!!!!!!!!!!!!!!!!!!!!!!!!!!!!!!!!!!!!!!!!!!!!!!!!!!!!!!!!!!!!!!!!!! 
        !  Warning: Densities are linearized densities !                         !
        !!!!!!!!!!!!!!!!!!!!!!!!!!!!!!!!!!!!!!!!!!!!!!!!!!!!!!!!!!!!!!!!!!!!!!!!!! 

Trace of internal density part =     -3.363812948
Trace of external density part =      3.363812948
NORM  =      2.956900558 sqrt=     1.719564061
W(HF) =      0.338191962
------------------------------------------------------------------------------
                           ORCA POPULATION ANALYSIS
------------------------------------------------------------------------------
Input electron density              ... /scratch/BH-5.0-CCSD-O_305/BH-5.0-CCSD-O.mdcip
BaseName (.gbw .S,...)              ... /scratch/BH-5.0-CCSD-O_305/BH-5.0-CCSD-O

                    ********************************
                    * MULLIKEN POPULATION ANALYSIS *
                    ********************************

-----------------------
MULLIKEN ATOMIC CHARGES
-----------------------
   0 B :   -0.816876
   1 H :    0.816876
Sum of atomic charges:    0.0000000

--------------------------------
MULLIKEN REDUCED ORBITAL CHARGES
--------------------------------
  0 B s       :     3.859928  s :     3.859928
      pz      :     0.054266  p :     1.934662
      px      :     1.826130
      py      :     0.054266
      dz2     :     0.001885  d :     0.021357
      dxz     :     0.007048
      dyz     :     0.000280
      dx2y2   :     0.005096
      dxy     :     0.007048
      f0      :     0.000117  f :     0.000778
      f+1     :     0.000051
      f-1     :     0.000041
      f+2     :     0.000178
      f-2     :     0.000160
      f+3     :    -0.000022
      f-3     :     0.000254
      g0      :     0.000012  g :     0.000150
      g+1     :     0.000020
      g-1     :     0.000005
      g+2     :     0.000014
      g-2     :     0.000015
      g+3     :     0.000019
      g-3     :     0.000019
      g+4     :     0.000023
      g-4     :     0.000024
  1 H s       :     0.190368  s :     0.190368
      pz      :     0.000038  p :    -0.007037
      px      :    -0.007112
      py      :     0.000038
      dz2     :    -0.000053  d :    -0.000204
      dxz     :     0.000004
      dyz     :     0.000000
      dx2y2   :    -0.000160
      dxy     :     0.000004
      f0      :     0.000000  f :    -0.000003
      f+1     :    -0.000001
      f-1     :     0.000000
      f+2     :     0.000000
      f-2     :     0.000000
      f+3     :    -0.000002
      f-3     :     0.000000


                     *******************************
                     * LOEWDIN POPULATION ANALYSIS *
                     *******************************

----------------------
LOEWDIN ATOMIC CHARGES
----------------------
   0 B :   -0.774986
   1 H :    0.774986

-------------------------------
LOEWDIN REDUCED ORBITAL CHARGES
-------------------------------
  0 B s       :     3.860202  s :     3.860202
      pz      :     0.054266  p :     1.897224
      px      :     1.788691
      py      :     0.054266
      dz2     :     0.000805  d :     0.017041
      dxz     :     0.007050
      dyz     :     0.000280
      dx2y2   :     0.001857
      dxy     :     0.007050
      f0      :     0.000117  f :     0.000373
      f+1     :    -0.000101
      f-1     :     0.000041
      f+2     :     0.000178
      f-2     :     0.000160
      f+3     :    -0.000275
      f-3     :     0.000254
      g0      :     0.000011  g :     0.000145
      g+1     :     0.000020
      g-1     :     0.000005
      g+2     :     0.000013
      g-2     :     0.000015
      g+3     :     0.000019
      g-3     :     0.000019
      g+4     :     0.000020
      g-4     :     0.000024
  1 H s       :     0.228867  s :     0.228867
      pz      :     0.000036  p :    -0.003766
      px      :    -0.003839
      py      :     0.000036
      dz2     :    -0.000024  d :    -0.000087
      dxz     :     0.000004
      dyz     :     0.000000
      dx2y2   :    -0.000071
      dxy     :     0.000004
      f0      :     0.000000  f :     0.000000
      f+1     :    -0.000000
      f-1     :     0.000000
      f+2     :     0.000000
      f-2     :     0.000000
      f+3     :    -0.000000
      f-3     :     0.000000


                      *****************************
                      * MAYER POPULATION ANALYSIS *
                      *****************************

  NA   - Mulliken gross atomic population
  ZA   - Total nuclear charge
  QA   - Mulliken gross atomic charge
  VA   - Mayer's total valence
  BVA  - Mayer's bonded valence
  FA   - Mayer's free valence

  ATOM       NA         ZA         QA         VA         BVA        FA
  0 B      5.8169     5.0000    -0.8169     0.2970     3.5270    -3.2300
  1 H      0.1831     1.0000     0.8169    -0.3346     3.5270    -3.8616

  Mayer bond orders larger than 0.100000
B(  0-B ,  1-H ) :   3.5270 



------------------------------------------------------------------------------- 
                                     TIMINGS                                   
------------------------------------------------------------------------------- 


Total execution time                   ...       32.924 sec

Fock Matrix Formation                  ...        0.850 sec (  2.6%)
Initial Guess                          ...        0.001 sec (  0.0%)
DIIS Solver                            ...        0.044 sec (  0.1%)
State Vector Update                    ...        0.001 sec (  0.0%)
Sigma-vector construction              ...       21.515 sec ( 65.3%)
  <0|H|D>                              ...        0.004 sec (  0.0% of sigma)
  <D|H|D>(0-ext)                       ...        0.008 sec (  0.0% of sigma)
  <D|H|D>(2-ext Fock)                  ...        0.007 sec (  0.0% of sigma)
  <D|H|D>(2-ext)                       ...        0.052 sec (  0.2% of sigma)
  <D|H|D>(4-ext)                       ...        6.582 sec ( 30.6% of sigma)
  <D|H|D>(4-ext-corr)                  ...        1.273 sec (  5.9% of sigma)
  <S|H|0>                              ...        0.003 sec (  0.0% of sigma)
  <S|H|S>                              ...        0.005 sec (  0.0% of sigma)
  <S|H|D>(1-ext)                       ...        0.006 sec (  0.0% of sigma)
  <D|H|S>(1-ext)                       ...        0.010 sec (  0.0% of sigma)
  <S|H|D>(3-ext)                       ...        0.206 sec (  1.0% of sigma)
  Fock-dressing                        ...       12.920 sec ( 60.0% of sigma)
  (ik|jl)-dressing                     ...        0.006 sec (  0.0% of sigma)
  (ij|ab),(ia|jb)-dressing             ...        0.361 sec (  1.7% of sigma)
  Pair energies                        ...        0.004 sec (  0.0% of sigma)
One-particle density matrix            ...        0.001 sec (  0.0%)


Maximum memory used throughout the entire MDCI-calculation: 400.0 MB

-------------------------   --------------------
FINAL SINGLE POINT ENERGY       -25.086119916260
-------------------------   --------------------


                            ***************************************
                            *     ORCA property calculations      *
                            ***************************************

                                    ---------------------
                                    Active property flags
                                    ---------------------
   (+) Dipole Moment


------------------------------------------------------------------------------
                       ORCA ELECTRIC PROPERTIES CALCULATION
------------------------------------------------------------------------------

Dipole Moment Calculation                       ... on
Quadrupole Moment Calculation                   ... off
Polarizability Calculation                      ... off
GBWName                                         ... /scratch/BH-5.0-CCSD-O_305/BH-5.0-CCSD-O.gbw
Electron density file                           ... /scratch/BH-5.0-CCSD-O_305/BH-5.0-CCSD-O.scfp
The origin for moment calculation is the CENTER OF MASS  = ( 0.805908,  0.000000  0.000000)

-------------
DIPOLE MOMENT
-------------
                                X             Y             Z
Electronic contribution:     -8.63702       0.00000       0.00000
Nuclear contribution   :      4.61318       0.00000       0.00000
                        -----------------------------------------
Total Dipole Moment    :     -4.02384       0.00000       0.00000
                        -----------------------------------------
Magnitude (a.u.)       :      4.02384
Magnitude (Debye)      :     10.22779



--------------------
Rotational spectrum 
--------------------
 
Rotational constants in cm-1:     0.000000     0.731332     0.731332 
Rotational constants in MHz :     0.000000 21924.785586 21924.785586 

 Dipole components along the rotational axes: 
x,y,z [a.u.] :    -4.023841     0.000000     0.000000 
x,y,z [Debye]:   -10.227791     0.000000     0.000000 

 

                           *** MDCI DENSITY ***

------------------------------------------------------------------------------
                       ORCA ELECTRIC PROPERTIES CALCULATION
------------------------------------------------------------------------------

Dipole Moment Calculation                       ... on
Quadrupole Moment Calculation                   ... off
Polarizability Calculation                      ... off
GBWName                                         ... /scratch/BH-5.0-CCSD-O_305/BH-5.0-CCSD-O.gbw
Electron density file                           ... /scratch/BH-5.0-CCSD-O_305/BH-5.0-CCSD-O.mdcip
The origin for moment calculation is the CENTER OF MASS  = ( 0.805908,  0.000000  0.000000)

-------------
DIPOLE MOMENT
-------------
                                X             Y             Z
Electronic contribution:      3.39688      -0.00000      -0.00000
Nuclear contribution   :      4.61318       0.00000       0.00000
                        -----------------------------------------
Total Dipole Moment    :      8.01006      -0.00000      -0.00000
                        -----------------------------------------
Magnitude (a.u.)       :      8.01006
Magnitude (Debye)      :     20.35995



--------------------
Rotational spectrum 
--------------------
 
Rotational constants in cm-1:     0.000000     0.731332     0.731332 
Rotational constants in MHz :     0.000000 21924.785586 21924.785586 

 Dipole components along the rotational axes: 
x,y,z [a.u.] :     8.010058    -0.000000    -0.000000 
x,y,z [Debye]:    20.359950    -0.000000    -0.000000 

 

Timings for individual modules:

Sum of individual times         ...       43.194 sec (=   0.720 min)
GTO integral calculation        ...        0.122 sec (=   0.002 min)   0.3 %
SCF iterations                  ...        9.811 sec (=   0.164 min)  22.7 %
MDCI module                     ...       33.261 sec (=   0.554 min)  77.0 %
                             ****ORCA TERMINATED NORMALLY****
TOTAL RUN TIME: 0 days 0 hours 0 minutes 43 seconds 430 msec

Sender: Unischeduler System <lcz@mgt01>
Subject: Job 134100: <#!/bin/bash
#BSUB -J intel
#BSUB -o BH-5.0-CCSD-O.out
#BSUB -n 1
#BSUB -q cqueue
export LD_LIBRARY_PATH=/apps/software/openmpi-4.1.1/lib:/apps/software/orca_5_0_0:$LD_LIBRARY_PATH
export PATH=/apps/software/openmpi-4.1.1/bin:/apps/software/orca_5_0_0:$PATH
mkdir /scratch/BH-5.0-CCSD-O_305
scp $USER@mgt01:/apps/users/lcz/exe13/CCSD/BH-5.0-CCSD-O.inp /scratch/BH-5.0-CCSD-O_305
/apps/software/orca_5_0_0/orca /scratch/BH-5.0-CCSD-O_305/BH-5.0-CCSD-O.inp >& BH-5.0-CCSD-O.out
scp /scratch/BH-5.0-CCSD-O_305/*.gbw $USER@mgt01:/apps/users/lcz/exe13/CCSD
scp /scratch/BH-5.0-CCSD-O_305/*.xyz $USER@mgt01:/apps/users/lcz/exe13/CCSD
scp /scratch/BH-5.0-CCSD-O_305/*.trj $USER@mgt01:/apps/users/lcz/exe13/CCSD> Exited

Job <#!/bin/bash
#BSUB -J intel
#BSUB -o BH-5.0-CCSD-O.out
#BSUB -n 1
#BSUB -q cqueue
export LD_LIBRARY_PATH=/apps/software/openmpi-4.1.1/lib:/apps/software/orca_5_0_0:$LD_LIBRARY_PATH
export PATH=/apps/software/openmpi-4.1.1/bin:/apps/software/orca_5_0_0:$PATH
mkdir /scratch/BH-5.0-CCSD-O_305
scp $USER@mgt01:/apps/users/lcz/exe13/CCSD/BH-5.0-CCSD-O.inp /scratch/BH-5.0-CCSD-O_305
/apps/software/orca_5_0_0/orca /scratch/BH-5.0-CCSD-O_305/BH-5.0-CCSD-O.inp >& BH-5.0-CCSD-O.out
scp /scratch/BH-5.0-CCSD-O_305/*.gbw $USER@mgt01:/apps/users/lcz/exe13/CCSD
scp /scratch/BH-5.0-CCSD-O_305/*.xyz $USER@mgt01:/apps/users/lcz/exe13/CCSD
scp /scratch/BH-5.0-CCSD-O_305/*.trj $USER@mgt01:/apps/users/lcz/exe13/CCSD> was submitted from host <mgt01> by user <lcz>.
Job was executed on host(s) <1*cnode07>, in queue <cqueue>, as user <lcz>.
</apps/users/lcz> was used as the home directory.
</apps/users/lcz/exe13/CCSD> was used as the working directory.
Started at 2022-05-22 16:14:41
Results reported at 2022-05-22 16:15:26

Your job looked like:

------------------------------------------------------------
# User input
#!/bin/bash
#BSUB -J intel
#BSUB -o BH-5.0-CCSD-O.out
#BSUB -n 1
#BSUB -q cqueue
export LD_LIBRARY_PATH=/apps/software/openmpi-4.1.1/lib:/apps/software/orca_5_0_0:$LD_LIBRARY_PATH
export PATH=/apps/software/openmpi-4.1.1/bin:/apps/software/orca_5_0_0:$PATH
mkdir /scratch/BH-5.0-CCSD-O_305
scp $USER@mgt01:/apps/users/lcz/exe13/CCSD/BH-5.0-CCSD-O.inp /scratch/BH-5.0-CCSD-O_305
/apps/software/orca_5_0_0/orca /scratch/BH-5.0-CCSD-O_305/BH-5.0-CCSD-O.inp >& BH-5.0-CCSD-O.out
scp /scratch/BH-5.0-CCSD-O_305/*.gbw $USER@mgt01:/apps/users/lcz/exe13/CCSD
scp /scratch/BH-5.0-CCSD-O_305/*.xyz $USER@mgt01:/apps/users/lcz/exe13/CCSD
scp /scratch/BH-5.0-CCSD-O_305/*.trj $USER@mgt01:/apps/users/lcz/exe13/CCSD
------------------------------------------------------------

Exited with exit code 1.

Resource usage summary:

    CPU time   :           34.76 sec.
    Max Memory :               356 MB
    Max Processes  :               5


The output (if any) follows:

/scratch/BH-5.0-CCSD-O_305/*.xyz: No such file or directory
/scratch/BH-5.0-CCSD-O_305/*.trj: No such file or directory
