 Entering Gaussian System, Link 0=/apps/software/g16/g16
 Initial command:
 /apps/software/g16/l1.exe "/scratch/Gau-312603.inp" -scrdir="/scratch/"
 Entering Link 1 = /apps/software/g16/l1.exe PID=    312604.
  
 Copyright (c) 1988,1990,1992,1993,1995,1998,2003,2009,2016,
            Gaussian, Inc.  All Rights Reserved.
  
 This is part of the Gaussian(R) 16 program.  It is based on
 the Gaussian(R) 09 system (copyright 2009, Gaussian, Inc.),
 the Gaussian(R) 03 system (copyright 2003, Gaussian, Inc.),
 the Gaussian(R) 98 system (copyright 1998, Gaussian, Inc.),
 the Gaussian(R) 94 system (copyright 1995, Gaussian, Inc.),
 the Gaussian 92(TM) system (copyright 1992, Gaussian, Inc.),
 the Gaussian 90(TM) system (copyright 1990, Gaussian, Inc.),
 the Gaussian 88(TM) system (copyright 1988, Gaussian, Inc.),
 the Gaussian 86(TM) system (copyright 1986, Carnegie Mellon
 University), and the Gaussian 82(TM) system (copyright 1983,
 Carnegie Mellon University). Gaussian is a federally registered
 trademark of Gaussian, Inc.
  
 This software contains proprietary and confidential information,
 including trade secrets, belonging to Gaussian, Inc.
  
 This software is provided under written license and may be
 used, copied, transmitted, or stored only in accord with that
 written license.
  
 The following legend is applicable only to US Government
 contracts under FAR:
  
                    RESTRICTED RIGHTS LEGEND
  
 Use, reproduction and disclosure by the US Government is
 subject to restrictions as set forth in subparagraphs (a)
 and (c) of the Commercial Computer Software - Restricted
 Rights clause in FAR 52.227-19.
  
 Gaussian, Inc.
 340 Quinnipiac St., Bldg. 40, Wallingford CT 06492
  
  
 ---------------------------------------------------------------
 Warning -- This program may not be used in any manner that
 competes with the business of Gaussian, Inc. or will provide
 assistance to any competitor of Gaussian, Inc.  The licensee
 of this program is prohibited from giving any competitor of
 Gaussian, Inc. access to this program.  By using this program,
 the user acknowledges that Gaussian, Inc. is engaged in the
 business of creating and licensing software in the field of
 computational chemistry and represents and warrants to the
 licensee that it is not a competitor of Gaussian, Inc. and that
 it will not use this program in any manner prohibited above.
 ---------------------------------------------------------------
  

 Cite this work as:
 Gaussian 16, Revision A.03,
 M. J. Frisch, G. W. Trucks, H. B. Schlegel, G. E. Scuseria, 
 M. A. Robb, J. R. Cheeseman, G. Scalmani, V. Barone, 
 G. A. Petersson, H. Nakatsuji, X. Li, M. Caricato, A. V. Marenich, 
 J. Bloino, B. G. Janesko, R. Gomperts, B. Mennucci, H. P. Hratchian, 
 J. V. Ortiz, A. F. Izmaylov, J. L. Sonnenberg, D. Williams-Young, 
 F. Ding, F. Lipparini, F. Egidi, J. Goings, B. Peng, A. Petrone, 
 T. Henderson, D. Ranasinghe, V. G. Zakrzewski, J. Gao, N. Rega, 
 G. Zheng, W. Liang, M. Hada, M. Ehara, K. Toyota, R. Fukuda, 
 J. Hasegawa, M. Ishida, T. Nakajima, Y. Honda, O. Kitao, H. Nakai, 
 T. Vreven, K. Throssell, J. A. Montgomery, Jr., J. E. Peralta, 
 F. Ogliaro, M. J. Bearpark, J. J. Heyd, E. N. Brothers, K. N. Kudin, 
 V. N. Staroverov, T. A. Keith, R. Kobayashi, J. Normand, 
 K. Raghavachari, A. P. Rendell, J. C. Burant, S. S. Iyengar, 
 J. Tomasi, M. Cossi, J. M. Millam, M. Klene, C. Adamo, R. Cammi, 
 J. W. Ochterski, R. L. Martin, K. Morokuma, O. Farkas, 
 J. B. Foresman, and D. J. Fox, Gaussian, Inc., Wallingford CT, 2016.
 
 ******************************************
 Gaussian 16:  ES64L-G16RevA.03 25-Dec-2016
                22-May-2022 
 ******************************************
 %oldchk=BH-5.4-RHF-G.chk
 %chk=BH-5.4-CCSD-G.chk
 Copying data from "BH-5.4-RHF-G.chk" to current chk file "BH-5.4-CCSD-G.chk"
 IOpt=  2 FromEx=T IUOpen= 4 IOptOp= 5 NList=   0 IFRang= 0 IUIn= 4 IUOut= 2.
 -------------------------------------
 #p RHF/aug-cc-pVQZ guess=read CCSD=FC
 -------------------------------------
 1/38=1,172=1/1;
 2/12=2,17=6,18=5,40=1/2;
 3/5=16,6=2,7=10,11=1,25=1,30=1,116=1/1,2,3;
 4/5=1/1;
 5/5=2,38=6/2;
 8/6=4,9=120000,10=1/1,4;
 9/5=7/13;
 6/7=2,8=2,9=2,10=2/1;
 99/5=1,9=1/99;
 Leave Link    1 at Sun May 22 16:04:37 2022, MaxMem=   104857600 cpu:               0.0 elap:               0.0
 (Enter /apps/software/g16/l101.exe)
 ----------------------
 BH RHF at 5.4 Angstrom
 ----------------------
 Symbolic Z-matrix:
 Charge =  0 Multiplicity = 1
 B                     0.        0.        0. 
 H                     5.4       0.        0. 
 
 ITRead=  0  0
 MicOpt= -1 -1
 NAtoms=      2 NQM=        2 NQMF=       0 NMMI=      0 NMMIF=      0
                NMic=       0 NMicF=      0.
                    Isotopes and Nuclear Properties:
 (Nuclear quadrupole moments (NQMom) in fm**2, nuclear magnetic moments (NMagM)
  in nuclear magnetons)

  Atom         1           2
 IAtWgt=          11           1
 AtmWgt=  11.0093053   1.0078250
 NucSpn=           3           1
 AtZEff=  -0.0000000  -0.0000000
 NQMom=    4.0590000   0.0000000
 NMagM=    2.6886370   2.7928460
 AtZNuc=   5.0000000   1.0000000
 Leave Link  101 at Sun May 22 16:04:37 2022, MaxMem=   104857600 cpu:               0.1 elap:               0.1
 (Enter /apps/software/g16/l202.exe)
                          Input orientation:                          
 ---------------------------------------------------------------------
 Center     Atomic      Atomic             Coordinates (Angstroms)
 Number     Number       Type             X           Y           Z
 ---------------------------------------------------------------------
      1          5           0        0.000000    0.000000    0.000000
      2          1           0        5.400000    0.000000    0.000000
 ---------------------------------------------------------------------
 Stoichiometry    BH
 Framework group  C*V[C*(HB)]
 Deg. of freedom     1
 Full point group                 C*V     NOp   4
 Largest Abelian subgroup         C2V     NOp   4
 Largest concise Abelian subgroup C1      NOp   1
                         Standard orientation:                         
 ---------------------------------------------------------------------
 Center     Atomic      Atomic             Coordinates (Angstroms)
 Number     Number       Type             X           Y           Z
 ---------------------------------------------------------------------
      1          5           0        0.000000    0.000000    0.900000
      2          1           0        0.000000    0.000000   -4.500000
 ---------------------------------------------------------------------
 Rotational constants (GHZ):           0.0000000          18.7709128          18.7709128
 Leave Link  202 at Sun May 22 16:04:37 2022, MaxMem=   104857600 cpu:               0.0 elap:               0.0
 (Enter /apps/software/g16/l301.exe)
 Standard basis: Aug-CC-pVQZ (5D, 7F)
 Ernie: Thresh=  0.10000D-02 Tol=  0.10000D-05 Strict=F.
 Ernie:  4 primitive shells out of 54 were deleted.
 There are    68 symmetry adapted cartesian basis functions of A1  symmetry.
 There are    18 symmetry adapted cartesian basis functions of A2  symmetry.
 There are    37 symmetry adapted cartesian basis functions of B1  symmetry.
 There are    37 symmetry adapted cartesian basis functions of B2  symmetry.
 There are    50 symmetry adapted basis functions of A1  symmetry.
 There are    16 symmetry adapted basis functions of A2  symmetry.
 There are    30 symmetry adapted basis functions of B1  symmetry.
 There are    30 symmetry adapted basis functions of B2  symmetry.
   126 basis functions,   180 primitive gaussians,   160 cartesian basis functions
     3 alpha electrons        3 beta electrons
       nuclear repulsion energy         0.4899788990 Hartrees.
 IExCor=    0 DFT=F Ex=HF Corr=None ExCW=0 ScaHFX=  1.000000
 ScaDFX=  1.000000  1.000000  1.000000  1.000000 ScalE2=  1.000000  1.000000
 IRadAn=      5 IRanWt=     -1 IRanGd=            0 ICorTp=0 IEmpDi=  4
 NAtoms=    2 NActive=    2 NUniq=    2 SFac= 1.00D+00 NAtFMM=   60 NAOKFM=F Big=F
 Integral buffers will be    131072 words long.
 Raffenetti 1 integral format.
 Two-electron integral symmetry is turned on.
 Leave Link  301 at Sun May 22 16:04:38 2022, MaxMem=   104857600 cpu:               0.1 elap:               0.1
 (Enter /apps/software/g16/l302.exe)
 NPDir=0 NMtPBC=     1 NCelOv=     1 NCel=       1 NClECP=     1 NCelD=      1
         NCelK=      1 NCelE2=     1 NClLst=     1 CellRange=     0.0.
 One-electron integrals computed using PRISM.
 One-electron integral symmetry used in STVInt
 NBasis=   126 RedAO= T EigKep=  1.24D-02  NBF=    50    16    30    30
 NBsUse=   126 1.00D-06 EigRej= -1.00D+00 NBFU=    50    16    30    30
 Leave Link  302 at Sun May 22 16:04:38 2022, MaxMem=   104857600 cpu:               0.1 elap:               0.1
 (Enter /apps/software/g16/l303.exe)
 DipDrv:  MaxL=1.
 Leave Link  303 at Sun May 22 16:04:38 2022, MaxMem=   104857600 cpu:               0.0 elap:               0.0
 (Enter /apps/software/g16/l401.exe)
 Initial guess from the checkpoint file:  "BH-5.4-CCSD-G.chk"
 B after Tr=     0.000000    0.000000    0.000000
         Rot=    1.000000    0.000000    0.000000    0.000000 Ang=   0.00 deg.
 Guess basis will be translated and rotated to current coordinates.
 JPrj=2 DoOrth=T DoCkMO=T.
 Initial guess orbital symmetries:
       Occupied  (SG) (SG) (SG)
       Virtual   (SG) (PI) (PI) (SG) (PI) (PI) (SG) (SG) (DLTA)
                 (DLTA) (PI) (PI) (SG) (SG) (PI) (PI) (PI) (PI)
                 (SG) (SG) (PHI) (PHI) (DLTA) (DLTA) (PI) (PI)
                 (DLTA) (DLTA) (SG) (PI) (PI) (SG) (SG) (DLTA)
                 (DLTA) (PI) (PI) (SG) (PI) (PI) (SG) (PI) (PI)
                 (SG) (SG) (?A) (?A) (DLTA) (DLTA) (PHI) (PHI)
                 (DLTA) (DLTA) (PI) (PI) (PI) (PI) (SG) (SG) (PHI)
                 (PHI) (DLTA) (DLTA) (PI) (PI) (SG) (PHI) (PHI)
                 (DLTA) (DLTA) (PI) (PI) (SG) (SG) (DLTA) (DLTA)
                 (PI) (PI) (SG) (PI) (PI) (SG) (PI) (PI) (SG) (?A)
                 (?A) (DLTA) (DLTA) (PHI) (PHI) (DLTA) (DLTA) (PI)
                 (PI) (PI) (PI) (SG) (SG) (PHI) (PHI) (DLTA) (DLTA)
                 (PI) (PI) (SG) (PHI) (PHI) (DLTA) (DLTA) (PI)
                 (PI) (SG) (SG) (PI) (PI) (SG) (DLTA) (DLTA) (PI)
                 (PI) (SG) (SG)
 The electronic state of the initial guess is 1-SG.
 Leave Link  401 at Sun May 22 16:04:38 2022, MaxMem=   104857600 cpu:               0.1 elap:               0.1
 (Enter /apps/software/g16/l502.exe)
 Keep R1 ints in memory in symmetry-blocked form, NReq=40143665.
 FoFCou: FMM=F IPFlag=           0 FMFlag=           0 FMFlg1=           0
         NFxFlg=           0 DoJE=F BraDBF=F KetDBF=F FulRan=T
         wScrn=  0.000000 ICntrl=       600 IOpCl=  0 I1Cent=           0 NGrid=           0
         NMat0=    1 NMatS0=   8001 NMatT0=    0 NMatD0=    1 NMtDS0=    0 NMtDT0=    0
 Petite list used in FoFCou.
 Closed shell SCF:
 Using DIIS extrapolation, IDIIS=  1040.
 NGot=   104857600 LenX=    96673173 LenY=    96647132
 Requested convergence on RMS density matrix=1.00D-08 within 128 cycles.
 Requested convergence on MAX density matrix=1.00D-06.
 Requested convergence on             energy=1.00D-06.
 No special actions if energy rises.

 Cycle   1  Pass 1  IDiag  1:
 E= -24.8673442780561    
 DIIS: error= 1.18D-08 at cycle   1 NSaved=   1.
 NSaved= 1 IEnMin= 1 EnMin= -24.8673442780561     IErMin= 1 ErrMin= 1.18D-08
 ErrMax= 1.18D-08  0.00D+00 EMaxC= 1.00D-01 BMatC= 1.74D-15 BMatP= 1.74D-15
 IDIUse=1 WtCom= 1.00D+00 WtEn= 0.00D+00
 Coeff-Com:  0.100D+01
 Coeff:      0.100D+01
 Gap=     0.110 Goal=   None    Shift=    0.000
 RMSDP=1.20D-09 MaxDP=4.08D-08              OVMax= 2.45D-07

 SCF Done:  E(RHF) =  -24.8673442781     A.U. after    1 cycles
            NFock=  1  Conv=0.12D-08     -V/T= 2.0036
 KE= 2.477767169871D+01 PE=-5.801137286771D+01 EE= 7.876377991940D+00
 Leave Link  502 at Sun May 22 16:04:41 2022, MaxMem=   104857600 cpu:               3.2 elap:               3.3
 (Enter /apps/software/g16/l801.exe)
 Windowed orbitals will be sorted by symmetry type.
 ExpMin= 1.88D-02 ExpMax= 2.39D+04 ExpMxC= 2.30D+02 IAcc=3 IRadAn=         5 AccDes= 0.00D+00
 HarFok:  IExCor=  205 AccDes= 0.00D+00 IRadAn=         5 IDoV=-2 UseB2=F ITyADJ=14
 ICtDFT= 12500011 ScaDFX=  1.000000  1.000000  1.000000  1.000000
 Largest valence mixing into a core orbital is  4.00D-04
 Largest core mixing into a valence orbital is  1.72D-04
 Range of M.O.s used for correlation:     2   126
 NBasis=   126 NAE=     3 NBE=     3 NFC=     1 NFV=     0
 NROrb=    125 NOA=     2 NOB=     2 NVA=   123 NVB=   123
 Leave Link  801 at Sun May 22 16:04:41 2022, MaxMem=   104857600 cpu:               0.1 elap:               0.1
 (Enter /apps/software/g16/l804.exe)
 Closed-shell transformation, MDV=   104857600 ITran=4 ISComp=2.
 Unit  1 TFree=        535169 TCopy=        350885.
 Semi-Direct transformation.
 ModeAB=           4 MOrb=             2 LenV=     104246044
 LASXX=       493564 LTotXX=      493564 LenRXX=     1003397
 LTotAB=      509833 MaxLAS=     3054250 LenRXY=           0
 NonZer=     1496961 LenScr=     2992128 LnRSAI=     3054250
 LnScr1=     5343744 LExtra=           0 Total=     12393519
 MaxDsk=          -1 SrtSym=           T ITran=            4
 DoSDTr:  NPSUse=  1
 JobTyp=0 Pass  1:  I=   1 to   2.
 (rs|ai) integrals will be sorted in core.
 Complete sort for first half transformation.
 First half transformation complete.
 Complete sort for second half transformation.
 Second half transformation complete.
 Spin components of T(2) and E(2):
     alpha-alpha T2 =       0.1805071011D-02 E2=     -0.2332630682D-02
     alpha-beta  T2 =       0.4120079051D+00 E2=     -0.1516422422D+00
     beta-beta   T2 =       0.1805071011D-02 E2=     -0.2332630682D-02
 ANorm=    0.1189797482D+01
 E2 =    -0.1563075036D+00 EUMP2 =    -0.25023651781636D+02
 Leave Link  804 at Sun May 22 16:04:46 2022, MaxMem=   104857600 cpu:               4.4 elap:               4.4
 (Enter /apps/software/g16/l913.exe)
 CIDS:  MDV=   104857600.
 Frozen-core window:  NFC=   1 NFV=   0.
 IFCWin=0 IBDFC=1 NFBD=     0     0 NFCmp=     0     0 NFFFC=     0     0
 Using DD3R+UMP44R for 1st iteration.
 Using DD4RQ for 2nd and later iterations.
 Keep R2 and R3 ints in memory in symmetry-blocked form, NReq=40146875.
 FoFCou: FMM=F IPFlag=           0 FMFlag=           0 FMFlg1=           0
         NFxFlg=           0 DoJE=F BraDBF=F KetDBF=F FulRan=T
         wScrn=  0.000000 ICntrl=       600 IOpCl=  0 I1Cent=           0 NGrid=           0
         NMat0=    1 NMatS0=   8001 NMatT0=    0 NMatD0=    1 NMtDS0=    0 NMtDT0=    0
 Petite list used in FoFCou.
 CIDS: In Core Option IDoMem=           1.
 Coupled Cluster theory with single and double substitutions
 ===========================================================
 Iterations=  50 Convergence= 0.100D-06
 Produce multiple copies of IABC intergrals
 Iteration Nr.   1
 **********************
 DD1Dir will call FoFMem   1 times, MxPair=         6
 NAB=     3 NAA=     0 NBB=     0.
 MP4(R+Q)=  0.51613337D-01
 Maximum subspace dimension=  5
 A-vector RMS=  9.6662207D-02 Max=  7.3467789D-01 conv= 1.00D-05.
 RLE energy=       -0.0849618738
 E3=       -0.32659529D-01        EUMP3=      -0.25056311311D+02
 E4(DQ)=    0.16133884D-01        UMP4(DQ)=   -0.25040177427D+02
 E4(SDQ)=  -0.11622919D+00        UMP4(SDQ)=  -0.25172540498D+02
 VARIATIONAL ENERGIES WITH THE FIRST-ORDER WAVEFUNCTION:
 DE(Corr)= -0.68908442E-01 E(Corr)=     -24.936252720    
 NORM(A)=   0.14772636D+01
 Iteration Nr.   2
 **********************
 DD1Dir will call FoFMem   1 times, MxPair=         6
 NAB=     3 NAA=     0 NBB=     0.
 A-vector RMS=  1.4791176D-01 Max=  1.1199498D+00 conv= 1.00D-05.
 RLE energy=       -0.1867532913
 DE(Corr)= -0.21775651     E(CORR)=     -25.085100785     Delta=-1.49D-01
 NORM(A)=   0.14013138D+01
 Iteration Nr.   3
 **********************
 DD1Dir will call FoFMem   1 times, MxPair=         6
 NAB=     3 NAA=     0 NBB=     0.
 A-vector RMS=  3.0636466D-02 Max=  2.2845068D-01 conv= 1.00D-05.
 RLE energy=       -0.2393517259
 DE(Corr)= -0.18995515     E(CORR)=     -25.057299426     Delta= 2.78D-02
 NORM(A)=   0.20160163D+01
 Iteration Nr.   4
 **********************
 DD1Dir will call FoFMem   1 times, MxPair=         6
 NAB=     3 NAA=     0 NBB=     0.
 A-vector RMS=  6.5661348D-02 Max=  5.0232252D-01 conv= 1.00D-05.
 RLE energy=       -0.2023420102
 DE(Corr)= -0.24155760     E(CORR)=     -25.108901877     Delta=-5.16D-02
 NORM(A)=   0.15426683D+01
 Iteration Nr.   5
 **********************
 DD1Dir will call FoFMem   1 times, MxPair=         6
 NAB=     3 NAA=     0 NBB=     0.
 A-vector RMS=  2.5591851D-02 Max=  1.9538118D-01 conv= 1.00D-05.
 RLE energy=       -0.2178868928
 DE(Corr)= -0.19576819     E(CORR)=     -25.063112471     Delta= 4.58D-02
 NORM(A)=   0.17374502D+01
 Iteration Nr.   6
 **********************
 DD1Dir will call FoFMem   1 times, MxPair=         6
 NAB=     3 NAA=     0 NBB=     0.
 A-vector RMS=  3.5986243D-03 Max=  2.7104916D-02 conv= 1.00D-05.
 RLE energy=       -0.2207971795
 DE(Corr)= -0.22259267     E(CORR)=     -25.089936946     Delta=-2.68D-02
 NORM(A)=   0.17560737D+01
 Iteration Nr.   7
 **********************
 DD1Dir will call FoFMem   1 times, MxPair=         6
 NAB=     3 NAA=     0 NBB=     0.
 A-vector RMS=  4.1824293D-04 Max=  1.7968024D-02 conv= 1.00D-05.
 RLE energy=       -0.2188177236
 DE(Corr)= -0.21847050     E(CORR)=     -25.085814774     Delta= 4.12D-03
 NORM(A)=   0.17432195D+01
 Iteration Nr.   8
 **********************
 DD1Dir will call FoFMem   1 times, MxPair=         6
 NAB=     3 NAA=     0 NBB=     0.
 A-vector RMS=  6.7293397D-04 Max=  5.0037908D-03 conv= 1.00D-05.
 RLE energy=       -0.2181825690
 DE(Corr)= -0.21909500     E(CORR)=     -25.086439276     Delta=-6.25D-04
 NORM(A)=   0.17388182D+01
 Iteration Nr.   9
 **********************
 DD1Dir will call FoFMem   1 times, MxPair=         6
 NAB=     3 NAA=     0 NBB=     0.
 A-vector RMS=  3.3402297D-04 Max=  4.9756017D-03 conv= 1.00D-05.
 RLE energy=       -0.2189712442
 DE(Corr)= -0.21921032     E(CORR)=     -25.086554598     Delta=-1.15D-04
 NORM(A)=   0.17425965D+01
 Iteration Nr.  10
 **********************
 DD1Dir will call FoFMem   1 times, MxPair=         6
 NAB=     3 NAA=     0 NBB=     0.
 A-vector RMS=  3.9839957D-04 Max=  3.3631849D-03 conv= 1.00D-05.
 RLE energy=       -0.2186078840
 DE(Corr)= -0.21813242     E(CORR)=     -25.085476702     Delta= 1.08D-03
 NORM(A)=   0.17423990D+01
 Iteration Nr.  11
 **********************
 DD1Dir will call FoFMem   1 times, MxPair=         6
 NAB=     3 NAA=     0 NBB=     0.
 A-vector RMS=  4.7219805D-04 Max=  3.6491380D-03 conv= 1.00D-05.
 RLE energy=       -0.2186415388
 DE(Corr)= -0.21909981     E(CORR)=     -25.086444088     Delta=-9.67D-04
 NORM(A)=   0.17409693D+01
 Iteration Nr.  12
 **********************
 DD1Dir will call FoFMem   1 times, MxPair=         6
 NAB=     3 NAA=     0 NBB=     0.
 A-vector RMS=  1.2622818D-04 Max=  9.6148322D-04 conv= 1.00D-05.
 RLE energy=       -0.2186107052
 DE(Corr)= -0.21847593     E(CORR)=     -25.085820207     Delta= 6.24D-04
 NORM(A)=   0.17411231D+01
 Iteration Nr.  13
 **********************
 DD1Dir will call FoFMem   1 times, MxPair=         6
 NAB=     3 NAA=     0 NBB=     0.
 A-vector RMS=  8.0805595D-06 Max=  8.3310844D-05 conv= 1.00D-05.
 RLE energy=       -0.2186287354
 DE(Corr)= -0.21862297     E(CORR)=     -25.085967248     Delta=-1.47D-04
 NORM(A)=   0.17412584D+01
 Iteration Nr.  14
 **********************
 DD1Dir will call FoFMem   1 times, MxPair=         6
 NAB=     3 NAA=     0 NBB=     0.
 A-vector RMS=  1.1079447D-05 Max=  1.0053508D-04 conv= 1.00D-05.
 RLE energy=       -0.2186183285
 DE(Corr)= -0.21862167     E(CORR)=     -25.085965943     Delta= 1.30D-06
 NORM(A)=   0.17411567D+01
 Iteration Nr.  15
 **********************
 DD1Dir will call FoFMem   1 times, MxPair=         6
 NAB=     3 NAA=     0 NBB=     0.
 A-vector RMS=  1.7020003D-06 Max=  3.2647014D-05 conv= 1.00D-05.
 RLE energy=       -0.2186106392
 DE(Corr)= -0.21861405     E(CORR)=     -25.085958325     Delta= 7.62D-06
 NORM(A)=   0.17410914D+01
 Iteration Nr.  16
 **********************
 DD1Dir will call FoFMem   1 times, MxPair=         6
 NAB=     3 NAA=     0 NBB=     0.
 A-vector RMS=  4.2472032D-06 Max=  3.3024904D-05 conv= 1.00D-05.
 RLE energy=       -0.2186162818
 DE(Corr)= -0.21861283     E(CORR)=     -25.085957103     Delta= 1.22D-06
 NORM(A)=   0.17411384D+01
 Iteration Nr.  17
 **********************
 DD1Dir will call FoFMem   1 times, MxPair=         6
 NAB=     3 NAA=     0 NBB=     0.
 A-vector RMS=  4.2724127D-07 Max=  1.1904791D-05 conv= 1.00D-05.
 RLE energy=       -0.2186138440
 DE(Corr)= -0.21861426     E(CORR)=     -25.085958534     Delta=-1.43D-06
 NORM(A)=   0.17411288D+01
 Iteration Nr.  18
 **********************
 DD1Dir will call FoFMem   1 times, MxPair=         6
 NAB=     3 NAA=     0 NBB=     0.
 A-vector RMS=  2.7193181D-06 Max=  2.0801838D-05 conv= 1.00D-05.
 RLE energy=       -0.2186153824
 DE(Corr)= -0.21861776     E(CORR)=     -25.085962037     Delta=-3.50D-06
 NORM(A)=   0.17411267D+01
 Iteration Nr.  19
 **********************
 DD1Dir will call FoFMem   1 times, MxPair=         6
 NAB=     3 NAA=     0 NBB=     0.
 A-vector RMS=  1.7638003D-06 Max=  1.3444022D-05 conv= 1.00D-05.
 RLE energy=       -0.2186147416
 DE(Corr)= -0.21861285     E(CORR)=     -25.085957129     Delta= 4.91D-06
 NORM(A)=   0.17411275D+01
 Iteration Nr.  20
 **********************
 DD1Dir will call FoFMem   1 times, MxPair=         6
 NAB=     3 NAA=     0 NBB=     0.
 A-vector RMS=  1.3441258D-07 Max=  1.4144545D-06 conv= 1.00D-05.
 RLE energy=       -0.2186149204
 DE(Corr)= -0.21861506     E(CORR)=     -25.085959341     Delta=-2.21D-06
 NORM(A)=   0.17411285D+01
 Iteration Nr.  21
 **********************
 DD1Dir will call FoFMem   1 times, MxPair=         6
 NAB=     3 NAA=     0 NBB=     0.
 A-vector RMS=  8.5235406D-08 Max=  5.7991552D-07 conv= 1.00D-05.
 RLE energy=       -0.2186148805
 DE(Corr)= -0.21861495     E(CORR)=     -25.085959224     Delta= 1.18D-07
 NORM(A)=   0.17411278D+01
 Iteration Nr.  22
 **********************
 DD1Dir will call FoFMem   1 times, MxPair=         6
 NAB=     3 NAA=     0 NBB=     0.
 A-vector RMS=  5.5253138D-08 Max=  3.7959506D-07 conv= 1.00D-05.
 RLE energy=       -0.2186149007
 DE(Corr)= -0.21861485     E(CORR)=     -25.085959128     Delta= 9.53D-08
 NORM(A)=   0.17411280D+01
 CI/CC converged in   22 iterations to DelEn= 9.53D-08 Conv= 1.00D-07 ErrA1= 5.53D-08 Conv= 1.00D-05
 Wavefunction amplitudes converged. E(Corr)=     -25.085959128    
 Dominant configurations:
 ***********************
 Spin Case        I    J    A    B          Value
    AA            3         4           -0.481821D+00
    AA            3        10            0.114794D+00
   ABAB           2    2    6    6      -0.123649D+00
   ABAB           2    2    5    5      -0.123649D+00
   ABAB           3    3    4    4      -0.113480D+01
   ABAB           3    3    4   11       0.117511D+00
   ABAB           3    3   11    4       0.117511D+00
 Largest amplitude= 1.13D+00
 Discarding MO integrals.
 Leave Link  913 at Sun May 22 16:04:50 2022, MaxMem=   104857600 cpu:               4.4 elap:               4.5
 (Enter /apps/software/g16/l601.exe)
 Copying SCF densities to generalized density rwf, IOpCl= 0 IROHF=0.

 **********************************************************************

            Population analysis using the SCF density.

 **********************************************************************

 Orbital symmetries:
       Occupied  (SG) (SG) (SG)
       Virtual   (SG) (PI) (PI) (SG) (PI) (PI) (SG) (SG) (DLTA)
                 (DLTA) (PI) (PI) (SG) (SG) (PI) (PI) (PI) (PI)
                 (SG) (SG) (PHI) (PHI) (DLTA) (DLTA) (PI) (PI)
                 (DLTA) (DLTA) (SG) (PI) (PI) (SG) (SG) (DLTA)
                 (DLTA) (PI) (PI) (SG) (PI) (PI) (SG) (PI) (PI)
                 (SG) (SG) (?A) (?A) (DLTA) (DLTA) (PHI) (PHI)
                 (DLTA) (DLTA) (PI) (PI) (PI) (PI) (SG) (SG) (PHI)
                 (PHI) (DLTA) (DLTA) (PI) (PI) (SG) (PHI) (PHI)
                 (DLTA) (DLTA) (PI) (PI) (SG) (SG) (DLTA) (DLTA)
                 (PI) (PI) (SG) (PI) (PI) (SG) (PI) (PI) (SG) (?A)
                 (?A) (DLTA) (DLTA) (PHI) (PHI) (DLTA) (DLTA) (PI)
                 (PI) (PI) (PI) (SG) (SG) (PHI) (PHI) (DLTA) (DLTA)
                 (PI) (PI) (SG) (PHI) (PHI) (DLTA) (DLTA) (PI)
                 (PI) (SG) (SG) (PI) (PI) (SG) (DLTA) (DLTA) (PI)
                 (PI) (SG) (SG)
 The electronic state is 1-SG.
 Alpha  occ. eigenvalues --   -7.89678  -0.63113  -0.21256
 Alpha virt. eigenvalues --   -0.10269  -0.05648  -0.05648   0.01861   0.03753
 Alpha virt. eigenvalues --    0.03753   0.05251   0.10420   0.11107   0.11107
 Alpha virt. eigenvalues --    0.11786   0.11786   0.13529   0.22871   0.23660
 Alpha virt. eigenvalues --    0.23660   0.24263   0.24263   0.28057   0.29499
 Alpha virt. eigenvalues --    0.40646   0.40646   0.41338   0.41338   0.42039
 Alpha virt. eigenvalues --    0.42039   0.42375   0.42375   0.42420   0.43246
 Alpha virt. eigenvalues --    0.43246   0.45304   0.50546   0.69514   0.69514
 Alpha virt. eigenvalues --    0.70111   0.70111   0.71701   0.86249   0.86249
 Alpha virt. eigenvalues --    0.89962   0.93182   0.93182   0.96617   1.27737
 Alpha virt. eigenvalues --    1.28501   1.28501   1.29240   1.29240   1.29304
 Alpha virt. eigenvalues --    1.29304   1.29903   1.29903   1.30286   1.30286
 Alpha virt. eigenvalues --    1.30430   1.30430   1.30520   1.32248   1.33820
 Alpha virt. eigenvalues --    1.33820   1.34805   1.34805   1.35585   1.35585
 Alpha virt. eigenvalues --    1.38022   1.65330   1.65330   1.65337   1.65337
 Alpha virt. eigenvalues --    1.65457   1.65457   1.65763   1.73161   2.56204
 Alpha virt. eigenvalues --    2.56204   2.56533   2.56533   2.57549   2.67912
 Alpha virt. eigenvalues --    2.67912   2.72210   3.57233   3.57233   3.59086
 Alpha virt. eigenvalues --    3.79162   3.79162   3.80064   3.80064   3.80200
 Alpha virt. eigenvalues --    3.80200   3.80950   3.80950   3.81359   3.81359
 Alpha virt. eigenvalues --    3.81437   3.81437   3.81604   3.82818   3.94223
 Alpha virt. eigenvalues --    3.94223   3.95372   3.95372   3.96155   3.96155
 Alpha virt. eigenvalues --    3.97448   6.66138   6.66138   6.66154   6.66154
 Alpha virt. eigenvalues --    6.66193   6.66193   6.66273   7.51596   8.04435
 Alpha virt. eigenvalues --    8.04435   8.07577   8.49756   8.49756   8.49957
 Alpha virt. eigenvalues --    8.49957   8.50872  12.85619
          Condensed to atoms (all electrons):
               1          2
     1  B    4.535494   0.053419
     2  H    0.053419   1.357668
 Mulliken charges:
               1
     1  B    0.411087
     2  H   -0.411087
 Sum of Mulliken charges =  -0.00000
 Mulliken charges with hydrogens summed into heavy atoms:
               1
     1  B   -0.000000
 Electronic spatial extent (au):  <R**2>=            135.7346
 Charge=             -0.0000 electrons
 Dipole moment (field-independent basis, Debye):
    X=              0.0000    Y=              0.0000    Z=             10.9597  Tot=             10.9597
 Quadrupole moment (field-independent basis, Debye-Ang):
   XX=             -9.3214   YY=             -9.3214   ZZ=            -47.2069
   XY=              0.0000   XZ=              0.0000   YZ=              0.0000
 Traceless Quadrupole moment (field-independent basis, Debye-Ang):
   XX=             12.6285   YY=             12.6285   ZZ=            -25.2570
   XY=              0.0000   XZ=              0.0000   YZ=              0.0000
 Octapole moment (field-independent basis, Debye-Ang**2):
  XXX=              0.0000  YYY=              0.0000  ZZZ=            192.4787  XYY=              0.0000
  XXY=              0.0000  XXZ=             13.1216  XZZ=              0.0000  YZZ=              0.0000
  YYZ=             13.1216  XYZ=              0.0000
 Hexadecapole moment (field-independent basis, Debye-Ang**3):
 XXXX=            -22.5397 YYYY=            -22.5397 ZZZZ=          -1192.7042 XXXY=              0.0000
 XXXZ=              0.0000 YYYX=              0.0000 YYYZ=              0.0000 ZZZX=              0.0000
 ZZZY=              0.0000 XXYY=             -7.5132 XXZZ=            -88.1752 YYZZ=            -88.1752
 XXYZ=              0.0000 YYXZ=              0.0000 ZZXY=              0.0000
 N-N= 4.899788990000D-01 E-N=-5.801137227331D+01  KE= 2.477767169871D+01
 Symmetry A1   KE= 2.477767169871D+01
 Symmetry A2   KE= 1.087389122105D-51
 Symmetry B1   KE= 0.000000000000D+00
 Symmetry B2   KE= 0.000000000000D+00
 Leave Link  601 at Sun May 22 16:04:50 2022, MaxMem=   104857600 cpu:               0.1 elap:               0.1
 (Enter /apps/software/g16/l9999.exe)
 1\1\GINC-CNODE12\SP\RCCSD-FC\Aug-CC-pVQZ\B1H1\LCZ\22-May-2022\0\\#p RH
 F/aug-cc-pVQZ guess=read CCSD=FC\\BH RHF at 5.4 Angstrom\\0,1\B,0,0.,0
 .,0.\H,0,5.4,0.,0.\\Version=ES64L-G16RevA.03\State=1-SG\HF=-24.8673443
 \MP2=-25.0236518\MP3=-25.0563113\MP4D=-25.0917908\MP4DQ=-25.0401774\MP
 4SDQ=-25.1725405\CCSD=-25.0859591\RMSD=1.200e-09\PG=C*V [C*(H1B1)]\\@


 UNLESS WE CHANGE DIRECTIONS, WE WILL WIND UP WHERE WE ARE HEADED.
     -- CONFUCIUS
 Job cpu time:       0 days  0 hours  0 minutes 12.8 seconds.
 Elapsed time:       0 days  0 hours  0 minutes 12.8 seconds.
 File lengths (MBytes):  RWF=    103 Int=      0 D2E=      0 Chk=     67 Scr=      1
 Normal termination of Gaussian 16 at Sun May 22 16:04:50 2022.

Sender: Unischeduler System <lcz@mgt01>
Subject: Job 134066: <#!/bin/bash
#BSUB -J intel
#BSUB -o BH-5.4-CCSD-G.out
#BSUB -n 8
#BSUB -q cqueue
#BSUB -R span[hosts=1]
export g16root=/apps/software
source /apps/software/g16/bsd/g16.profile
export GAUSS_SCRDIR=/scratch
/apps/software/g16/g16 < BH-5.4-CCSD-G.inp > BH-5.4-CCSD-G.out> Done

Job <#!/bin/bash
#BSUB -J intel
#BSUB -o BH-5.4-CCSD-G.out
#BSUB -n 8
#BSUB -q cqueue
#BSUB -R span[hosts=1]
export g16root=/apps/software
source /apps/software/g16/bsd/g16.profile
export GAUSS_SCRDIR=/scratch
/apps/software/g16/g16 < BH-5.4-CCSD-G.inp > BH-5.4-CCSD-G.out> was submitted from host <mgt01> by user <lcz>.
Job was executed on host(s) <8*cnode12>, in queue <cqueue>, as user <lcz>.
</apps/users/lcz> was used as the home directory.
</apps/users/lcz/exe13/CCSD> was used as the working directory.
Started at 2022-05-22 16:04:37
Results reported at 2022-05-22 16:04:50

Your job looked like:

------------------------------------------------------------
# User input
#!/bin/bash
#BSUB -J intel
#BSUB -o BH-5.4-CCSD-G.out
#BSUB -n 8
#BSUB -q cqueue
#BSUB -R span[hosts=1]
export g16root=/apps/software
source /apps/software/g16/bsd/g16.profile
export GAUSS_SCRDIR=/scratch
/apps/software/g16/g16 < BH-5.4-CCSD-G.inp > BH-5.4-CCSD-G.out
------------------------------------------------------------

Successfully completed.

Resource usage summary:

    CPU time   :             3.1 sec.
    Max Memory :               479 MB
    Max Processes  :               5


The output (if any) follows:

