 Entering Gaussian System, Link 0=/apps/software/g16/g16
 Initial command:
 /apps/software/g16/l1.exe "/scratch/Gau-289020.inp" -scrdir="/scratch/"
 Entering Link 1 = /apps/software/g16/l1.exe PID=    289021.
  
 Copyright (c) 1988,1990,1992,1993,1995,1998,2003,2009,2016,
            Gaussian, Inc.  All Rights Reserved.
  
 This is part of the Gaussian(R) 16 program.  It is based on
 the Gaussian(R) 09 system (copyright 2009, Gaussian, Inc.),
 the Gaussian(R) 03 system (copyright 2003, Gaussian, Inc.),
 the Gaussian(R) 98 system (copyright 1998, Gaussian, Inc.),
 the Gaussian(R) 94 system (copyright 1995, Gaussian, Inc.),
 the Gaussian 92(TM) system (copyright 1992, Gaussian, Inc.),
 the Gaussian 90(TM) system (copyright 1990, Gaussian, Inc.),
 the Gaussian 88(TM) system (copyright 1988, Gaussian, Inc.),
 the Gaussian 86(TM) system (copyright 1986, Carnegie Mellon
 University), and the Gaussian 82(TM) system (copyright 1983,
 Carnegie Mellon University). Gaussian is a federally registered
 trademark of Gaussian, Inc.
  
 This software contains proprietary and confidential information,
 including trade secrets, belonging to Gaussian, Inc.
  
 This software is provided under written license and may be
 used, copied, transmitted, or stored only in accord with that
 written license.
  
 The following legend is applicable only to US Government
 contracts under FAR:
  
                    RESTRICTED RIGHTS LEGEND
  
 Use, reproduction and disclosure by the US Government is
 subject to restrictions as set forth in subparagraphs (a)
 and (c) of the Commercial Computer Software - Restricted
 Rights clause in FAR 52.227-19.
  
 Gaussian, Inc.
 340 Quinnipiac St., Bldg. 40, Wallingford CT 06492
  
  
 ---------------------------------------------------------------
 Warning -- This program may not be used in any manner that
 competes with the business of Gaussian, Inc. or will provide
 assistance to any competitor of Gaussian, Inc.  The licensee
 of this program is prohibited from giving any competitor of
 Gaussian, Inc. access to this program.  By using this program,
 the user acknowledges that Gaussian, Inc. is engaged in the
 business of creating and licensing software in the field of
 computational chemistry and represents and warrants to the
 licensee that it is not a competitor of Gaussian, Inc. and that
 it will not use this program in any manner prohibited above.
 ---------------------------------------------------------------
  

 Cite this work as:
 Gaussian 16, Revision A.03,
 M. J. Frisch, G. W. Trucks, H. B. Schlegel, G. E. Scuseria, 
 M. A. Robb, J. R. Cheeseman, G. Scalmani, V. Barone, 
 G. A. Petersson, H. Nakatsuji, X. Li, M. Caricato, A. V. Marenich, 
 J. Bloino, B. G. Janesko, R. Gomperts, B. Mennucci, H. P. Hratchian, 
 J. V. Ortiz, A. F. Izmaylov, J. L. Sonnenberg, D. Williams-Young, 
 F. Ding, F. Lipparini, F. Egidi, J. Goings, B. Peng, A. Petrone, 
 T. Henderson, D. Ranasinghe, V. G. Zakrzewski, J. Gao, N. Rega, 
 G. Zheng, W. Liang, M. Hada, M. Ehara, K. Toyota, R. Fukuda, 
 J. Hasegawa, M. Ishida, T. Nakajima, Y. Honda, O. Kitao, H. Nakai, 
 T. Vreven, K. Throssell, J. A. Montgomery, Jr., J. E. Peralta, 
 F. Ogliaro, M. J. Bearpark, J. J. Heyd, E. N. Brothers, K. N. Kudin, 
 V. N. Staroverov, T. A. Keith, R. Kobayashi, J. Normand, 
 K. Raghavachari, A. P. Rendell, J. C. Burant, S. S. Iyengar, 
 J. Tomasi, M. Cossi, J. M. Millam, M. Klene, C. Adamo, R. Cammi, 
 J. W. Ochterski, R. L. Martin, K. Morokuma, O. Farkas, 
 J. B. Foresman, and D. J. Fox, Gaussian, Inc., Wallingford CT, 2016.
 
 ******************************************
 Gaussian 16:  ES64L-G16RevA.03 25-Dec-2016
                22-May-2022 
 ******************************************
 %oldchk=BH-6.0-RHF-G.chk
 %chk=BH-6.0-CCSD-G.chk
 Copying data from "BH-6.0-RHF-G.chk" to current chk file "BH-6.0-CCSD-G.chk"
 IOpt=  2 FromEx=T IUOpen= 4 IOptOp= 5 NList=   0 IFRang= 0 IUIn= 4 IUOut= 2.
 -------------------------------------
 #p RHF/aug-cc-pVQZ guess=read CCSD=FC
 -------------------------------------
 1/38=1,172=1/1;
 2/12=2,17=6,18=5,40=1/2;
 3/5=16,6=2,7=10,11=1,25=1,30=1,116=1/1,2,3;
 4/5=1/1;
 5/5=2,38=6/2;
 8/6=4,9=120000,10=1/1,4;
 9/5=7/13;
 6/7=2,8=2,9=2,10=2/1;
 99/5=1,9=1/99;
 Leave Link    1 at Sun May 22 15:49:06 2022, MaxMem=   104857600 cpu:               0.0 elap:               0.0
 (Enter /apps/software/g16/l101.exe)
 ----------------------
 BH RHF at 6.0 Angstrom
 ----------------------
 Symbolic Z-matrix:
 Charge =  0 Multiplicity = 1
 B                     0.        0.        0. 
 H                     6.        0.        0. 
 
 ITRead=  0  0
 MicOpt= -1 -1
 NAtoms=      2 NQM=        2 NQMF=       0 NMMI=      0 NMMIF=      0
                NMic=       0 NMicF=      0.
                    Isotopes and Nuclear Properties:
 (Nuclear quadrupole moments (NQMom) in fm**2, nuclear magnetic moments (NMagM)
  in nuclear magnetons)

  Atom         1           2
 IAtWgt=          11           1
 AtmWgt=  11.0093053   1.0078250
 NucSpn=           3           1
 AtZEff=  -0.0000000  -0.0000000
 NQMom=    4.0590000   0.0000000
 NMagM=    2.6886370   2.7928460
 AtZNuc=   5.0000000   1.0000000
 Leave Link  101 at Sun May 22 15:49:06 2022, MaxMem=   104857600 cpu:               0.1 elap:               0.1
 (Enter /apps/software/g16/l202.exe)
                          Input orientation:                          
 ---------------------------------------------------------------------
 Center     Atomic      Atomic             Coordinates (Angstroms)
 Number     Number       Type             X           Y           Z
 ---------------------------------------------------------------------
      1          5           0        0.000000    0.000000    0.000000
      2          1           0        6.000000    0.000000    0.000000
 ---------------------------------------------------------------------
 Stoichiometry    BH
 Framework group  C*V[C*(HB)]
 Deg. of freedom     1
 Full point group                 C*V     NOp   4
 Largest Abelian subgroup         C2V     NOp   4
 Largest concise Abelian subgroup C1      NOp   1
                         Standard orientation:                         
 ---------------------------------------------------------------------
 Center     Atomic      Atomic             Coordinates (Angstroms)
 Number     Number       Type             X           Y           Z
 ---------------------------------------------------------------------
      1          5           0        0.000000    0.000000    1.000000
      2          1           0        0.000000    0.000000   -5.000000
 ---------------------------------------------------------------------
 Rotational constants (GHZ):           0.0000000          15.2044394          15.2044394
 Leave Link  202 at Sun May 22 15:49:06 2022, MaxMem=   104857600 cpu:               0.0 elap:               0.0
 (Enter /apps/software/g16/l301.exe)
 Standard basis: Aug-CC-pVQZ (5D, 7F)
 Ernie: Thresh=  0.10000D-02 Tol=  0.10000D-05 Strict=F.
 Ernie:  4 primitive shells out of 54 were deleted.
 There are    68 symmetry adapted cartesian basis functions of A1  symmetry.
 There are    18 symmetry adapted cartesian basis functions of A2  symmetry.
 There are    37 symmetry adapted cartesian basis functions of B1  symmetry.
 There are    37 symmetry adapted cartesian basis functions of B2  symmetry.
 There are    50 symmetry adapted basis functions of A1  symmetry.
 There are    16 symmetry adapted basis functions of A2  symmetry.
 There are    30 symmetry adapted basis functions of B1  symmetry.
 There are    30 symmetry adapted basis functions of B2  symmetry.
   126 basis functions,   180 primitive gaussians,   160 cartesian basis functions
     3 alpha electrons        3 beta electrons
       nuclear repulsion energy         0.4409810091 Hartrees.
 IExCor=    0 DFT=F Ex=HF Corr=None ExCW=0 ScaHFX=  1.000000
 ScaDFX=  1.000000  1.000000  1.000000  1.000000 ScalE2=  1.000000  1.000000
 IRadAn=      5 IRanWt=     -1 IRanGd=            0 ICorTp=0 IEmpDi=  4
 NAtoms=    2 NActive=    2 NUniq=    2 SFac= 1.00D+00 NAtFMM=   60 NAOKFM=F Big=F
 Integral buffers will be    131072 words long.
 Raffenetti 1 integral format.
 Two-electron integral symmetry is turned on.
 Leave Link  301 at Sun May 22 15:49:06 2022, MaxMem=   104857600 cpu:               0.0 elap:               0.0
 (Enter /apps/software/g16/l302.exe)
 NPDir=0 NMtPBC=     1 NCelOv=     1 NCel=       1 NClECP=     1 NCelD=      1
         NCelK=      1 NCelE2=     1 NClLst=     1 CellRange=     0.0.
 One-electron integrals computed using PRISM.
 One-electron integral symmetry used in STVInt
 NBasis=   126 RedAO= T EigKep=  1.28D-02  NBF=    50    16    30    30
 NBsUse=   126 1.00D-06 EigRej= -1.00D+00 NBFU=    50    16    30    30
 Leave Link  302 at Sun May 22 15:49:06 2022, MaxMem=   104857600 cpu:               0.1 elap:               0.1
 (Enter /apps/software/g16/l303.exe)
 DipDrv:  MaxL=1.
 Leave Link  303 at Sun May 22 15:49:06 2022, MaxMem=   104857600 cpu:               0.0 elap:               0.0
 (Enter /apps/software/g16/l401.exe)
 Initial guess from the checkpoint file:  "BH-6.0-CCSD-G.chk"
 B after Tr=     0.000000    0.000000    0.000000
         Rot=    1.000000    0.000000    0.000000    0.000000 Ang=   0.00 deg.
 Guess basis will be translated and rotated to current coordinates.
 JPrj=2 DoOrth=T DoCkMO=T.
 Initial guess orbital symmetries:
       Occupied  (SG) (SG) (SG)
       Virtual   (SG) (PI) (PI) (SG) (PI) (PI) (SG) (SG) (DLTA)
                 (DLTA) (PI) (PI) (SG) (PI) (PI) (SG) (PI) (PI)
                 (SG) (SG) (PHI) (PHI) (DLTA) (DLTA) (PI) (PI)
                 (SG) (DLTA) (DLTA) (PI) (PI) (SG) (SG) (DLTA)
                 (DLTA) (PI) (PI) (SG) (PI) (PI) (SG) (PI) (PI)
                 (SG) (SG) (?A) (?A) (PHI) (PHI) (DLTA) (DLTA)
                 (DLTA) (DLTA) (PI) (PI) (SG) (PI) (PI) (SG) (PHI)
                 (PHI) (DLTA) (DLTA) (PI) (PI) (SG) (DLTA) (DLTA)
                 (PHI) (PHI) (PI) (PI) (SG) (SG) (DLTA) (DLTA)
                 (PI) (PI) (SG) (PI) (PI) (SG) (PI) (PI) (SG) (?A)
                 (?A) (DLTA) (DLTA) (PHI) (PHI) (DLTA) (DLTA) (PI)
                 (PI) (PI) (PI) (SG) (SG) (PHI) (PHI) (DLTA) (DLTA)
                 (PI) (PI) (SG) (PHI) (PHI) (DLTA) (DLTA) (PI)
                 (PI) (SG) (SG) (PI) (PI) (SG) (DLTA) (DLTA) (PI)
                 (PI) (SG) (SG)
 The electronic state of the initial guess is 1-SG.
 Leave Link  401 at Sun May 22 15:49:06 2022, MaxMem=   104857600 cpu:               0.1 elap:               0.1
 (Enter /apps/software/g16/l502.exe)
 Keep R1 ints in memory in symmetry-blocked form, NReq=40143665.
 FoFCou: FMM=F IPFlag=           0 FMFlag=           0 FMFlg1=           0
         NFxFlg=           0 DoJE=F BraDBF=F KetDBF=F FulRan=T
         wScrn=  0.000000 ICntrl=       600 IOpCl=  0 I1Cent=           0 NGrid=           0
         NMat0=    1 NMatS0=   8001 NMatT0=    0 NMatD0=    1 NMtDS0=    0 NMtDT0=    0
 Petite list used in FoFCou.
 Closed shell SCF:
 Using DIIS extrapolation, IDIIS=  1040.
 NGot=   104857600 LenX=    96673173 LenY=    96647132
 Requested convergence on RMS density matrix=1.00D-08 within 128 cycles.
 Requested convergence on MAX density matrix=1.00D-06.
 Requested convergence on             energy=1.00D-06.
 No special actions if energy rises.

 Cycle   1  Pass 1  IDiag  1:
 E= -24.8586754380567    
 DIIS: error= 1.81D-10 at cycle   1 NSaved=   1.
 NSaved= 1 IEnMin= 1 EnMin= -24.8586754380567     IErMin= 1 ErrMin= 1.81D-10
 ErrMax= 1.81D-10  0.00D+00 EMaxC= 1.00D-01 BMatC= 5.82D-19 BMatP= 5.82D-19
 IDIUse=1 WtCom= 1.00D+00 WtEn= 0.00D+00
 Coeff-Com:  0.100D+01
 Coeff:      0.100D+01
 Gap=     0.096 Goal=   None    Shift=    0.000
 Skip diagonalization as Alpha Fock matrix is already diagonal.
 RMSDP=0.00D+00 MaxDP=0.00D+00              OVMax= 0.00D+00

 SCF Done:  E(RHF) =  -24.8586754381     A.U. after    1 cycles
            NFock=  1  Conv=0.00D+00     -V/T= 2.0029
 KE= 2.478568981252D+01 PE=-5.791617960364D+01 EE= 7.830833343963D+00
 Leave Link  502 at Sun May 22 15:49:09 2022, MaxMem=   104857600 cpu:               3.2 elap:               3.2
 (Enter /apps/software/g16/l801.exe)
 Windowed orbitals will be sorted by symmetry type.
 ExpMin= 1.88D-02 ExpMax= 2.39D+04 ExpMxC= 2.30D+02 IAcc=3 IRadAn=         5 AccDes= 0.00D+00
 HarFok:  IExCor=  205 AccDes= 0.00D+00 IRadAn=         5 IDoV=-2 UseB2=F ITyADJ=14
 ICtDFT= 12500011 ScaDFX=  1.000000  1.000000  1.000000  1.000000
 DSYEVD-2 returned Info=        3401 IAlg= 4 N=    80 NDim=    80 NE2=     1309686 trying  DSYEV.
 Largest valence mixing into a core orbital is  3.99D-04
 Largest core mixing into a valence orbital is  1.71D-04
 Range of M.O.s used for correlation:     2   126
 NBasis=   126 NAE=     3 NBE=     3 NFC=     1 NFV=     0
 NROrb=    125 NOA=     2 NOB=     2 NVA=   123 NVB=   123

 **** Warning!!: The smallest alpha delta epsilon is  0.95738472D-01

 Leave Link  801 at Sun May 22 15:49:10 2022, MaxMem=   104857600 cpu:               0.1 elap:               0.1
 (Enter /apps/software/g16/l804.exe)
 Closed-shell transformation, MDV=   104857600 ITran=4 ISComp=2.
 Unit  1 TFree=        535169 TCopy=        350885.
 Semi-Direct transformation.
 ModeAB=           4 MOrb=             2 LenV=     104247702
 LASXX=       493564 LTotXX=      493564 LenRXX=     1003397
 LTotAB=      509833 MaxLAS=     2943750 LenRXY=           0
 NonZer=     1496961 LenScr=     2992128 LnRSAI=     2943750
 LnScr1=     5150208 LExtra=           0 Total=     12089483
 MaxDsk=          -1 SrtSym=           T ITran=            4
 DoSDTr:  NPSUse=  1
 JobTyp=0 Pass  1:  I=   1 to   2.
 (rs|ai) integrals will be sorted in core.
 Complete sort for first half transformation.
 First half transformation complete.
 Complete sort for second half transformation.
 Second half transformation complete.
 Spin components of T(2) and E(2):
     alpha-alpha T2 =       0.1879242423D-02 E2=     -0.2401396150D-02
     alpha-beta  T2 =       0.5725340088D+00 E2=     -0.1731352935D+00
     beta-beta   T2 =       0.1879242423D-02 E2=     -0.2401396150D-02
 ANorm=    0.1255504876D+01
 E2 =    -0.1779380858D+00 EUMP2 =    -0.25036613523863D+02
 Leave Link  804 at Sun May 22 15:49:14 2022, MaxMem=   104857600 cpu:               4.2 elap:               4.2
 (Enter /apps/software/g16/l913.exe)
 CIDS:  MDV=   104857600.
 Frozen-core window:  NFC=   1 NFV=   0.
 IFCWin=0 IBDFC=1 NFBD=     0     0 NFCmp=     0     0 NFFFC=     0     0
 Using DD3R+UMP44R for 1st iteration.
 Using DD4RQ for 2nd and later iterations.
 Keep R2 and R3 ints in memory in symmetry-blocked form, NReq=40146875.
 FoFCou: FMM=F IPFlag=           0 FMFlag=           0 FMFlg1=           0
         NFxFlg=           0 DoJE=F BraDBF=F KetDBF=F FulRan=T
         wScrn=  0.000000 ICntrl=       600 IOpCl=  0 I1Cent=           0 NGrid=           0
         NMat0=    1 NMatS0=   8001 NMatT0=    0 NMatD0=    1 NMtDS0=    0 NMtDT0=    0
 Petite list used in FoFCou.
 CIDS: In Core Option IDoMem=           1.
 Coupled Cluster theory with single and double substitutions
 ===========================================================
 Iterations=  50 Convergence= 0.100D-06
 Produce multiple copies of IABC intergrals
 Iteration Nr.   1
 **********************
 DD1Dir will call FoFMem   1 times, MxPair=         6
 NAB=     3 NAA=     0 NBB=     0.
 MP4(R+Q)=  0.84259608D-01
 Maximum subspace dimension=  5
 A-vector RMS=  1.3453384D-01 Max=  1.0241019D+00 conv= 1.00D-05.
 RLE energy=       -0.0537615197
 E3=       -0.31501305D-01        EUMP3=      -0.25068114829D+02
 E4(DQ)=    0.42201605D-01        UMP4(DQ)=   -0.25025913224D+02
 E4(SDQ)=  -0.17744278D+00        UMP4(SDQ)=  -0.25245557606D+02
 VARIATIONAL ENERGIES WITH THE FIRST-ORDER WAVEFUNCTION:
 DE(Corr)=  0.15148475E-01 E(Corr)=     -24.843526963    
 NORM(A)=   0.15971123D+01
 Iteration Nr.   2
 **********************
 DD1Dir will call FoFMem   1 times, MxPair=         6
 NAB=     3 NAA=     0 NBB=     0.
 A-vector RMS=  2.1196559D-01 Max=  1.6167219D+00 conv= 1.00D-05.
 RLE energy=       -0.1764933870
 DE(Corr)= -0.15886653     E(CORR)=     -25.017541968     Delta=-1.74D-01
 NORM(A)=   0.13489340D+01
 Iteration Nr.   3
 **********************
 DD1Dir will call FoFMem   1 times, MxPair=         6
 NAB=     3 NAA=     0 NBB=     0.
 A-vector RMS=  2.6046190D-02 Max=  4.1618216D-01 conv= 1.00D-05.
 RLE energy=       -0.2472287924
 DE(Corr)= -0.21766611     E(CORR)=     -25.076341553     Delta=-5.88D-02
 NORM(A)=   0.20038856D+01
 Iteration Nr.   4
 **********************
 DD1Dir will call FoFMem   1 times, MxPair=         6
 NAB=     3 NAA=     0 NBB=     0.
 A-vector RMS=  7.4855499D-02 Max=  5.7266833D-01 conv= 1.00D-05.
 RLE energy=       -0.2103519575
 DE(Corr)= -0.24365288     E(CORR)=     -25.102328321     Delta=-2.60D-02
 NORM(A)=   0.15446269D+01
 Iteration Nr.   5
 **********************
 DD1Dir will call FoFMem   1 times, MxPair=         6
 NAB=     3 NAA=     0 NBB=     0.
 A-vector RMS=  3.6587040D-02 Max=  2.8124319D-01 conv= 1.00D-05.
 RLE energy=       -0.2252094017
 DE(Corr)= -0.19234459     E(CORR)=     -25.051020024     Delta= 5.13D-02
 NORM(A)=   0.17457745D+01
 Iteration Nr.   6
 **********************
 DD1Dir will call FoFMem   1 times, MxPair=         6
 NAB=     3 NAA=     0 NBB=     0.
 A-vector RMS=  8.1175602D-03 Max=  6.2006782D-02 conv= 1.00D-05.
 RLE energy=       -0.2287603875
 DE(Corr)= -0.23533135     E(CORR)=     -25.094006793     Delta=-4.30D-02
 NORM(A)=   0.17577324D+01
 Iteration Nr.   7
 **********************
 DD1Dir will call FoFMem   1 times, MxPair=         6
 NAB=     3 NAA=     0 NBB=     0.
 A-vector RMS=  1.3409905D-03 Max=  1.3854162D-02 conv= 1.00D-05.
 RLE energy=       -0.2291397074
 DE(Corr)= -0.22611532     E(CORR)=     -25.084790763     Delta= 9.22D-03
 NORM(A)=   0.17621760D+01
 Iteration Nr.   8
 **********************
 DD1Dir will call FoFMem   1 times, MxPair=         6
 NAB=     3 NAA=     0 NBB=     0.
 A-vector RMS=  2.9096497D-04 Max=  2.0776861D-02 conv= 1.00D-05.
 RLE energy=       -0.2260804328
 DE(Corr)= -0.22573759     E(CORR)=     -25.084413030     Delta= 3.78D-04
 NORM(A)=   0.17457602D+01
 Iteration Nr.   9
 **********************
 DD1Dir will call FoFMem   1 times, MxPair=         6
 NAB=     3 NAA=     0 NBB=     0.
 A-vector RMS=  1.4368802D-03 Max=  1.3282566D-02 conv= 1.00D-05.
 RLE energy=       -0.2273783009
 DE(Corr)= -0.22935779     E(CORR)=     -25.088033230     Delta=-3.62D-03
 NORM(A)=   0.17510700D+01
 Iteration Nr.  10
 **********************
 DD1Dir will call FoFMem   1 times, MxPair=         6
 NAB=     3 NAA=     0 NBB=     0.
 A-vector RMS=  2.8274748D-04 Max=  2.1135826D-03 conv= 1.00D-05.
 RLE energy=       -0.2272230108
 DE(Corr)= -0.22688760     E(CORR)=     -25.085563040     Delta= 2.47D-03
 NORM(A)=   0.17518070D+01
 Iteration Nr.  11
 **********************
 DD1Dir will call FoFMem   1 times, MxPair=         6
 NAB=     3 NAA=     0 NBB=     0.
 A-vector RMS=  4.7510779D-04 Max=  3.6868551D-03 conv= 1.00D-05.
 RLE energy=       -0.2272506575
 DE(Corr)= -0.22768064     E(CORR)=     -25.086356078     Delta=-7.93D-04
 NORM(A)=   0.17501450D+01
 Iteration Nr.  12
 **********************
 DD1Dir will call FoFMem   1 times, MxPair=         6
 NAB=     3 NAA=     0 NBB=     0.
 A-vector RMS=  2.9214650D-04 Max=  2.2383064D-03 conv= 1.00D-05.
 RLE energy=       -0.2271978349
 DE(Corr)= -0.22685595     E(CORR)=     -25.085531385     Delta= 8.25D-04
 NORM(A)=   0.17506321D+01
 Iteration Nr.  13
 **********************
 DD1Dir will call FoFMem   1 times, MxPair=         6
 NAB=     3 NAA=     0 NBB=     0.
 A-vector RMS=  5.2659023D-05 Max=  3.8039088D-04 conv= 1.00D-05.
 RLE energy=       -0.2272048225
 DE(Corr)= -0.22725182     E(CORR)=     -25.085927254     Delta=-3.96D-04
 NORM(A)=   0.17505263D+01
 Iteration Nr.  14
 **********************
 DD1Dir will call FoFMem   1 times, MxPair=         6
 NAB=     3 NAA=     0 NBB=     0.
 A-vector RMS=  9.6230606D-06 Max=  8.2680309D-05 conv= 1.00D-05.
 RLE energy=       -0.2271975152
 DE(Corr)= -0.22718767     E(CORR)=     -25.085863112     Delta= 6.41D-05
 NORM(A)=   0.17504868D+01
 Iteration Nr.  15
 **********************
 DD1Dir will call FoFMem   1 times, MxPair=         6
 NAB=     3 NAA=     0 NBB=     0.
 A-vector RMS=  1.6373974D-06 Max=  3.3116748D-05 conv= 1.00D-05.
 RLE energy=       -0.2271936463
 DE(Corr)= -0.22719111     E(CORR)=     -25.085866548     Delta=-3.44D-06
 NORM(A)=   0.17504556D+01
 Iteration Nr.  16
 **********************
 DD1Dir will call FoFMem   1 times, MxPair=         6
 NAB=     3 NAA=     0 NBB=     0.
 A-vector RMS=  2.8359615D-06 Max=  2.1039334D-05 conv= 1.00D-05.
 RLE energy=       -0.2271949204
 DE(Corr)= -0.22719200     E(CORR)=     -25.085867440     Delta=-8.92D-07
 NORM(A)=   0.17504730D+01
 Iteration Nr.  17
 **********************
 DD1Dir will call FoFMem   1 times, MxPair=         6
 NAB=     3 NAA=     0 NBB=     0.
 A-vector RMS=  1.5690001D-06 Max=  1.1576860D-05 conv= 1.00D-05.
 RLE energy=       -0.2271957823
 DE(Corr)= -0.22719542     E(CORR)=     -25.085870859     Delta=-3.42D-06
 NORM(A)=   0.17504618D+01
 Iteration Nr.  18
 **********************
 DD1Dir will call FoFMem   1 times, MxPair=         6
 NAB=     3 NAA=     0 NBB=     0.
 A-vector RMS=  5.2280408D-06 Max=  4.0090529D-05 conv= 1.00D-05.
 RLE energy=       -0.2271933418
 DE(Corr)= -0.22718798     E(CORR)=     -25.085863419     Delta= 7.44D-06
 NORM(A)=   0.17504622D+01
 Iteration Nr.  19
 **********************
 DD1Dir will call FoFMem   1 times, MxPair=         6
 NAB=     3 NAA=     0 NBB=     0.
 A-vector RMS=  1.6274831D-06 Max=  1.2200496D-05 conv= 1.00D-05.
 RLE energy=       -0.2271943473
 DE(Corr)= -0.22719640     E(CORR)=     -25.085871839     Delta=-8.42D-06
 NORM(A)=   0.17504650D+01
 Iteration Nr.  20
 **********************
 DD1Dir will call FoFMem   1 times, MxPair=         6
 NAB=     3 NAA=     0 NBB=     0.
 A-vector RMS=  1.6090875D-07 Max=  8.8663718D-07 conv= 1.00D-05.
 RLE energy=       -0.2271942632
 DE(Corr)= -0.22719439     E(CORR)=     -25.085869829     Delta= 2.01D-06
 NORM(A)=   0.17504643D+01
 Iteration Nr.  21
 **********************
 DD1Dir will call FoFMem   1 times, MxPair=         6
 NAB=     3 NAA=     0 NBB=     0.
 A-vector RMS=  6.9555855D-08 Max=  4.7587964D-07 conv= 1.00D-05.
 RLE energy=       -0.2271942778
 DE(Corr)= -0.22719435     E(CORR)=     -25.085869792     Delta= 3.66D-08
 NORM(A)=   0.17504641D+01
 CI/CC converged in   21 iterations to DelEn= 3.66D-08 Conv= 1.00D-07 ErrA1= 6.96D-08 Conv= 1.00D-05
 Wavefunction amplitudes converged. E(Corr)=     -25.085869792    
 Dominant configurations:
 ***********************
 Spin Case        I    J    A    B          Value
    AA            3         4           -0.478498D+00
    AA            3        10            0.120754D+00
    AA            3        11           -0.114100D+00
   ABAB           2    2    6    6      -0.123134D+00
   ABAB           2    2    5    5      -0.123134D+00
   ABAB           3    3    4    4      -0.115216D+01
   ABAB           3    3    4   11       0.123106D+00
   ABAB           3    3    4   36       0.101254D+00
   ABAB           3    3   11    4       0.123106D+00
   ABAB           3    3   36    4       0.101254D+00
 Largest amplitude= 1.15D+00
 Discarding MO integrals.
 Leave Link  913 at Sun May 22 15:49:18 2022, MaxMem=   104857600 cpu:               4.1 elap:               4.1
 (Enter /apps/software/g16/l601.exe)
 Copying SCF densities to generalized density rwf, IOpCl= 0 IROHF=0.

 **********************************************************************

            Population analysis using the SCF density.

 **********************************************************************

 Orbital symmetries:
       Occupied  (SG) (SG) (SG)
       Virtual   (SG) (PI) (PI) (SG) (PI) (PI) (SG) (SG) (DLTA)
                 (DLTA) (PI) (PI) (SG) (PI) (PI) (SG) (PI) (PI)
                 (SG) (SG) (PHI) (PHI) (DLTA) (DLTA) (PI) (PI)
                 (SG) (DLTA) (DLTA) (PI) (PI) (SG) (SG) (DLTA)
                 (DLTA) (PI) (PI) (SG) (PI) (PI) (SG) (PI) (PI)
                 (SG) (SG) (?A) (?A) (PHI) (PHI) (DLTA) (DLTA)
                 (DLTA) (DLTA) (PI) (PI) (SG) (PI) (PI) (SG) (PHI)
                 (PHI) (DLTA) (DLTA) (PI) (PI) (SG) (DLTA) (DLTA)
                 (PHI) (PHI) (PI) (PI) (SG) (SG) (DLTA) (DLTA)
                 (PI) (PI) (SG) (PI) (PI) (SG) (PI) (PI) (SG) (?A)
                 (?A) (DLTA) (DLTA) (PHI) (PHI) (DLTA) (DLTA) (PI)
                 (PI) (PI) (PI) (SG) (SG) (PHI) (PHI) (DLTA) (DLTA)
                 (PI) (PI) (SG) (PHI) (PHI) (DLTA) (DLTA) (PI)
                 (PI) (SG) (SG) (PI) (PI) (SG) (DLTA) (DLTA) (PI)
                 (PI) (SG) (SG)
 The electronic state is 1-SG.
 Alpha  occ. eigenvalues --   -7.89613  -0.63232  -0.20596
 Alpha virt. eigenvalues --   -0.11022  -0.05821  -0.05821   0.01735   0.03573
 Alpha virt. eigenvalues --    0.03573   0.04851   0.10456   0.10843   0.10843
 Alpha virt. eigenvalues --    0.11440   0.11440   0.12673   0.23322   0.23322
 Alpha virt. eigenvalues --    0.23382   0.24277   0.24277   0.26234   0.29024
 Alpha virt. eigenvalues --    0.40380   0.40380   0.41020   0.41020   0.41525
 Alpha virt. eigenvalues --    0.41525   0.42079   0.42131   0.42131   0.42834
 Alpha virt. eigenvalues --    0.42834   0.44706   0.48796   0.69650   0.69650
 Alpha virt. eigenvalues --    0.69826   0.69826   0.70764   0.86053   0.86053
 Alpha virt. eigenvalues --    0.89092   0.93062   0.93062   0.94482   1.27558
 Alpha virt. eigenvalues --    1.28279   1.28279   1.29057   1.29057   1.29101
 Alpha virt. eigenvalues --    1.29101   1.29627   1.29627   1.29971   1.29971
 Alpha virt. eigenvalues --    1.30113   1.30141   1.30141   1.32035   1.33634
 Alpha virt. eigenvalues --    1.33634   1.34596   1.34596   1.35228   1.35228
 Alpha virt. eigenvalues --    1.36201   1.65459   1.65459   1.65464   1.65464
 Alpha virt. eigenvalues --    1.65486   1.65486   1.65580   1.72636   2.56326
 Alpha virt. eigenvalues --    2.56326   2.56436   2.56436   2.56937   2.67784
 Alpha virt. eigenvalues --    2.67784   2.70492   3.57214   3.57214   3.58622
 Alpha virt. eigenvalues --    3.79040   3.79040   3.80015   3.80015   3.80089
 Alpha virt. eigenvalues --    3.80089   3.80844   3.80844   3.81234   3.81234
 Alpha virt. eigenvalues --    3.81327   3.81327   3.81457   3.82543   3.94142
 Alpha virt. eigenvalues --    3.94142   3.95307   3.95307   3.96029   3.96029
 Alpha virt. eigenvalues --    3.96551   6.66266   6.66266   6.66274   6.66274
 Alpha virt. eigenvalues --    6.66286   6.66286   6.66312   7.51306   8.04370
 Alpha virt. eigenvalues --    8.04370   8.06433   8.49886   8.49886   8.49955
 Alpha virt. eigenvalues --    8.49955   8.50339  12.85418
          Condensed to atoms (all electrons):
               1          2
     1  B    4.554178   0.035419
     2  H    0.035419   1.374984
 Mulliken charges:
               1
     1  B    0.410403
     2  H   -0.410403
 Sum of Mulliken charges =  -0.00000
 Mulliken charges with hydrogens summed into heavy atoms:
               1
     1  B   -0.000000
 Electronic spatial extent (au):  <R**2>=            162.7543
 Charge=             -0.0000 electrons
 Dipole moment (field-independent basis, Debye):
    X=              0.0000    Y=              0.0000    Z=             11.9866  Tot=             11.9866
 Quadrupole moment (field-independent basis, Debye-Ang):
   XX=             -9.3126   YY=             -9.3126   ZZ=            -56.1888
   XY=              0.0000   XZ=              0.0000   YZ=              0.0000
 Traceless Quadrupole moment (field-independent basis, Debye-Ang):
   XX=             15.6254   YY=             15.6254   ZZ=            -31.2508
   XY=              0.0000   XZ=              0.0000   YZ=              0.0000
 Octapole moment (field-independent basis, Debye-Ang**2):
  XXX=              0.0000  YYY=              0.0000  ZZZ=            261.0205  XYY=              0.0000
  XXY=              0.0000  XXZ=             14.4652  XZZ=              0.0000  YZZ=              0.0000
  YYZ=             14.4652  XYZ=              0.0000
 Hexadecapole moment (field-independent basis, Debye-Ang**3):
 XXXX=            -22.7327 YYYY=            -22.7327 ZZZZ=          -1714.3020 XXXY=              0.0000
 XXXZ=              0.0000 YYYX=              0.0000 YYYZ=              0.0000 ZZZX=              0.0000
 ZZZY=              0.0000 XXYY=             -7.5776 XXZZ=           -108.1079 YYZZ=           -108.1079
 XXYZ=              0.0000 YYXZ=              0.0000 ZZXY=              0.0000
 N-N= 4.409810091000D-01 E-N=-5.791617960364D+01  KE= 2.478568981252D+01
 Symmetry A1   KE= 2.478568981252D+01
 Symmetry A2   KE= 5.906225652490D-52
 Symmetry B1   KE= 0.000000000000D+00
 Symmetry B2   KE= 0.000000000000D+00
 Leave Link  601 at Sun May 22 15:49:18 2022, MaxMem=   104857600 cpu:               0.1 elap:               0.0
 (Enter /apps/software/g16/l9999.exe)
 1\1\GINC-CNODE10\SP\RCCSD-FC\Aug-CC-pVQZ\B1H1\LCZ\22-May-2022\0\\#p RH
 F/aug-cc-pVQZ guess=read CCSD=FC\\BH RHF at 6.0 Angstrom\\0,1\B,0,0.,0
 .,0.\H,0,6.,0.,0.\\Version=ES64L-G16RevA.03\State=1-SG\HF=-24.8586754\
 MP2=-25.0366135\MP3=-25.0681148\MP4D=-25.1101728\MP4DQ=-25.0259132\MP4
 SDQ=-25.2455576\CCSD=-25.0858698\RMSD=0.000e+00\PG=C*V [C*(H1B1)]\\@


 One man practicing sportsmanship is far better than 50 preaching it.
 -- Knute K. Rockne
 Job cpu time:       0 days  0 hours  0 minutes 12.3 seconds.
 Elapsed time:       0 days  0 hours  0 minutes 12.2 seconds.
 File lengths (MBytes):  RWF=    101 Int=      0 D2E=      0 Chk=     67 Scr=      1
 Normal termination of Gaussian 16 at Sun May 22 15:49:18 2022.

Sender: Unischeduler System <lcz@mgt01>
Subject: Job 134069: <#!/bin/bash
#BSUB -J intel
#BSUB -o BH-6.0-CCSD-G.out
#BSUB -n 8
#BSUB -q cqueue
#BSUB -R span[hosts=1]
export g16root=/apps/software
source /apps/software/g16/bsd/g16.profile
export GAUSS_SCRDIR=/scratch
/apps/software/g16/g16 < BH-6.0-CCSD-G.inp > BH-6.0-CCSD-G.out> Done

Job <#!/bin/bash
#BSUB -J intel
#BSUB -o BH-6.0-CCSD-G.out
#BSUB -n 8
#BSUB -q cqueue
#BSUB -R span[hosts=1]
export g16root=/apps/software
source /apps/software/g16/bsd/g16.profile
export GAUSS_SCRDIR=/scratch
/apps/software/g16/g16 < BH-6.0-CCSD-G.inp > BH-6.0-CCSD-G.out> was submitted from host <mgt01> by user <lcz>.
Job was executed on host(s) <8*cnode10>, in queue <cqueue>, as user <lcz>.
</apps/users/lcz> was used as the home directory.
</apps/users/lcz/exe13/CCSD> was used as the working directory.
Started at 2022-05-22 15:49:06
Results reported at 2022-05-22 15:49:18

Your job looked like:

------------------------------------------------------------
# User input
#!/bin/bash
#BSUB -J intel
#BSUB -o BH-6.0-CCSD-G.out
#BSUB -n 8
#BSUB -q cqueue
#BSUB -R span[hosts=1]
export g16root=/apps/software
source /apps/software/g16/bsd/g16.profile
export GAUSS_SCRDIR=/scratch
/apps/software/g16/g16 < BH-6.0-CCSD-G.inp > BH-6.0-CCSD-G.out
------------------------------------------------------------

Successfully completed.

Resource usage summary:

    CPU time   :            3.53 sec.
    Max Memory :               383 MB
    Max Processes  :               5


The output (if any) follows:

