 Entering Gaussian System, Link 0=/apps/software/g16/g16
 Initial command:
 /apps/software/g16/l1.exe "/scratch/Gau-329496.inp" -scrdir="/scratch/"
 Entering Link 1 = /apps/software/g16/l1.exe PID=    329497.
  
 Copyright (c) 1988,1990,1992,1993,1995,1998,2003,2009,2016,
            Gaussian, Inc.  All Rights Reserved.
  
 This is part of the Gaussian(R) 16 program.  It is based on
 the Gaussian(R) 09 system (copyright 2009, Gaussian, Inc.),
 the Gaussian(R) 03 system (copyright 2003, Gaussian, Inc.),
 the Gaussian(R) 98 system (copyright 1998, Gaussian, Inc.),
 the Gaussian(R) 94 system (copyright 1995, Gaussian, Inc.),
 the Gaussian 92(TM) system (copyright 1992, Gaussian, Inc.),
 the Gaussian 90(TM) system (copyright 1990, Gaussian, Inc.),
 the Gaussian 88(TM) system (copyright 1988, Gaussian, Inc.),
 the Gaussian 86(TM) system (copyright 1986, Carnegie Mellon
 University), and the Gaussian 82(TM) system (copyright 1983,
 Carnegie Mellon University). Gaussian is a federally registered
 trademark of Gaussian, Inc.
  
 This software contains proprietary and confidential information,
 including trade secrets, belonging to Gaussian, Inc.
  
 This software is provided under written license and may be
 used, copied, transmitted, or stored only in accord with that
 written license.
  
 The following legend is applicable only to US Government
 contracts under FAR:
  
                    RESTRICTED RIGHTS LEGEND
  
 Use, reproduction and disclosure by the US Government is
 subject to restrictions as set forth in subparagraphs (a)
 and (c) of the Commercial Computer Software - Restricted
 Rights clause in FAR 52.227-19.
  
 Gaussian, Inc.
 340 Quinnipiac St., Bldg. 40, Wallingford CT 06492
  
  
 ---------------------------------------------------------------
 Warning -- This program may not be used in any manner that
 competes with the business of Gaussian, Inc. or will provide
 assistance to any competitor of Gaussian, Inc.  The licensee
 of this program is prohibited from giving any competitor of
 Gaussian, Inc. access to this program.  By using this program,
 the user acknowledges that Gaussian, Inc. is engaged in the
 business of creating and licensing software in the field of
 computational chemistry and represents and warrants to the
 licensee that it is not a competitor of Gaussian, Inc. and that
 it will not use this program in any manner prohibited above.
 ---------------------------------------------------------------
  

 Cite this work as:
 Gaussian 16, Revision A.03,
 M. J. Frisch, G. W. Trucks, H. B. Schlegel, G. E. Scuseria, 
 M. A. Robb, J. R. Cheeseman, G. Scalmani, V. Barone, 
 G. A. Petersson, H. Nakatsuji, X. Li, M. Caricato, A. V. Marenich, 
 J. Bloino, B. G. Janesko, R. Gomperts, B. Mennucci, H. P. Hratchian, 
 J. V. Ortiz, A. F. Izmaylov, J. L. Sonnenberg, D. Williams-Young, 
 F. Ding, F. Lipparini, F. Egidi, J. Goings, B. Peng, A. Petrone, 
 T. Henderson, D. Ranasinghe, V. G. Zakrzewski, J. Gao, N. Rega, 
 G. Zheng, W. Liang, M. Hada, M. Ehara, K. Toyota, R. Fukuda, 
 J. Hasegawa, M. Ishida, T. Nakajima, Y. Honda, O. Kitao, H. Nakai, 
 T. Vreven, K. Throssell, J. A. Montgomery, Jr., J. E. Peralta, 
 F. Ogliaro, M. J. Bearpark, J. J. Heyd, E. N. Brothers, K. N. Kudin, 
 V. N. Staroverov, T. A. Keith, R. Kobayashi, J. Normand, 
 K. Raghavachari, A. P. Rendell, J. C. Burant, S. S. Iyengar, 
 J. Tomasi, M. Cossi, J. M. Millam, M. Klene, C. Adamo, R. Cammi, 
 J. W. Ochterski, R. L. Martin, K. Morokuma, O. Farkas, 
 J. B. Foresman, and D. J. Fox, Gaussian, Inc., Wallingford CT, 2016.
 
 ******************************************
 Gaussian 16:  ES64L-G16RevA.03 25-Dec-2016
                15-May-2022 
 ******************************************
 %nprocshared=16
 Will use up to   16 processors via shared memory.
 -------------------------------
 #p UHF/cc-pVTZ stable guess=mix
 -------------------------------
 1/38=1,172=1/1;
 2/12=2,17=6,18=5,40=1/2;
 3/5=16,6=1,11=2,25=1,30=1,116=2/1,2,3;
 4/13=-1/1;
 5/5=2,38=5/2;
 8/6=1,10=90,11=11/1;
 9/8=-1,42=1/14;
 6/7=2,8=2,9=2,10=2,28=1/1;
 99/5=1,9=1/99;
 Leave Link    1 at Sun May 15 10:42:49 2022, MaxMem=           0 cpu:               0.3 elap:               0.0
 (Enter /apps/software/g16/l101.exe)
 ------------
 [Fe(H2O)6]2+
 ------------
 Symbolic Z-matrix:
 Charge =  2 Multiplicity = 5
 Fe                   -0.64257   0.51804   0.11515 
 O                     0.11175   2.15027  -0.78003 
 H                     0.70767   2.71591  -0.25347 
 O                    -1.31194  -0.30254  -1.59154 
 H                    -1.93648   0.13093  -2.20091 
 O                     0.02721   1.33941   1.82123 
 H                     0.65259   0.90687   2.4304 
 O                    -1.39648  -1.11445   1.01024 
 H                    -1.99331  -1.6794    0.48397 
 O                    -2.28682   1.63341   0.41005 
 H                    -2.35377   2.47291  -0.08302 
 O                     1.00194  -0.59712  -0.1795 
 H                     1.06808  -1.43759   0.31203 
 H                    -3.18922   1.2728    0.48036 
 H                    -0.66522  -0.78352  -2.14179 
 H                     1.90455  -0.23678  -0.24845 
 H                     0.43777   2.17114  -1.69794 
 H                    -0.61876   1.82124   2.3716 
 H                    -1.72126  -1.13595   1.92857 
 
 ITRead=  0  0  0  0  0  0  0  0  0  0  0  0  0  0  0  0  0  0  0
 MicOpt= -1 -1 -1 -1 -1 -1 -1 -1 -1 -1 -1 -1 -1 -1 -1 -1 -1 -1 -1
 NAtoms=     19 NQM=       19 NQMF=       0 NMMI=      0 NMMIF=      0
                NMic=       0 NMicF=      0.
                    Isotopes and Nuclear Properties:
 (Nuclear quadrupole moments (NQMom) in fm**2, nuclear magnetic moments (NMagM)
  in nuclear magnetons)

  Atom         1           2           3           4           5           6           7           8           9          10
 IAtWgt=          56          16           1          16           1          16           1          16           1          16
 AtmWgt=  55.9349393  15.9949146   1.0078250  15.9949146   1.0078250  15.9949146   1.0078250  15.9949146   1.0078250  15.9949146
 NucSpn=           0           0           1           0           1           0           1           0           1           0
 AtZEff=  -0.0000000  -0.0000000  -0.0000000  -0.0000000  -0.0000000  -0.0000000  -0.0000000  -0.0000000  -0.0000000  -0.0000000
 NQMom=    0.0000000   0.0000000   0.0000000   0.0000000   0.0000000   0.0000000   0.0000000   0.0000000   0.0000000   0.0000000
 NMagM=    0.0000000   0.0000000   2.7928460   0.0000000   2.7928460   0.0000000   2.7928460   0.0000000   2.7928460   0.0000000
 AtZNuc=  26.0000000   8.0000000   1.0000000   8.0000000   1.0000000   8.0000000   1.0000000   8.0000000   1.0000000   8.0000000

  Atom        11          12          13          14          15          16          17          18          19
 IAtWgt=           1          16           1           1           1           1           1           1           1
 AtmWgt=   1.0078250  15.9949146   1.0078250   1.0078250   1.0078250   1.0078250   1.0078250   1.0078250   1.0078250
 NucSpn=           1           0           1           1           1           1           1           1           1
 AtZEff=  -0.0000000  -0.0000000  -0.0000000  -0.0000000  -0.0000000  -0.0000000  -0.0000000  -0.0000000  -0.0000000
 NQMom=    0.0000000   0.0000000   0.0000000   0.0000000   0.0000000   0.0000000   0.0000000   0.0000000   0.0000000
 NMagM=    2.7928460   0.0000000   2.7928460   2.7928460   2.7928460   2.7928460   2.7928460   2.7928460   2.7928460
 AtZNuc=   1.0000000   8.0000000   1.0000000   1.0000000   1.0000000   1.0000000   1.0000000   1.0000000   1.0000000
 Leave Link  101 at Sun May 15 10:42:49 2022, MaxMem=   104857600 cpu:               1.4 elap:               0.1
 (Enter /apps/software/g16/l202.exe)
                          Input orientation:                          
 ---------------------------------------------------------------------
 Center     Atomic      Atomic             Coordinates (Angstroms)
 Number     Number       Type             X           Y           Z
 ---------------------------------------------------------------------
      1         26           0       -0.642572    0.518039    0.115153
      2          8           0        0.111747    2.150274   -0.780033
      3          1           0        0.707668    2.715906   -0.253469
      4          8           0       -1.311938   -0.302544   -1.591540
      5          1           0       -1.936484    0.130931   -2.200908
      6          8           0        0.027209    1.339406    1.821227
      7          1           0        0.652588    0.906869    2.430403
      8          8           0       -1.396481   -1.114448    1.010239
      9          1           0       -1.993314   -1.679405    0.483975
     10          8           0       -2.286820    1.633408    0.410054
     11          1           0       -2.353770    2.472911   -0.083018
     12          8           0        1.001944   -0.597123   -0.179502
     13          1           0        1.068078   -1.437588    0.312025
     14          1           0       -3.189221    1.272802    0.480364
     15          1           0       -0.665220   -0.783520   -2.141795
     16          1           0        1.904546   -0.236783   -0.248450
     17          1           0        0.437767    2.171136   -1.697943
     18          1           0       -0.618756    1.821240    2.371599
     19          1           0       -1.721260   -1.135950    1.928569
 ---------------------------------------------------------------------
                    Distance matrix (angstroms):
                    1          2          3          4          5
     1  Fe   0.000000
     2  O    2.008617   0.000000
     3  H    2.605695   0.975875   0.000000
     4  O    2.008534   2.949871   3.870438   0.000000
     5  H    2.681081   3.208095   4.179253   0.974314   0.000000
     6  O    2.008467   2.726024   2.581112   4.017000   4.636169
     7  H    2.681233   3.485034   3.237100   4.636601   5.362314
     8  O    2.008625   4.017242   4.549287   2.726828   3.486264
     9  H    2.605627   4.549223   5.211323   2.582204   3.238694
    10  O    2.008623   2.727009   3.252541   2.950370   3.032704
    11  H    2.605570   2.582382   3.075793   3.326289   3.185035
    12  O    2.008691   2.949793   3.326896   2.726661   3.640124
    13  H    2.605678   3.870389   4.207279   3.252132   4.219298
    14  H    2.681132   3.640734   4.219811   3.209158   3.172135
    15  H    2.605452   3.326442   4.206731   0.975891   1.567108
    16  H    2.681376   3.032285   3.186051   3.486257   4.324444
    17  H    2.680891   0.974312   1.567204   3.031812   3.170563
    18  H    2.605849   3.251873   3.074216   4.549442   5.049887
    19  H    2.680994   4.636346   5.049532   3.640505   4.324799
                    6          7          8          9         10
     6  O    0.000000
     7  H    0.974311   0.000000
     8  O    2.950592   3.209559   0.000000
     9  H    3.870914   4.180692   0.975879   0.000000
    10  O    2.726276   3.640026   2.950194   3.326611   0.000000
    11  H    3.252698   4.219948   3.870498   4.206321   0.975893
    12  O    2.950113   3.032432   2.726820   3.253168   4.017314
    13  H    3.327581   3.186948   2.581854   3.075737   4.549282
    14  H    3.485365   4.323893   3.032103   3.185237   0.974324
    15  H    4.548825   5.049656   3.252626   3.075892   3.870796
    16  H    3.208166   3.170425   3.640244   4.220299   4.636680
    17  H    3.639353   4.322935   4.636138   5.049513   3.486571
    18  H    0.975881   1.567114   3.328125   4.207974   2.581739
    19  H    3.032499   3.171766   0.974307   1.567229   3.208597
                   11         12         13         14         15
    11  H    0.000000
    12  O    4.549201   0.000000
    13  H    5.211248   0.975886   0.000000
    14  H    1.567047   4.636584   5.049668   0.000000
    15  H    4.206436   2.581622   3.074632   4.180282   0.000000
    16  H    5.050056   0.974316   1.567082   5.362507   3.238421
    17  H    3.239094   3.207370   4.178536   4.325167   3.184898
    18  H    3.075726   3.870822   4.207994   3.238030   5.211300
    19  H    4.179764   3.485704   3.237994   3.170851   4.219868
                   16         17         18         19
    16  H    0.000000
    17  H    3.170260   0.000000
    18  H    4.179374   4.218986   0.000000
    19  H    4.323701   5.361884   3.186967   0.000000
 Stoichiometry    FeH12O6(2+,5)
 Framework group  C1[X(FeH12O6)]
 Deg. of freedom    51
 Full point group                 C1      NOp   1
 Largest Abelian subgroup         C1      NOp   1
 Largest concise Abelian subgroup C1      NOp   1
                         Standard orientation:                         
 ---------------------------------------------------------------------
 Center     Atomic      Atomic             Coordinates (Angstroms)
 Number     Number       Type             X           Y           Z
 ---------------------------------------------------------------------
      1         26           0        0.000065    0.000163   -0.000017
      2          8           0       -1.246719   -1.256779    0.948755
      3          1           0       -1.906773   -1.728539    0.406440
      4          8           0        1.248166    0.192856    1.561816
      5          1           0        0.978517    0.504619    2.444641
      6          8           0       -1.248574   -0.193244   -1.561244
      7          1           0       -0.979714   -0.505995   -2.443958
      8          8           0        1.247144    1.256732   -0.948912
      9          1           0        1.906411    1.729332   -0.406365
     10          8           0       -1.247341    1.449656    0.614407
     11          1           0       -1.905699    1.215874    1.295786
     12          8           0        1.247217   -1.449530   -0.614705
     13          1           0        1.906902   -1.215343   -1.294651
     14          1           0       -0.977458    2.370268    0.784533
     15          1           0        1.907641   -0.513331    1.698765
     16          1           0        0.977196   -2.369840   -0.786194
     17          1           0       -0.975734   -1.865439    1.659658
     18          1           0       -1.908858    0.512144   -1.698350
     19          1           0        0.976718    1.864477   -1.660803
 ---------------------------------------------------------------------
 Rotational constants (GHZ):           1.7156112           1.5579535           1.5576482
 Leave Link  202 at Sun May 15 10:42:49 2022, MaxMem=   104857600 cpu:               0.1 elap:               0.0
 (Enter /apps/software/g16/l301.exe)
 Standard basis: CC-pVTZ (5D, 7F)
 Ernie: Thresh=  0.10000D-02 Tol=  0.10000D-05 Strict=F.
 Ernie:  99 primitive shells out of 468 were deleted.
 There are   474 symmetry adapted cartesian basis functions of A   symmetry.
 There are   416 symmetry adapted basis functions of A   symmetry.
   416 basis functions,   867 primitive gaussians,   474 cartesian basis functions
    44 alpha electrons       40 beta electrons
       nuclear repulsion energy       695.7934702665 Hartrees.
 IExCor=    0 DFT=F Ex=HF Corr=None ExCW=0 ScaHFX=  1.000000
 ScaDFX=  1.000000  1.000000  1.000000  1.000000 ScalE2=  1.000000  1.000000
 IRadAn=      5 IRanWt=     -1 IRanGd=            0 ICorTp=0 IEmpDi=  4
 NAtoms=   19 NActive=   19 NUniq=   19 SFac= 1.00D+00 NAtFMM=   60 NAOKFM=F Big=F
 Integral buffers will be    131072 words long.
 Raffenetti 2 integral format.
 Two-electron integral symmetry is turned on.
 Leave Link  301 at Sun May 15 10:42:49 2022, MaxMem=   104857600 cpu:               0.8 elap:               0.1
 (Enter /apps/software/g16/l302.exe)
 NPDir=0 NMtPBC=     1 NCelOv=     1 NCel=       1 NClECP=     1 NCelD=      1
         NCelK=      1 NCelE2=     1 NClLst=     1 CellRange=     0.0.
 One-electron integrals computed using PRISM.
 One-electron integral symmetry used in STVInt
 PrsmSu:  requested number of processors reduced to:   4 ShMem   1 Linda.
 NBasis=   416 RedAO= T EigKep=  9.40D-04  NBF=   416
 NBsUse=   416 1.00D-06 EigRej= -1.00D+00 NBFU=   416
 Leave Link  302 at Sun May 15 10:42:49 2022, MaxMem=   104857600 cpu:               4.3 elap:               0.3
 (Enter /apps/software/g16/l303.exe)
 DipDrv:  MaxL=1.
 Leave Link  303 at Sun May 15 10:42:50 2022, MaxMem=   104857600 cpu:               0.9 elap:               0.1
 (Enter /apps/software/g16/l401.exe)
 ExpMin= 3.14D-02 ExpMax= 4.32D+06 ExpMxC= 4.91D+03 IAcc=3 IRadAn=         5 AccDes= 0.00D+00
 Harris functional with IExCor=  205 and IRadAn=       5 diagonalized for initial guess.
 HarFok:  IExCor=  205 AccDes= 0.00D+00 IRadAn=         5 IDoV= 1 UseB2=F ITyADJ=14
 ICtDFT=  3500011 ScaDFX=  1.000000  1.000000  1.000000  1.000000
 FoFCou: FMM=F IPFlag=           0 FMFlag=      100000 FMFlg1=           0
         NFxFlg=           0 DoJE=T BraDBF=F KetDBF=T FulRan=T
         wScrn=  0.000000 ICntrl=       500 IOpCl=  0 I1Cent=   200000004 NGrid=           0
         NMat0=    1 NMatS0=      1 NMatT0=    0 NMatD0=    1 NMtDS0=    0 NMtDT0=    0
 Petite list used in FoFCou.
 Harris En= -1718.33544721132    
 JPrj=0 DoOrth=F DoCkMO=T.
 Mixing orbitals, IMix= 1 IMixAn=  0 NRI=1 NE=   44 Coef=  7.07106781D-01  7.07106781D-01
 Mixing orbitals, IMix= 1 IMixAn=  0 NRI=1 NE=   40 Coef= -7.07106781D-01  7.07106781D-01
 Initial guess <Sx>= 0.0000 <Sy>= 0.0000 <Sz>= 2.0000 <S**2>= 6.0000 S= 2.0000
 Leave Link  401 at Sun May 15 10:42:50 2022, MaxMem=   104857600 cpu:              12.8 elap:               0.8
 (Enter /apps/software/g16/l502.exe)
 Integral symmetry usage will be decided dynamically.
 UHF open shell SCF:
 Using DIIS extrapolation, IDIIS=  1040.
 NGot=   104857600 LenX=   104396415 LenY=   104171265
 Requested convergence on RMS density matrix=1.00D-08 within 128 cycles.
 Requested convergence on MAX density matrix=1.00D-06.
 Requested convergence on             energy=1.00D-06.
 No special actions if energy rises.
 Fock matrices will be formed incrementally for  20 cycles.

 Cycle   1  Pass 0  IDiag  1:
 FoFJK:  IHMeth= 1 ICntrl=       0 DoSepK=F KAlg= 0 I1Cent=           0 FoldK=F
 IRaf= 960000000 NMat=       1 IRICut=       1 DoRegI=T DoRafI=F ISym2E= 0 IDoP0=0 IntGTp=1.
 FoFCou: FMM=F IPFlag=           0 FMFlag=      100000 FMFlg1=           0
         NFxFlg=           0 DoJE=F BraDBF=F KetDBF=F FulRan=T
         wScrn=  0.000000 ICntrl=         0 IOpCl=  1 I1Cent=           0 NGrid=           0
         NMat0=    1 NMatS0=      1 NMatT0=    0 NMatD0=    1 NMtDS0=    0 NMtDT0=    0
 Symmetry not used in FoFCou.
 E= -1717.77311993116    
 DIIS: error= 5.44D-02 at cycle   1 NSaved=   1.
 NSaved= 1 IEnMin= 1 EnMin= -1717.77311993116     IErMin= 1 ErrMin= 5.44D-02
 ErrMax= 5.44D-02  0.00D+00 EMaxC= 1.00D-01 BMatC= 5.14D+00 BMatP= 5.14D+00
 IDIUse=3 WtCom= 4.56D-01 WtEn= 5.44D-01
 Coeff-Com:  0.100D+01
 Coeff-En:   0.100D+01
 Coeff:      0.100D+01
 Gap=     0.188 Goal=   None    Shift=    0.000
 Gap=     0.710 Goal=   None    Shift=    0.000
 GapD=    0.188 DampG=1.000 DampE=0.250 DampFc=0.2500 IDamp=-1.
 Damping current iteration by 2.50D-01
 RMSDP=2.99D-03 MaxDP=7.12D-01              OVMax= 4.80D-01

 Cycle   2  Pass 0  IDiag  1:
 RMSU=  7.26D-04    CP:  9.85D-01
 E= -1717.93290427156     Delta-E=       -0.159784340405 Rises=F Damp=T
 DIIS: error= 3.65D-02 at cycle   2 NSaved=   2.
 NSaved= 2 IEnMin= 2 EnMin= -1717.93290427156     IErMin= 2 ErrMin= 3.65D-02
 ErrMax= 3.65D-02  0.00D+00 EMaxC= 1.00D-01 BMatC= 2.47D+00 BMatP= 5.14D+00
 IDIUse=3 WtCom= 6.35D-01 WtEn= 3.65D-01
 Coeff-Com: -0.168D+01 0.268D+01
 Coeff-En:   0.000D+00 0.100D+01
 Coeff:     -0.106D+01 0.206D+01
 Gap=     0.380 Goal=   None    Shift=    0.000
 Gap=     0.615 Goal=   None    Shift=    0.000
 RMSDP=2.40D-03 MaxDP=5.70D-01 DE=-1.60D-01 OVMax= 8.34D-02

 Cycle   3  Pass 0  IDiag  1:
 RMSU=  9.89D-04    CP:  9.32D-01  3.00D+00
 E= -1718.40942722292     Delta-E=       -0.476522951358 Rises=F Damp=F
 DIIS: error= 1.73D-02 at cycle   3 NSaved=   3.
 NSaved= 3 IEnMin= 3 EnMin= -1718.40942722292     IErMin= 3 ErrMin= 1.73D-02
 ErrMax= 1.73D-02  0.00D+00 EMaxC= 1.00D-01 BMatC= 4.99D-02 BMatP= 2.47D+00
 IDIUse=3 WtCom= 8.27D-01 WtEn= 1.73D-01
 Coeff-Com:  0.285D+00-0.414D+00 0.113D+01
 Coeff-En:   0.000D+00 0.000D+00 0.100D+01
 Coeff:      0.235D+00-0.342D+00 0.111D+01
 Gap=     0.550 Goal=   None    Shift=    0.000
 Gap=     0.492 Goal=   None    Shift=    0.000
 RMSDP=4.35D-04 MaxDP=5.85D-02 DE=-4.77D-01 OVMax= 1.12D-01

 Cycle   4  Pass 0  IDiag  1:
 RMSU=  3.12D-04    CP:  9.26D-01  3.00D+00  1.30D+00
 E= -1718.43436808176     Delta-E=       -0.024940858840 Rises=F Damp=F
 DIIS: error= 5.78D-03 at cycle   4 NSaved=   4.
 NSaved= 4 IEnMin= 4 EnMin= -1718.43436808176     IErMin= 4 ErrMin= 5.78D-03
 ErrMax= 5.78D-03  0.00D+00 EMaxC= 1.00D-01 BMatC= 7.95D-03 BMatP= 4.99D-02
 IDIUse=3 WtCom= 9.42D-01 WtEn= 5.78D-02
 Coeff-Com:  0.586D-01-0.959D-01 0.581D-01 0.979D+00
 Coeff-En:   0.000D+00 0.000D+00 0.000D+00 0.100D+01
 Coeff:      0.552D-01-0.904D-01 0.547D-01 0.980D+00
 Gap=     0.561 Goal=   None    Shift=    0.000
 Gap=     0.479 Goal=   None    Shift=    0.000
 RMSDP=1.26D-04 MaxDP=1.34D-02 DE=-2.49D-02 OVMax= 2.91D-02

 Cycle   5  Pass 0  IDiag  1:
 RMSU=  7.45D-05    CP:  9.25D-01  3.00D+00  1.35D+00  1.27D+00
 E= -1718.43719068264     Delta-E=       -0.002822600880 Rises=F Damp=F
 DIIS: error= 2.07D-03 at cycle   5 NSaved=   5.
 NSaved= 5 IEnMin= 5 EnMin= -1718.43719068264     IErMin= 5 ErrMin= 2.07D-03
 ErrMax= 2.07D-03  0.00D+00 EMaxC= 1.00D-01 BMatC= 1.48D-03 BMatP= 7.95D-03
 IDIUse=3 WtCom= 9.79D-01 WtEn= 2.07D-02
 Coeff-Com: -0.424D-01 0.651D-01-0.185D+00 0.187D+00 0.975D+00
 Coeff-En:   0.000D+00 0.000D+00 0.000D+00 0.000D+00 0.100D+01
 Coeff:     -0.416D-01 0.637D-01-0.181D+00 0.183D+00 0.976D+00
 Gap=     0.569 Goal=   None    Shift=    0.000
 Gap=     0.485 Goal=   None    Shift=    0.000
 RMSDP=6.65D-05 MaxDP=6.27D-03 DE=-2.82D-03 OVMax= 1.41D-02

 Cycle   6  Pass 0  IDiag  1:
 RMSU=  4.02D-05    CP:  9.24D-01  3.00D+00  1.36D+00  1.42D+00  1.25D+00
 E= -1718.43772879726     Delta-E=       -0.000538114617 Rises=F Damp=F
 DIIS: error= 3.62D-04 at cycle   6 NSaved=   6.
 NSaved= 6 IEnMin= 6 EnMin= -1718.43772879726     IErMin= 6 ErrMin= 3.62D-04
 ErrMax= 3.62D-04  0.00D+00 EMaxC= 1.00D-01 BMatC= 9.72D-05 BMatP= 1.48D-03
 IDIUse=3 WtCom= 9.96D-01 WtEn= 3.62D-03
 Coeff-Com:  0.159D-01-0.238D-01 0.707D-01-0.129D+00-0.323D+00 0.139D+01
 Coeff-En:   0.000D+00 0.000D+00 0.000D+00 0.000D+00 0.000D+00 0.100D+01
 Coeff:      0.159D-01-0.237D-01 0.704D-01-0.128D+00-0.322D+00 0.139D+01
 Gap=     0.567 Goal=   None    Shift=    0.000
 Gap=     0.482 Goal=   None    Shift=    0.000
 RMSDP=2.85D-05 MaxDP=5.26D-03 DE=-5.38D-04 OVMax= 3.93D-03

 Cycle   7  Pass 0  IDiag  1:
 RMSU=  1.93D-05    CP:  9.24D-01  3.00D+00  1.36D+00  1.44D+00  1.40D+00
                    CP:  1.42D+00
 E= -1718.43778575530     Delta-E=       -0.000056958043 Rises=F Damp=F
 DIIS: error= 1.47D-04 at cycle   7 NSaved=   7.
 NSaved= 7 IEnMin= 7 EnMin= -1718.43778575530     IErMin= 7 ErrMin= 1.47D-04
 ErrMax= 1.47D-04  0.00D+00 EMaxC= 1.00D-01 BMatC= 1.20D-05 BMatP= 9.72D-05
 IDIUse=3 WtCom= 9.99D-01 WtEn= 1.47D-03
 Coeff-Com: -0.210D-02 0.288D-02-0.121D-02 0.141D-01-0.275D-01-0.280D+00
 Coeff-Com:  0.129D+01
 Coeff-En:   0.000D+00 0.000D+00 0.000D+00 0.000D+00 0.000D+00 0.000D+00
 Coeff-En:   0.100D+01
 Coeff:     -0.210D-02 0.288D-02-0.121D-02 0.141D-01-0.274D-01-0.280D+00
 Coeff:      0.129D+01
 Gap=     0.568 Goal=   None    Shift=    0.000
 Gap=     0.482 Goal=   None    Shift=    0.000
 RMSDP=1.20D-05 MaxDP=2.03D-03 DE=-5.70D-05 OVMax= 2.07D-03

 Cycle   8  Pass 0  IDiag  1:
 RMSU=  3.16D-06    CP:  9.24D-01  3.00D+00  1.37D+00  1.45D+00  1.42D+00
                    CP:  1.57D+00  1.49D+00
 E= -1718.43779523750     Delta-E=       -0.000009482198 Rises=F Damp=F
 DIIS: error= 1.41D-04 at cycle   8 NSaved=   8.
 NSaved= 8 IEnMin= 8 EnMin= -1718.43779523750     IErMin= 8 ErrMin= 1.41D-04
 ErrMax= 1.41D-04  0.00D+00 EMaxC= 1.00D-01 BMatC= 3.58D-06 BMatP= 1.20D-05
 IDIUse=3 WtCom= 9.99D-01 WtEn= 1.41D-03
 Coeff-Com: -0.965D-03 0.142D-02-0.485D-02 0.814D-02 0.251D-01-0.828D-01
 Coeff-Com: -0.105D+00 0.116D+01
 Coeff-En:   0.000D+00 0.000D+00 0.000D+00 0.000D+00 0.000D+00 0.000D+00
 Coeff-En:   0.000D+00 0.100D+01
 Coeff:     -0.964D-03 0.142D-02-0.484D-02 0.813D-02 0.250D-01-0.827D-01
 Coeff:     -0.105D+00 0.116D+01
 Gap=     0.568 Goal=   None    Shift=    0.000
 Gap=     0.482 Goal=   None    Shift=    0.000
 RMSDP=3.43D-06 MaxDP=3.15D-04 DE=-9.48D-06 OVMax= 1.73D-03

 Initial convergence to 1.0D-05 achieved.  Increase integral accuracy.
 Cycle   9  Pass 1  IDiag  1:
 E= -1718.43779943947     Delta-E=       -0.000004201971 Rises=F Damp=F
 DIIS: error= 1.41D-04 at cycle   1 NSaved=   1.
 NSaved= 1 IEnMin= 1 EnMin= -1718.43779943947     IErMin= 1 ErrMin= 1.41D-04
 ErrMax= 1.41D-04  0.00D+00 EMaxC= 1.00D-01 BMatC= 2.92D-06 BMatP= 2.92D-06
 IDIUse=3 WtCom= 9.99D-01 WtEn= 1.41D-03
 Coeff-Com:  0.100D+01
 Coeff-En:   0.100D+01
 Coeff:      0.100D+01
 Gap=     0.568 Goal=   None    Shift=    0.000
 Gap=     0.482 Goal=   None    Shift=    0.000
 RMSDP=3.43D-06 MaxDP=3.15D-04 DE=-4.20D-06 OVMax= 1.34D-03

 Cycle  10  Pass 1  IDiag  1:
 RMSU=  1.86D-06    CP:  1.00D+00
 E= -1718.43780239659     Delta-E=       -0.000002957122 Rises=F Damp=F
 DIIS: error= 1.41D-04 at cycle   2 NSaved=   2.
 NSaved= 2 IEnMin= 2 EnMin= -1718.43780239659     IErMin= 2 ErrMin= 1.41D-04
 ErrMax= 1.41D-04  0.00D+00 EMaxC= 1.00D-01 BMatC= 2.80D-06 BMatP= 2.92D-06
 IDIUse=3 WtCom= 9.99D-01 WtEn= 1.41D-03
 Coeff-Com: -0.168D+01 0.268D+01
 Coeff-En:   0.000D+00 0.100D+01
 Coeff:     -0.168D+01 0.268D+01
 Gap=     0.568 Goal=   None    Shift=    0.000
 Gap=     0.482 Goal=   None    Shift=    0.000
 RMSDP=4.84D-06 MaxDP=6.50D-04 DE=-2.96D-06 OVMax= 3.58D-03

 Cycle  11  Pass 1  IDiag  1:
 RMSU=  1.25D-06    CP:  1.00D+00  3.00D+00
 E= -1718.43781004330     Delta-E=       -0.000007646707 Rises=F Damp=F
 DIIS: error= 1.40D-04 at cycle   3 NSaved=   3.
 NSaved= 3 IEnMin= 3 EnMin= -1718.43781004330     IErMin= 3 ErrMin= 1.40D-04
 ErrMax= 1.40D-04  0.00D+00 EMaxC= 1.00D-01 BMatC= 2.67D-06 BMatP= 2.80D-06
 IDIUse=3 WtCom= 9.99D-01 WtEn= 1.40D-03
 Coeff-Com: -0.348D+00-0.648D-01 0.141D+01
 Coeff-En:   0.000D+00 0.000D+00 0.100D+01
 Coeff:     -0.347D+00-0.647D-01 0.141D+01
 Gap=     0.568 Goal=   None    Shift=    0.000
 Gap=     0.482 Goal=   None    Shift=    0.000
 RMSDP=4.33D-06 MaxDP=5.95D-04 DE=-7.65D-06 OVMax= 3.24D-03

 Cycle  12  Pass 1  IDiag  1:
 RMSU=  2.14D-06    CP:  1.00D+00  3.00D+00  3.00D+00
 E= -1718.43781682083     Delta-E=       -0.000006777535 Rises=F Damp=F
 DIIS: error= 1.41D-04 at cycle   4 NSaved=   4.
 NSaved= 4 IEnMin= 4 EnMin= -1718.43781682083     IErMin= 3 ErrMin= 1.40D-04
 ErrMax= 1.41D-04  0.00D+00 EMaxC= 1.00D-01 BMatC= 2.60D-06 BMatP= 2.67D-06
 IDIUse=3 WtCom= 9.99D-01 WtEn= 1.41D-03
 Coeff-Com:  0.255D+01-0.367D+01-0.788D+00 0.291D+01
 Coeff-En:   0.000D+00 0.000D+00 0.000D+00 0.100D+01
 Coeff:      0.254D+01-0.366D+01-0.787D+00 0.291D+01
 Gap=     0.568 Goal=   None    Shift=    0.000
 Gap=     0.482 Goal=   None    Shift=    0.000
 RMSDP=1.07D-05 MaxDP=1.49D-03 DE=-6.78D-06 OVMax= 8.04D-03

 Cycle  13  Pass 1  IDiag  1:
 RMSU=  7.12D-06    CP:  1.00D+00  3.00D+00  3.00D+00  3.00D+00
 E= -1718.43783330752     Delta-E=       -0.000016486688 Rises=F Damp=F
 DIIS: error= 1.41D-04 at cycle   5 NSaved=   5.
 NSaved= 5 IEnMin= 5 EnMin= -1718.43783330752     IErMin= 3 ErrMin= 1.40D-04
 ErrMax= 1.41D-04  0.00D+00 EMaxC= 1.00D-01 BMatC= 2.50D-06 BMatP= 2.60D-06
 IDIUse=3 WtCom= 9.99D-01 WtEn= 1.41D-03
 Coeff-Com:  0.786D+00-0.726D+00-0.100D+01 0.317D+00 0.163D+01
 Coeff-En:   0.000D+00 0.000D+00 0.000D+00 0.000D+00 0.100D+01
 Coeff:      0.785D+00-0.725D+00-0.100D+01 0.316D+00 0.162D+01
 Gap=     0.568 Goal=   None    Shift=    0.000
 Gap=     0.482 Goal=   None    Shift=    0.000
 RMSDP=1.07D-05 MaxDP=1.52D-03 DE=-1.65D-05 OVMax= 8.04D-03

 Cycle  14  Pass 1  IDiag  1:
 RMSU=  2.78D-06    CP:  1.00D+00  3.00D+00  3.00D+00  3.00D+00  2.45D+00
 E= -1718.43784945716     Delta-E=       -0.000016149634 Rises=F Damp=F
 DIIS: error= 1.42D-04 at cycle   6 NSaved=   6.
 NSaved= 6 IEnMin= 6 EnMin= -1718.43784945716     IErMin= 3 ErrMin= 1.40D-04
 ErrMax= 1.42D-04  0.00D+00 EMaxC= 1.00D-01 BMatC= 2.45D-06 BMatP= 2.50D-06
 IDIUse=3 WtCom= 9.99D-01 WtEn= 1.41D-03
 Coeff-Com: -0.114D+01 0.141D+01 0.892D+00-0.108D+01-0.993D+00 0.191D+01
 Coeff-En:   0.000D+00 0.000D+00 0.000D+00 0.000D+00 0.000D+00 0.100D+01
 Coeff:     -0.114D+01 0.141D+01 0.890D+00-0.108D+01-0.992D+00 0.191D+01
 Gap=     0.568 Goal=   None    Shift=    0.000
 Gap=     0.482 Goal=   None    Shift=    0.000
 RMSDP=6.29D-06 MaxDP=9.11D-04 DE=-1.61D-05 OVMax= 4.74D-03

 Cycle  15  Pass 1  IDiag  1:
 RMSU=  2.22D-06    CP:  1.00D+00  3.00D+00  3.00D+00  3.00D+00  3.00D+00
                    CP:  1.63D+00
 E= -1718.43785897322     Delta-E=       -0.000009516062 Rises=F Damp=F
 DIIS: error= 1.42D-04 at cycle   7 NSaved=   7.
 NSaved= 7 IEnMin= 7 EnMin= -1718.43785897322     IErMin= 3 ErrMin= 1.40D-04
 ErrMax= 1.42D-04  0.00D+00 EMaxC= 1.00D-01 BMatC= 2.43D-06 BMatP= 2.45D-06
 IDIUse=3 WtCom= 9.99D-01 WtEn= 1.41D-03
 Coeff-Com: -0.220D+00 0.197D+00 0.350D+00-0.163D+00-0.615D+00 0.552D+00
 Coeff-Com:  0.898D+00
 Coeff-En:   0.000D+00 0.000D+00 0.000D+00 0.000D+00 0.000D+00 0.000D+00
 Coeff-En:   0.100D+01
 Coeff:     -0.220D+00 0.197D+00 0.350D+00-0.163D+00-0.614D+00 0.551D+00
 Coeff:      0.898D+00
 Gap=     0.568 Goal=   None    Shift=    0.000
 Gap=     0.482 Goal=   None    Shift=    0.000
 RMSDP=3.15D-06 MaxDP=4.60D-04 DE=-9.52D-06 OVMax= 2.38D-03

 Cycle  16  Pass 1  IDiag  1:
 RMSU=  5.45D-07    CP:  1.00D+00  3.00D+00  3.00D+00  3.00D+00  3.00D+00
                    CP:  1.94D+00  2.34D+00
 E= -1718.43786374686     Delta-E=       -0.000004773642 Rises=F Damp=F
 DIIS: error= 1.42D-04 at cycle   8 NSaved=   8.
 NSaved= 8 IEnMin= 8 EnMin= -1718.43786374686     IErMin= 3 ErrMin= 1.40D-04
 ErrMax= 1.42D-04  0.00D+00 EMaxC= 1.00D-01 BMatC= 2.43D-06 BMatP= 2.43D-06
 IDIUse=3 WtCom= 9.99D-01 WtEn= 1.41D-03
 Coeff-Com:  0.202D+00-0.304D+00 0.756D-03 0.195D+00-0.967D-01-0.181D+00
 Coeff-Com:  0.940D-01 0.109D+01
 Coeff-En:   0.000D+00 0.000D+00 0.000D+00 0.000D+00 0.000D+00 0.000D+00
 Coeff-En:   0.000D+00 0.100D+01
 Coeff:      0.201D+00-0.304D+00 0.755D-03 0.195D+00-0.965D-01-0.181D+00
 Coeff:      0.938D-01 0.109D+01
 Gap=     0.568 Goal=   None    Shift=    0.000
 Gap=     0.482 Goal=   None    Shift=    0.000
 RMSDP=2.73D-06 MaxDP=3.99D-04 DE=-4.77D-06 OVMax= 2.06D-03

 Cycle  17  Pass 1  IDiag  1:
 RMSU=  1.15D-06    CP:  1.00D+00  3.00D+00  3.00D+00  3.00D+00  3.00D+00
                    CP:  2.20D+00  3.00D+00  1.57D+00
 E= -1718.43786790066     Delta-E=       -0.000004153796 Rises=F Damp=F
 DIIS: error= 1.42D-04 at cycle   9 NSaved=   9.
 NSaved= 9 IEnMin= 9 EnMin= -1718.43786790066     IErMin= 3 ErrMin= 1.40D-04
 ErrMax= 1.42D-04  0.00D+00 EMaxC= 1.00D-01 BMatC= 2.43D-06 BMatP= 2.43D-06
 IDIUse=3 WtCom= 9.99D-01 WtEn= 1.41D-03
 Coeff-Com:  0.306D+00-0.407D+00-0.790D-01 0.191D+00 0.186D+00-0.207D+00
 Coeff-Com: -0.717D+00-0.939D+00 0.266D+01
 Coeff-En:   0.000D+00 0.000D+00 0.000D+00 0.000D+00 0.000D+00 0.000D+00
 Coeff-En:   0.000D+00 0.000D+00 0.100D+01
 Coeff:      0.306D+00-0.406D+00-0.789D-01 0.191D+00 0.186D+00-0.206D+00
 Coeff:     -0.716D+00-0.938D+00 0.266D+01
 Gap=     0.568 Goal=   None    Shift=    0.000
 Gap=     0.482 Goal=   None    Shift=    0.000
 RMSDP=7.02D-06 MaxDP=1.03D-03 DE=-4.15D-06 OVMax= 5.31D-03

 Cycle  18  Pass 1  IDiag  1:
 RMSU=  4.44D-06    CP:  1.00D+00  3.00D+00  3.00D+00  3.00D+00  3.00D+00
                    CP:  2.87D+00  3.00D+00  2.77D+00  3.00D+00
 E= -1718.43787859213     Delta-E=       -0.000010691476 Rises=F Damp=F
 DIIS: error= 1.42D-04 at cycle  10 NSaved=  10.
 NSaved=10 IEnMin=10 EnMin= -1718.43787859213     IErMin= 3 ErrMin= 1.40D-04
 ErrMax= 1.42D-04  0.00D+00 EMaxC= 1.00D-01 BMatC= 2.42D-06 BMatP= 2.43D-06
 IDIUse=3 WtCom= 9.99D-01 WtEn= 1.41D-03
 Large coefficients: NSaved= 10 BigCof=   26.06 CofMax=   10.00 Det=-2.33D-11
 Inversion failed.  Reducing to  9 matrices.
 Large coefficients: NSaved=  9 BigCof=   25.98 CofMax=   10.00 Det=-2.37D-11
 Inversion failed.  Reducing to  8 matrices.
 Large coefficients: NSaved=  8 BigCof=   25.49 CofMax=   10.00 Det=-2.41D-11
 Inversion failed.  Reducing to  7 matrices.
 Large coefficients: NSaved=  7 BigCof=   23.09 CofMax=   10.00 Det=-2.70D-11
 Inversion failed.  Reducing to  6 matrices.
 Large coefficients: NSaved=  6 BigCof=   22.15 CofMax=   10.00 Det=-2.84D-11
 Inversion failed.  Reducing to  5 matrices.
 Large coefficients: NSaved=  5 BigCof=   10.99 CofMax=   10.00 Det=-5.74D-11
 Inversion failed.  Reducing to  4 matrices.
 Coeff-Com:  0.203D+01-0.271D+00-0.652D+01 0.576D+01
 Coeff-En:   0.000D+00 0.000D+00 0.000D+00 0.100D+01
 Coeff:      0.203D+01-0.271D+00-0.651D+01 0.575D+01
 Gap=     0.568 Goal=   None    Shift=    0.000
 Gap=     0.482 Goal=   None    Shift=    0.000
 RMSDP=2.39D-05 MaxDP=3.55D-03 DE=-1.07D-05 OVMax= 1.81D-02

 Cycle  19  Pass 1  IDiag  1:
 RMSU=  1.54D-05    CP:  1.00D+00  3.00D+00  3.00D+00  3.00D+00  3.00D+00
                    CP:  3.00D+00  3.00D+00  3.00D+00  3.00D+00  3.00D+00
 E= -1718.43791489275     Delta-E=       -0.000036300612 Rises=F Damp=F
 DIIS: error= 1.43D-04 at cycle  11 NSaved=   5.
 NSaved= 5 IEnMin= 5 EnMin= -1718.43791489275     IErMin= 1 ErrMin= 1.42D-04
 ErrMax= 1.43D-04  0.00D+00 EMaxC= 1.00D-01 BMatC= 2.43D-06 BMatP= 2.42D-06
 IDIUse=3 WtCom= 9.99D-01 WtEn= 1.41D-03
 Coeff-Com:  0.171D+01-0.490D+00-0.463D+01 0.417D+01 0.243D+00
 Coeff-En:   0.000D+00 0.000D+00 0.000D+00 0.000D+00 0.100D+01
 Coeff:      0.171D+01-0.490D+00-0.463D+01 0.416D+01 0.244D+00
 Gap=     0.568 Goal=   None    Shift=    0.000
 Gap=     0.482 Goal=   None    Shift=    0.000
 RMSDP=1.18D-06 MaxDP=1.79D-04 DE=-3.63D-05 OVMax= 8.95D-04

 Cycle  20  Pass 1  IDiag  1:
 RMSU=  1.54D-07    CP:  1.00D+00  3.00D+00  3.00D+00  3.00D+00  3.00D+00
                    CP:  3.00D+00  3.00D+00  3.00D+00  3.00D+00  3.00D+00
                    CP:  9.24D-01
 E= -1718.43791310044     Delta-E=        0.000001792308 Rises=F Damp=F
 DIIS: error= 1.43D-04 at cycle  12 NSaved=   6.
 NSaved= 6 IEnMin= 5 EnMin= -1718.43791489275     IErMin= 1 ErrMin= 1.42D-04
 ErrMax= 1.43D-04  0.00D+00 EMaxC= 1.00D-01 BMatC= 2.42D-06 BMatP= 2.42D-06
 IDIUse=3 WtCom= 9.99D-01 WtEn= 1.41D-03
 Large coefficients: NSaved=  6 BigCof=   28.42 CofMax=   10.00 Det=-2.22D-11
 Inversion failed.  Reducing to  5 matrices.
 Rare condition: small coef for last iteration:  0.000D+00
 Coeff-Com:  0.332D+00-0.286D+01 0.144D+01-0.386D+01 0.595D+01
 Coeff-En:   0.000D+00 0.000D+00 0.000D+00 0.000D+00 0.100D+01
 Coeff:      0.332D+00-0.286D+01 0.144D+01-0.386D+01 0.595D+01
 Gap=     0.568 Goal=   None    Shift=    0.000
 Gap=     0.482 Goal=   None    Shift=    0.000
 RMSDP=3.86D-05 MaxDP=5.90D-03 DE= 1.79D-06 OVMax= 2.92D-02

 Cycle  21  Pass 1  IDiag  1:
 RMSU=  7.91D-06    CP:  1.00D+00  3.00D+00  3.00D+00  3.00D+00  3.00D+00
                    CP:  3.00D+00  3.00D+00  3.00D+00  3.00D+00  3.00D+00
                    CP:  3.00D+00 -3.00D+00
 E= -1718.43797139320     Delta-E=       -0.000058292760 Rises=F Damp=F
 DIIS: error= 1.49D-04 at cycle  13 NSaved=   6.
 NSaved= 6 IEnMin= 6 EnMin= -1718.43797139320     IErMin= 3 ErrMin= 1.42D-04
 ErrMax= 1.49D-04  0.00D+00 EMaxC= 1.00D-01 BMatC= 3.01D-06 BMatP= 2.42D-06
 IDIUse=3 WtCom= 9.99D-01 WtEn= 1.41D-03
 Large coefficients: NSaved=  6 BigCof=   75.07 CofMax=   10.00 Det=-4.30D-11
 Inversion failed.  Reducing to  5 matrices.
 Large coefficients: NSaved=  5 BigCof=   54.77 CofMax=   10.00 Det=-5.72D-11
 Inversion failed.  Reducing to  4 matrices.
 Large coefficients: NSaved=  4 BigCof=   24.95 CofMax=   10.00 Det=-1.25D-10
 Inversion failed.  Reducing to  3 matrices.
 Large coefficients: NSaved=  3 BigCof=   20.72 CofMax=   10.00 Det=-1.46D-10
 Inversion failed.  Reducing to  2 matrices.
 Coeff-Com:  0.103D+01-0.272D-01
 Coeff-En:   0.000D+00 0.100D+01
 Coeff:      0.103D+01-0.257D-01
 Gap=     0.568 Goal=   None    Shift=    0.000
 Gap=     0.481 Goal=   None    Shift=    0.000
 RMSDP=3.80D-05 MaxDP=5.80D-03 DE=-5.83D-05 OVMax= 2.87D-02

 Cycle  22  Pass 1  IDiag  1:
 RMSU=  1.01D-07    CP:  1.00D+00  3.00D+00  3.00D+00  3.00D+00  3.00D+00
                    CP:  3.00D+00  3.00D+00  3.00D+00  3.00D+00  3.00D+00
                    CP:  9.67D-01  4.27D-01  7.82D-04
 E= -1718.43791411807     Delta-E=        0.000057275132 Rises=F Damp=F
 DIIS: error= 1.42D-04 at cycle  14 NSaved=   3.
 NSaved= 3 IEnMin= 2 EnMin= -1718.43797139320     IErMin= 3 ErrMin= 1.42D-04
 ErrMax= 1.42D-04  0.00D+00 EMaxC= 1.00D-01 BMatC= 2.41D-06 BMatP= 2.42D-06
 IDIUse=3 WtCom= 9.99D-01 WtEn= 1.41D-03
 Rare condition: small coef for last iteration:  0.000D+00
 Coeff-Com: -0.883D+01 0.848D+00 0.898D+01
 Coeff-En:   0.000D+00 0.000D+00 0.100D+01
 Coeff:     -0.883D+01 0.848D+00 0.898D+01
 Gap=     0.568 Goal=   None    Shift=    0.000
 Gap=     0.481 Goal=   None    Shift=    0.000
 RMSDP=3.97D-05 MaxDP=6.05D-03 DE= 5.73D-05 OVMax= 3.01D-02

 Cycle  23  Pass 1  IDiag  1:
 RMSU=  1.15D-06    CP:  1.00D+00  3.00D+00  3.00D+00  3.00D+00  3.00D+00
                    CP:  3.00D+00  3.00D+00  3.00D+00  3.00D+00  3.00D+00
                    CP:  3.00D+00 -3.00D+00  1.20D+00  3.00D+00
 E= -1718.43797419702     Delta-E=       -0.000060078956 Rises=F Damp=F
 DIIS: error= 1.43D-04 at cycle  15 NSaved=   4.
 NSaved= 4 IEnMin= 4 EnMin= -1718.43797419702     IErMin= 3 ErrMin= 1.42D-04
 ErrMax= 1.43D-04  0.00D+00 EMaxC= 1.00D-01 BMatC= 2.39D-06 BMatP= 2.41D-06
 IDIUse=3 WtCom= 9.99D-01 WtEn= 1.41D-03
 Coeff-Com: -0.826D+01 0.479D+00 0.698D+01 0.180D+01
 Coeff-En:   0.000D+00 0.000D+00 0.000D+00 0.100D+01
 Coeff:     -0.825D+01 0.479D+00 0.697D+01 0.180D+01
 Gap=     0.569 Goal=   None    Shift=    0.000
 Gap=     0.483 Goal=   None    Shift=    0.000
 RMSDP=5.68D-05 MaxDP=8.97D-03 DE=-6.01D-05 OVMax= 4.30D-02

 Cycle  24  Pass 1  IDiag  1:
 RMSU=  4.36D-05    CP:  1.00D+00  3.00D+00  3.00D+00  3.00D+00  3.00D+00
                    CP:  3.00D+00  3.00D+00  3.00D+00  3.00D+00  3.00D+00
                    CP:  3.00D+00 -3.00D+00  3.00D+00 -3.00D+00  3.00D+00
 E= -1718.43805852408     Delta-E=       -0.000084327060 Rises=F Damp=F
 DIIS: error= 1.55D-04 at cycle  16 NSaved=   5.
 NSaved= 5 IEnMin= 5 EnMin= -1718.43805852408     IErMin= 3 ErrMin= 1.42D-04
 ErrMax= 1.55D-04  0.00D+00 EMaxC= 1.00D-01 BMatC= 4.77D-06 BMatP= 2.39D-06
 IDIUse=3 WtCom= 9.99D-01 WtEn= 1.41D-03
 Large coefficients: NSaved=  5 BigCof=   12.25 CofMax=   10.00 Det=-2.04D-10
 Inversion failed.  Reducing to  4 matrices.
 Coeff-Com: -0.322D+01 0.272D+01-0.157D+00 0.166D+01
 Coeff-En:   0.000D+00 0.000D+00 0.000D+00 0.100D+01
 Coeff:     -0.321D+01 0.271D+01-0.156D+00 0.166D+01
 Gap=     0.568 Goal=   None    Shift=    0.000
 Gap=     0.476 Goal=   None    Shift=    0.000
 RMSDP=6.31D-05 MaxDP=1.00D-02 DE=-8.43D-05 OVMax= 4.78D-02

 Cycle  25  Pass 1  IDiag  1:
 RMSU=  4.04D-06    CP:  1.00D+00  3.00D+00  3.00D+00  3.00D+00  3.00D+00
                    CP:  3.00D+00  3.00D+00  3.00D+00  3.00D+00  3.00D+00
                    CP:  3.00D+00 -3.00D+00  4.83D-01  3.00D+00  8.56D-01
                    CP: -3.41D-02
 E= -1718.43796380361     Delta-E=        0.000094720471 Rises=F Damp=F
 DIIS: error= 1.28D-04 at cycle  17 NSaved=   5.
 NSaved= 5 IEnMin= 4 EnMin= -1718.43805852408     IErMin= 5 ErrMin= 1.28D-04
 ErrMax= 1.28D-04  0.00D+00 EMaxC= 1.00D-01 BMatC= 9.37D-06 BMatP= 2.39D-06
 IDIUse=3 WtCom= 9.99D-01 WtEn= 1.41D-03
 Large coefficients: NSaved=  5 BigCof=   13.20 CofMax=   10.00 Det=-1.54D-09
 Inversion failed.  Reducing to  4 matrices.
 Rare condition: small coef for last iteration:  0.000D+00
 Coeff-Com:  0.187D+01-0.484D+01 0.225D+01 0.171D+01
 Coeff-En:   0.000D+00 0.000D+00 0.000D+00 0.100D+01
 Coeff:      0.187D+01-0.484D+01 0.225D+01 0.171D+01
 Gap=     0.569 Goal=   None    Shift=    0.000
 Gap=     0.478 Goal=   None    Shift=    0.000
 RMSDP=1.21D-04 MaxDP=1.95D-02 DE= 9.47D-05 OVMax= 9.18D-02

 Cycle  26  Pass 1  IDiag  1:
 RMSU=  5.98D-06    CP:  1.00D+00  3.00D+00  3.00D+00  3.00D+00  3.00D+00
                    CP:  3.00D+00  3.00D+00  3.00D+00  3.00D+00  3.00D+00
                    CP:  3.00D+00 -3.00D+00  3.00D+00 -3.00D+00  3.00D+00
                    CP:  2.32D+00  1.84D+00
 E= -1718.43814365856     Delta-E=       -0.000179854950 Rises=F Damp=F
 DIIS: error= 1.51D-04 at cycle  18 NSaved=   5.
 NSaved= 5 IEnMin= 5 EnMin= -1718.43814365856     IErMin= 4 ErrMin= 1.28D-04
 ErrMax= 1.51D-04  0.00D+00 EMaxC= 1.00D-01 BMatC= 4.93D-06 BMatP= 2.39D-06
 IDIUse=3 WtCom= 9.99D-01 WtEn= 1.41D-03
 Coeff-Com:  0.401D+01-0.630D+01-0.294D+00 0.186D+01 0.172D+01
 Coeff-En:   0.000D+00 0.000D+00 0.000D+00 0.000D+00 0.100D+01
 Coeff:      0.401D+01-0.629D+01-0.294D+00 0.186D+01 0.172D+01
 Gap=     0.569 Goal=   None    Shift=    0.000
 Gap=     0.483 Goal=   None    Shift=    0.000
 RMSDP=4.92D-05 MaxDP=8.05D-03 DE=-1.80D-04 OVMax= 3.72D-02

 Cycle  27  Pass 1  IDiag  1:
 RMSU=  1.90D-05    CP:  1.00D+00  3.00D+00  3.00D+00  3.00D+00  3.00D+00
                    CP:  3.00D+00  3.00D+00  3.00D+00  3.00D+00  3.00D+00
                    CP:  3.00D+00 -3.00D+00  3.00D+00 -3.00D+00  3.00D+00
                    CP:  3.00D+00  3.00D+00  2.32D+00
 E= -1718.43821292064     Delta-E=       -0.000069262082 Rises=F Damp=F
 DIIS: error= 1.43D-04 at cycle  19 NSaved=   6.
 NSaved= 6 IEnMin= 6 EnMin= -1718.43821292064     IErMin= 4 ErrMin= 1.28D-04
 ErrMax= 1.43D-04  0.00D+00 EMaxC= 1.00D-01 BMatC= 3.68D-06 BMatP= 2.39D-06
 IDIUse=3 WtCom= 9.99D-01 WtEn= 1.41D-03
 Coeff-Com:  0.385D+01-0.607D+01-0.273D+00 0.180D+01 0.162D+01 0.668D-01
 Coeff-En:   0.000D+00 0.000D+00 0.000D+00 0.000D+00 0.000D+00 0.100D+01
 Coeff:      0.384D+01-0.606D+01-0.273D+00 0.180D+01 0.162D+01 0.681D-01
 Gap=     0.569 Goal=   None    Shift=    0.000
 Gap=     0.484 Goal=   None    Shift=    0.000
 RMSDP=1.40D-06 MaxDP=2.29D-04 DE=-6.93D-05 OVMax= 1.06D-03

 Cycle  28  Pass 1  IDiag  1:
 RMSU=  9.43D-08    CP:  1.00D+00  3.00D+00  3.00D+00  3.00D+00  3.00D+00
                    CP:  3.00D+00  3.00D+00  3.00D+00  3.00D+00  3.00D+00
                    CP:  3.00D+00 -3.00D+00  3.00D+00 -3.00D+00  3.00D+00
                    CP:  3.00D+00  3.00D+00  2.36D+00  1.07D+00
 E= -1718.43821485033     Delta-E=       -0.000001929688 Rises=F Damp=F
 DIIS: error= 1.43D-04 at cycle  20 NSaved=   7.
 NSaved= 7 IEnMin= 7 EnMin= -1718.43821485033     IErMin= 4 ErrMin= 1.28D-04
 ErrMax= 1.43D-04  0.00D+00 EMaxC= 1.00D-01 BMatC= 3.60D-06 BMatP= 2.39D-06
 IDIUse=3 WtCom= 9.99D-01 WtEn= 1.41D-03
 Large coefficients: NSaved=  7 BigCof=   20.77 CofMax=   10.00 Det=-2.80D-11
 Inversion failed.  Reducing to  6 matrices.
 Coeff-Com: -0.118D+01 0.140D+01-0.960D-01-0.770D+00 0.335D+01-0.171D+01
 Coeff-En:   0.000D+00 0.000D+00 0.000D+00 0.000D+00 0.000D+00 0.100D+01
 Coeff:     -0.118D+01 0.140D+01-0.958D-01-0.769D+00 0.335D+01-0.170D+01
 Gap=     0.570 Goal=   None    Shift=    0.000
 Gap=     0.481 Goal=   None    Shift=    0.000
 RMSDP=1.23D-05 MaxDP=1.88D-03 DE=-1.93D-06 OVMax= 9.17D-03

 Cycle  29  Pass 1  IDiag  1:
 Restarting incremental Fock formation.
 E= -1718.43823104588     Delta-E=       -0.000016195545 Rises=F Damp=F
 DIIS: error= 1.27D-04 at cycle  21 NSaved=   7.
 NSaved= 7 IEnMin= 7 EnMin= -1718.43823104588     IErMin= 7 ErrMin= 1.27D-04
 ErrMax= 1.27D-04  0.00D+00 EMaxC= 1.00D-01 BMatC= 2.45D-06 BMatP= 2.39D-06
 IDIUse=3 WtCom= 9.99D-01 WtEn= 1.27D-03
 Large coefficients: NSaved=  7 BigCof=   68.28 CofMax=   10.00 Det=-9.86D-12
 Inversion failed.  Reducing to  6 matrices.
 Large coefficients: NSaved=  6 BigCof=   52.78 CofMax=   10.00 Det=-1.03D-11
 Inversion failed.  Reducing to  5 matrices.
 Large coefficients: NSaved=  5 BigCof=   29.92 CofMax=   10.00 Det=-1.10D-11
 Inversion failed.  Reducing to  4 matrices.
 Large coefficients: NSaved=  4 BigCof=   36.09 CofMax=   10.00 Det=-2.27D-11
 Inversion failed.  Reducing to  3 matrices.
 Large coefficients: NSaved=  3 BigCof=   50.73 CofMax=   10.00 Det=-3.15D-11
 Inversion failed.  Reducing to  2 matrices.
 Coeff-Com:  0.334D+00 0.666D+00
 Coeff-En:   0.000D+00 0.100D+01
 Coeff:      0.334D+00 0.666D+00
 Gap=     0.570 Goal=   None    Shift=    0.000
 Gap=     0.482 Goal=   None    Shift=    0.000
 RMSDP=2.73D-06 MaxDP=3.81D-04 DE=-1.62D-05 OVMax= 2.00D-03

 Cycle  30  Pass 1  IDiag  1:
 RMSU=  2.73D-06    CP:  1.00D+00
 E= -1718.43822800022     Delta-E=        0.000003045655 Rises=F Damp=F
 DIIS: error= 1.33D-04 at cycle  22 NSaved=   3.
 NSaved= 3 IEnMin= 2 EnMin= -1718.43823104588     IErMin= 2 ErrMin= 1.27D-04
 ErrMax= 1.33D-04  0.00D+00 EMaxC= 1.00D-01 BMatC= 2.08D-06 BMatP= 2.45D-06
 IDIUse=3 WtCom= 9.99D-01 WtEn= 1.27D-03
 Rare condition: small coef for last iteration:  0.000D+00
 Coeff-Com:  0.363D+00 0.728D+00-0.913D-01
 Coeff-En:   0.000D+00 0.000D+00 0.100D+01
 Coeff:      0.363D+00 0.728D+00-0.913D-01
 Gap=     0.570 Goal=   None    Shift=    0.000
 Gap=     0.482 Goal=   None    Shift=    0.000
 RMSDP=1.29D-07 MaxDP=2.03D-05 DE= 3.05D-06 OVMax= 9.66D-05

 Cycle  31  Pass 1  IDiag  1:
 RMSU=  8.19D-08    CP:  1.00D+00  1.04D+00
 E= -1718.43822781951     Delta-E=        0.000000180709 Rises=F Damp=F
 DIIS: error= 1.33D-04 at cycle  23 NSaved=   4.
 NSaved= 4 IEnMin= 2 EnMin= -1718.43823104588     IErMin= 2 ErrMin= 1.27D-04
 ErrMax= 1.33D-04  0.00D+00 EMaxC= 1.00D-01 BMatC= 2.08D-06 BMatP= 2.08D-06
 IDIUse=3 WtCom= 9.99D-01 WtEn= 1.27D-03
 Large coefficients: NSaved=  4 BigCof=   48.10 CofMax=   10.00 Det=-1.32D-11
 Inversion failed.  Reducing to  3 matrices.
 Large coefficients: NSaved=  3 BigCof=   19.74 CofMax=   10.00 Det=-1.73D-11
 Inversion failed.  Reducing to  2 matrices.
 Large coefficients: NSaved=  2 BigCof=   15.52 CofMax=   10.00 Det=-2.35D-11
 Coeff-Com:  0.155D+02-0.145D+02
 Coeff-En:   0.000D+00 0.100D+01
 Coeff:      0.155D+02-0.145D+02
 Gap=     0.570 Goal=   None    Shift=    0.000
 Gap=     0.482 Goal=   None    Shift=    0.000
 RMSDP=3.54D-06 MaxDP=5.63D-04 DE= 1.81D-07 OVMax= 2.66D-03

 Cycle  32  Pass 1  IDiag  1:
 RMSU=  1.84D-06    CP:  1.00D+00  1.34D-02 -3.00D+00
 E= -1718.43823277667     Delta-E=       -0.000004957155 Rises=F Damp=F
 DIIS: error= 1.33D-04 at cycle  24 NSaved=   3.
 NSaved= 3 IEnMin= 3 EnMin= -1718.43823277667     IErMin= 2 ErrMin= 1.33D-04
 ErrMax= 1.33D-04  0.00D+00 EMaxC= 1.00D-01 BMatC= 2.06D-06 BMatP= 2.08D-06
 IDIUse=3 WtCom= 9.99D-01 WtEn= 1.27D-03
 Large coefficients: NSaved=  3 BigCof=   92.37 CofMax=   10.00 Det=-3.71D-12
 Inversion failed.  Reducing to  2 matrices.
 Coeff-Com: -0.797D+00 0.180D+01
 Coeff-En:   0.000D+00 0.100D+01
 Coeff:     -0.796D+00 0.180D+01
 Gap=     0.570 Goal=   None    Shift=    0.000
 Gap=     0.482 Goal=   None    Shift=    0.000
 RMSDP=4.34D-06 MaxDP=6.96D-04 DE=-4.96D-06 OVMax= 3.27D-03

 Cycle  33  Pass 1  IDiag  1:
 RMSU=  8.12D-08    CP:  1.00D+00 -1.27D+00 -3.00D+00  2.39D+00
 E= -1718.43823880675     Delta-E=       -0.000006030085 Rises=F Damp=F
 DIIS: error= 1.33D-04 at cycle  25 NSaved=   3.
 NSaved= 3 IEnMin= 3 EnMin= -1718.43823880675     IErMin= 1 ErrMin= 1.33D-04
 ErrMax= 1.33D-04  0.00D+00 EMaxC= 1.00D-01 BMatC= 2.03D-06 BMatP= 2.06D-06
 IDIUse=3 WtCom= 9.99D-01 WtEn= 1.27D-03
 Large coefficients: NSaved=  3 BigCof=   35.99 CofMax=   10.00 Det=-1.99D-10
 Inversion failed.  Reducing to  2 matrices.
 Coeff-Com: -0.251D+01 0.351D+01
 Coeff-En:   0.000D+00 0.100D+01
 Coeff:     -0.251D+01 0.351D+01
 Gap=     0.570 Goal=   None    Shift=    0.000
 Gap=     0.482 Goal=   None    Shift=    0.000
 RMSDP=1.23D-05 MaxDP=1.99D-03 DE=-6.03D-06 OVMax= 9.32D-03

 Cycle  34  Pass 1  IDiag  1:
 RMSU=  8.03D-06    CP:  1.00D+00 -3.00D+00 -3.00D+00  3.00D+00  3.00D+00
 E= -1718.43825568129     Delta-E=       -0.000016874540 Rises=F Damp=F
 DIIS: error= 1.31D-04 at cycle  26 NSaved=   3.
 NSaved= 3 IEnMin= 3 EnMin= -1718.43825568129     IErMin= 3 ErrMin= 1.31D-04
 ErrMax= 1.31D-04  0.00D+00 EMaxC= 1.00D-01 BMatC= 1.96D-06 BMatP= 2.03D-06
 IDIUse=3 WtCom= 9.99D-01 WtEn= 1.27D-03
 Large coefficients: NSaved=  3 BigCof=   11.93 CofMax=   10.00 Det=-3.30D-10
 Inversion failed.  Reducing to  2 matrices.
 Coeff-Com: -0.613D+00 0.161D+01
 Coeff-En:   0.000D+00 0.100D+01
 Coeff:     -0.613D+00 0.161D+01
 Gap=     0.570 Goal=   None    Shift=    0.000
 Gap=     0.482 Goal=   None    Shift=    0.000
 RMSDP=9.02D-06 MaxDP=1.47D-03 DE=-1.69D-05 OVMax= 6.81D-03

 Cycle  35  Pass 1  IDiag  1:
 RMSU=  2.31D-06    CP:  1.00D+00 -3.00D+00 -3.00D+00  3.00D+00  3.00D+00
                    CP:  2.09D+00
 E= -1718.43826780026     Delta-E=       -0.000012118971 Rises=F Damp=F
 DIIS: error= 1.30D-04 at cycle  27 NSaved=   3.
 NSaved= 3 IEnMin= 3 EnMin= -1718.43826780026     IErMin= 3 ErrMin= 1.30D-04
 ErrMax= 1.30D-04  0.00D+00 EMaxC= 1.00D-01 BMatC= 1.93D-06 BMatP= 1.96D-06
 IDIUse=3 WtCom= 9.99D-01 WtEn= 1.27D-03
 Coeff-Com:  0.162D+01-0.554D+01 0.492D+01
 Coeff-En:   0.000D+00 0.000D+00 0.100D+01
 Coeff:      0.162D+01-0.553D+01 0.491D+01
 Gap=     0.570 Goal=   None    Shift=    0.000
 Gap=     0.482 Goal=   None    Shift=    0.000
 RMSDP=1.68D-05 MaxDP=2.75D-03 DE=-1.21D-05 OVMax= 1.27D-02

 Cycle  36  Pass 1  IDiag  1:
 RMSU=  8.62D-06    CP:  1.00D+00 -3.00D+00 -3.00D+00  3.00D+00  3.00D+00
                    CP:  3.00D+00  3.00D+00
 E= -1718.43829012532     Delta-E=       -0.000022325059 Rises=F Damp=F
 DIIS: error= 1.27D-04 at cycle  28 NSaved=   4.
 NSaved= 4 IEnMin= 4 EnMin= -1718.43829012532     IErMin= 4 ErrMin= 1.27D-04
 ErrMax= 1.27D-04  0.00D+00 EMaxC= 1.00D-01 BMatC= 1.88D-06 BMatP= 1.93D-06
 IDIUse=3 WtCom= 9.99D-01 WtEn= 1.27D-03
 Coeff-Com:  0.159D+01-0.488D+01 0.320D+01 0.108D+01
 Coeff-En:   0.000D+00 0.000D+00 0.000D+00 0.100D+01
 Coeff:      0.159D+01-0.487D+01 0.320D+01 0.108D+01
 Gap=     0.570 Goal=   None    Shift=    0.000
 Gap=     0.482 Goal=   None    Shift=    0.000
 RMSDP=1.28D-05 MaxDP=2.11D-03 DE=-2.23D-05 OVMax= 9.66D-03

 Cycle  37  Pass 1  IDiag  1:
 RMSU=  3.40D-06    CP:  1.00D+00 -3.00D+00 -3.00D+00  3.00D+00  3.00D+00
                    CP:  3.00D+00  3.00D+00  2.43D+00
 E= -1718.43830688405     Delta-E=       -0.000016758724 Rises=F Damp=F
 DIIS: error= 1.26D-04 at cycle  29 NSaved=   5.
 NSaved= 5 IEnMin= 5 EnMin= -1718.43830688405     IErMin= 5 ErrMin= 1.26D-04
 ErrMax= 1.26D-04  0.00D+00 EMaxC= 1.00D-01 BMatC= 1.85D-06 BMatP= 1.88D-06
 IDIUse=3 WtCom= 9.99D-01 WtEn= 1.26D-03
 Coeff-Com:  0.833D+00-0.202D+01 0.919D+00 0.321D+00 0.945D+00
 Coeff-En:   0.000D+00 0.000D+00 0.000D+00 0.000D+00 0.100D+01
 Coeff:      0.832D+00-0.202D+01 0.918D+00 0.321D+00 0.945D+00
 Gap=     0.570 Goal=   None    Shift=    0.000
 Gap=     0.482 Goal=   None    Shift=    0.000
 RMSDP=5.67D-06 MaxDP=9.36D-04 DE=-1.68D-05 OVMax= 4.28D-03

 Cycle  38  Pass 1  IDiag  1:
 RMSU=  4.27D-07    CP:  1.00D+00 -3.00D+00 -3.00D+00  3.00D+00  3.00D+00
                    CP:  3.00D+00  3.00D+00  3.00D+00  1.57D+00
 E= -1718.43831433022     Delta-E=       -0.000007446177 Rises=F Damp=F
 DIIS: error= 1.25D-04 at cycle  30 NSaved=   6.
 NSaved= 6 IEnMin= 6 EnMin= -1718.43831433022     IErMin= 6 ErrMin= 1.25D-04
 ErrMax= 1.25D-04  0.00D+00 EMaxC= 1.00D-01 BMatC= 1.83D-06 BMatP= 1.85D-06
 IDIUse=3 WtCom= 9.99D-01 WtEn= 1.25D-03
 Coeff-Com: -0.131D+01 0.417D+01-0.283D+01-0.141D+01-0.108D+01 0.347D+01
 Coeff-En:   0.000D+00 0.000D+00 0.000D+00 0.000D+00 0.000D+00 0.100D+01
 Coeff:     -0.131D+01 0.417D+01-0.283D+01-0.141D+01-0.108D+01 0.347D+01
 Gap=     0.570 Goal=   None    Shift=    0.000
 Gap=     0.482 Goal=   None    Shift=    0.000
 RMSDP=2.31D-05 MaxDP=3.84D-03 DE=-7.45D-06 OVMax= 1.75D-02

 Cycle  39  Pass 1  IDiag  1:
 RMSU=  2.12D-05    CP:  1.00D+00 -3.00D+00 -3.00D+00  3.00D+00  3.00D+00
                    CP:  3.00D+00  3.00D+00  3.00D+00  3.00D+00  3.00D+00
 E= -1718.43834426709     Delta-E=       -0.000029936870 Rises=F Damp=F
 DIIS: error= 1.24D-04 at cycle  31 NSaved=   7.
 NSaved= 7 IEnMin= 7 EnMin= -1718.43834426709     IErMin= 7 ErrMin= 1.24D-04
 ErrMax= 1.24D-04  0.00D+00 EMaxC= 1.00D-01 BMatC= 1.80D-06 BMatP= 1.83D-06
 IDIUse=3 WtCom= 9.99D-01 WtEn= 1.24D-03
 Large coefficients: NSaved=  7 BigCof=   65.68 CofMax=   10.00 Det=-6.79D-11
 Inversion failed.  Reducing to  6 matrices.
 Large coefficients: NSaved=  6 BigCof=   13.56 CofMax=   10.00 Det=-8.28D-10
 Inversion failed.  Reducing to  5 matrices.
 Coeff-Com:  0.367D+00 0.777D+00-0.982D+01 0.626D+01 0.342D+01
 Coeff-En:   0.000D+00 0.000D+00 0.000D+00 0.000D+00 0.100D+01
 Coeff:      0.367D+00 0.776D+00-0.981D+01 0.625D+01 0.342D+01
 Gap=     0.571 Goal=   None    Shift=    0.000
 Gap=     0.483 Goal=   None    Shift=    0.000
 RMSDP=8.47D-05 MaxDP=1.42D-02 DE=-2.99D-05 OVMax= 6.40D-02

 Cycle  40  Pass 1  IDiag  1:
 RMSU=  4.48D-05    CP:  1.00D+00 -3.00D+00 -3.00D+00  3.00D+00  3.00D+00
                    CP:  3.00D+00  3.00D+00  3.00D+00  3.00D+00  3.00D+00
                    CP:  3.00D+00
 E= -1718.43844725598     Delta-E=       -0.000102988888 Rises=F Damp=F
 DIIS: error= 1.33D-04 at cycle  32 NSaved=   6.
 NSaved= 6 IEnMin= 6 EnMin= -1718.43844725598     IErMin= 5 ErrMin= 1.24D-04
 ErrMax= 1.33D-04  0.00D+00 EMaxC= 1.00D-01 BMatC= 8.47D-06 BMatP= 1.80D-06
 IDIUse=3 WtCom= 9.99D-01 WtEn= 1.24D-03
 Large coefficients: NSaved=  6 BigCof=   10.91 CofMax=   10.00 Det=-1.12D-09
 Inversion failed.  Reducing to  5 matrices.
 Coeff-Com:  0.117D+01-0.962D+01 0.508D+01 0.445D+01-0.822D-01
 Coeff-En:   0.000D+00 0.000D+00 0.000D+00 0.000D+00 0.100D+01
 Coeff:      0.117D+01-0.961D+01 0.507D+01 0.444D+01-0.809D-01
 Gap=     0.571 Goal=   None    Shift=    0.000
 Gap=     0.488 Goal=   None    Shift=    0.000
 RMSDP=1.88D-05 MaxDP=3.17D-03 DE=-1.03D-04 OVMax= 1.42D-02

 Cycle  41  Pass 1  IDiag  1:
 RMSU=  5.21D-06    CP:  1.00D+00 -3.00D+00 -3.00D+00  3.00D+00  3.00D+00
                    CP:  3.00D+00  3.00D+00  3.00D+00  3.00D+00  3.00D+00
                    CP:  3.00D+00  1.40D+00
 E= -1718.43846738622     Delta-E=       -0.000020130237 Rises=F Damp=F
 DIIS: error= 1.40D-04 at cycle  33 NSaved=   6.
 NSaved= 6 IEnMin= 6 EnMin= -1718.43846738622     IErMin= 4 ErrMin= 1.24D-04
 ErrMax= 1.40D-04  0.00D+00 EMaxC= 1.00D-01 BMatC= 1.81D-05 BMatP= 1.80D-06
 IDIUse=3 WtCom= 9.99D-01 WtEn= 1.24D-03
 Large coefficients: NSaved=  6 BigCof=   10.25 CofMax=   10.00 Det=-1.16D-09
 Inversion failed.  Reducing to  5 matrices.
 Coeff-Com: -0.757D+01 0.501D+01 0.361D+01-0.313D-01-0.253D-01
 Coeff-En:   0.000D+00 0.000D+00 0.000D+00 0.000D+00 0.100D+01
 Coeff:     -0.756D+01 0.500D+01 0.361D+01-0.312D-01-0.240D-01
 Gap=     0.571 Goal=   None    Shift=    0.000
 Gap=     0.488 Goal=   None    Shift=    0.000
 RMSDP=6.97D-06 MaxDP=1.16D-03 DE=-2.01D-05 OVMax= 5.25D-03

 Cycle  42  Pass 1  IDiag  1:
 RMSU=  3.31D-07    CP:  1.00D+00 -3.00D+00 -3.00D+00  3.00D+00  3.00D+00
                    CP:  3.00D+00  3.00D+00  3.00D+00  3.00D+00  3.00D+00
                    CP:  3.00D+00  1.25D+00  8.67D-01
 E= -1718.43845978395     Delta-E=        0.000007602272 Rises=F Damp=F
 DIIS: error= 1.38D-04 at cycle  34 NSaved=   6.
 NSaved= 6 IEnMin= 5 EnMin= -1718.43846738622     IErMin= 3 ErrMin= 1.24D-04
 ErrMax= 1.38D-04  0.00D+00 EMaxC= 1.00D-01 BMatC= 1.55D-05 BMatP= 1.80D-06
 IDIUse=3 WtCom= 9.99D-01 WtEn= 1.24D-03
 Large coefficients: NSaved=  6 BigCof=   13.56 CofMax=   10.00 Det=-1.39D-09
 Inversion failed.  Reducing to  5 matrices.
 Rare condition: small coef for last iteration:  0.000D+00
 Coeff-Com: -0.910D+00 0.232D+01-0.299D+00 0.280D+01-0.291D+01
 Coeff-En:   0.000D+00 0.000D+00 0.000D+00 0.000D+00 0.100D+01
 Coeff:     -0.910D+00 0.232D+01-0.299D+00 0.280D+01-0.291D+01
 Gap=     0.570 Goal=   None    Shift=    0.000
 Gap=     0.479 Goal=   None    Shift=    0.000
 RMSDP=9.11D-05 MaxDP=1.53D-02 DE= 7.60D-06 OVMax= 6.89D-02

 Cycle  43  Pass 1  IDiag  1:
 RMSU=  2.70D-07    CP:  1.00D+00 -3.00D+00 -3.00D+00  3.00D+00  3.00D+00
                    CP:  3.00D+00  3.00D+00  3.00D+00  3.00D+00  3.00D+00
                    CP:  1.23D+00  3.07D-02 -5.62D-01 -1.70D+00
 E= -1718.43835148426     Delta-E=        0.000108299689 Rises=F Damp=F
 DIIS: error= 1.22D-04 at cycle  35 NSaved=   6.
 NSaved= 6 IEnMin= 4 EnMin= -1718.43846738622     IErMin= 6 ErrMin= 1.22D-04
 ErrMax= 1.22D-04  0.00D+00 EMaxC= 1.00D-01 BMatC= 1.75D-06 BMatP= 1.80D-06
 IDIUse=3 WtCom= 9.99D-01 WtEn= 1.22D-03
 Rare condition: small coef for last iteration:  0.000D+00
 Coeff-Com: -0.725D+01 0.735D+01-0.299D+01 0.549D+01-0.413D+01 0.252D+01
 Coeff-En:   0.000D+00 0.000D+00 0.000D+00 0.000D+00 0.000D+00 0.100D+01
 Coeff:     -0.725D+01 0.735D+01-0.299D+01 0.549D+01-0.413D+01 0.252D+01
 Gap=     0.571 Goal=   None    Shift=    0.000
 Gap=     0.485 Goal=   None    Shift=    0.000
 RMSDP=9.10D-05 MaxDP=1.53D-02 DE= 1.08D-04 OVMax= 6.87D-02

 Cycle  44  Pass 1  IDiag  1:
 RMSU=  9.66D-07    CP:  1.00D+00 -3.00D+00 -3.00D+00  3.00D+00  3.00D+00
                    CP:  3.00D+00  3.00D+00  3.00D+00  3.00D+00  3.00D+00
                    CP:  3.00D+00  1.27D+00 -4.64D-03 -3.00D+00  2.04D+00
 E= -1718.43845944362     Delta-E=       -0.000107959365 Rises=F Damp=F
 DIIS: error= 1.41D-04 at cycle  36 NSaved=   7.
 NSaved= 7 IEnMin= 4 EnMin= -1718.43846738622     IErMin= 6 ErrMin= 1.22D-04
 ErrMax= 1.41D-04  0.00D+00 EMaxC= 1.00D-01 BMatC= 1.71D-05 BMatP= 1.75D-06
 IDIUse=3 WtCom= 9.99D-01 WtEn= 1.22D-03
 Large coefficients: NSaved=  7 BigCof=   10.61 CofMax=   10.00 Det=-2.64D-09
 Inversion failed.  Reducing to  6 matrices.
 Coeff-Com: -0.100D+01-0.351D+00 0.577D+01-0.463D+01 0.241D+01-0.119D+01
 Coeff-En:   0.000D+00 0.000D+00 0.000D+00 0.000D+00 0.000D+00 0.100D+01
 Coeff:     -0.100D+01-0.351D+00 0.576D+01-0.463D+01 0.241D+01-0.119D+01
 Gap=     0.570 Goal=   None    Shift=    0.000
 Gap=     0.478 Goal=   None    Shift=    0.000
 RMSDP=7.74D-05 MaxDP=1.31D-02 DE=-1.08D-04 OVMax= 5.85D-02

 Cycle  45  Pass 1  IDiag  1:
 RMSU=  4.62D-07    CP:  1.00D+00 -3.00D+00 -3.00D+00  3.00D+00  3.00D+00
                    CP:  3.00D+00  3.00D+00  3.00D+00  3.00D+00  3.00D+00
                    CP:  1.84D+00  8.03D-02 -1.45D+00 -5.25D-01  1.31D-01
                    CP: -1.47D-01
 E= -1718.43836845604     Delta-E=        0.000090987584 Rises=F Damp=F
 DIIS: error= 1.12D-04 at cycle  37 NSaved=   7.
 NSaved= 7 IEnMin= 3 EnMin= -1718.43846738622     IErMin= 7 ErrMin= 1.12D-04
 ErrMax= 1.12D-04  0.00D+00 EMaxC= 1.00D-01 BMatC= 3.21D-06 BMatP= 1.75D-06
 IDIUse=3 WtCom= 9.99D-01 WtEn= 1.22D-03
 Rare condition: small coef for last iteration:  0.000D+00
 Coeff-Com: -0.124D+01-0.182D+01 0.101D+01 0.104D+01-0.141D+00-0.584D-01
 Coeff-Com:  0.221D+01
 Coeff-En:   0.000D+00 0.000D+00 0.000D+00 0.000D+00 0.000D+00 0.000D+00
 Coeff-En:   0.100D+01
 Coeff:     -0.124D+01-0.182D+01 0.101D+01 0.104D+01-0.141D+00-0.584D-01
 Coeff:      0.221D+01
 Gap=     0.571 Goal=   None    Shift=    0.000
 Gap=     0.480 Goal=   None    Shift=    0.000
 RMSDP=6.85D-05 MaxDP=1.14D-02 DE= 9.10D-05 OVMax= 5.18D-02

 Cycle  46  Pass 1  IDiag  1:
 RMSU=  1.07D-06    CP:  1.00D+00 -3.00D+00 -3.00D+00  3.00D+00  3.00D+00
                    CP:  3.00D+00  3.00D+00  3.00D+00  3.00D+00  3.00D+00
                    CP:  3.00D+00  1.09D+00 -8.39D-01  9.18D-02 -6.62D-01
                    CP: -3.49D-01  2.07D+00
 E= -1718.43845113871     Delta-E=       -0.000082682672 Rises=F Damp=F
 DIIS: error= 1.12D-04 at cycle  38 NSaved=   8.
 NSaved= 8 IEnMin= 3 EnMin= -1718.43846738622     IErMin= 7 ErrMin= 1.12D-04
 ErrMax= 1.12D-04  0.00D+00 EMaxC= 1.00D-01 BMatC= 1.45D-06 BMatP= 1.75D-06
 IDIUse=3 WtCom= 9.99D-01 WtEn= 1.12D-03
 Large coefficients: NSaved=  8 BigCof=   10.50 CofMax=   10.00 Det=-1.39D-09
 Inversion failed.  Reducing to  7 matrices.
 Coeff-Com: -0.522D+01-0.373D+01 0.738D+01-0.180D+01 0.722D+00 0.128D+01
 Coeff-Com:  0.237D+01
 Coeff-En:   0.000D+00 0.000D+00 0.000D+00 0.000D+00 0.000D+00 0.000D+00
 Coeff-En:   0.100D+01
 Coeff:     -0.522D+01-0.372D+01 0.738D+01-0.180D+01 0.722D+00 0.128D+01
 Coeff:      0.236D+01
 Gap=     0.572 Goal=   None    Shift=    0.000
 Gap=     0.485 Goal=   None    Shift=    0.000
 RMSDP=8.83D-05 MaxDP=1.46D-02 DE=-8.27D-05 OVMax= 6.66D-02

 Cycle  47  Pass 1  IDiag  1:
 RMSU=  3.81D-06    CP:  1.00D+00 -3.00D+00 -3.00D+00  3.00D+00  3.00D+00
                    CP:  3.00D+00  3.00D+00  3.00D+00  3.00D+00  3.00D+00
                    CP:  3.00D+00  3.00D+00  2.94D+00 -2.26D-01 -3.00D+00
                    CP: -1.29D+00  3.00D+00 -1.38D+00
 E= -1718.43854473108     Delta-E=       -0.000093592373 Rises=F Damp=F
 DIIS: error= 1.23D-04 at cycle  39 NSaved=   8.
 NSaved= 8 IEnMin= 8 EnMin= -1718.43854473108     IErMin= 6 ErrMin= 1.12D-04
 ErrMax= 1.23D-04  0.00D+00 EMaxC= 1.00D-01 BMatC= 1.71D-05 BMatP= 1.45D-06
 IDIUse=3 WtCom= 9.99D-01 WtEn= 1.12D-03
 Coeff-Com: -0.487D+01-0.380D+01 0.716D+01-0.167D+01 0.661D+00 0.117D+01
 Coeff-Com:  0.226D+01 0.804D-01
 Coeff-En:   0.000D+00 0.000D+00 0.000D+00 0.000D+00 0.000D+00 0.000D+00
 Coeff-En:   0.000D+00 0.100D+01
 Coeff:     -0.486D+01-0.380D+01 0.715D+01-0.167D+01 0.661D+00 0.117D+01
 Coeff:      0.226D+01 0.814D-01
 Gap=     0.572 Goal=   None    Shift=    0.000
 Gap=     0.488 Goal=   None    Shift=    0.000
 RMSDP=9.89D-07 MaxDP=1.77D-04 DE=-9.36D-05 OVMax= 7.24D-04

 Cycle  48  Pass 1  IDiag  1:
 RMSU=  9.17D-08    CP:  1.00D+00 -3.00D+00 -3.00D+00  3.00D+00  3.00D+00
                    CP:  3.00D+00  3.00D+00  3.00D+00  3.00D+00  3.00D+00
                    CP:  3.00D+00  2.98D+00  2.89D+00  1.69D-01 -3.00D+00
                    CP: -1.33D+00  3.00D+00 -1.19D+00  1.01D+00
 E= -1718.43854412149     Delta-E=        0.000000609594 Rises=F Damp=F
 DIIS: error= 1.21D-04 at cycle  40 NSaved=   9.
 NSaved= 9 IEnMin= 8 EnMin= -1718.43854473108     IErMin= 6 ErrMin= 1.12D-04
 ErrMax= 1.21D-04  0.00D+00 EMaxC= 1.00D-01 BMatC= 1.46D-05 BMatP= 1.45D-06
 IDIUse=3 WtCom= 9.99D-01 WtEn= 1.12D-03
 Large coefficients: NSaved=  9 BigCof=   29.21 CofMax=   10.00 Det=-2.85D-10
 Inversion failed.  Reducing to  8 matrices.
 Large coefficients: NSaved=  8 BigCof=   29.56 CofMax=   10.00 Det=-2.85D-10
 Inversion failed.  Reducing to  7 matrices.
 Large coefficients: NSaved=  7 BigCof=   27.85 CofMax=   10.00 Det=-3.11D-10
 Inversion failed.  Reducing to  6 matrices.
 Large coefficients: NSaved=  6 BigCof=   28.01 CofMax=   10.00 Det=-3.11D-10
 Inversion failed.  Reducing to  5 matrices.
 Rare condition: small coef for last iteration:  0.000D+00
 Coeff-Com: -0.287D+01 0.235D+01-0.145D+00-0.817D+01 0.983D+01
 Coeff-En:   0.000D+00 0.000D+00 0.000D+00 0.000D+00 0.100D+01
 Coeff:     -0.287D+01 0.235D+01-0.145D+00-0.817D+01 0.983D+01
 Gap=     0.572 Goal=   None    Shift=    0.000
 Gap=     0.483 Goal=   None    Shift=    0.000
 RMSDP=2.58D-05 MaxDP=3.80D-03 DE= 6.10D-07 OVMax= 1.93D-02

 Cycle  49  Pass 1  IDiag  1:
 Restarting incremental Fock formation.
 E= -1718.43857108578     Delta-E=       -0.000026964291 Rises=F Damp=F
 DIIS: error= 9.65D-05 at cycle  41 NSaved=   6.
 NSaved= 6 IEnMin= 6 EnMin= -1718.43857108578     IErMin= 6 ErrMin= 9.65D-05
 ErrMax= 9.65D-05  0.00D+00 EMaxC= 1.00D-01 BMatC= 1.28D-06 BMatP= 1.46D-05
 IDIUse=1 WtCom= 1.00D+00 WtEn= 0.00D+00
 Large coefficients: NSaved=  6 BigCof=   67.44 CofMax=   10.00 Det=-5.16D-11
 Inversion failed.  Reducing to  5 matrices.
 Large coefficients: NSaved=  5 BigCof=   59.16 CofMax=   10.00 Det=-5.55D-11
 Inversion failed.  Reducing to  4 matrices.
 Large coefficients: NSaved=  4 BigCof=   50.41 CofMax=   10.00 Det=-7.87D-11
 Inversion failed.  Reducing to  3 matrices.
 Large coefficients: NSaved=  3 BigCof=   40.72 CofMax=   10.00 Det=-1.50D-10
 Inversion failed.  Reducing to  2 matrices.
 Coeff-Com: -0.159D+00 0.116D+01
 Coeff:     -0.159D+00 0.116D+01
 Gap=     0.572 Goal=   None    Shift=    0.000
 Gap=     0.482 Goal=   None    Shift=    0.000
 RMSDP=5.17D-06 MaxDP=7.64D-04 DE=-2.70D-05 OVMax= 3.89D-03

 Cycle  50  Pass 1  IDiag  1:
 RMSU=  5.17D-06    CP:  1.00D+00
 E= -1718.43857612663     Delta-E=       -0.000005040846 Rises=F Damp=F
 DIIS: error= 9.44D-05 at cycle  42 NSaved=   3.
 NSaved= 3 IEnMin= 3 EnMin= -1718.43857612663     IErMin= 3 ErrMin= 9.44D-05
 ErrMax= 9.44D-05  0.00D+00 EMaxC= 1.00D-01 BMatC= 1.04D-06 BMatP= 1.28D-06
 IDIUse=1 WtCom= 1.00D+00 WtEn= 0.00D+00
 Coeff-Com: -0.126D+00 0.887D+00 0.239D+00
 Coeff:     -0.126D+00 0.887D+00 0.239D+00
 Gap=     0.572 Goal=   None    Shift=    0.000
 Gap=     0.482 Goal=   None    Shift=    0.000
 RMSDP=3.81D-07 MaxDP=5.68D-05 DE=-5.04D-06 OVMax= 2.86D-04

 Cycle  51  Pass 1  IDiag  1:
 RMSU=  6.42D-08    CP:  1.00D+00  1.07D+00
 E= -1718.43857650325     Delta-E=       -0.000000376623 Rises=F Damp=F
 DIIS: error= 9.44D-05 at cycle  43 NSaved=   4.
 NSaved= 4 IEnMin= 4 EnMin= -1718.43857650325     IErMin= 4 ErrMin= 9.44D-05
 ErrMax= 9.44D-05  0.00D+00 EMaxC= 1.00D-01 BMatC= 1.04D-06 BMatP= 1.04D-06
 IDIUse=1 WtCom= 1.00D+00 WtEn= 0.00D+00
 Large coefficients: NSaved=  4 BigCof=   12.77 CofMax=   10.00 Det=-1.63D-10
 Inversion failed.  Reducing to  3 matrices.
 Coeff-Com:  0.925D-01-0.746D+01 0.837D+01
 Coeff:      0.925D-01-0.746D+01 0.837D+01
 Gap=     0.572 Goal=   None    Shift=    0.000
 Gap=     0.482 Goal=   None    Shift=    0.000
 RMSDP=3.42D-06 MaxDP=5.10D-04 DE=-3.77D-07 OVMax= 2.57D-03

 Cycle  52  Pass 1  IDiag  1:
 RMSU=  5.93D-07    CP:  1.00D+00  1.72D+00  3.00D+00
 E= -1718.43857986115     Delta-E=       -0.000003357902 Rises=F Damp=F
 DIIS: error= 9.43D-05 at cycle  44 NSaved=   4.
 NSaved= 4 IEnMin= 4 EnMin= -1718.43857986115     IErMin= 4 ErrMin= 9.43D-05
 ErrMax= 9.43D-05  0.00D+00 EMaxC= 1.00D-01 BMatC= 1.01D-06 BMatP= 1.04D-06
 IDIUse=1 WtCom= 1.00D+00 WtEn= 0.00D+00
 Coeff-Com:  0.117D+00 0.279D+01-0.411D+01 0.221D+01
 Coeff:      0.117D+00 0.279D+01-0.411D+01 0.221D+01
 Gap=     0.572 Goal=   None    Shift=    0.000
 Gap=     0.482 Goal=   None    Shift=    0.000
 RMSDP=3.51D-06 MaxDP=5.23D-04 DE=-3.36D-06 OVMax= 2.63D-03

 Cycle  53  Pass 1  IDiag  1:
 RMSU=  1.45D-07    CP:  1.00D+00  2.38D+00  3.00D+00  2.44D+00
 E= -1718.43858323406     Delta-E=       -0.000003372911 Rises=F Damp=F
 DIIS: error= 9.36D-05 at cycle  45 NSaved=   5.
 NSaved= 5 IEnMin= 5 EnMin= -1718.43858323406     IErMin= 5 ErrMin= 9.36D-05
 ErrMax= 9.36D-05  0.00D+00 EMaxC= 1.00D-01 BMatC= 9.75D-07 BMatP= 1.01D-06
 IDIUse=1 WtCom= 1.00D+00 WtEn= 0.00D+00
 Large coefficients: NSaved=  5 BigCof=   68.36 CofMax=   10.00 Det=-2.76D-11
 Inversion failed.  Reducing to  4 matrices.
 Large coefficients: NSaved=  4 BigCof=   25.16 CofMax=   10.00 Det=-7.01D-11
 Inversion failed.  Reducing to  3 matrices.
 Coeff-Com:  0.186D+00-0.104D+01 0.185D+01
 Coeff:      0.186D+00-0.104D+01 0.185D+01
 Gap=     0.572 Goal=   None    Shift=    0.000
 Gap=     0.482 Goal=   None    Shift=    0.000
 RMSDP=3.39D-06 MaxDP=5.08D-04 DE=-3.37D-06 OVMax= 2.55D-03

 Cycle  54  Pass 1  IDiag  1:
 RMSU=  4.16D-07    CP:  1.00D+00  3.00D+00  3.00D+00  3.00D+00  2.36D+00
 E= -1718.43858644304     Delta-E=       -0.000003208975 Rises=F Damp=F
 DIIS: error= 9.27D-05 at cycle  46 NSaved=   4.
 NSaved= 4 IEnMin= 4 EnMin= -1718.43858644304     IErMin= 4 ErrMin= 9.27D-05
 ErrMax= 9.27D-05  0.00D+00 EMaxC= 1.00D-01 BMatC= 9.49D-07 BMatP= 9.75D-07
 IDIUse=1 WtCom= 1.00D+00 WtEn= 0.00D+00
 Coeff-Com:  0.351D+01-0.766D+01 0.128D+01 0.387D+01
 Coeff:      0.351D+01-0.766D+01 0.128D+01 0.387D+01
 Gap=     0.573 Goal=   None    Shift=    0.000
 Gap=     0.482 Goal=   None    Shift=    0.000
 RMSDP=1.33D-05 MaxDP=1.97D-03 DE=-3.21D-06 OVMax= 9.97D-03

 Cycle  55  Pass 1  IDiag  1:
 RMSU=  1.29D-05    CP:  1.00D+00  3.00D+00  3.00D+00  3.00D+00  3.00D+00
                    CP:  3.00D+00
 E= -1718.43859840417     Delta-E=       -0.000011961135 Rises=F Damp=F
 DIIS: error= 8.86D-05 at cycle  47 NSaved=   5.
 NSaved= 5 IEnMin= 5 EnMin= -1718.43859840417     IErMin= 5 ErrMin= 8.86D-05
 ErrMax= 8.86D-05  0.00D+00 EMaxC= 1.00D-01 BMatC= 8.71D-07 BMatP= 9.49D-07
 IDIUse=1 WtCom= 1.00D+00 WtEn= 0.00D+00
 Coeff-Com:  0.232D+01-0.453D+01 0.423D+00 0.214D+01 0.651D+00
 Coeff:      0.232D+01-0.453D+01 0.423D+00 0.214D+01 0.651D+00
 Gap=     0.573 Goal=   None    Shift=    0.000
 Gap=     0.482 Goal=   None    Shift=    0.000
 RMSDP=2.26D-06 MaxDP=3.37D-04 DE=-1.20D-05 OVMax= 1.70D-03

 Cycle  56  Pass 1  IDiag  1:
 RMSU=  1.18D-07    CP:  1.00D+00  3.00D+00  3.00D+00  3.00D+00  3.00D+00
                    CP:  3.00D+00  1.17D+00
 E= -1718.43860039296     Delta-E=       -0.000001988793 Rises=F Damp=F
 DIIS: error= 8.82D-05 at cycle  48 NSaved=   6.
 NSaved= 6 IEnMin= 6 EnMin= -1718.43860039296     IErMin= 6 ErrMin= 8.82D-05
 ErrMax= 8.82D-05  0.00D+00 EMaxC= 1.00D-01 BMatC= 8.64D-07 BMatP= 8.71D-07
 IDIUse=1 WtCom= 1.00D+00 WtEn= 0.00D+00
 Coeff-Com:  0.201D+01-0.394D+01 0.385D+00 0.186D+01 0.759D-01 0.612D+00
 Coeff:      0.201D+01-0.394D+01 0.385D+00 0.186D+01 0.759D-01 0.612D+00
 Gap=     0.573 Goal=   None    Shift=    0.000
 Gap=     0.482 Goal=   None    Shift=    0.000
 RMSDP=1.10D-06 MaxDP=1.65D-04 DE=-1.99D-06 OVMax= 8.29D-04

 Cycle  57  Pass 1  IDiag  1:
 RMSU=  5.97D-08    CP:  1.00D+00  3.00D+00  3.00D+00  3.00D+00  3.00D+00
                    CP:  3.00D+00  1.26D+00  1.55D+00
 E= -1718.43860136666     Delta-E=       -0.000000973691 Rises=F Damp=F
 DIIS: error= 8.80D-05 at cycle  49 NSaved=   7.
 NSaved= 7 IEnMin= 7 EnMin= -1718.43860136666     IErMin= 7 ErrMin= 8.80D-05
 ErrMax= 8.80D-05  0.00D+00 EMaxC= 1.00D-01 BMatC= 8.63D-07 BMatP= 8.64D-07
 IDIUse=1 WtCom= 1.00D+00 WtEn= 0.00D+00
 Large coefficients: NSaved=  7 BigCof=   60.84 CofMax=   10.00 Det=-1.43D-11
 Inversion failed.  Reducing to  6 matrices.
 Coeff-Com:  0.389D+00-0.407D+00-0.198D+00-0.245D+00 0.206D+01-0.596D+00
 Coeff:      0.389D+00-0.407D+00-0.198D+00-0.245D+00 0.206D+01-0.596D+00
 Gap=     0.573 Goal=   None    Shift=    0.000
 Gap=     0.482 Goal=   None    Shift=    0.000
 RMSDP=1.82D-06 MaxDP=2.73D-04 DE=-9.74D-07 OVMax= 1.38D-03

 Cycle  58  Pass 1  IDiag  1:
 RMSU=  3.84D-08    CP:  1.00D+00  3.00D+00  3.00D+00  3.00D+00  3.00D+00
                    CP:  3.00D+00  1.40D+00  2.62D+00  3.00D+00
 E= -1718.43860298253     Delta-E=       -0.000001615878 Rises=F Damp=F
 DIIS: error= 8.78D-05 at cycle  50 NSaved=   7.
 NSaved= 7 IEnMin= 7 EnMin= -1718.43860298253     IErMin= 7 ErrMin= 8.78D-05
 ErrMax= 8.78D-05  0.00D+00 EMaxC= 1.00D-01 BMatC= 8.65D-07 BMatP= 8.63D-07
 IDIUse=1 WtCom= 1.00D+00 WtEn= 0.00D+00
 Large coefficients: NSaved=  7 BigCof=   24.82 CofMax=   10.00 Det=-5.32D-12
 Inversion failed.  Reducing to  6 matrices.
 Coeff-Com: -0.196D-01 0.896D-01-0.223D+01 0.170D+01 0.382D+01-0.236D+01
 Coeff:     -0.196D-01 0.896D-01-0.223D+01 0.170D+01 0.382D+01-0.236D+01
 Gap=     0.573 Goal=   None    Shift=    0.000
 Gap=     0.482 Goal=   None    Shift=    0.000
 RMSDP=6.50D-07 MaxDP=9.84D-05 DE=-1.62D-06 OVMax= 4.91D-04

 Cycle  59  Pass 1  IDiag  1:
 RMSU=  2.29D-08    CP:  1.00D+00  3.00D+00  3.00D+00  3.00D+00  3.00D+00
                    CP:  3.00D+00  1.35D+00  2.40D+00  2.21D+00  5.05D-01
 E= -1718.43860240533     Delta-E=        0.000000577206 Rises=F Damp=F
 DIIS: error= 8.79D-05 at cycle  51 NSaved=   7.
 NSaved= 7 IEnMin= 6 EnMin= -1718.43860298253     IErMin= 6 ErrMin= 8.78D-05
 ErrMax= 8.79D-05  0.00D+00 EMaxC= 1.00D-01 BMatC= 8.65D-07 BMatP= 8.63D-07
 IDIUse=1 WtCom= 1.00D+00 WtEn= 0.00D+00
 Large coefficients: NSaved=  7 BigCof=   45.03 CofMax=   10.00 Det=-3.30D-11
 Inversion failed.  Reducing to  6 matrices.
 Large coefficients: NSaved=  6 BigCof=   15.52 CofMax=   10.00 Det=-6.66D-11
 Inversion failed.  Reducing to  5 matrices.
 Large coefficients: NSaved=  5 BigCof=   11.30 CofMax=   10.00 Det=-6.91D-11
 Inversion failed.  Reducing to  4 matrices.
 Coeff-Com:  0.463D+00 0.476D+00 0.250D+01-0.244D+01
 Coeff:      0.463D+00 0.476D+00 0.250D+01-0.244D+01
 Gap=     0.573 Goal=   None    Shift=    0.000
 Gap=     0.482 Goal=   None    Shift=    0.000
 RMSDP=1.04D-06 MaxDP=1.56D-04 DE= 5.77D-07 OVMax= 7.75D-04

 Cycle  60  Pass 1  IDiag  1:
 RMSU=  2.24D-07    CP:  1.00D+00  3.00D+00  3.00D+00  3.00D+00  3.00D+00
                    CP:  3.00D+00  1.42D+00  3.00D+00  3.00D+00  3.00D+00
                    CP: -3.00D+00
 E= -1718.43860333847     Delta-E=       -0.000000933142 Rises=F Damp=F
 DIIS: error= 8.80D-05 at cycle  52 NSaved=   5.
 NSaved= 5 IEnMin= 5 EnMin= -1718.43860333847     IErMin= 3 ErrMin= 8.78D-05
 ErrMax= 8.80D-05  0.00D+00 EMaxC= 1.00D-01 BMatC= 8.64D-07 BMatP= 8.63D-07
 IDIUse=1 WtCom= 1.00D+00 WtEn= 0.00D+00
 Large coefficients: NSaved=  5 BigCof=   26.78 CofMax=   10.00 Det=-9.27D-12
 Inversion failed.  Reducing to  4 matrices.
 Coeff-Com:  0.123D+01-0.747D+00-0.619D+00 0.114D+01
 Coeff:      0.123D+01-0.747D+00-0.619D+00 0.114D+01
 Gap=     0.573 Goal=   None    Shift=    0.000
 Gap=     0.482 Goal=   None    Shift=    0.000
 RMSDP=8.41D-07 MaxDP=1.16D-04 DE=-9.33D-07 OVMax= 6.26D-04

 Cycle  61  Pass 1  IDiag  1:
 RMSU=  2.31D-08    CP:  1.00D+00  3.00D+00  3.00D+00  3.00D+00  3.00D+00
                    CP:  3.00D+00  1.36D+00  3.00D+00  3.00D+00  3.00D+00
                    CP: -3.00D+00  1.79D+00
 E= -1718.43860267258     Delta-E=        0.000000665892 Rises=F Damp=F
 DIIS: error= 8.82D-05 at cycle  53 NSaved=   5.
 NSaved= 5 IEnMin= 4 EnMin= -1718.43860333847     IErMin= 2 ErrMin= 8.78D-05
 ErrMax= 8.82D-05  0.00D+00 EMaxC= 1.00D-01 BMatC= 8.63D-07 BMatP= 8.63D-07
 IDIUse=1 WtCom= 1.00D+00 WtEn= 0.00D+00
 Coeff-Com:  0.150D+01-0.121D+01-0.672D+00 0.195D+01-0.567D+00
 Coeff:      0.150D+01-0.121D+01-0.672D+00 0.195D+01-0.567D+00
 Gap=     0.573 Goal=   None    Shift=    0.000
 Gap=     0.482 Goal=   None    Shift=    0.000
 RMSDP=1.00D-07 MaxDP=1.10D-05 DE= 6.66D-07 OVMax= 7.18D-05

 Cycle  62  Pass 1  IDiag  1:
 RMSU=  2.05D-08    CP:  1.00D+00  3.00D+00  3.00D+00  3.00D+00  3.00D+00
                    CP:  3.00D+00  1.37D+00  2.98D+00  3.00D+00  3.00D+00
                    CP: -3.00D+00  1.53D+00  5.79D-01
 E= -1718.43860272314     Delta-E=       -0.000000050567 Rises=F Damp=F
 DIIS: error= 8.81D-05 at cycle  54 NSaved=   6.
 NSaved= 6 IEnMin= 4 EnMin= -1718.43860333847     IErMin= 2 ErrMin= 8.78D-05
 ErrMax= 8.81D-05  0.00D+00 EMaxC= 1.00D-01 BMatC= 8.63D-07 BMatP= 8.63D-07
 IDIUse=1 WtCom= 1.00D+00 WtEn= 0.00D+00
 Large coefficients: NSaved=  6 BigCof=   19.77 CofMax=   10.00 Det=-1.49D-11
 Inversion failed.  Reducing to  5 matrices.
 Large coefficients: NSaved=  5 BigCof=   12.71 CofMax=   10.00 Det=-1.59D-11
 Inversion failed.  Reducing to  4 matrices.
 Coeff-Com:  0.950D+00-0.132D+01 0.694D+01-0.558D+01
 Coeff:      0.950D+00-0.132D+01 0.694D+01-0.558D+01
 Gap=     0.573 Goal=   None    Shift=    0.000
 Gap=     0.482 Goal=   None    Shift=    0.000
 RMSDP=5.03D-07 MaxDP=5.68D-05 DE=-5.06D-08 OVMax= 3.41D-04

 Cycle  63  Pass 1  IDiag  1:
 RMSU=  1.63D-07    CP:  1.00D+00  3.00D+00  3.00D+00  3.00D+00  3.00D+00
                    CP:  3.00D+00  1.36D+00  3.00D+00  3.00D+00  3.00D+00
                    CP: -3.00D+00  3.00D+00  3.00D+00 -3.00D+00
 E= -1718.43860271229     Delta-E=        0.000000010854 Rises=F Damp=F
 DIIS: error= 8.84D-05 at cycle  55 NSaved=   5.
 NSaved= 5 IEnMin= 2 EnMin= -1718.43860333847     IErMin= 1 ErrMin= 8.78D-05
 ErrMax= 8.84D-05  0.00D+00 EMaxC= 1.00D-01 BMatC= 8.61D-07 BMatP= 8.63D-07
 IDIUse=1 WtCom= 1.00D+00 WtEn= 0.00D+00
 Coeff-Com: -0.482D+00 0.114D+01-0.615D+01 0.453D+01 0.196D+01
 Coeff:     -0.482D+00 0.114D+01-0.615D+01 0.453D+01 0.196D+01
 Gap=     0.573 Goal=   None    Shift=    0.000
 Gap=     0.482 Goal=   None    Shift=    0.000
 RMSDP=1.97D-06 MaxDP=2.99D-04 DE= 1.09D-08 OVMax= 1.49D-03

 Cycle  64  Pass 1  IDiag  1:
 RMSU=  2.25D-07    CP:  1.00D+00  3.00D+00  3.00D+00  3.00D+00  3.00D+00
                    CP:  3.00D+00  1.50D+00  3.00D+00  3.00D+00  3.00D+00
                    CP: -3.00D+00  3.00D+00  3.00D+00 -3.00D+00  3.00D+00
 E= -1718.43860449116     Delta-E=       -0.000001778871 Rises=F Damp=F
 DIIS: error= 8.80D-05 at cycle  56 NSaved=   6.
 NSaved= 6 IEnMin= 6 EnMin= -1718.43860449116     IErMin= 1 ErrMin= 8.78D-05
 ErrMax= 8.80D-05  0.00D+00 EMaxC= 1.00D-01 BMatC= 8.56D-07 BMatP= 8.61D-07
 IDIUse=1 WtCom= 1.00D+00 WtEn= 0.00D+00
 Large coefficients: NSaved=  6 BigCof=  129.53 CofMax=   10.00 Det=-2.43D-12
 Inversion failed.  Reducing to  5 matrices.
 Large coefficients: NSaved=  5 BigCof=   41.34 CofMax=   10.00 Det=-4.50D-11
 Inversion failed.  Reducing to  4 matrices.
 Large coefficients: NSaved=  4 BigCof=   11.56 CofMax=   10.00 Det=-1.99D-10
 Inversion failed.  Reducing to  3 matrices.
 Large coefficients: NSaved=  3 BigCof=   10.79 CofMax=   10.00 Det=-2.08D-10
 Inversion failed.  Reducing to  2 matrices.
 Large coefficients: NSaved=  2 BigCof=   10.77 CofMax=   10.00 Det=-2.21D-10
 Coeff-Com: -0.977D+01 0.108D+02
 Coeff:     -0.977D+01 0.108D+02
 Gap=     0.573 Goal=   None    Shift=    0.000
 Gap=     0.482 Goal=   None    Shift=    0.000
 RMSDP=2.02D-05 MaxDP=3.06D-03 DE=-1.78D-06 OVMax= 1.53D-02

 Cycle  65  Pass 1  IDiag  1:
 RMSU=  4.04D-06    CP:  1.00D+00  3.00D+00  3.00D+00  3.00D+00  3.00D+00
                    CP:  3.00D+00  3.00D+00  3.00D+00  3.00D+00  3.00D+00
                    CP: -3.00D+00  3.00D+00  3.00D+00 -3.00D+00  3.00D+00
                    CP:  3.00D+00
 E= -1718.43862228687     Delta-E=       -0.000017795706 Rises=F Damp=F
 DIIS: error= 8.49D-05 at cycle  57 NSaved=   3.
 NSaved= 3 IEnMin= 3 EnMin= -1718.43862228687     IErMin= 3 ErrMin= 8.49D-05
 ErrMax= 8.49D-05  0.00D+00 EMaxC= 1.00D-01 BMatC= 8.07D-07 BMatP= 8.56D-07
 IDIUse=1 WtCom= 1.00D+00 WtEn= 0.00D+00
 Coeff-Com: -0.766D+01 0.679D+01 0.187D+01
 Coeff:     -0.766D+01 0.679D+01 0.187D+01
 Gap=     0.573 Goal=   None    Shift=    0.000
 Gap=     0.483 Goal=   None    Shift=    0.000
 RMSDP=3.35D-05 MaxDP=5.02D-03 DE=-1.78D-05 OVMax= 2.53D-02

 Cycle  66  Pass 1  IDiag  1:
 RMSU=  3.18D-05    CP:  1.00D+00  3.00D+00  3.00D+00  3.00D+00  3.00D+00
                    CP:  3.00D+00  3.00D+00  3.00D+00  3.00D+00  3.00D+00
                    CP: -3.00D+00  3.00D+00  3.00D+00 -3.00D+00  3.00D+00
                    CP:  3.00D+00  3.00D+00
 E= -1718.43864995193     Delta-E=       -0.000027665060 Rises=F Damp=F
 DIIS: error= 8.09D-05 at cycle  58 NSaved=   4.
 NSaved= 4 IEnMin= 4 EnMin= -1718.43864995193     IErMin= 4 ErrMin= 8.09D-05
 ErrMax= 8.09D-05  0.00D+00 EMaxC= 1.00D-01 BMatC= 1.00D-06 BMatP= 8.07D-07
 IDIUse=1 WtCom= 1.00D+00 WtEn= 0.00D+00
 Coeff-Com: -0.735D+01 0.596D+01 0.256D+01-0.176D+00
 Coeff:     -0.735D+01 0.596D+01 0.256D+01-0.176D+00
 Gap=     0.573 Goal=   None    Shift=    0.000
 Gap=     0.484 Goal=   None    Shift=    0.000
 RMSDP=3.89D-06 MaxDP=5.85D-04 DE=-2.77D-05 OVMax= 2.94D-03

 Cycle  67  Pass 1  IDiag  1:
 RMSU=  9.70D-07    CP:  1.00D+00  3.00D+00  3.00D+00  3.00D+00  3.00D+00
                    CP:  3.00D+00  3.00D+00  3.00D+00  3.00D+00  3.00D+00
                    CP: -3.00D+00  3.00D+00  3.00D+00 -3.00D+00  3.00D+00
                    CP:  3.00D+00  3.00D+00  1.12D+00
 E= -1718.43865299118     Delta-E=       -0.000003039250 Rises=F Damp=F
 DIIS: error= 8.10D-05 at cycle  59 NSaved=   5.
 NSaved= 5 IEnMin= 5 EnMin= -1718.43865299118     IErMin= 4 ErrMin= 8.09D-05
 ErrMax= 8.10D-05  0.00D+00 EMaxC= 1.00D-01 BMatC= 1.23D-06 BMatP= 8.07D-07
 IDIUse=1 WtCom= 1.00D+00 WtEn= 0.00D+00
 Large coefficients: NSaved=  5 BigCof=   15.55 CofMax=   10.00 Det=-1.73D-10
 Inversion failed.  Reducing to  4 matrices.
 Coeff-Com: -0.748D+00-0.633D+00 0.892D+01-0.654D+01
 Coeff:     -0.748D+00-0.633D+00 0.892D+01-0.654D+01
 Gap=     0.574 Goal=   None    Shift=    0.000
 Gap=     0.484 Goal=   None    Shift=    0.000
 RMSDP=3.26D-05 MaxDP=4.78D-03 DE=-3.04D-06 OVMax= 2.46D-02

 Cycle  68  Pass 1  IDiag  1:
[...]
    11  H    0.000076   0.000497  -0.000124   0.000149   0.000050   0.000124
    12  O   -0.025776  -0.001333   0.000149  -0.001171   0.000068  -0.001331
    13  H    0.000078   0.000040  -0.000020   0.000124   0.000009   0.000148
    14  H    0.001764   0.000068   0.000009   0.000246  -0.000192   0.000057
    15  H    0.000077   0.000149  -0.000020  -0.001678   0.001198  -0.000023
    16  H    0.001765   0.000305   0.000050   0.000057  -0.000029   0.000246
    17  H    0.001761  -0.001044   0.001193   0.000306  -0.000193   0.000068
    18  H    0.000080   0.000124  -0.000125  -0.000023   0.000004  -0.001685
    19  H    0.001759  -0.000023   0.000004   0.000068  -0.000029   0.000305
               7          8          9         10         11         12
     1  Fe   0.001766  -0.025766   0.000076  -0.025768   0.000076  -0.025776
     2  O    0.000057   0.000199  -0.000023  -0.001170   0.000497  -0.001333
     3  H    0.000015  -0.000023   0.000003   0.000124  -0.000124   0.000149
     4  O   -0.000023  -0.001171   0.000497  -0.001332   0.000149  -0.001171
     5  H   -0.000000   0.000057   0.000015   0.000304   0.000050   0.000068
     6  O   -0.001051  -0.001331   0.000040  -0.001173   0.000124  -0.001331
     7  H   -0.000360   0.000246   0.000003   0.000069   0.000009   0.000305
     8  O    0.000246   0.043204  -0.001674  -0.001332   0.000040  -0.001170
     9  H    0.000003  -0.001674   0.002223   0.000149  -0.000020   0.000124
    10  O    0.000069  -0.001332   0.000149   0.043205  -0.001677   0.000199
    11  H    0.000009   0.000040  -0.000020  -0.001677   0.002227  -0.000023
    12  O    0.000305  -0.001170   0.000124   0.000199  -0.000023   0.043216
    13  H    0.000050   0.000497  -0.000125  -0.000023   0.000003  -0.001679
    14  H   -0.000029   0.000305   0.000050  -0.001040   0.001191  -0.000023
    15  H    0.000004   0.000124  -0.000125   0.000040  -0.000020   0.000497
    16  H   -0.000193   0.000068   0.000009  -0.000023   0.000004  -0.001045
    17  H   -0.000029  -0.000023   0.000004   0.000057   0.000015   0.000247
    18  H    0.001202   0.000148  -0.000020   0.000497  -0.000125   0.000040
    19  H   -0.000192  -0.001041   0.001191   0.000246   0.000003   0.000057
              13         14         15         16         17         18
     1  Fe   0.000078   0.001764   0.000077   0.001765   0.001761   0.000080
     2  O    0.000040   0.000068   0.000149   0.000305  -0.001044   0.000124
     3  H   -0.000020   0.000009  -0.000020   0.000050   0.001193  -0.000125
     4  O    0.000124   0.000246  -0.001678   0.000057   0.000306  -0.000023
     5  H    0.000009  -0.000192   0.001198  -0.000029  -0.000193   0.000004
     6  O    0.000148   0.000057  -0.000023   0.000246   0.000068  -0.001685
     7  H    0.000050  -0.000029   0.000004  -0.000193  -0.000029   0.001202
     8  O    0.000497   0.000305   0.000124   0.000068  -0.000023   0.000148
     9  H   -0.000125   0.000050  -0.000125   0.000009   0.000004  -0.000020
    10  O   -0.000023  -0.001040   0.000040  -0.000023   0.000057   0.000497
    11  H    0.000003   0.001191  -0.000020   0.000004   0.000015  -0.000125
    12  O   -0.001679  -0.000023   0.000497  -0.001045   0.000247   0.000040
    13  H    0.002220   0.000004  -0.000125   0.001195   0.000003  -0.000020
    14  H    0.000004  -0.000364   0.000004  -0.000000  -0.000029   0.000016
    15  H   -0.000125   0.000004   0.002213   0.000015   0.000050   0.000003
    16  H    0.001195  -0.000000   0.000015  -0.000359  -0.000193   0.000004
    17  H    0.000003  -0.000029   0.000050  -0.000193  -0.000357   0.000009
    18  H   -0.000020   0.000016   0.000003   0.000004   0.000009   0.002219
    19  H    0.000015  -0.000192   0.000009  -0.000029  -0.000000   0.000050
              19
     1  Fe   0.001759
     2  O   -0.000023
     3  H    0.000004
     4  O    0.000068
     5  H   -0.000029
     6  O    0.000305
     7  H   -0.000192
     8  O   -0.001041
     9  H    0.001191
    10  O    0.000246
    11  H    0.000003
    12  O    0.000057
    13  H    0.000015
    14  H   -0.000192
    15  H    0.000009
    16  H   -0.000029
    17  H   -0.000000
    18  H    0.000050
    19  H   -0.000357
 Mulliken charges and spin densities:
               1          2
     1  Fe   1.350603   3.906406
     2  O   -0.522467   0.011365
     3  H    0.320410   0.002396
     4  O   -0.522471   0.011367
     5  H    0.310319   0.001845
     6  O   -0.522590   0.011356
     7  H    0.310349   0.001849
     8  O   -0.522532   0.011357
     9  H    0.320427   0.002397
    10  O   -0.522448   0.011351
    11  H    0.320384   0.002398
    12  O   -0.522527   0.011349
    13  H    0.320419   0.002394
    14  H    0.310299   0.001843
    15  H    0.320396   0.002391
    16  H    0.310321   0.001848
    17  H    0.310304   0.001846
    18  H    0.320464   0.002397
    19  H    0.310339   0.001845
 Sum of Mulliken charges =   2.00000   4.00000
 Mulliken charges and spin densities with hydrogens summed into heavy atoms:
               1          2
     1  Fe   1.350603   3.906406
     2  O    0.108247   0.015607
     4  O    0.108244   0.015602
     6  O    0.108223   0.015602
     8  O    0.108234   0.015599
    10  O    0.108236   0.015592
    12  O    0.108213   0.015592
 Electronic spatial extent (au):  <R**2>=           1031.9411
 Charge=              2.0000 electrons
 Dipole moment (field-independent basis, Debye):
    X=             -0.0010    Y=             -0.0010    Z=             -0.0017  Tot=              0.0023
 Quadrupole moment (field-independent basis, Debye-Ang):
   XX=            -23.4123   YY=            -15.7950   ZZ=            -15.8033
   XY=             -0.0005   XZ=              0.0117   YZ=              0.0047
 Traceless Quadrupole moment (field-independent basis, Debye-Ang):
   XX=             -5.0754   YY=              2.5419   ZZ=              2.5335
   XY=             -0.0005   XZ=              0.0117   YZ=              0.0047
 Octapole moment (field-independent basis, Debye-Ang**2):
  XXX=             -0.0095  YYY=              0.0120  ZZZ=              0.0061  XYY=              0.0030
  XXY=             -0.0080  XXZ=             -0.0319  XZZ=             -0.0077  YZZ=             -0.0117
  YYZ=             -0.0094  XYZ=             -0.0192
 Hexadecapole moment (field-independent basis, Debye-Ang**3):
 XXXX=           -286.5839 YYYY=           -163.2213 ZZZZ=           -163.2647 XXXY=             -0.0093
 XXXZ=              0.0912 YYYX=              9.2544 YYYZ=             -0.0033 ZZZX=             37.2737
 ZZZY=              0.0457 XXYY=            -60.2048 XXZZ=            -60.0929 YYZZ=            -54.3740
 XXYZ=              0.0194 YYXZ=            -37.2445 ZZXY=             -9.2579
 N-N= 6.957934702665D+02 E-N=-5.456031496326D+03  KE= 1.718629441330D+03
                          Isotropic Fermi Contact Couplings
        Atom                 a.u.       MegaHertz       Gauss      10(-4) cm-1
     1  Fe(57)             0.07057       2.55884       0.91306       0.85354
     2  O(17)              0.07718     -11.69691      -4.17375      -3.90167
     3  H(1)               0.00042       0.46421       0.16564       0.15484
     4  O(17)              0.07719     -11.69864      -4.17437      -3.90225
     5  H(1)              -0.00007      -0.07657      -0.02732      -0.02554
     6  O(17)              0.07725     -11.70654      -4.17718      -3.90488
     7  H(1)              -0.00007      -0.07591      -0.02709      -0.02532
     8  O(17)              0.07714     -11.69091      -4.17161      -3.89967
     9  H(1)               0.00042       0.46640       0.16642       0.15557
    10  O(17)              0.07716     -11.69388      -4.17267      -3.90066
    11  H(1)               0.00042       0.46743       0.16679       0.15592
    12  O(17)              0.07719     -11.69832      -4.17425      -3.90214
    13  H(1)               0.00042       0.46404       0.16558       0.15479
    14  H(1)              -0.00007      -0.07562      -0.02698      -0.02522
    15  H(1)               0.00041       0.46176       0.16477       0.15403
    16  H(1)              -0.00007      -0.07470      -0.02665      -0.02492
    17  H(1)              -0.00007      -0.07528      -0.02686      -0.02511
    18  H(1)               0.00041       0.46356       0.16541       0.15463
    19  H(1)              -0.00007      -0.07446      -0.02657      -0.02484
 --------------------------------------------------------
       Center         ----  Spin Dipole Couplings  ----
                      3XX-RR        3YY-RR        3ZZ-RR
 --------------------------------------------------------
     1   Atom       -2.699316      1.351408      1.347907
     2   Atom        0.023775      0.008270     -0.032045
     3   Atom        0.021761      0.008001     -0.029762
     4   Atom        0.024050     -0.078868      0.054819
     5   Atom       -0.018553     -0.028942      0.047495
     6   Atom        0.024130     -0.078824      0.054694
     7   Atom       -0.018519     -0.028911      0.047431
     8   Atom        0.023873      0.008210     -0.032084
     9   Atom        0.021732      0.008031     -0.029763
    10   Atom        0.023983      0.034761     -0.058743
    11   Atom        0.021693     -0.012607     -0.009086
    12   Atom        0.023867      0.034786     -0.058653
    13   Atom        0.021756     -0.012613     -0.009143
    14   Atom       -0.018572      0.043359     -0.024787
    15   Atom        0.021813     -0.028039      0.006226
    16   Atom       -0.018579      0.043325     -0.024747
    17   Atom       -0.018618      0.013492      0.005126
    18   Atom        0.021867     -0.028055      0.006188
    19   Atom       -0.018596      0.013420      0.005177
 --------------------------------------------------------
                        XY            XZ            YZ
 --------------------------------------------------------
     1   Atom        0.001580      0.001465     -0.005324
     2   Atom        0.099961     -0.102089     -0.065679
     3   Atom        0.049551     -0.008668     -0.008928
     4   Atom        0.038393      0.137634      0.015265
     5   Atom        0.005512      0.028967      0.017248
     6   Atom        0.038474      0.137590      0.015302
     7   Atom        0.005540      0.028994      0.017295
     8   Atom        0.099941     -0.102074     -0.065673
     9   Atom        0.049561     -0.008667     -0.008926
    10   Atom       -0.138348     -0.035636      0.050347
    11   Atom       -0.032260     -0.038620      0.020840
    12   Atom       -0.138332     -0.035637      0.050326
    13   Atom       -0.032259     -0.038596      0.020813
    14   Atom       -0.027822     -0.009695      0.024449
    15   Atom       -0.017310      0.047240     -0.011907
    16   Atom       -0.027795     -0.009702      0.024493
    17   Atom        0.022283     -0.019213     -0.041765
    18   Atom       -0.017263      0.047222     -0.011855
    19   Atom        0.022288     -0.019241     -0.041754
 --------------------------------------------------------


 ---------------------------------------------------------------------------------
              Anisotropic Spin Dipole Couplings in Principal Axis System
 ---------------------------------------------------------------------------------

       Atom             a.u.   MegaHertz   Gauss  10(-4) cm-1        Axes

              Baa    -2.6993   -46.733   -16.675   -15.588  1.0000 -0.0004 -0.0004
     1 Fe(57) Bbb     1.3441    23.269     8.303     7.762  0.0005  0.5863  0.8101
              Bcc     1.3553    23.463     8.372     7.827  0.0001  0.8101 -0.5863
 
              Baa    -0.1113     8.055     2.874     2.687  0.6669 -0.1574  0.7284
     2 O(17)  Bbb    -0.0719     5.200     1.856     1.735 -0.3339  0.8107  0.4809
              Bcc     0.1832   -13.256    -4.730    -4.422  0.6662  0.5639 -0.4881
 
              Baa    -0.0354   -18.892    -6.741    -6.302 -0.6135  0.7507  0.2452
     3 H(1)   Bbb    -0.0311   -16.591    -5.920    -5.534  0.2559 -0.1048  0.9610
              Bcc     0.0665    35.484    12.661    11.836  0.7471  0.6523 -0.1278
 
              Baa    -0.1113     8.055     2.874     2.687  0.6662 -0.5524 -0.5011
     4 O(17)  Bbb    -0.0718     5.199     1.855     1.734  0.3339  0.8217 -0.4619
              Bcc     0.1832   -13.254    -4.729    -4.421  0.6669  0.1403  0.7318
 
              Baa    -0.0328   -17.491    -6.241    -5.834  0.1784  0.9468 -0.2678
     5 H(1)   Bbb    -0.0292   -15.587    -5.562    -5.199  0.9220 -0.2559 -0.2906
              Bcc     0.0620    33.078    11.803    11.034  0.3437  0.1951  0.9186
 
              Baa    -0.1113     8.054     2.874     2.687  0.6660 -0.5527 -0.5010
     6 O(17)  Bbb    -0.0718     5.196     1.854     1.733  0.3338  0.8214 -0.4624
              Bcc     0.1831   -13.250    -4.728    -4.420  0.6671  0.1407  0.7315
 
              Baa    -0.0328   -17.487    -6.240    -5.833  0.1787  0.9465 -0.2687
     7 H(1)   Bbb    -0.0292   -15.585    -5.561    -5.198  0.9217 -0.2566 -0.2908
              Bcc     0.0620    33.072    11.801    11.032  0.3442  0.1957  0.9183
 
              Baa    -0.1113     8.052     2.873     2.686  0.6664 -0.1568  0.7289
     8 O(17)  Bbb    -0.0719     5.202     1.856     1.735 -0.3344  0.8109  0.4802
              Bcc     0.1832   -13.255    -4.730    -4.421  0.6664  0.5638 -0.4880
 
              Baa    -0.0354   -18.894    -6.742    -6.302 -0.6140  0.7506  0.2440
     9 H(1)   Bbb    -0.0311   -16.593    -5.921    -5.535  0.2551 -0.1038  0.9613
              Bcc     0.0665    35.487    12.663    11.837  0.7469  0.6525 -0.1277
 
              Baa    -0.1112     8.050     2.872     2.685  0.6661  0.7100 -0.2287
    10 O(17)  Bbb    -0.0720     5.208     1.858     1.737  0.3348 -0.0105  0.9422
              Bcc     0.1832   -13.257    -4.731    -4.422 -0.6666  0.7042  0.2447
 
              Baa    -0.0354   -18.895    -6.742    -6.303  0.6147  0.1646  0.7714
    11 H(1)   Bbb    -0.0311   -16.593    -5.921    -5.535  0.2543  0.8845 -0.3912
              Bcc     0.0665    35.488    12.663    11.837  0.7467 -0.4366 -0.5018
 
              Baa    -0.1113     8.051     2.873     2.685  0.6667  0.7098 -0.2274
    12 O(17)  Bbb    -0.0719     5.203     1.856     1.735  0.3339 -0.0116  0.9425
              Bcc     0.1832   -13.253    -4.729    -4.421 -0.6664  0.7043  0.2448
 
              Baa    -0.0354   -18.891    -6.741    -6.301  0.6136  0.1630  0.7726
    13 H(1)   Bbb    -0.0311   -16.591    -5.920    -5.534  0.2555  0.8848 -0.3896
              Bcc     0.0665    35.482    12.661    11.836  0.7471 -0.4365 -0.5013
 
              Baa    -0.0328   -17.490    -6.241    -5.834  0.1796 -0.2407  0.9538
    14 H(1)   Bbb    -0.0292   -15.586    -5.561    -5.199  0.9219  0.3796 -0.0778
              Bcc     0.0620    33.076    11.802    11.033 -0.3434  0.8933  0.2900
 
              Baa    -0.0354   -18.897    -6.743    -6.303  0.6135  0.5872 -0.5281
    15 H(1)   Bbb    -0.0311   -16.596    -5.922    -5.536 -0.2549  0.7801  0.5714
              Bcc     0.0665    35.492    12.665    11.839  0.7474 -0.2159  0.6283
 
              Baa    -0.0328   -17.485    -6.239    -5.832  0.1786 -0.2418  0.9538
    16 H(1)   Bbb    -0.0292   -15.582    -5.560    -5.198  0.9221  0.3792 -0.0765
              Bcc     0.0620    33.067    11.799    11.030 -0.3432  0.8932  0.2906
 
              Baa    -0.0328   -17.496    -6.243    -5.836 -0.1781  0.7051  0.6864
    17 H(1)   Bbb    -0.0292   -15.591    -5.563    -5.201  0.9224 -0.1233  0.3660
              Bcc     0.0620    33.087    11.806    11.037  0.3427  0.6983 -0.6284
 
              Baa    -0.0354   -18.887    -6.739    -6.300  0.6128  0.5876 -0.5283
    18 H(1)   Bbb    -0.0311   -16.588    -5.919    -5.533 -0.2553  0.7800  0.5714
              Bcc     0.0665    35.476    12.659    11.833  0.7479 -0.2153  0.6280
 
              Baa    -0.0328   -17.494    -6.242    -5.835 -0.1789  0.7057  0.6855
    19 H(1)   Bbb    -0.0292   -15.589    -5.563    -5.200  0.9221 -0.1227  0.3670
              Bcc     0.0620    33.084    11.805    11.035  0.3431  0.6978 -0.6288
 

 ---------------------------------------------------------------------------------

 No NMR shielding tensors so no spin-rotation constants.
 Leave Link  601 at Sun May 15 11:01:49 2022, MaxMem=   104857600 cpu:               6.6 elap:               0.5
 (Enter /apps/software/g16/l9999.exe)
 1\1\GINC-CNODE09\Stability\UHF\CC-pVTZ\Fe1H12O6(2+,5)\ROOT\15-May-2022
 \0\\#p UHF/cc-pVTZ stable guess=mix\\[Fe(H2O)6]2+\\2,5\Fe,0,-0.6425717
 605,0.5180392056,0.1151525948\O,0,0.111746875,2.1502736296,-0.78003307
 66\H,0,0.7076677542,2.7159064382,-0.2534686021\O,0,-1.3119384494,-0.30
 25443721,-1.5915397432\H,0,-1.9364836681,0.1309313599,-2.2009076077\O,
 0,0.027209188,1.3394057211,1.8212267689\H,0,0.6525876562,0.9068687008,
 2.4304031155\O,0,-1.3964805353,-1.1144480791,1.0102391629\H,0,-1.99331
 39268,-1.6794048423,0.4839749089\O,0,-2.2868202362,1.6334082837,0.4100
 537249\H,0,-2.353770211,2.4729106521,-0.0830180882\O,0,1.0019437293,-0
 .5971233562,-0.1795016516\H,0,1.0680776668,-1.4375884294,0.3120254585\
 H,0,-3.1892209847,1.2728024717,0.4803641716\H,0,-0.6652199156,-0.78352
 0063,-2.1417946811\H,0,1.9045464642,-0.2367828976,-0.2484504359\H,0,0.
 437766506,2.171136038,-1.697943468\H,0,-0.6187560453,1.8212395471,2.37
 15986615\H,0,-1.7212601067,-1.1359500081,1.9285687869\\Version=ES64L-G
 16RevA.03\State=5-A\HF=-1718.4387907\S2=6.007666\S2-1=0.\S2A=6.000015\
 RMSD=3.852e-09\Dipole=0.0006044,0.0002691,0.0005935\Quadrupole=1.87141
 44,-3.2627222,1.3913078,0.3204626,0.0995092,-1.5890245\PG=C01 [X(Fe1H1
 2O6)]\\@


 BUT 'GLORY' DOESN'T MEAN 'A NICE KNOCK DOWN ARGUMENT', ALICE OBJECTED.
 WHEN I USE A WORD, HUMPTY DUMPTY SAID, IN A RATHER SCORNFUL TONE,
 IT MEANS JUST WHAT I CHOOSE IT TO MEAN....
 NEITHER MORE NOR LESS....
 THE QUESTION IS, SAID ALICE,
 WHETHER YOU CAN MAKE WORDS MEAN SO MANY DIFFERENT THINGS...
 THE QUESTION IS, SAID HUMPTY DUMPTY,
 WHICH IS TO BE MASTER....
 THAT IS ALL.....

 ALICE THROUGH THE LOOKING GLASS
 Job cpu time:       0 days  5 hours  2 minutes 37.3 seconds.
 Elapsed time:       0 days  0 hours 18 minutes 59.6 seconds.
 File lengths (MBytes):  RWF=    653 Int=      0 D2E=      0 Chk=     33 Scr=      1
 Normal termination of Gaussian 16 at Sun May 15 11:01:50 2022.

Sender: Unischeduler System <lcz@mgt01>
Subject: Job 132212: <#!/bin/bash
#BSUB -J intel
#BSUB -o stability-RHF.out
#BSUB -n 16
#BSUB -q cqueue
#BSUB -R span[hosts=1]
export g16root=/apps/software
source /apps/software/g16/bsd/g16.profile
export GAUSS_SCRDIR=/scratch
/apps/software/g16/g16 < stability-RHF.inp > stability-RHF.out> Done

Job <#!/bin/bash
#BSUB -J intel
#BSUB -o stability-RHF.out
#BSUB -n 16
#BSUB -q cqueue
#BSUB -R span[hosts=1]
export g16root=/apps/software
source /apps/software/g16/bsd/g16.profile
export GAUSS_SCRDIR=/scratch
/apps/software/g16/g16 < stability-RHF.inp > stability-RHF.out> was submitted from host <mgt01> by user <lcz>.
Job was executed on host(s) <16*cnode09>, in queue <cqueue>, as user <lcz>.
</apps/users/lcz> was used as the home directory.
</apps/users/lcz/exe5/task2/Mul5StablityTest/Gaussian/cc-pVTZ> was used as the working directory.
Started at 2022-05-15 10:42:49
Results reported at 2022-05-15 11:01:50

Your job looked like:

------------------------------------------------------------
# User input
#!/bin/bash
#BSUB -J intel
#BSUB -o stability-RHF.out
#BSUB -n 16
#BSUB -q cqueue
#BSUB -R span[hosts=1]
export g16root=/apps/software
source /apps/software/g16/bsd/g16.profile
export GAUSS_SCRDIR=/scratch
/apps/software/g16/g16 < stability-RHF.inp > stability-RHF.out
------------------------------------------------------------

Successfully completed.

Resource usage summary:

    CPU time   :        18104.86 sec.
    Max Memory :               976 MB
    Max Processes  :               5


The output (if any) follows:

