 Entering Gaussian System, Link 0=/apps/software/g16/g16
 Initial command:
 /apps/software/g16/l1.exe "/scratch/Gau-412231.inp" -scrdir="/scratch/"
 Entering Link 1 = /apps/software/g16/l1.exe PID=    412232.
  
 Copyright (c) 1988,1990,1992,1993,1995,1998,2003,2009,2016,
            Gaussian, Inc.  All Rights Reserved.
  
 This is part of the Gaussian(R) 16 program.  It is based on
 the Gaussian(R) 09 system (copyright 2009, Gaussian, Inc.),
 the Gaussian(R) 03 system (copyright 2003, Gaussian, Inc.),
 the Gaussian(R) 98 system (copyright 1998, Gaussian, Inc.),
 the Gaussian(R) 94 system (copyright 1995, Gaussian, Inc.),
 the Gaussian 92(TM) system (copyright 1992, Gaussian, Inc.),
 the Gaussian 90(TM) system (copyright 1990, Gaussian, Inc.),
 the Gaussian 88(TM) system (copyright 1988, Gaussian, Inc.),
 the Gaussian 86(TM) system (copyright 1986, Carnegie Mellon
 University), and the Gaussian 82(TM) system (copyright 1983,
 Carnegie Mellon University). Gaussian is a federally registered
 trademark of Gaussian, Inc.
  
 This software contains proprietary and confidential information,
 including trade secrets, belonging to Gaussian, Inc.
  
 This software is provided under written license and may be
 used, copied, transmitted, or stored only in accord with that
 written license.
  
 The following legend is applicable only to US Government
 contracts under FAR:
  
                    RESTRICTED RIGHTS LEGEND
  
 Use, reproduction and disclosure by the US Government is
 subject to restrictions as set forth in subparagraphs (a)
 and (c) of the Commercial Computer Software - Restricted
 Rights clause in FAR 52.227-19.
  
 Gaussian, Inc.
 340 Quinnipiac St., Bldg. 40, Wallingford CT 06492
  
  
 ---------------------------------------------------------------
 Warning -- This program may not be used in any manner that
 competes with the business of Gaussian, Inc. or will provide
 assistance to any competitor of Gaussian, Inc.  The licensee
 of this program is prohibited from giving any competitor of
 Gaussian, Inc. access to this program.  By using this program,
 the user acknowledges that Gaussian, Inc. is engaged in the
 business of creating and licensing software in the field of
 computational chemistry and represents and warrants to the
 licensee that it is not a competitor of Gaussian, Inc. and that
 it will not use this program in any manner prohibited above.
 ---------------------------------------------------------------
  

 Cite this work as:
 Gaussian 16, Revision A.03,
 M. J. Frisch, G. W. Trucks, H. B. Schlegel, G. E. Scuseria, 
 M. A. Robb, J. R. Cheeseman, G. Scalmani, V. Barone, 
 G. A. Petersson, H. Nakatsuji, X. Li, M. Caricato, A. V. Marenich, 
 J. Bloino, B. G. Janesko, R. Gomperts, B. Mennucci, H. P. Hratchian, 
 J. V. Ortiz, A. F. Izmaylov, J. L. Sonnenberg, D. Williams-Young, 
 F. Ding, F. Lipparini, F. Egidi, J. Goings, B. Peng, A. Petrone, 
 T. Henderson, D. Ranasinghe, V. G. Zakrzewski, J. Gao, N. Rega, 
 G. Zheng, W. Liang, M. Hada, M. Ehara, K. Toyota, R. Fukuda, 
 J. Hasegawa, M. Ishida, T. Nakajima, Y. Honda, O. Kitao, H. Nakai, 
 T. Vreven, K. Throssell, J. A. Montgomery, Jr., J. E. Peralta, 
 F. Ogliaro, M. J. Bearpark, J. J. Heyd, E. N. Brothers, K. N. Kudin, 
 V. N. Staroverov, T. A. Keith, R. Kobayashi, J. Normand, 
 K. Raghavachari, A. P. Rendell, J. C. Burant, S. S. Iyengar, 
 J. Tomasi, M. Cossi, J. M. Millam, M. Klene, C. Adamo, R. Cammi, 
 J. W. Ochterski, R. L. Martin, K. Morokuma, O. Farkas, 
 J. B. Foresman, and D. J. Fox, Gaussian, Inc., Wallingford CT, 2016.
 
 ******************************************
 Gaussian 16:  ES64L-G16RevA.03 25-Dec-2016
                14-May-2022 
 ******************************************
 %nprocshared=16
 Will use up to   16 processors via shared memory.
 --------------------
 # RHF/cc-pVTZ stable
 --------------------
 1/38=1,172=1/1;
 2/12=2,17=6,18=5,40=1/2;
 3/5=16,6=1,11=1,25=1,30=1,116=1/1,2,3;
 4//1;
 5/5=2,38=5/2;
 8/6=1,10=90,11=11/1;
 9/8=-1,42=1/14;
 6/7=2,8=2,9=2,10=2,28=1/1;
 99/5=1,9=1/99;
 ------------
 [Fe(H2O)6]2+
 ------------
 Symbolic Z-matrix:
 Charge =  2 Multiplicity = 1
 Fe                    6.20397   1.03715   0.17097 
 O                     8.02344   0.99563   0.15636 
 O                     6.24694  -0.78162   0.11972 
 O                     6.22608   1.15774  -1.6449 
 O                     4.3844    1.01817   0.2057 
 O                     6.16558   2.85627   0.21242 
 O                     6.16851   1.06001   1.99048 
 H                     4.06546   1.78649   0.68482 
 H                     4.08102   0.21944   0.64342 
 H                     6.97846   3.18467   0.60355 
 H                     5.41693   3.14866   0.73743 
 H                     6.90727   0.55048   2.33137 
 H                     5.34491   0.67544   2.29934 
 H                     8.36475   1.75961   0.62692 
 H                     8.32866   0.1929    0.5854 
 H                     7.07411  -1.09286   0.4946 
 H                     5.51267  -1.13352   0.62827 
 H                     6.97521   0.66594  -1.98917 
 H                     5.41263   0.79177  -1.99983 
 
                          Input orientation:                          
 ---------------------------------------------------------------------
 Center     Atomic      Atomic             Coordinates (Angstroms)
 Number     Number       Type             X           Y           Z
 ---------------------------------------------------------------------
      1         26           0        6.203972    1.037146    0.170968
      2          8           0        8.023440    0.995626    0.156356
      3          8           0        6.246944   -0.781624    0.119724
      4          8           0        6.226075    1.157740   -1.644898
      5          8           0        4.384402    1.018165    0.205705
      6          8           0        6.165579    2.856269    0.212425
      7          8           0        6.168506    1.060011    1.990478
      8          1           0        4.065459    1.786488    0.684823
      9          1           0        4.081015    0.219439    0.643417
     10          1           0        6.978462    3.184666    0.603547
     11          1           0        5.416932    3.148658    0.737435
     12          1           0        6.907270    0.550479    2.331367
     13          1           0        5.344913    0.675438    2.299344
     14          1           0        8.364747    1.759612    0.626924
     15          1           0        8.328661    0.192904    0.585399
     16          1           0        7.074109   -1.092859    0.494599
     17          1           0        5.512674   -1.133518    0.628269
     18          1           0        6.975214    0.665940   -1.989169
     19          1           0        5.412635    0.791767   -1.999833
 ---------------------------------------------------------------------
                    Distance matrix (angstroms):
                    1          2          3          4          5
     1  Fe   0.000000
     2  O    1.820000   0.000000
     3  O    1.820000   2.513145   0.000000
     4  O    1.820000   2.549768   2.622110   0.000000
     5  O    1.820000   3.639442   2.591466   2.614569   0.000000
     6  O    1.820000   2.629977   3.639984   2.517600   2.559543
     7  O    1.820000   2.609393   2.626309   3.637146   2.523924
     8  H    2.323532   4.070670   3.416639   3.239010   0.960000
     9  H    2.323532   4.047519   2.442874   3.273848   0.960000
    10  H    2.323532   2.466547   4.062101   3.119298   3.403109
    11  H    2.323532   3.430318   4.064186   3.208423   2.426490
    12  H    2.323532   2.484888   2.664939   4.079642   3.331971
    13  H    2.323532   3.445203   2.772622   4.070148   2.328812
    14  H    2.323532   0.960000   3.346673   3.177631   4.070664
    15  H    2.323532   0.960000   2.345230   3.213409   4.047517
    16  H    2.323532   2.318924   0.960000   3.218976   3.431385
    17  H    2.323532   3.325643   0.960000   3.305464   2.466029
    18  H    2.323532   2.410549   2.659558   0.960000   3.413772
    19  H    2.323532   3.392198   2.768421   0.960000   2.443955
                    6          7          8          9         10
     6  O    0.000000
     7  O    2.527454   0.000000
     8  H    2.403767   2.579789   0.000000
     9  H    3.388810   2.622738   1.567673   0.000000
    10  H    0.960000   2.663412   3.232197   4.146005   0.000000
    11  H    0.960000   2.549005   1.919572   3.220844   1.567673
    12  H    3.218181   0.960000   3.509233   3.308546   3.151090
    13  H    3.128058   0.960000   2.340537   2.132479   3.440993
    14  H    2.492148   2.678096   4.299762   4.552226   1.988242
    15  H    3.451310   2.718895   4.552393   4.248125   3.282377
    16  H    4.062101   2.773558   4.168789   3.271526   4.279981
    17  H    4.064186   2.664075   3.259458   1.969865   4.560247
    18  H    3.209372   4.079665   4.107620   3.937799   3.614716
    19  H    3.118201   4.070120   3.164132   3.014555   3.867217
                   11         12         13         14         15
    11  H    0.000000
    12  H    3.392972   0.000000
    13  H    2.926015   1.567673   0.000000
    14  H    3.260563   2.547817   3.618262   0.000000
    15  H    4.151838   2.279609   3.474651   1.567673   0.000000
    16  H    4.560228   2.470246   3.061715   3.133664   1.798703
    17  H    4.284637   2.771513   2.468391   4.062576   3.113039
    18  H    4.003312   4.322613   4.587953   3.157667   2.946860
    19  H    3.612145   4.588186   4.301283   4.068358   3.942749
                   16         17         18         19
    16  H    0.000000
    17  H    1.567673   0.000000
    18  H    3.045038   3.496863   0.000000
    19  H    3.540410   3.259394   1.567673   0.000000
 Stoichiometry    FeH12O6(2+)
 Framework group  C1[X(FeH12O6)]
 Deg. of freedom    51
 Full point group                 C1      NOp   1
 Largest Abelian subgroup         C1      NOp   1
 Largest concise Abelian subgroup C1      NOp   1
                         Standard orientation:                         
 ---------------------------------------------------------------------
 Center     Atomic      Atomic             Coordinates (Angstroms)
 Number     Number       Type             X           Y           Z
 ---------------------------------------------------------------------
      1         26           0        0.010146   -0.033639    0.027691
      2          8           0        1.539344   -0.374401   -0.898502
      3          8           0        0.867758    1.400282    0.749336
      4          8           0        0.602850   -1.139176    1.346361
      5          8           0       -1.499338    0.367194    0.962139
      6          8           0       -0.840449   -1.474176   -0.689069
      7          8           0       -0.658320    0.960583   -1.342373
      8          1           0       -2.268708    0.074824    0.467984
      9          1           0       -1.548508    1.316127    1.098919
     10          1           0       -0.448150   -1.687237   -1.538955
     11          1           0       -1.770828   -1.269781   -0.808302
     12          1           0        0.060569    1.412336   -1.790388
     13          1           0       -1.276624    1.608088   -0.995908
     14          1           0        1.321268   -0.800900   -1.730453
     15          1           0        1.998620    0.450457   -1.072501
     16          1           0        1.560364    1.692654    0.152330
     17          1           0        0.239897    2.113732    0.884901
     18          1           0        1.559343   -1.082512    1.405608
     19          1           0        0.214198   -0.875614    2.183669
 ---------------------------------------------------------------------
 Rotational constants (GHZ):           2.0241394           1.9746986           1.9394519
 Standard basis: CC-pVTZ (5D, 7F)
 There are   474 symmetry adapted cartesian basis functions of A   symmetry.
 There are   416 symmetry adapted basis functions of A   symmetry.
   416 basis functions,   867 primitive gaussians,   474 cartesian basis functions
    42 alpha electrons       42 beta electrons
       nuclear repulsion energy       767.8155054721 Hartrees.
 NAtoms=   19 NActive=   19 NUniq=   19 SFac= 1.00D+00 NAtFMM=   60 NAOKFM=F Big=F
 Integral buffers will be    131072 words long.
 Raffenetti 1 integral format.
 Two-electron integral symmetry is turned on.
 One-electron integrals computed using PRISM.
 PrsmSu:  requested number of processors reduced to:   4 ShMem   1 Linda.
 NBasis=   416 RedAO= T EigKep=  3.23D-04  NBF=   416
 NBsUse=   416 1.00D-06 EigRej= -1.00D+00 NBFU=   416
 ExpMin= 3.14D-02 ExpMax= 4.32D+06 ExpMxC= 4.91D+03 IAcc=3 IRadAn=         5 AccDes= 0.00D+00
 Harris functional with IExCor=  205 and IRadAn=       5 diagonalized for initial guess.
 HarFok:  IExCor=  205 AccDes= 0.00D+00 IRadAn=         5 IDoV= 1 UseB2=F ITyADJ=14
 ICtDFT=  3500011 ScaDFX=  1.000000  1.000000  1.000000  1.000000
 FoFCou: FMM=F IPFlag=           0 FMFlag=      100000 FMFlg1=           0
         NFxFlg=           0 DoJE=T BraDBF=F KetDBF=T FulRan=T
         wScrn=  0.000000 ICntrl=       500 IOpCl=  0 I1Cent=   200000004 NGrid=           0
         NMat0=    1 NMatS0=      1 NMatT0=    0 NMatD0=    1 NMtDS0=    0 NMtDT0=    0
 Petite list used in FoFCou.
 Requested convergence on RMS density matrix=1.00D-08 within 128 cycles.
 Requested convergence on MAX density matrix=1.00D-06.
 Requested convergence on             energy=1.00D-06.
 No special actions if energy rises.
 Initial convergence to 1.0D-05 achieved.  Increase integral accuracy.
 SCF Done:  E(RHF) =  -1718.15743662     A.U. after   17 cycles
            NFock= 17  Conv=0.81D-08     -V/T= 1.9991
 Range of M.O.s used for correlation:     1   416
 NBasis=   416 NAE=    42 NBE=    42 NFC=     0 NFV=     0
 NROrb=    416 NOA=    42 NOB=    42 NVA=   374 NVB=   374
 Orbital symmetries:
       Occupied  (A) (A) (A) (A) (A) (A) (A) (A) (A) (A) (A) (A)
                 (A) (A) (A) (A) (A) (A) (A) (A) (A) (A) (A) (A)
                 (A) (A) (A) (A) (A) (A) (A) (A) (A) (A) (A) (A)
                 (A) (A) (A) (A) (A) (A)
       Virtual   (A) (A) (A) (A) (A) (A) (A) (A) (A) (A) (A) (A)
                 (A) (A) (A) (A) (A) (A) (A) (A) (A) (A) (A) (A)
                 (A) (A) (A) (A) (A) (A) (A) (A) (A) (A) (A) (A)
                 (A) (A) (A) (A) (A) (A) (A) (A) (A) (A) (A) (A)
                 (A) (A) (A) (A) (A) (A) (A) (A) (A) (A) (A) (A)
                 (A) (A) (A) (A) (A) (A) (A) (A) (A) (A) (A) (A)
                 (A) (A) (A) (A) (A) (A) (A) (A) (A) (A) (A) (A)
                 (A) (A) (A) (A) (A) (A) (A) (A) (A) (A) (A) (A)
                 (A) (A) (A) (A) (A) (A) (A) (A) (A) (A) (A) (A)
                 (A) (A) (A) (A) (A) (A) (A) (A) (A) (A) (A) (A)
                 (A) (A) (A) (A) (A) (A) (A) (A) (A) (A) (A) (A)
                 (A) (A) (A) (A) (A) (A) (A) (A) (A) (A) (A) (A)
                 (A) (A) (A) (A) (A) (A) (A) (A) (A) (A) (A) (A)
                 (A) (A) (A) (A) (A) (A) (A) (A) (A) (A) (A) (A)
                 (A) (A) (A) (A) (A) (A) (A) (A) (A) (A) (A) (A)
                 (A) (A) (A) (A) (A) (A) (A) (A) (A) (A) (A) (A)
                 (A) (A) (A) (A) (A) (A) (A) (A) (A) (A) (A) (A)
                 (A) (A) (A) (A) (A) (A) (A) (A) (A) (A) (A) (A)
                 (A) (A) (A) (A) (A) (A) (A) (A) (A) (A) (A) (A)
                 (A) (A) (A) (A) (A) (A) (A) (A) (A) (A) (A) (A)
                 (A) (A) (A) (A) (A) (A) (A) (A) (A) (A) (A) (A)
                 (A) (A) (A) (A) (A) (A) (A) (A) (A) (A) (A) (A)
                 (A) (A) (A) (A) (A) (A) (A) (A) (A) (A) (A) (A)
                 (A) (A) (A) (A) (A) (A) (A) (A) (A) (A) (A) (A)
                 (A) (A) (A) (A) (A) (A) (A) (A) (A) (A) (A) (A)
                 (A) (A) (A) (A) (A) (A) (A) (A) (A) (A) (A) (A)
                 (A) (A) (A) (A) (A) (A) (A) (A) (A) (A) (A) (A)
                 (A) (A) (A) (A) (A) (A) (A) (A) (A) (A) (A) (A)
                 (A) (A) (A) (A) (A) (A) (A) (A) (A) (A) (A) (A)
                 (A) (A) (A) (A) (A) (A) (A) (A) (A) (A) (A) (A)
                 (A) (A) (A) (A) (A) (A) (A) (A) (A) (A) (A) (A)
                 (A) (A)
    24 initial guesses have been made.
 Convergence on wavefunction:    0.001000000000000
 Iteration     1 Dimension    24 NMult     0 NNew     24
 CISAX will form     1 AO SS matrices at one time.
 New state      1 was old state     20
 New state      2 was old state     14
 New state      3 was old state     24
 New state      4 was old state     10
 New state      5 was old state     16
 New state      6 was old state      8
 New state      7 was old state     19
 New state      8 was old state     13
 New state     10 was old state     23
 New state     11 was old state     15
 New state     12 was old state      7
 Iteration     2 Dimension    48 NMult    24 NNew     24
 New state      1 was old state      4
 New state      3 was old state      1
 New state      4 was old state      6
 New state      6 was old state      3
 New state      7 was old state      9
 New state      9 was old state      7
 New state     10 was old state     12
 New state     12 was old state     10
 Iteration     3 Dimension    54 NMult    48 NNew      6
 New state      4 was old state      7
 New state      5 was old state      8
 New state      6 was old state      9
 Iteration     4 Dimension    60 NMult    54 NNew      6
 Iteration     5 Dimension    65 NMult    60 NNew      5
 ***********************************************************************
 Stability analysis using <AA,BB:AA,BB> singles matrix:
 ***********************************************************************
 Ground to excited state transition densities written to RWF  633

 Eigenvectors of the stability matrix:
 
 Eigenvector   1:      Triplet-A    Eigenvalue=-0.0035455  <S**2>=2.000
      42 -> 59         0.42217
      42 -> 60         0.14692
      42 -> 61        -0.21460
      42 -> 62        -0.39147
 
 Eigenvector   2:      Triplet-A    Eigenvalue= 0.0025361  <S**2>=2.000
      41 -> 59         0.34533
      41 -> 60        -0.15539
      41 -> 61         0.42959
      41 -> 62        -0.28507
 
 Eigenvector   3:      Triplet-A    Eigenvalue= 0.0101608  <S**2>=2.000
      40 -> 49         0.12738
      40 -> 60        -0.27573
      40 -> 61         0.59331
 
 Eigenvector   4:      Singlet-A    Eigenvalue= 0.0824319  <S**2>=0.000
      42 -> 48         0.10336
      42 -> 59         0.43288
      42 -> 60         0.13636
      42 -> 61        -0.18859
      42 -> 62        -0.39909
 
 Eigenvector   5:      Singlet-A    Eigenvalue= 0.0880876  <S**2>=0.000
      41 -> 59         0.37259
      41 -> 60        -0.13961
      41 -> 61         0.40103
      41 -> 62        -0.31072
 
 Eigenvector   6:      Singlet-A    Eigenvalue= 0.0947671  <S**2>=0.000
      40 -> 49         0.13489
      40 -> 60        -0.27875
      40 -> 61         0.59565
 The wavefunction has an RHF -> UHF instability.

 **********************************************************************

            Population analysis using the SCF density.

 **********************************************************************

 Orbital symmetries:
       Occupied  (A) (A) (A) (A) (A) (A) (A) (A) (A) (A) (A) (A)
                 (A) (A) (A) (A) (A) (A) (A) (A) (A) (A) (A) (A)
                 (A) (A) (A) (A) (A) (A) (A) (A) (A) (A) (A) (A)
                 (A) (A) (A) (A) (A) (A)
       Virtual   (A) (A) (A) (A) (A) (A) (A) (A) (A) (A) (A) (A)
                 (A) (A) (A) (A) (A) (A) (A) (A) (A) (A) (A) (A)
                 (A) (A) (A) (A) (A) (A) (A) (A) (A) (A) (A) (A)
                 (A) (A) (A) (A) (A) (A) (A) (A) (A) (A) (A) (A)
                 (A) (A) (A) (A) (A) (A) (A) (A) (A) (A) (A) (A)
                 (A) (A) (A) (A) (A) (A) (A) (A) (A) (A) (A) (A)
                 (A) (A) (A) (A) (A) (A) (A) (A) (A) (A) (A) (A)
                 (A) (A) (A) (A) (A) (A) (A) (A) (A) (A) (A) (A)
                 (A) (A) (A) (A) (A) (A) (A) (A) (A) (A) (A) (A)
                 (A) (A) (A) (A) (A) (A) (A) (A) (A) (A) (A) (A)
                 (A) (A) (A) (A) (A) (A) (A) (A) (A) (A) (A) (A)
                 (A) (A) (A) (A) (A) (A) (A) (A) (A) (A) (A) (A)
                 (A) (A) (A) (A) (A) (A) (A) (A) (A) (A) (A) (A)
                 (A) (A) (A) (A) (A) (A) (A) (A) (A) (A) (A) (A)
                 (A) (A) (A) (A) (A) (A) (A) (A) (A) (A) (A) (A)
                 (A) (A) (A) (A) (A) (A) (A) (A) (A) (A) (A) (A)
                 (A) (A) (A) (A) (A) (A) (A) (A) (A) (A) (A) (A)
                 (A) (A) (A) (A) (A) (A) (A) (A) (A) (A) (A) (A)
                 (A) (A) (A) (A) (A) (A) (A) (A) (A) (A) (A) (A)
                 (A) (A) (A) (A) (A) (A) (A) (A) (A) (A) (A) (A)
                 (A) (A) (A) (A) (A) (A) (A) (A) (A) (A) (A) (A)
                 (A) (A) (A) (A) (A) (A) (A) (A) (A) (A) (A) (A)
                 (A) (A) (A) (A) (A) (A) (A) (A) (A) (A) (A) (A)
                 (A) (A) (A) (A) (A) (A) (A) (A) (A) (A) (A) (A)
                 (A) (A) (A) (A) (A) (A) (A) (A) (A) (A) (A) (A)
                 (A) (A) (A) (A) (A) (A) (A) (A) (A) (A) (A) (A)
                 (A) (A) (A) (A) (A) (A) (A) (A) (A) (A) (A) (A)
                 (A) (A) (A) (A) (A) (A) (A) (A) (A) (A) (A) (A)
                 (A) (A) (A) (A) (A) (A) (A) (A) (A) (A) (A) (A)
                 (A) (A) (A) (A) (A) (A) (A) (A) (A) (A) (A) (A)
                 (A) (A) (A) (A) (A) (A) (A) (A) (A) (A) (A) (A)
                 (A) (A)
 The electronic state is 1-A.
 Alpha  occ. eigenvalues -- -261.58033 -32.15306 -27.63254 -27.63182 -27.63121
 Alpha  occ. eigenvalues --  -20.96822 -20.96733 -20.96451 -20.96430 -20.93054
 Alpha  occ. eigenvalues --  -20.89739  -4.39534  -2.98238  -2.98045  -2.97889
 Alpha  occ. eigenvalues --   -1.79802  -1.77192  -1.76733  -1.76412  -1.73659
 Alpha  occ. eigenvalues --   -1.70381  -1.18701  -1.15695  -1.14335  -1.12661
 Alpha  occ. eigenvalues --   -1.08977  -1.08512  -1.06443  -1.03901  -1.02261
 Alpha  occ. eigenvalues --   -1.00597  -0.99675  -0.98029  -0.95172  -0.93772
 Alpha  occ. eigenvalues --   -0.93013  -0.91572  -0.89556  -0.86760  -0.79512
 Alpha  occ. eigenvalues --   -0.78212  -0.77022
 Alpha virt. eigenvalues --   -0.26133  -0.21029  -0.19563  -0.17391  -0.15553
 Alpha virt. eigenvalues --   -0.13147  -0.11294  -0.10415  -0.08419  -0.07846
 Alpha virt. eigenvalues --   -0.06605  -0.04651  -0.04103  -0.02267  -0.00948
 Alpha virt. eigenvalues --    0.00934   0.06651   0.07040   0.07766   0.08889
 Alpha virt. eigenvalues --    0.10346   0.11323   0.11657   0.14078   0.14351
 Alpha virt. eigenvalues --    0.15430   0.16292   0.17232   0.24345   0.25209
 Alpha virt. eigenvalues --    0.26481   0.27729   0.29391   0.29845   0.30517
 Alpha virt. eigenvalues --    0.31972   0.34522   0.35061   0.37066   0.37550
 Alpha virt. eigenvalues --    0.41591   0.41767   0.45190   0.45816   0.46995
 Alpha virt. eigenvalues --    0.48901   0.50474   0.50989   0.51447   0.52177
 Alpha virt. eigenvalues --    0.52809   0.55625   0.56315   0.56711   0.57226
 Alpha virt. eigenvalues --    0.57672   0.60694   0.61043   0.63370   0.69093
 Alpha virt. eigenvalues --    0.73590   0.73918   0.76207   0.77279   0.79765
 Alpha virt. eigenvalues --    0.80162   0.80234   0.81083   0.82921   0.84164
 Alpha virt. eigenvalues --    0.85714   0.87376   0.89991   0.92420   0.96779
 Alpha virt. eigenvalues --    0.98973   0.99663   1.02893   1.05308   1.07374
 Alpha virt. eigenvalues --    1.07731   1.10379   1.12656   1.13472   1.16446
 Alpha virt. eigenvalues --    1.16994   1.18258   1.19509   1.20700   1.22113
 Alpha virt. eigenvalues --    1.23672   1.25255   1.26385   1.27229   1.28562
 Alpha virt. eigenvalues --    1.29364   1.30030   1.33326   1.35560   1.39457
 Alpha virt. eigenvalues --    1.40556   1.48084   1.54668   1.55335   1.58227
 Alpha virt. eigenvalues --    1.58631   1.61236   1.62399   1.64431   1.66434
 Alpha virt. eigenvalues --    1.68218   1.69616   1.71620   1.72549   1.74303
 Alpha virt. eigenvalues --    1.77450   1.80654   1.82963   1.85095   1.86567
 Alpha virt. eigenvalues --    1.87267   1.88470   1.92769   1.94501   1.99191
 Alpha virt. eigenvalues --    2.01326   2.03598   2.04327   2.07327   2.09266
 Alpha virt. eigenvalues --    2.16516   2.19443   2.22136   2.23517   2.27316
 Alpha virt. eigenvalues --    2.28800   2.35292   2.44079   2.49824   2.51200
 Alpha virt. eigenvalues --    2.52665   2.54936   2.56855   2.57916   2.59040
 Alpha virt. eigenvalues --    2.62078   2.63378   2.66268   2.67444   2.69558
 Alpha virt. eigenvalues --    2.71365   2.74283   2.75556   2.76630   2.78164
 Alpha virt. eigenvalues --    2.78891   2.94258   2.98821   3.03508   3.05773
 Alpha virt. eigenvalues --    3.08153   3.10380   3.13387   3.18679   3.19596
 Alpha virt. eigenvalues --    3.21812   3.23514   3.24600   3.26230   3.28059
 Alpha virt. eigenvalues --    3.28828   3.28982   3.29201   3.31261   3.32150
 Alpha virt. eigenvalues --    3.33152   3.34746   3.37335   3.40290   3.41808
 Alpha virt. eigenvalues --    3.42663   3.51604   3.51974   3.53482   3.55663
 Alpha virt. eigenvalues --    3.56936   3.57426   3.58292   3.59682   3.62254
 Alpha virt. eigenvalues --    3.66109   3.67093   3.70237   3.71543   3.72897
 Alpha virt. eigenvalues --    3.75125   3.77143   3.78963   3.79509   3.80517
 Alpha virt. eigenvalues --    3.81713   3.82022   3.83171   3.84242   3.84960
 Alpha virt. eigenvalues --    3.86174   3.87740   3.88848   3.89041   3.90688
 Alpha virt. eigenvalues --    3.91695   3.92811   3.93093   3.95009   3.95278
 Alpha virt. eigenvalues --    3.96979   3.99937   4.01446   4.04409   4.05318
 Alpha virt. eigenvalues --    4.08907   4.09193   4.10682   4.11660   4.13128
 Alpha virt. eigenvalues --    4.14530   4.15650   4.17675   4.18258   4.19287
 Alpha virt. eigenvalues --    4.20665   4.21510   4.23117   4.23276   4.24467
 Alpha virt. eigenvalues --    4.25586   4.26114   4.28779   4.29765   4.30435
 Alpha virt. eigenvalues --    4.31798   4.32354   4.34821   4.37262   4.40583
 Alpha virt. eigenvalues --    4.50383   4.54335   4.56180   4.57487   4.58319
 Alpha virt. eigenvalues --    4.60622   4.63827   4.65320   4.66415   4.69930
 Alpha virt. eigenvalues --    4.70829   4.73280   4.85092   4.88246   4.92484
 Alpha virt. eigenvalues --    4.93443   4.94500   4.95743   5.11896   5.14986
 Alpha virt. eigenvalues --    5.17906   5.20071   5.20172   5.25949   5.27185
 Alpha virt. eigenvalues --    5.28817   5.29911   5.33535   5.34318   5.37739
 Alpha virt. eigenvalues --    5.39381   5.44727   5.47948   5.65362   5.68600
 Alpha virt. eigenvalues --    5.72335   5.73065   5.75004   5.78607   6.15593
 Alpha virt. eigenvalues --    6.17806   6.20610   6.22363   6.23706   6.25251
 Alpha virt. eigenvalues --    6.26152   6.35156   6.55851   6.56903   6.57305
 Alpha virt. eigenvalues --    6.60907   6.61567   6.62222   6.62567   6.65144
 Alpha virt. eigenvalues --    6.66393   6.67113   6.69499   6.71460   6.72503
 Alpha virt. eigenvalues --    6.73402   6.74597   6.78078   6.79075   6.80596
 Alpha virt. eigenvalues --    6.81144   6.81366   6.83169   6.83705   6.84302
 Alpha virt. eigenvalues --    6.85433   6.86534   6.87088   6.88577   6.89748
 Alpha virt. eigenvalues --    6.91865   6.92140   6.95006   6.97504   6.98689
 Alpha virt. eigenvalues --    6.99590   7.05996   7.10597   7.21497   7.24864
 Alpha virt. eigenvalues --    7.25510   7.30041   7.32644   7.33398   7.35677
 Alpha virt. eigenvalues --    7.38344   7.40582   7.42207   7.42725   7.43839
 Alpha virt. eigenvalues --    7.45958   7.48633   7.53162   7.55253   7.57550
 Alpha virt. eigenvalues --    7.64795   7.82798   8.00131   8.00761   8.02436
 Alpha virt. eigenvalues --    8.04976   8.08209   8.69893   8.70488   8.71972
 Alpha virt. eigenvalues --    8.75355   8.77108   8.78479   8.97222   8.98732
 Alpha virt. eigenvalues --    9.05993   9.14910   9.35738   9.37796   9.40548
 Alpha virt. eigenvalues --    9.87245   9.89572   9.91028  13.90193  14.15102
 Alpha virt. eigenvalues --   14.33563  14.36101  14.53924  14.64900
          Condensed to atoms (all electrons):
               1          2          3          4          5          6
     1  Fe  24.664182   0.056830   0.065154   0.089295   0.054451   0.078465
     2  O    0.056830   7.690449  -0.018058  -0.019438  -0.002443  -0.010080
     3  O    0.065154  -0.018058   7.679949  -0.022515  -0.012158  -0.002500
     4  O    0.089295  -0.019438  -0.022515   7.682664  -0.014573  -0.029788
     5  O    0.054451  -0.002443  -0.012158  -0.014573   7.693731  -0.013924
     6  O    0.078465  -0.010080  -0.002500  -0.029788  -0.013924   7.633113
     7  O    0.072639  -0.015334  -0.017377  -0.002533  -0.022243  -0.032344
     8  H   -0.013886  -0.000048   0.000489   0.000174   0.336514  -0.001102
     9  H   -0.005666  -0.000066  -0.001770   0.000220   0.327089   0.000587
    10  H   -0.005915  -0.002062  -0.000052  -0.000660   0.000559   0.342901
    11  H   -0.001136   0.000424  -0.000025  -0.000279  -0.002437   0.335255
    12  H   -0.010109   0.001768  -0.000477  -0.000010   0.000251   0.000161
    13  H   -0.010725  -0.000147   0.000228  -0.000016   0.002592   0.000729
    14  H   -0.012203   0.338762   0.000676   0.000176  -0.000047  -0.000548
    15  H   -0.004740   0.326701  -0.003117   0.000538  -0.000068   0.000434
    16  H   -0.010363  -0.001764   0.325192   0.000275   0.000408  -0.000052
    17  H   -0.009129   0.000675   0.323432  -0.000123  -0.000477  -0.000065
    18  H   -0.001115  -0.001291  -0.001461   0.331985   0.000361  -0.000140
    19  H   -0.004099   0.000407  -0.001046   0.336632  -0.000706  -0.000304
               7          8          9         10         11         12
     1  Fe   0.072639  -0.013886  -0.005666  -0.005915  -0.001136  -0.010109
     2  O   -0.015334  -0.000048  -0.000066  -0.002062   0.000424   0.001768
     3  O   -0.017377   0.000489  -0.001770  -0.000052  -0.000025  -0.000477
     4  O   -0.002533   0.000174   0.000220  -0.000660  -0.000279  -0.000010
     5  O   -0.022243   0.336514   0.327089   0.000559  -0.002437   0.000251
     6  O   -0.032344  -0.001102   0.000587   0.342901   0.335255   0.000161
     7  O    7.728886  -0.003927  -0.002400  -0.002822  -0.003306   0.319027
     8  H   -0.003927   0.437318  -0.018823  -0.000168   0.003700  -0.000107
     9  H   -0.002400  -0.018823   0.456058   0.000027  -0.000012  -0.000279
    10  H   -0.002822  -0.000168   0.000027   0.444906  -0.017781  -0.000301
    11  H   -0.003306   0.003700  -0.000012  -0.017781   0.450714  -0.000270
    12  H    0.319027  -0.000107  -0.000279  -0.000301  -0.000270   0.442962
    13  H    0.312542   0.002693   0.002811  -0.000137  -0.000286  -0.011969
    14  H   -0.003098  -0.000088   0.000003   0.003662  -0.000151   0.001627
    15  H   -0.001302   0.000002  -0.000120  -0.000114   0.000021   0.001610
    16  H   -0.000076   0.000071  -0.000194  -0.000106  -0.000001   0.000047
    17  H   -0.000786  -0.000077   0.002725   0.000001  -0.000110   0.001116
    18  H   -0.000018   0.000018   0.000046   0.000117   0.000052  -0.000104
    19  H   -0.000048  -0.000272  -0.000294   0.000036   0.000103   0.000003
              13         14         15         16         17         18
     1  Fe  -0.010725  -0.012203  -0.004740  -0.010363  -0.009129  -0.001115
     2  O   -0.000147   0.338762   0.326701  -0.001764   0.000675  -0.001291
     3  O    0.000228   0.000676  -0.003117   0.325192   0.323432  -0.001461
     4  O   -0.000016   0.000176   0.000538   0.000275  -0.000123   0.331985
     5  O    0.002592  -0.000047  -0.000068   0.000408  -0.000477   0.000361
     6  O    0.000729  -0.000548   0.000434  -0.000052  -0.000065  -0.000140
     7  O    0.312542  -0.003098  -0.001302  -0.000076  -0.000786  -0.000018
     8  H    0.002693  -0.000088   0.000002   0.000071  -0.000077   0.000018
     9  H    0.002811   0.000003  -0.000120  -0.000194   0.002725   0.000046
    10  H   -0.000137   0.003662  -0.000114  -0.000106   0.000001   0.000117
    11  H   -0.000286  -0.000151   0.000021  -0.000001  -0.000110   0.000052
    12  H   -0.011969   0.001627   0.001610   0.000047   0.001116  -0.000104
    13  H    0.457766  -0.000201  -0.000270   0.000088   0.000152  -0.000000
    14  H   -0.000201   0.426349  -0.017317  -0.000209   0.000052  -0.000261
    15  H   -0.000270  -0.017317   0.458976   0.005003  -0.000113  -0.000178
    16  H    0.000088  -0.000209   0.005003   0.457467  -0.012914  -0.000478
    17  H    0.000152   0.000052  -0.000113  -0.012914   0.452098  -0.000259
    18  H   -0.000000  -0.000261  -0.000178  -0.000478  -0.000259   0.425179
    19  H   -0.000121   0.000034   0.000056  -0.000179  -0.000400  -0.016448
              19
     1  Fe  -0.004099
     2  O    0.000407
     3  O   -0.001046
     4  O    0.336632
     5  O   -0.000706
     6  O   -0.000304
     7  O   -0.000048
     8  H   -0.000272
     9  H   -0.000294
    10  H    0.000036
    11  H    0.000103
    12  H    0.000003
    13  H   -0.000121
    14  H    0.000034
    15  H    0.000056
    16  H   -0.000179
    17  H   -0.000400
    18  H   -0.016448
    19  H    0.422792
 Mulliken charges:
               1
     1  Fe   1.008072
     2  O   -0.345285
     3  O   -0.314563
     4  O   -0.352025
     5  O   -0.346881
     6  O   -0.300798
     7  O   -0.325478
     8  H    0.257519
     9  H    0.240059
    10  H    0.237911
    11  H    0.235524
    12  H    0.255053
    13  H    0.244269
    14  H    0.262783
    15  H    0.233999
    16  H    0.237786
    17  H    0.244204
    18  H    0.263996
    19  H    0.263854
 Sum of Mulliken charges =   2.00000
 Mulliken charges with hydrogens summed into heavy atoms:
               1
     1  Fe   1.008072
     2  O    0.151497
     3  O    0.167427
     4  O    0.175825
     5  O    0.150696
     6  O    0.172638
     7  O    0.173845
 Electronic spatial extent (au):  <R**2>=            855.2043
 Charge=              2.0000 electrons
 Dipole moment (field-independent basis, Debye):
    X=             -0.6095    Y=              5.5758    Z=             -3.2278  Tot=              6.4714
 Quadrupole moment (field-independent basis, Debye-Ang):
   XX=            -21.7727   YY=            -27.1569   ZZ=            -27.3113
   XY=             -0.1783   XZ=             -2.8947   YZ=              2.2189
 Traceless Quadrupole moment (field-independent basis, Debye-Ang):
   XX=              3.6409   YY=             -1.7433   ZZ=             -1.8977
   XY=             -0.1783   XZ=             -2.8947   YZ=              2.2189
 Octapole moment (field-independent basis, Debye-Ang**2):
  XXX=            -12.2672  YYY=             34.7317  ZZZ=             -5.2291  XYY=             -2.5910
  XXY=              8.0883  XXZ=             -5.8218  XZZ=             11.2712  YZZ=             -7.1022
  YYZ=             -9.3944  XYZ=             -9.2078
 Hexadecapole moment (field-independent basis, Debye-Ang**3):
 XXXX=           -191.3190 YYYY=           -231.6055 ZZZZ=           -204.3379 XXXY=             12.6098
 XXXZ=             -2.4093 YYYX=             -5.7205 YYYZ=             20.1100 ZZZX=            -12.6458
 ZZZY=             -2.9654 XXYY=            -62.5496 XXZZ=            -77.0767 YYZZ=            -55.5569
 XXYZ=             -3.3464 YYXZ=             -1.8634 ZZXY=             -8.2976
 N-N= 7.678155054721D+02 E-N=-5.597829361565D+03  KE= 1.719771293783D+03
 1\1\GINC-CNODE11\Stability\RHF\CC-pVTZ\Fe1H12O6(2+)\LCZ\14-May-2022\0\
 \# RHF/cc-pVTZ stable\\[Fe(H2O)6]2+\\2,1\Fe,0,6.20397196,1.03714637,0.
 17096759\O,0,8.02343961,0.99562593,0.15635557\O,0,6.2469443,-0.7816244
 9,0.11972374\O,0,6.22607513,1.15774049,-1.64489818\O,0,4.38440248,1.01
 816527,0.20570458\O,0,6.16557932,2.85626904,0.21242489\O,0,6.16850601,
 1.06001114,1.99047834\H,0,4.06545864,1.78648828,0.68482314\H,0,4.08101
 507,0.21943896,0.64341723\H,0,6.97846238,3.18466572,0.60354733\H,0,5.4
 1693185,3.14865831,0.73743487\H,0,6.90726982,0.5504793,2.33136739\H,0,
 5.34491271,0.67543823,2.2993436\H,0,8.36474659,1.75961228,0.62692374\H
 ,0,8.32866067,0.19290442,0.58539903\H,0,7.07410906,-1.09285932,0.49459
 883\H,0,5.5126741,-1.13351772,0.62826915\H,0,6.97521418,0.66593956,-1.
 98916919\H,0,5.412635,0.79176715,-1.99983292\\Version=ES64L-G16RevA.03
 \State=1-A\HF=-1718.1574366\RMSD=8.089e-09\Dipole=0.0253622,-1.1755716
 ,2.2582723\Quadrupole=3.6728634,-0.3287013,-3.3441621,-0.3916665,-0.52
 58159,0.2214581\PG=C01 [X(Fe1H12O6)]\\@


 THE RARE EARTHS PERPLEX US IN OUR RESEARCHES,
 BAFFLE US IN OUR SPECULATIONS, AND HAUNT US IN OUR
 VERY DREAMS.  THEY STRETCH LIKE AN UNKNOWN BEFORE US,
 MOCKING, MYSTIFYING, AND MURMURING STRANGE REVELATIONS
 AND POSSIBILITIES.  -- SIR WILLIAM CROOKE, 1832-1919
 Job cpu time:       0 days  2 hours 34 minutes  4.5 seconds.
 Elapsed time:       0 days  0 hours  9 minutes 40.4 seconds.
 File lengths (MBytes):  RWF=    739 Int=      0 D2E=      0 Chk=     44 Scr=      1
 Normal termination of Gaussian 16 at Sat May 14 12:06:59 2022.

Sender: Unischeduler System <lcz@mgt01>
Subject: Job 131994: <#!/bin/bash
#BSUB -J intel
#BSUB -o FeH2O62+-RHF.out
#BSUB -n 16
#BSUB -q cqueue
#BSUB -R span[hosts=1]
export g16root=/apps/software
source /apps/software/g16/bsd/g16.profile
export GAUSS_SCRDIR=/scratch
/apps/software/g16/g16 < FeH2O62+-RHF.inp > FeH2O62+-RHF.out> Done

Job <#!/bin/bash
#BSUB -J intel
#BSUB -o FeH2O62+-RHF.out
#BSUB -n 16
#BSUB -q cqueue
#BSUB -R span[hosts=1]
export g16root=/apps/software
source /apps/software/g16/bsd/g16.profile
export GAUSS_SCRDIR=/scratch
/apps/software/g16/g16 < FeH2O62+-RHF.inp > FeH2O62+-RHF.out> was submitted from host <mgt01> by user <lcz>.
Job was executed on host(s) <16*cnode11>, in queue <cqueue>, as user <lcz>.
</apps/users/lcz> was used as the home directory.
</apps/users/lcz/exe5/task2/anotherStabilityTest/Gaussian/cc-pVTZ> was used as the working directory.
Started at 2022-05-14 11:57:18
Results reported at 2022-05-14 12:06:59

Your job looked like:

------------------------------------------------------------
# User input
#!/bin/bash
#BSUB -J intel
#BSUB -o FeH2O62+-RHF.out
#BSUB -n 16
#BSUB -q cqueue
#BSUB -R span[hosts=1]
export g16root=/apps/software
source /apps/software/g16/bsd/g16.profile
export GAUSS_SCRDIR=/scratch
/apps/software/g16/g16 < FeH2O62+-RHF.inp > FeH2O62+-RHF.out
------------------------------------------------------------

Successfully completed.

Resource usage summary:

    CPU time   :          9096.1 sec.
    Max Memory :               976 MB
    Max Processes  :               5


The output (if any) follows:

