
                                        *****************
                                        * O   R   C   A *
                                        *****************

                                            #,                                       
                                            ###                                      
                                            ####                                     
                                            #####                                    
                                            ######                                   
                                           ########,                                 
                                     ,,################,,,,,                         
                               ,,#################################,,                 
                          ,,##########################################,,             
                       ,#########################################, ''#####,          
                    ,#############################################,,   '####,        
                  ,##################################################,,,,####,       
                ,###########''''           ''''###############################       
              ,#####''   ,,,,##########,,,,          '''####'''          '####       
            ,##' ,,,,###########################,,,                        '##       
           ' ,,###''''                  '''############,,,                           
         ,,##''                                '''############,,,,        ,,,,,,###''
      ,#''                                            '''#######################'''  
     '                                                          ''''####''''         
             ,#######,   #######,   ,#######,      ##                                
            ,#'     '#,  ##    ##  ,#'     '#,    #''#        ######   ,####,        
            ##       ##  ##   ,#'  ##            #'  '#       #        #'  '#        
            ##       ##  #######   ##           ,######,      #####,   #    #        
            '#,     ,#'  ##    ##  '#,     ,#' ,#      #,         ##   #,  ,#        
             '#######'   ##     ##  '#######'  #'      '#     #####' # '####'        



                  #######################################################
                  #                        -***-                        #
                  #          Department of theory and spectroscopy      #
                  #    Directorship and core code : Frank Neese         #
                  #        Max Planck Institute fuer Kohlenforschung    #
                  #                Kaiser Wilhelm Platz 1               #
                  #                 D-45470 Muelheim/Ruhr               #
                  #                      Germany                        #
                  #                                                     #
                  #                  All rights reserved                #
                  #                        -***-                        #
                  #######################################################


                         Program Version 5.0.0 -  RELEASE  -
                                (SVN: $Rev: 19529$)
                ($Date: 2021-06-28 11:36:33 +0200 (Mo, 28 Jun 2021) $)


 With contributions from (in alphabetic order):
   Daniel Aravena         : Magnetic Suceptibility
   Michael Atanasov       : Ab Initio Ligand Field Theory (pilot matlab implementation)
   Alexander A. Auer      : GIAO ZORA, VPT2 properties, NMR spectrum
   Ute Becker             : Parallelization
   Giovanni Bistoni       : ED, misc. LED, open-shell LED, HFLD
   Martin Brehm           : Molecular dynamics
   Dmytro Bykov           : SCF Hessian
   Vijay G. Chilkuri      : MRCI spin determinant printing, contributions to CSF-ICE
   Dipayan Datta          : RHF DLPNO-CCSD density
   Achintya Kumar Dutta   : EOM-CC, STEOM-CC
   Dmitry Ganyushin       : Spin-Orbit,Spin-Spin,Magnetic field MRCI
   Miquel Garcia          : C-PCM Hessian, Gaussian charge scheme
   Yang Guo               : DLPNO-NEVPT2, F12-NEVPT2, CIM, IAO-localization
   Andreas Hansen         : Spin unrestricted coupled pair/coupled cluster methods
   Benjamin Helmich-Paris : MC-RPA, TRAH-SCF, COSX integrals
   Lee Huntington         : MR-EOM, pCC
   Robert Izsak           : Overlap fitted RIJCOSX, COSX-SCS-MP3, EOM
   Marcus Kettner         : VPT2
   Christian Kollmar      : KDIIS, OOCD, Brueckner-CCSD(T), CCSD density, CASPT2, CASPT2-K
   Simone Kossmann        : Meta GGA functionals, TD-DFT gradient, OOMP2, MP2 Hessian
   Martin Krupicka        : Initial AUTO-CI
   Lucas Lang             : DCDCAS
   Marvin Lechner         : AUTO-CI (C++ implementation), FIC-MRCC
   Dagmar Lenk            : GEPOL surface, SMD
   Dimitrios Liakos       : Extrapolation schemes; Compound Job, initial MDCI parallelization
   Dimitrios Manganas     : Further ROCIS development; embedding schemes
   Dimitrios Pantazis     : SARC Basis sets
   Anastasios Papadopoulos: AUTO-CI, single reference methods and gradients
   Taras Petrenko         : DFT Hessian,TD-DFT gradient, ASA, ECA, R-Raman, ABS, FL, XAS/XES, NRVS
   Peter Pinski           : DLPNO-MP2, DLPNO-MP2 Gradient
   Christoph Reimann      : Effective Core Potentials
   Marius Retegan         : Local ZFS, SOC
   Christoph Riplinger    : Optimizer, TS searches, QM/MM, DLPNO-CCSD(T), (RO)-DLPNO pert. Triples
   Tobias Risthaus        : Range-separated hybrids, TD-DFT gradient, RPA, STAB
   Michael Roemelt        : Original ROCIS implementation
   Masaaki Saitow         : Open-shell DLPNO-CCSD energy and density
   Barbara Sandhoefer     : DKH picture change effects
   Avijit Sen             : IP-ROCIS
   Kantharuban Sivalingam : CASSCF convergence, NEVPT2, FIC-MRCI
   Bernardo de Souza      : ESD, SOC TD-DFT
   Georgi Stoychev        : AutoAux, RI-MP2 NMR
   Willem Van den Heuvel  : Paramagnetic NMR
   Boris Wezisla          : Elementary symmetry handling
   Frank Wennmohs         : Technical directorship


 We gratefully acknowledge several colleagues who have allowed us to
 interface, adapt or use parts of their codes:
   Stefan Grimme, W. Hujo, H. Kruse, P. Pracht,  : VdW corrections, initial TS optimization,
                  C. Bannwarth, S. Ehlert          DFT functionals, gCP, sTDA/sTD-DF
   Ed Valeev, F. Pavosevic, A. Kumar             : LibInt (2-el integral package), F12 methods
   Garnet Chan, S. Sharma, J. Yang, R. Olivares  : DMRG
   Ulf Ekstrom                                   : XCFun DFT Library
   Mihaly Kallay                                 : mrcc  (arbitrary order and MRCC methods)
   Jiri Pittner, Ondrej Demel                    : Mk-CCSD
   Frank Weinhold                                : gennbo (NPA and NBO analysis)
   Christopher J. Cramer and Donald G. Truhlar   : smd solvation model
   Lars Goerigk                                  : TD-DFT with DH, B97 family of functionals
   V. Asgeirsson, H. Jonsson                     : NEB implementation
   FAccTs GmbH                                   : IRC, NEB, NEB-TS, DLPNO-Multilevel, CI-OPT
                                                   MM, QMMM, 2- and 3-layer-ONIOM, Crystal-QMMM,
                                                   LR-CPCM, SF, NACMEs, symmetry and pop. for TD-DFT,
                                                   nearIR, NL-DFT gradient (VV10), updates on ESD,
                                                   ML-optimized integration grids
   S Lehtola, MJT Oliveira, MAL Marques          : LibXC Library
   Liviu Ungur et al                             : ANISO software


 Your calculation uses the libint2 library for the computation of 2-el integrals
 For citations please refer to: http://libint.valeyev.net

 Your ORCA version has been built with support for libXC version: 5.1.0
 For citations please refer to: https://tddft.org/programs/libxc/

 This ORCA versions uses:
   CBLAS   interface :  Fast vector & matrix operations
   LAPACKE interface :  Fast linear algebra routines
   SCALAPACK package :  Parallel linear algebra routines
   Shared memory     :  Shared parallel matrices
   BLAS/LAPACK       :  OpenBLAS 0.3.15  USE64BITINT DYNAMIC_ARCH NO_AFFINITY SkylakeX SINGLE_THREADED
        Core in use  :  SkylakeX
   Copyright (c) 2011-2014, The OpenBLAS Project


================================================================================

----- Orbital basis set information -----
Your calculation utilizes the basis: def2-TZVP
   F. Weigend and R. Ahlrichs, Phys. Chem. Chem. Phys. 7, 3297 (2005).

================================================================================
                                        WARNINGS
                       Please study these warnings very carefully!
================================================================================


INFO   : the flag for use of the SHARK integral package has been found!

================================================================================
                                       INPUT FILE
================================================================================
NAME = /scratch/RC2-highspin_985/RC2-highspin.inp
|  1> ! UHF def2-TZVP Slowconv NoRI VeryTightSCF
|  2> 
|  3> %pal
|  4>     nprocs          16
|  5> end
|  6> 
|  7> %scf
|  8>     MaxIter         500
|  9> end
| 10> 
| 11> *xyz +1 12
| 12>  C		41.75734		53.28449		36.46919
| 13>  N		42.79051		53.11573		35.57330
| 14>  H		43.17228		53.83016		34.93276
| 15>  C		43.13470		51.81354		35.56329
| 16>  H		43.91258		51.37948		34.93820
| 17>  N		42.38034		51.13480		36.42217
| 18>  C		41.51102		52.03696		36.99860
| 19>  H		40.83095		51.72793		37.79245
| 20>  C		40.09781		47.27650		33.80529
| 21>  N		40.02170		48.59447		33.39932
| 22>  H		39.44553		49.01241		32.66056
| 23>  C		40.82359		49.32561		34.20213
| 24>  H		40.95446		50.40104		34.10028
| 25>  N		41.40873		48.54956		35.10172
| 26>  C		40.96816		47.26932		34.87055
| 27>  H		41.28796		46.44831		35.50461
| 28>  C		38.24452		48.45120		37.81512
| 29>  H		38.05954		49.38046		37.26339
| 30>  H		37.98665		48.64263		38.86852
| 31>  C		39.72949		48.13040		37.79333
| 32>  O		40.09429		46.93627		38.07351
| 33>  O		40.51997		49.08118		37.60316
| 34>  C		38.64927		43.85206		40.73245
| 35>  N		39.75373		43.46182		41.46772
| 36>  H		39.79496		42.88382		42.31310
| 37>  C		40.85618		43.95072		40.86918
| 38>  H		41.86248		43.73518		41.21408
| 39>  N		40.53224		44.65285		39.79009
| 40>  C		39.15837		44.58557		39.68680
| 41>  H		38.64146		45.07274		38.87046
| 42>  C		42.78261		43.20374		35.50847
| 43>  N		41.70457		42.56369		36.07793
| 44>  H		41.38806		41.60804		35.87571
| 45>  C		41.22829		43.34611		37.06176
| 46>  H		40.41508		43.05921		37.72131
| 47>  N		41.93561		44.46974		37.14515
| 48>  C		42.91935		44.39163		36.18162
| 49>  H		43.65310		45.17946		36.03202
| 50>  C		45.76058		48.09668		34.01433
| 51>  H		45.12510		47.65198		33.22625
| 52>  H		46.65442		47.46412		34.10910
| 53>  C		44.94912		48.01873		35.29961
| 54>  O		44.13484		48.94943		35.55949
| 55>  O		45.08257		46.97820		36.01440
| 56>  Fe		42.54704		49.05340		36.88791
| 57>  Fe		41.81454		46.03362		38.62691
| 58>  O		42.83673		47.18336		37.38865
| 59>  H		43.73372		46.94370		37.02075
| 60>  C		43.49278		47.06016		40.65639
| 61>  C		43.63065		47.67500		42.05411
| 62>  C		45.10402		47.59104		42.50255
| 63>  C		45.62433		46.15327		42.46003
| 64>  C		45.40442		45.48020		41.08199
| 65>  C		43.93248		45.59938		40.69958
| 66>  O		42.19054		47.11944		40.15943
| 67>  O		42.78039		47.01168		42.97373
| 68>  O		45.28803		48.11581		43.80122
| 69>  O		46.99863		46.17840		42.81016
| 70>  O		45.74779		44.11749		41.08768
| 71>  O		43.60537		45.05344		39.42059
| 72>  H		44.16891		47.60985		39.96716
| 73>  H		43.37366		48.74650		41.98883
| 74>  H		45.70535		48.16646		41.76817
| 75>  H		45.03997		45.57270		43.19200
| 76>  H		46.02107		46.03839		40.34306
| 77>  H		43.34294		45.09136		41.47918
| 78>  H		42.11013		47.68750		43.28882
| 79>  H		45.23162		49.11556		43.72066
| 80>  H		47.38293		45.25457		42.73301
| 81>  H		46.61533		43.98339		41.55425
| 82>  H		43.52006		44.03995		39.45021
| 83>  O		42.85959		49.69549		38.87779
| 84>  O		44.06259		49.60890		38.41687
| 85>  H		41.30606		54.24869		36.70311
| 86>  H		39.55759		46.43186		33.37773
| 87>  H		37.59815		47.66320		37.42867
| 88>  H		37.60541		43.64578		40.96882
| 89>  H		43.42741		42.77068		34.74377
| 90>  H		46.04094		49.08905		33.66124
| 91> *
| 92> 
| 93>                          ****END OF INPUT****
================================================================================

                       ****************************
                       * Single Point Calculation *
                       ****************************

---------------------------------
CARTESIAN COORDINATES (ANGSTROEM)
---------------------------------
  C     41.757340   53.284490   36.469190
  N     42.790510   53.115730   35.573300
  H     43.172280   53.830160   34.932760
  C     43.134700   51.813540   35.563290
  H     43.912580   51.379480   34.938200
  N     42.380340   51.134800   36.422170
  C     41.511020   52.036960   36.998600
  H     40.830950   51.727930   37.792450
  C     40.097810   47.276500   33.805290
  N     40.021700   48.594470   33.399320
  H     39.445530   49.012410   32.660560
  C     40.823590   49.325610   34.202130
  H     40.954460   50.401040   34.100280
  N     41.408730   48.549560   35.101720
  C     40.968160   47.269320   34.870550
  H     41.287960   46.448310   35.504610
  C     38.244520   48.451200   37.815120
  H     38.059540   49.380460   37.263390
  H     37.986650   48.642630   38.868520
  C     39.729490   48.130400   37.793330
  O     40.094290   46.936270   38.073510
  O     40.519970   49.081180   37.603160
  C     38.649270   43.852060   40.732450
  N     39.753730   43.461820   41.467720
  H     39.794960   42.883820   42.313100
  C     40.856180   43.950720   40.869180
  H     41.862480   43.735180   41.214080
  N     40.532240   44.652850   39.790090
  C     39.158370   44.585570   39.686800
  H     38.641460   45.072740   38.870460
  C     42.782610   43.203740   35.508470
  N     41.704570   42.563690   36.077930
  H     41.388060   41.608040   35.875710
  C     41.228290   43.346110   37.061760
  H     40.415080   43.059210   37.721310
  N     41.935610   44.469740   37.145150
  C     42.919350   44.391630   36.181620
  H     43.653100   45.179460   36.032020
  C     45.760580   48.096680   34.014330
  H     45.125100   47.651980   33.226250
  H     46.654420   47.464120   34.109100
  C     44.949120   48.018730   35.299610
  O     44.134840   48.949430   35.559490
  O     45.082570   46.978200   36.014400
  Fe    42.547040   49.053400   36.887910
  Fe    41.814540   46.033620   38.626910
  O     42.836730   47.183360   37.388650
  H     43.733720   46.943700   37.020750
  C     43.492780   47.060160   40.656390
  C     43.630650   47.675000   42.054110
  C     45.104020   47.591040   42.502550
  C     45.624330   46.153270   42.460030
  C     45.404420   45.480200   41.081990
  C     43.932480   45.599380   40.699580
  O     42.190540   47.119440   40.159430
  O     42.780390   47.011680   42.973730
  O     45.288030   48.115810   43.801220
  O     46.998630   46.178400   42.810160
  O     45.747790   44.117490   41.087680
  O     43.605370   45.053440   39.420590
  H     44.168910   47.609850   39.967160
  H     43.373660   48.746500   41.988830
  H     45.705350   48.166460   41.768170
  H     45.039970   45.572700   43.192000
  H     46.021070   46.038390   40.343060
  H     43.342940   45.091360   41.479180
  H     42.110130   47.687500   43.288820
  H     45.231620   49.115560   43.720660
  H     47.382930   45.254570   42.733010
  H     46.615330   43.983390   41.554250
  H     43.520060   44.039950   39.450210
  O     42.859590   49.695490   38.877790
  O     44.062590   49.608900   38.416870
  H     41.306060   54.248690   36.703110
  H     39.557590   46.431860   33.377730
  H     37.598150   47.663200   37.428670
  H     37.605410   43.645780   40.968820
  H     43.427410   42.770680   34.743770
  H     46.040940   49.089050   33.661240

----------------------------
CARTESIAN COORDINATES (A.U.)
----------------------------
  NO LB      ZA    FRAG     MASS         X           Y           Z
   0 C     6.0000    0    12.011   78.909937  100.693093   68.916781
   1 N     7.0000    0    14.007   80.862345  100.374183   67.223795
   2 H     1.0000    0     1.008   81.583786  101.724260   66.013350
   3 C     6.0000    0    12.011   81.512770   97.913401   67.204879
   4 H     1.0000    0     1.008   82.982750   97.093146   66.023630
   5 N     7.0000    0    14.007   80.087236   96.630768   68.827927
   6 C     6.0000    0    12.011   78.444459   98.335603   69.917221
   7 H     1.0000    0     1.008   77.159313   97.751621   71.417380
   8 C     6.0000    0    12.011   75.773879   89.339638   63.882740
   9 N     7.0000    0    14.007   75.630052   91.830240   63.115568
  10 H     1.0000    0     1.008   74.541249   92.620032   61.719514
  11 C     6.0000    0    12.011   77.145405   93.211894   64.632659
  12 H     1.0000    0     1.008   77.392713   95.244162   64.440190
  13 N     7.0000    0    14.007   78.251159   91.745372   66.332638
  14 C     6.0000    0    12.011   77.418603   89.326069   65.895790
  15 H     1.0000    0     1.008   78.022937   87.774585   67.093989
  16 C     6.0000    0    12.011   72.271669   91.559499   71.460221
  17 H     1.0000    0     1.008   71.922107   93.315546   70.417602
  18 H     1.0000    0     1.008   71.784365   91.921249   73.450858
  19 C     6.0000    0    12.011   75.077856   90.953275   71.419043
  20 O     8.0000    0    15.999   75.767228   88.696696   71.948507
  21 O     8.0000    0    15.999   76.571646   92.749989   71.059674
  22 C     6.0000    0    12.011   73.036536   82.868384   76.973175
  23 N     7.0000    0    14.007   75.123663   82.130937   78.362634
  24 H     1.0000    0     1.008   75.201576   81.038675   79.960171
  25 C     6.0000    0    12.011   77.206991   83.054824   77.231558
  26 H     1.0000    0     1.008   79.108622   82.647513   77.883324
  27 N     7.0000    0    14.007   76.594833   84.381658   75.192373
  28 C     6.0000    0    12.011   73.998595   84.254517   74.997183
  29 H     1.0000    0     1.008   73.021777   85.175135   73.454524
  30 C     6.0000    0    12.011   80.847416   81.643237   67.101284
  31 N     7.0000    0    14.007   78.810216   80.433717   68.177407
  32 H     1.0000    0     1.008   78.212099   78.627801   67.795267
  33 C     6.0000    0    12.011   77.910177   81.912277   70.036576
  34 H     1.0000    0     1.008   76.373433   81.370114   71.282945
  35 N     7.0000    0    14.007   79.246818   84.035630   70.194161
  36 C     6.0000    0    12.011   81.105817   83.888023   68.373353
  37 H     1.0000    0     1.008   82.492404   85.376806   68.090650
  38 C     6.0000    0    12.011   86.474964   90.889553   64.277768
  39 H     1.0000    0     1.008   85.274081   90.049192   62.788513
  40 H     1.0000    0     1.008   88.164077   89.694188   64.456858
  41 C     6.0000    0    12.011   84.941527   90.742249   66.706596
  42 O     8.0000    0    15.999   83.402761   92.501017   67.197698
  43 O     8.0000    0    15.999   85.193711   88.775932   68.057353
  44 Fe   26.0000    0    55.850   80.402253   92.697492   69.708048
  45 Fe   26.0000    0    55.850   79.018029   86.990935   72.994281
  46 O     8.0000    0    15.999   80.949688   89.163628   70.654309
  47 H     1.0000    0     1.008   82.644754   88.710737   69.959079
  48 C     6.0000    0    12.011   82.189443   88.930814   76.829443
  49 C     6.0000    0    12.011   82.449980   90.092693   79.470751
  50 C     6.0000    0    12.011   85.234245   89.934032   80.318179
  51 C     6.0000    0    12.011   86.217489   87.217040   80.237828
  52 C     6.0000    0    12.011   85.801919   85.945123   77.633710
  53 C     6.0000    0    12.011   83.020356   86.170340   76.911060
  54 O     8.0000    0    15.999   79.728566   89.042837   75.890324
  55 O     8.0000    0    15.999   80.843221   88.839200   81.208581
  56 O     8.0000    0    15.999   85.581974   90.925704   82.772310
  57 O     8.0000    0    15.999   88.814539   87.264529   80.899478
  58 O     8.0000    0    15.999   86.450794   83.369974   77.644463
  59 O     8.0000    0    15.999   82.402207   85.138663   74.494119
  60 H     1.0000    0     1.008   83.467144   89.969578   75.526987
  61 H     1.0000    0     1.008   81.964339   92.117535   79.347389
  62 H     1.0000    0     1.008   86.370594   91.021418   78.930402
  63 H     1.0000    0     1.008   85.113208   86.119922   81.621051
  64 H     1.0000    0     1.008   86.967219   86.999949   76.237335
  65 H     1.0000    0     1.008   81.906286   85.210321   78.384290
  66 H     1.0000    0     1.008   79.576613   90.116315   81.804014
  67 H     1.0000    0     1.008   85.475374   92.814957   82.620074
  68 H     1.0000    0     1.008   89.540761   85.518744   80.753686
  69 H     1.0000    0     1.008   88.090207   83.116562   78.526152
  70 H     1.0000    0     1.008   82.240995   83.223444   74.550093
  71 O     8.0000    0    15.999   80.992887   93.910866   73.468376
  72 O     8.0000    0    15.999   83.266228   93.747235   72.597363
  73 H     1.0000    0     1.008   78.057141  102.515167   69.358826
  74 H     1.0000    0     1.008   74.753012   87.743499   63.074769
  75 H     1.0000    0     1.008   71.050207   90.070395   70.729936
  76 H     1.0000    0     1.008   71.063926   82.478571   77.419850
  77 H     1.0000    0     1.008   82.065912   80.824872   65.656210
  78 H     1.0000    0     1.008   87.004768   92.764861   63.610525

--------------------------------
INTERNAL COORDINATES (ANGSTROEM)
--------------------------------
 C      0   0   0     0.000000000000     0.00000000     0.00000000
 N      1   0   0     1.377874841413     0.00000000     0.00000000
 H      2   1   0     1.032690684281   126.56690754     0.00000000
 C      2   1   3     1.346946826085   108.35158006   186.56018908
 H      4   2   1     1.088229243358   124.92766287   178.98437847
 N      4   2   1     1.329444188975   110.10748531   359.35947821
 C      1   2   3     1.377417725819   105.84666528   173.99902137
 H      7   1   2     1.090042461696   130.40979987   174.90689854
 C      6   4   2     5.190807550401   107.65597249   124.41301292
 N      9   6   4     1.381176778657    57.52939409   306.92484037
 H     10   9   6     1.025871361380   129.15152137   189.01941182
 C     10   9   6     1.349850794644   108.01764599     6.20346507
 H     12  10   9     1.088140645459   123.44233235   179.77801141
 N     12  10   9     1.324350629629   110.43018933   359.92760131
 C     14  12  10     1.373519548969   106.86653561     0.00000000
 H     15  14  12     1.085523626505   120.80761376   181.82736043
 C     14  12  10     4.169465094434    96.92506748   277.32786463
 H     17  14  12     1.096424981884    77.32412073   336.25796610
 H     17  14  12     1.101269241285   142.75857726   234.54965608
 C     17  14  12     1.519382553869    41.74938597   195.88908203
 O     20  17  14     1.279658676874   118.19707780   239.17921252
 O     20  17  14     1.251001945522   117.34051995    64.59710379
 C     21  20  17     4.320925369420   134.86787992   326.07680708
 N     23  21  20     1.383018843726   105.15859614   231.81570289
 H     24  23  21     1.024915243959   129.03282297   167.49683015
 C     24  23  21     1.346354093134   108.36712514   346.04559810
 H     26  24  23     1.085381588014   123.07933143   183.89869231
 N     26  24  23     1.327538658044   110.70834564     0.70912672
 C     23  21  20     1.374992237287    13.45045254   140.58425548
 H     29  23  24     1.082100527955   129.56906142   179.60030123
 C     16  15  14     3.572286103744   144.17769988   233.79635781
 N     31  16  15     1.376996345565    95.45465794   240.67009495
 H     32  31  16     1.026809831955   126.33332646   145.36367549
 C     32  31  16     1.344226604297   108.03007121   318.18916445
 H     34  32  31     1.085646497070   123.79488349   183.95187621
 N     34  32  31     1.330338246988   110.43305053     0.80083441
 C     31  16  15     1.372192188507    41.92271004   132.55488454
 H     37  31  16     1.086943113231   128.84480837   259.96734611
 C      5   4   2     3.878842045882   144.58232096   179.62505438
 H     39   5   4     1.105740931141   103.66947843    86.57997890
 H     39   5   4     1.099119398473   148.64845069   257.47756316
 C     39   5   4     1.522001383869    65.68191657   345.01328108
 O     42  39   5     1.263642363487   118.65344313    12.11235222
 O     42  39   5     1.269423620191   117.47984728   188.43130010
 Fe    43  42  39     2.072828574026   131.47951446   163.21136705
 Fe    21  20  17     2.019972436693   136.03436399   197.76568162
 O     45  43  42     1.957475528659    90.15243816   356.96668550
 H     47  45  43     0.998688332614   105.54179856    13.49314191
 C     46  21  20     2.826493046091   122.68845254    46.63948465
 C     49  46  21     1.533185429392   148.60727908    44.27832165
 C     50  49  46     1.542389987033   109.21568117   165.04840333
 C     51  50  49     1.529612048658   111.59362003   304.14512468
 C     52  51  50     1.549315292186   112.63064217    53.36196156
 C     53  52  51     1.525466697146   109.02556304   306.58945733
 O     49  46  21     1.395102998922    37.38531499    19.26663124
 O     50  49  46     1.417263713781   110.48127529    42.63886663
 O     51  50  49     1.412723257365   111.80654919   181.38722744
 O     52  51  50     1.418422723944   107.82206950   176.67090476
 O     53  52  51     1.405316290769   112.51821496   186.53375912
 O     54  53  52     1.428589113706   114.55182161   178.00140537
 H     49  46  21     1.111012540838    95.48583514   264.82311977
 H     50  49  46     1.103819545261   108.32633262   281.25979141
 H     51  50  49     1.109963931711   107.27332604    60.48064646
 H     52  51  50     1.101961077080   107.23974806   296.32603153
 H     53  52  51     1.112587454315   107.10399959    64.64625203
 H     54  53  52     1.101552491713   107.63570455   300.10753198
 H     56  50  49     1.002627970934   106.82791102   243.83497053
 H     57  51  50     1.004575564206   106.77670987   285.55335149
 H     58  52  51     1.003543960871   109.61780637   183.64752810
 H     59  53  52     0.994130789434   110.23829718   315.21720152
 H     60  54  53     1.017505341804   111.94898443    79.10026779
 O     45  43  42     2.114140365491   120.34424512    88.88161015
 O     72  45  43     1.291183207179    77.37200598   352.74349713
 H      1   2   3     1.089978827684   123.94054873   351.18175040
 H      9   6   4     1.089982537291   172.60394341   180.52973945
 H     17  14  12     1.089991641895   103.67159097    83.58905266
 H     23  21  20     1.089984364521   126.07201173    35.85243795
 H     31  16  15     1.089988116266   127.41709390    23.06269607
 H     39   5   4     1.089987382771    55.19134929   187.28548628

---------------------------
INTERNAL COORDINATES (A.U.)
---------------------------
 C      0   0   0     0.000000000000     0.00000000     0.00000000
 N      1   0   0     2.603806097091     0.00000000     0.00000000
 H      2   1   0     1.951502574342   126.56690754     0.00000000
 C      2   1   3     2.545360618255   108.35158006   186.56018908
 H      4   2   1     2.056455240871   124.92766287   178.98437847
 N      4   2   1     2.512285427496   110.10748531   359.35947821
 C      1   2   3     2.602942273806   105.84666528   173.99902137
 H      7   1   2     2.059881726951   130.40979987   174.90689854
 C      6   4   2     9.809204684149   107.65597249   124.41301292
 N      9   6   4     2.610045854192    57.52939409   306.92484037
 H     10   9   6     1.938615921641   129.15152137   189.01941182
 C     10   9   6     2.550848323532   108.01764599     6.20346507
 H     12  10   9     2.056287815106   123.44233235   179.77801141
 N     12  10   9     2.502659995286   110.43018933   359.92760131
 C     14  12  10     2.595575787138   106.86653561     0.00000000
 H     15  14  12     2.051342365995   120.80761376   181.82736043
 C     14  12  10     7.879147153424    96.92506748   277.32786463
 H     17  14  12     2.071942942151    77.32412073   336.25796610
 H     17  14  12     2.081097265740   142.75857726   234.54965608
 C     17  14  12     2.871216919469    41.74938597   195.88908203
 O     20  17  14     2.418204444189   118.19707780   239.17921252
 O     20  17  14     2.364051070039   117.34051995    64.59710379
 C     21  20  17     8.165365593317   134.86787992   326.07680708
 N     23  21  20     2.613526852694   105.15859614   231.81570289
 H     24  23  21     1.936809121564   129.03282297   167.49683015
 C     24  23  21     2.544240515308   108.36712514   346.04559810
 H     26  24  23     2.051073952147   123.07933143   183.89869231
 N     26  24  23     2.508684495896   110.70834564     0.70912672
 C     23  21  20     2.598358764740    13.45045254   140.58425548
 H     29  23  24     2.044873647206   129.56906142   179.60030123
 C     16  15  14     6.750642408088   144.17769988   233.79635781
 N     31  16  15     2.602145980529    95.45465794   240.67009495
 H     32  31  16     1.940389374013   126.33332646   145.36367549
 C     32  31  16     2.540220144052   108.03007121   318.18916445
 H     34  32  31     2.051574557713   123.79488349   183.95187621
 N     34  32  31     2.513974952289   110.43305053     0.80083441
 C     31  16  15     2.593067439385    41.92271004   132.55488454
 H     37  31  16     2.054024807158   128.84480837   259.96734611
 C      5   4   2     7.329949183455   144.58232096   179.62505438
 H     39   5   4     2.089547534923   103.66947843    86.57997890
 H     39   5   4     2.077034651595   148.64845069   257.47756316
 C     39   5   4     2.876165790962    65.68191657   345.01328108
 O     42  39   5     2.387937998212   118.65344313    12.11235222
 O     42  39   5     2.398862990093   117.47984728   188.43130010
 Fe    43  42  39     3.917078327476   131.47951446   163.21136705
 Fe    21  20  17     3.817194703420   136.03436399   197.76568162
 O     45  43  42     3.699092663019    90.15243816   356.96668550
 H     47  45  43     1.887247441784   105.54179856    13.49314191
 C     46  21  20     5.341297776545   122.68845254    46.63948465
 C     49  46  21     2.897300574069   148.60727908    44.27832165
 C     50  49  46     2.914694667195   109.21568117   165.04840333
 C     51  50  49     2.890547863110   111.59362003   304.14512468
 C     52  51  50     2.927781597327   112.63064217    53.36196156
 C     53  52  51     2.882714284022   109.02556304   306.58945733
 O     49  46  21     2.636362596574    37.38531499    19.26663124
 O     50  49  46     2.678240278590   110.48127529    42.63886663
 O     51  50  49     2.669660059441   111.80654919   181.38722744
 O     52  51  50     2.680430490384   107.82206950   176.67090476
 O     53  52  51     2.655662921091   112.51821496   186.53375912
 O     54  53  52     2.699642182806   114.55182161   178.00140537
 H     49  46  21     2.099509433536    95.48583514   264.82311977
 H     50  49  46     2.085916641813   108.32633262   281.25979141
 H     51  50  49     2.097527849465   107.27332604    60.48064646
 H     52  51  50     2.082404645923   107.23974806   296.32603153
 H     53  52  51     2.102485588693   107.10399959    64.64625203
 H     54  53  52     2.081632531477   107.63570455   300.10753198
 H     56  50  49     1.894692279275   106.82791102   243.83497053
 H     57  51  50     1.898372697179   106.77670987   285.55335149
 H     58  52  51     1.896423249396   109.61780637   183.64752810
 H     59  53  52     1.878634933329   110.23829718   315.21720152
 H     60  54  53     1.922806435812   111.94898443    79.10026779
 O     45  43  42     3.995146299447   120.34424512    88.88161015
 O     72  45  43     2.439982650286    77.37200598   352.74349713
 H      1   2   3     2.059761476096   123.94054873   351.18175040
 H      9   6   4     2.059768486237   172.60394341   180.52973945
 H     17  14  12     2.059785691444   103.67159097    83.58905266
 H     23  21  20     2.059771939201   126.07201173    35.85243795
 H     31  16  15     2.059779028971   127.41709390    23.06269607
 H     39   5   4     2.059777642867    55.19134929   187.28548628

---------------------
BASIS SET INFORMATION
---------------------
There are 5 groups of distinct atoms

 Group   1 Type C   : 11s6p2d1f contracted to 5s3p2d1f pattern {62111/411/11/1}
 Group   2 Type N   : 11s6p2d1f contracted to 5s3p2d1f pattern {62111/411/11/1}
 Group   3 Type H   : 5s1p contracted to 3s1p pattern {311/1}
 Group   4 Type O   : 11s6p2d1f contracted to 5s3p2d1f pattern {62111/411/11/1}
 Group   5 Type Fe  : 17s11p7d1f contracted to 6s4p4d1f pattern {842111/6311/4111/1}

Atom   0C    basis set group =>   1
Atom   1N    basis set group =>   2
Atom   2H    basis set group =>   3
Atom   3C    basis set group =>   1
Atom   4H    basis set group =>   3
Atom   5N    basis set group =>   2
Atom   6C    basis set group =>   1
Atom   7H    basis set group =>   3
Atom   8C    basis set group =>   1
Atom   9N    basis set group =>   2
Atom  10H    basis set group =>   3
Atom  11C    basis set group =>   1
Atom  12H    basis set group =>   3
Atom  13N    basis set group =>   2
Atom  14C    basis set group =>   1
Atom  15H    basis set group =>   3
Atom  16C    basis set group =>   1
Atom  17H    basis set group =>   3
Atom  18H    basis set group =>   3
Atom  19C    basis set group =>   1
Atom  20O    basis set group =>   4
Atom  21O    basis set group =>   4
Atom  22C    basis set group =>   1
Atom  23N    basis set group =>   2
Atom  24H    basis set group =>   3
Atom  25C    basis set group =>   1
Atom  26H    basis set group =>   3
Atom  27N    basis set group =>   2
Atom  28C    basis set group =>   1
Atom  29H    basis set group =>   3
Atom  30C    basis set group =>   1
Atom  31N    basis set group =>   2
Atom  32H    basis set group =>   3
Atom  33C    basis set group =>   1
Atom  34H    basis set group =>   3
Atom  35N    basis set group =>   2
Atom  36C    basis set group =>   1
Atom  37H    basis set group =>   3
Atom  38C    basis set group =>   1
Atom  39H    basis set group =>   3
Atom  40H    basis set group =>   3
Atom  41C    basis set group =>   1
Atom  42O    basis set group =>   4
Atom  43O    basis set group =>   4
Atom  44Fe   basis set group =>   5
Atom  45Fe   basis set group =>   5
Atom  46O    basis set group =>   4
Atom  47H    basis set group =>   3
Atom  48C    basis set group =>   1
Atom  49C    basis set group =>   1
Atom  50C    basis set group =>   1
Atom  51C    basis set group =>   1
Atom  52C    basis set group =>   1
Atom  53C    basis set group =>   1
Atom  54O    basis set group =>   4
Atom  55O    basis set group =>   4
Atom  56O    basis set group =>   4
Atom  57O    basis set group =>   4
Atom  58O    basis set group =>   4
Atom  59O    basis set group =>   4
Atom  60H    basis set group =>   3
Atom  61H    basis set group =>   3
Atom  62H    basis set group =>   3
Atom  63H    basis set group =>   3
Atom  64H    basis set group =>   3
Atom  65H    basis set group =>   3
Atom  66H    basis set group =>   3
Atom  67H    basis set group =>   3
Atom  68H    basis set group =>   3
Atom  69H    basis set group =>   3
Atom  70H    basis set group =>   3
Atom  71O    basis set group =>   4
Atom  72O    basis set group =>   4
Atom  73H    basis set group =>   3
Atom  74H    basis set group =>   3
Atom  75H    basis set group =>   3
Atom  76H    basis set group =>   3
Atom  77H    basis set group =>   3
Atom  78H    basis set group =>   3
--------------------------------------------------------------------------
WARNING: There was an error initializing an OpenFabrics device.

  Local host:   cnode03
  Local device: mlx5_0
--------------------------------------------------------------------------


           ************************************************************
           *        Program running with 16 parallel MPI-processes    *
           *              working on a common directory               *
           ************************************************************
------------------------------------------------------------------------------
                           ORCA GTO INTEGRAL CALCULATION
------------------------------------------------------------------------------
------------------------------------------------------------------------------
                   ___                                                        
                  /   \      - P O W E R E D   B Y -                         
                 /     \                                                     
                 |  |  |   _    _      __       _____    __    __             
                 |  |  |  | |  | |    /  \     |  _  \  |  |  /  |          
                  \  \/   | |  | |   /    \    | | | |  |  | /  /          
                 / \  \   | |__| |  /  /\  \   | |_| |  |  |/  /          
                |  |  |   |  __  | /  /__\  \  |    /   |      \           
                |  |  |   | |  | | |   __   |  |    \   |  |\   \          
                \     /   | |  | | |  |  |  |  | |\  \  |  | \   \       
                 \___/    |_|  |_| |__|  |__|  |_| \__\ |__|  \__/        
                                                                              
                      - O R C A' S   B I G   F R I E N D -                    
                                      &                                       
                       - I N T E G R A L  F E E D E R -                       
                                                                              
 v1 FN, 2020, v2 2021                                                         
------------------------------------------------------------------------------


Reading SHARK input file /scratch/RC2-highspin_985/RC2-highspin.SHARKINP.tmp ... ok
----------------------
SHARK INTEGRAL PACKAGE
----------------------

Number of atoms                             ...     79
Number of basis functions                   ...   1627
Number of shells                            ...    639
Maximum angular momentum                    ...      3
Integral batch strategy                     ... SHARK/LIBINT Hybrid
RI-J (if used) integral strategy            ... SPLIT-RIJ (Revised 2003 algorithm where possible)
Printlevel                                  ...      1
Contraction scheme used                     ... SEGMENTED contraction
Coulomb Range Separation                    ... NOT USED
Exchange Range Separation                   ... NOT USED
Finite Nucleus Model                        ... NOT USED
Auxiliary Coulomb fitting basis             ... NOT available
Auxiliary J/K fitting basis                 ... NOT available
Auxiliary Correlation fitting basis         ... NOT available
Auxiliary 'external' fitting basis          ... NOT available
Integral threshold                          ...     1.000000e-12
Primitive cut-off                           ...     1.000000e-14
Primitive pair pre-selection threshold      ...     1.000000e-14

Calculating pre-screening integrals         ... done (  1.2 sec) Dimension = 639
Organizing shell pair data                  ... done (  0.8 sec)
Shell pair information
Total number of shell pairs                 ...    204480
Shell pairs after pre-screening             ...    119768
Total number of primitive shell pairs       ...    646982
Primitive shell pairs kept                  ...    232939
          la=0 lb=0:  31441 shell pairs
          la=1 lb=0:  35147 shell pairs
          la=1 lb=1:   9903 shell pairs
          la=2 lb=0:  17109 shell pairs
          la=2 lb=1:   9842 shell pairs
          la=2 lb=2:   2440 shell pairs
          la=3 lb=0:   7264 shell pairs
          la=3 lb=1:   4265 shell pairs
          la=3 lb=2:   1956 shell pairs
          la=3 lb=3:    401 shell pairs

Calculating one electron integrals          ... done (  0.2 sec)
Calculating Nuclear repulsion               ... done (  0.0 sec) ENN=   8199.259930178932 Eh

SHARK setup successfully completed in   2.4 seconds

Maximum memory used throughout the entire GTOINT-calculation: 175.0 MB
[cnode03:239052] 15 more processes have sent help message help-mpi-btl-openib.txt / error in device init
[cnode03:239052] Set MCA parameter "orte_base_help_aggregate" to 0 to see all help / error messages
--------------------------------------------------------------------------
WARNING: There was an error initializing an OpenFabrics device.

  Local host:   cnode03
  Local device: mlx5_0
--------------------------------------------------------------------------


           ************************************************************
           *        Program running with 16 parallel MPI-processes    *
           *              working on a common directory               *
           ************************************************************
-------------------------------------------------------------------------------
                                 ORCA SCF
-------------------------------------------------------------------------------

------------
SCF SETTINGS
------------
Hamiltonian:
 Ab initio Hamiltonian  Method          .... Hartree-Fock(GTOs)


General Settings:
 Integral files         IntName         .... /scratch/RC2-highspin_985/RC2-highspin
 Hartree-Fock type      HFTyp           .... UHF
 Total Charge           Charge          ....    1
 Multiplicity           Mult            ....   12
 Number of Electrons    NEL             ....  377
 Basis Dimension        Dim             .... 1627
 Nuclear Repulsion      ENuc            ....   8199.2599301789 Eh

Convergence Acceleration:
 DIIS                   CNVDIIS         .... on
   Start iteration      DIISMaxIt       ....     0
   Startup error        DIISStart       ....  0.200000
   # of expansion vecs  DIISMaxEq       ....     5
   Bias factor          DIISBfac        ....   1.050
   Max. coefficient     DIISMaxC        ....  10.000
 Trust-Rad. Augm. Hess. CNVTRAH         .... auto
   Auto Start mean grad. ratio tolernc. ....  1.125000
   Auto Start start iteration           ....    20
   Auto Start num. interpolation iter.  ....    10
   Max. Number of Micro iterations      ....    16
   Max. Number of Macro iterations      .... Maxiter - #DIIS iter
   Number of Davidson start vectors     ....     2
   Converg. threshold I  (grad. norm)   ....   2.000e-06
   Converg. threshold II (energy diff.) ....   1.000e-09
   Grad. Scal. Fac. for Micro threshold ....   0.100
   Minimum threshold for Micro iter.    ....   0.010
   NR start threshold (gradient norm)   ....   0.001
   Initial trust radius                 ....   0.400
   Minimum AH scaling param. (alpha)    ....   1.000
   Maximum AH scaling param. (alpha)    .... 1000.000
   Orbital update algorithm             .... Taylor
   White noise on init. David. guess    .... on
   Maximum white noise                  ....   0.010
   Quad. conv. algorithm                .... NR
 SOSCF                  CNVSOSCF        .... off
 Level Shifting         CNVShift        .... on
   Level shift para.    LevelShift      ....    0.2500
   Turn off err/grad.   ShiftErr        ....    0.0000
 Zerner damping         CNVZerner       .... off
 Static damping         CNVDamp         .... on
   Fraction old density DampFac         ....    0.8500
   Max. Damping (<1)    DampMax         ....    0.9800
   Min. Damping (>=0)   DampMin         ....    0.0000
   Turn off err/grad.   DampErr         ....    0.0300
 Fernandez-Rico         CNVRico         .... off

SCF Procedure:
 Maximum # iterations   MaxIter         ....   500
 SCF integral mode      SCFMode         .... Direct
   Integral package                     .... SHARK and LIBINT hybrid scheme
 Reset frequency        DirectResetFreq ....    20
 Integral Threshold     Thresh          ....  1.000e-12 Eh
 Primitive CutOff       TCut            ....  1.000e-14 Eh

Convergence Tolerance:
 Convergence Check Mode ConvCheckMode   .... Total+1el-Energy
 Convergence forced     ConvForced      .... 0
 Energy Change          TolE            ....  1.000e-09 Eh
 1-El. energy change                    ....  1.000e-06 Eh
 DIIS Error             TolErr          ....  1.000e-08


Diagonalization of the overlap matrix:
Smallest eigenvalue                        ... 3.228e-05
Time for diagonalization                   ...    0.378 sec
Threshold for overlap eigenvalues          ... 1.000e-08
Number of eigenvalues below threshold      ... 0
Time for construction of square roots      ...    0.486 sec
Total time needed                          ...    0.874 sec

Time for model grid setup =    0.876 sec

------------------------------
INITIAL GUESS: MODEL POTENTIAL
------------------------------
Loading Hartree-Fock densities                     ... done
Calculating cut-offs                               ... done
Initializing the effective Hamiltonian             ... done
Setting up the integral package (SHARK)            ... done
Starting the Coulomb interaction                   ... done (   1.9 sec)
Reading the grid                                   ... done
Mapping shells                                     ... done
Starting the XC term evaluation                    ... [cnode03:239178] 15 more processes have sent help message help-mpi-btl-openib.txt / error in device init
[cnode03:239178] Set MCA parameter "orte_base_help_aggregate" to 0 to see all help / error messages
done (   0.5 sec)
Transforming the Hamiltonian                       ... done (   0.3 sec)
Diagonalizing the Hamiltonian                      ... done (   0.4 sec)
Back transforming the eigenvectors                 ... done (   0.1 sec)
Now organizing SCF variables                       ... done
                      ------------------
                      INITIAL GUESS DONE (   4.2 sec)
                      ------------------
--------------
SCF ITERATIONS
--------------
ITER       Energy         Delta-E        Max-DP      RMS-DP      [F,P]     Damp
               ***  Starting incremental Fock matrix formation  ***
  0  -4785.0947578344   0.000000000000 0.04285789  0.00013077  0.3273607 0.8500
  1  -4785.5070362397  -0.412278405260 0.04701549  0.00013369  0.2668905 0.8500
                               ***Turning on DIIS***
  2  -4785.8256423239  -0.318606084220 0.03443752  0.00010805  0.2294956 0.8500
  3  -4791.3860363789  -5.560394054984 0.01589083  0.00007383  0.1974847 0.8500
  4  -4794.3598969167  -2.973860537852 0.00632296  0.00005777  0.1690251 0.8500
  5  -4794.7655651936  -0.405668276873 0.00562438  0.00005039  0.1441581 0.8500
  6  -4794.2114611268   0.554104066823 0.00519121  0.00004506  0.1227557 0.8500
  7  -4793.1327522904   1.078708836390 0.00480885  0.00004064  0.1044405 0.8500
  8  -4792.1084244108   1.024327879590 0.00430704  0.00003628  0.0888471 0.8500
  9  -4791.3514380223   0.756986388442 0.00383146  0.00003202  0.0755631 0.8500
 10  -4790.7867872607   0.564650761611 0.00339296  0.00002814  0.0642510 0.8500
 11  -4790.3273027051   0.459484555638 0.00300798  0.00002474  0.0546296 0.8500
 12  -4789.9305100231   0.396792681979 0.00281073  0.00002179  0.0464571 0.8500
 13  -4789.5779944061   0.352515617025 0.00261582  0.00001923  0.0395405 0.8500
 14  -4789.2708770545   0.307117351600 0.00242513  0.00001700  0.0336550 0.8500
 15  -4789.0085691463   0.262307908208 0.01493180  0.00010045  0.0286457 0.0000
 16  -4787.4461590115   1.562410134746 0.00442286  0.00001290  0.0059072 0.0000
 17  -4787.4406074856   0.005551525977 0.00505375  0.00001435  0.0049714 0.0000
 18  -4787.4640249375  -0.023417451928 0.00615774  0.00001672  0.0036999 0.0000
 19  -4787.4579151618   0.006109775684 0.00217036  0.00000800  0.0024981 0.0000
               *** Restarting incremental Fock matrix formation ***
                                   *** Resetting DIIS ***
 20  -4787.4383711492   0.019544012554 0.00055598  0.00000274  0.0014159 0.0000
 21  -4787.4399391072  -0.001567957977 0.00088107  0.00000315  0.0010830 0.0000
 22  -4787.4469197775  -0.006980670325 0.00114986  0.00000403  0.0008109 0.0000
 23  -4787.4423617897   0.004557987810 0.00057624  0.00000202  0.0005080 0.0000
 24  -4787.4418237673   0.000538022397 0.00037703  0.00000146  0.0004554 0.0000
 25  -4787.4407146802   0.001109087121 0.00023676  0.00000068  0.0004050 0.0000
 26  -4787.4397901562   0.000924524062 0.00027381  0.00000067  0.0003497 0.0000
 27  -4787.4389970856   0.000793070583 0.00039507  0.00000088  0.0003193 0.0000
 28  -4787.4388081146   0.000188971000 0.00050584  0.00000115  0.0002592 0.0000
 29  -4787.4390128592  -0.000204744596 0.00017976  0.00000043  0.0002083 0.0000
 30  -4787.4379454966   0.001067362549 0.00039197  0.00000095  0.0001227 0.0000
 31  -4787.4383862923  -0.000440795653 0.00014320  0.00000039  0.0001313 0.0000
 32  -4787.4383207274   0.000065564907 0.00010626  0.00000031  0.0000634 0.0000
 33  -4787.4384339120  -0.000113184653 0.00004425  0.00000018  0.0000513 0.0000
 34  -4787.4384988926  -0.000064980555 0.00002382  0.00000014  0.0000333 0.0000
 35  -4787.4385008867  -0.000001994082 0.00002896  0.00000015  0.0000314 0.0000
 36  -4787.4385141159  -0.000013229252 0.00003933  0.00000019  0.0000281 0.0000
 37  -4787.4385407452  -0.000026629281 0.00004792  0.00000023  0.0000229 0.0000
 38  -4787.4385276550   0.000013090186 0.00004333  0.00000022  0.0000187 0.0000
 39  -4787.4385636674  -0.000036012392 0.00005294  0.00000027  0.0000156 0.0000
               *** Restarting incremental Fock matrix formation ***
                                   *** Resetting DIIS ***
 40  -4787.4385599940   0.000003673442 0.00000770  0.00000005  0.0000131 0.0000
 41  -4787.4385607229  -0.000000728964 0.00000517  0.00000004  0.0000102 0.0000
 42  -4787.4385619561  -0.000001233144 0.00000523  0.00000004  0.0000107 0.0000
 43  -4787.4385645437  -0.000002587605 0.00001031  0.00000006  0.0000111 0.0000
 44  -4787.4385780717  -0.000013528059 0.00002201  0.00000012  0.0000102 0.0000
 45  -4787.4385680419   0.000010029868 0.00001768  0.00000010  0.0000079 0.0000

 WARNING: the maximum gradient error descreased on average only by a factor   1.1
          during the last 20 iterations

                      *** Initiating the TRAH-SCF procedure ***

 --------------------------------------------------------------------------------------------
   Iter.        energy            ||Error||_2        Shift      TRadius  Mac/Mic        Rej.
 --------------------------------------------------------------------------------------------
    0      -4787.438560165088     4.677649e-05                     0.400 (TRAH MAcro)   No
    0     dE    -4.501782e-09     1.846340e-04    -4.5019e-09      0.000 (TRAH MIcro)
    0     dE    -3.216175e-08     1.849334e-04    -3.2162e-08      0.001 (TRAH MIcro)
    0     dE    -5.183246e-08     1.342447e-04    -5.1832e-08      0.001 (TRAH MIcro)
    0     dE    -6.267779e-08     9.427127e-05    -6.2678e-08      0.001 (TRAH MIcro)
    0     dE    -6.994619e-08     7.015237e-05    -6.9946e-08      0.002 (TRAH MIcro)
    0     dE    -7.163766e-08     3.873763e-05    -7.1637e-08      0.002 (TRAH MIcro)
    0     dE    -7.209786e-08     1.580200e-05    -7.2098e-08      0.002 (TRAH MIcro)
    0     dE    -7.220041e-08     9.984753e-06    -7.2200e-08      0.002 (TRAH MIcro)
    0     dE    -7.229636e-08     1.334091e-05    -7.2296e-08      0.002 (TRAH MIcro)
    0     dE    -7.238929e-08     1.028265e-05    -7.2389e-08      0.002 (TRAH MIcro)
    0     dE    -7.246502e-08     1.010117e-05    -7.2465e-08      0.002 (TRAH MIcro)
    0     dE    -7.251148e-08     6.203536e-06    -7.2511e-08      0.002 (TRAH MIcro)
    0     dE    -7.253395e-08     5.277264e-06    -7.2534e-08      0.002 (TRAH MIcro)
    0     dE    -7.254549e-08     3.082447e-06    -7.2545e-08      0.002 (TRAH MIcro)
    1      -4787.438560237594     3.084444e-06                           (NR   MAcro)
    1     dE    -3.878143e-12     1.512203e-06                           (NR   MIcro)
    1     dE    -6.493714e-12     1.688183e-06                           (NR   MIcro)
    1     dE    -8.150818e-12     1.018604e-06                           (NR   MIcro)
    1     dE    -9.211905e-12     9.923095e-07                           (NR   MIcro)
    1     dE    -9.725868e-12     6.087755e-07                           (NR   MIcro)
    1     dE    -1.004803e-11     5.453249e-07                           (NR   MIcro)
    1     dE    -1.024241e-11     4.172388e-07                           (NR   MIcro)
    1     dE    -1.043826e-11     4.700632e-07                           (NR   MIcro)
    1     dE    -1.054714e-11     2.695078e-07                           (NR   MIcro)
    1     dE    -1.059953e-11     2.332499e-07                           (NR   MIcro)
    1     dE    -1.063164e-11     1.627602e-07                           (NR   MIcro)
    2      -4787.438560237624     1.627604e-07                           (NR   MAcro)

               *****************************************************
               *                     SUCCESS                       *
               *           SCF CONVERGED AFTER  74 CYCLES          *
               *****************************************************


----------------
TOTAL SCF ENERGY
----------------

Total Energy       :        -4787.43856024 Eh         -130272.82617 eV

Components:
Nuclear Repulsion  :         8199.25993018 Eh          223113.20556 eV
Electronic Energy  :       -12986.69849042 Eh         -353386.03172 eV
One Electron Energy:       -22914.08718478 Eh         -623524.01165 eV
Two Electron Energy:         9927.38869437 Eh          270137.97992 eV

Virial components:
Potential Energy   :        -9571.27385615 Eh         -260447.60253 eV
Kinetic Energy     :         4783.83529591 Eh          130174.77636 eV
Virial Ratio       :            2.00075322


---------------
SCF CONVERGENCE
---------------

  Last Energy change         ...   -3.0013e-11  Tolerance :   1.0000e-09
  Last Orbital Gradient      ...    1.6276e-07  Tolerance :   2.0000e-06
  Last Orbital Rotation      ...    1.2288e-05

             **** THE GBW FILE WAS UPDATED (/scratch/RC2-highspin_985/RC2-highspin.gbw) ****
             **** DENSITY /scratch/RC2-highspin_985/RC2-highspin.scfp WAS UPDATED ****
             **** ENERGY FILE WAS UPDATED (/scratch/RC2-highspin_985/RC2-highspin.en.tmp) ****
----------------------
UHF SPIN CONTAMINATION
----------------------

Expectation value of <S**2>     :    35.798641
Ideal value S*(S+1) for S=5.5   :    35.750000
Deviation                       :     0.048641

             **** THE GBW FILE WAS UPDATED (/scratch/RC2-highspin_985/RC2-highspin.gbw) ****
             **** DENSITY /scratch/RC2-highspin_985/RC2-highspin.scfp WAS UPDATED ****
----------------
ORBITAL ENERGIES
----------------
                 SPIN UP ORBITALS
  NO   OCC          E(Eh)            E(eV) 
   0   1.0000    -261.610225     -7118.7761 
   1   1.0000    -261.605616     -7118.6507 
   2   1.0000     -32.276387      -878.2851 
   3   1.0000     -32.270145      -878.1153 
   4   1.0000     -27.753482      -755.2106 
   5   1.0000     -27.752540      -755.1850 
   6   1.0000     -27.751471      -755.1559 
   7   1.0000     -27.746832      -755.0297 
   8   1.0000     -27.746677      -755.0255 
   9   1.0000     -27.746110      -755.0100 
  10   1.0000     -20.692214      -563.0638 
  11   1.0000     -20.644508      -561.7656 
  12   1.0000     -20.639897      -561.6402 
  13   1.0000     -20.636126      -561.5375 
  14   1.0000     -20.620989      -561.1256 
  15   1.0000     -20.620191      -561.1039 
  16   1.0000     -20.612370      -560.8911 
  17   1.0000     -20.606915      -560.7427 
  18   1.0000     -20.602959      -560.6350 
  19   1.0000     -20.589133      -560.2588 
  20   1.0000     -20.585502      -560.1600 
  21   1.0000     -20.562503      -559.5341 
  22   1.0000     -20.539302      -558.9028 
  23   1.0000     -15.749895      -428.5764 
  24   1.0000     -15.746396      -428.4812 
  25   1.0000     -15.734962      -428.1701 
  26   1.0000     -15.728446      -427.9928 
  27   1.0000     -15.693159      -427.0326 
  28   1.0000     -15.688584      -426.9081 
  29   1.0000     -15.671383      -426.4400 
  30   1.0000     -15.669808      -426.3972 
  31   1.0000     -11.456528      -311.7480 
  32   1.0000     -11.432950      -311.1064 
  33   1.0000     -11.430028      -311.0269 
  34   1.0000     -11.416040      -310.6462 
  35   1.0000     -11.414352      -310.6003 
  36   1.0000     -11.408456      -310.4399 
  37   1.0000     -11.379535      -309.6529 
  38   1.0000     -11.374560      -309.5175 
  39   1.0000     -11.367674      -309.3301 
  40   1.0000     -11.363934      -309.2284 
  41   1.0000     -11.358643      -309.0844 
  42   1.0000     -11.358562      -309.0822 
  43   1.0000     -11.354421      -308.9695 
  44   1.0000     -11.350012      -308.8495 
  45   1.0000     -11.348698      -308.8138 
  46   1.0000     -11.346109      -308.7433 
  47   1.0000     -11.337872      -308.5192 
  48   1.0000     -11.329582      -308.2936 
  49   1.0000     -11.324609      -308.1583 
  50   1.0000     -11.315871      -307.9205 
  51   1.0000     -11.309365      -307.7435 
  52   1.0000     -11.283123      -307.0294 
  53   1.0000      -4.634213      -126.1034 
  54   1.0000      -4.626436      -125.8917 
  55   1.0000      -3.249581       -88.4256 
  56   1.0000      -3.247264       -88.3625 
  57   1.0000      -3.245192       -88.3062 
  58   1.0000      -3.242071       -88.2212 
  59   1.0000      -3.239341       -88.1470 
  60   1.0000      -3.237968       -88.1096 
  61   1.0000      -1.564181       -42.5635 
  62   1.0000      -1.502965       -40.8977 
  63   1.0000      -1.487080       -40.4655 
  64   1.0000      -1.473087       -40.0847 
  65   1.0000      -1.468375       -39.9565 
  66   1.0000      -1.463792       -39.8318 
  67   1.0000      -1.455886       -39.6167 
  68   1.0000      -1.449801       -39.4511 
  69   1.0000      -1.444608       -39.3098 
  70   1.0000      -1.419546       -38.6278 
  71   1.0000      -1.405520       -38.2461 
  72   1.0000      -1.401156       -38.1274 
  73   1.0000      -1.387309       -37.7506 
  74   1.0000      -1.369288       -37.2602 
  75   1.0000      -1.348811       -36.7030 
  76   1.0000      -1.341129       -36.4940 
  77   1.0000      -1.302466       -35.4419 
  78   1.0000      -1.297094       -35.2957 
  79   1.0000      -1.285685       -34.9853 
  80   1.0000      -1.278606       -34.7926 
  81   1.0000      -1.143718       -31.1222 
  82   1.0000      -1.133007       -30.8307 
  83   1.0000      -1.131012       -30.7764 
  84   1.0000      -1.130648       -30.7665 
  85   1.0000      -1.117758       -30.4157 
  86   1.0000      -1.109260       -30.1845 
  87   1.0000      -1.077893       -29.3310 
  88   1.0000      -1.045487       -28.4491 
  89   1.0000      -1.041602       -28.3434 
  90   1.0000      -1.024782       -27.8857 
  91   1.0000      -0.993527       -27.0353 
  92   1.0000      -0.987296       -26.8657 
  93   1.0000      -0.981529       -26.7088 
  94   1.0000      -0.976866       -26.5819 
  95   1.0000      -0.967687       -26.3321 
  96   1.0000      -0.963587       -26.2205 
  97   1.0000      -0.962293       -26.1853 
  98   1.0000      -0.956653       -26.0318 
  99   1.0000      -0.956290       -26.0220 
 100   1.0000      -0.952442       -25.9173 
 101   1.0000      -0.950525       -25.8651 
 102   1.0000      -0.944976       -25.7141 
 103   1.0000      -0.936677       -25.4883 
 104   1.0000      -0.927686       -25.2436 
 105   1.0000      -0.923209       -25.1218 
 106   1.0000      -0.918850       -25.0032 
 107   1.0000      -0.907965       -24.7070 
 108   1.0000      -0.905252       -24.6332 
 109   1.0000      -0.900603       -24.5067 
 110   1.0000      -0.885138       -24.0858 
 111   1.0000      -0.879189       -23.9240 
 112   1.0000      -0.870239       -23.6804 
 113   1.0000      -0.868610       -23.6361 
 114   1.0000      -0.857461       -23.3327 
 115   1.0000      -0.845084       -22.9959 
 116   1.0000      -0.836153       -22.7529 
 117   1.0000      -0.807850       -21.9827 
 118   1.0000      -0.802068       -21.8254 
 119   1.0000      -0.782114       -21.2824 
 120   1.0000      -0.775170       -21.0935 
 121   1.0000      -0.762558       -20.7503 
 122   1.0000      -0.752105       -20.4658 
 123   1.0000      -0.749574       -20.3969 
 124   1.0000      -0.746388       -20.3102 
 125   1.0000      -0.739109       -20.1122 
 126   1.0000      -0.738909       -20.1067 
 127   1.0000      -0.735029       -20.0011 
 128   1.0000      -0.731366       -19.9015 
 129   1.0000      -0.728799       -19.8316 
 130   1.0000      -0.727808       -19.8047 
 131   1.0000      -0.722858       -19.6700 
 132   1.0000      -0.720645       -19.6098 
 133   1.0000      -0.719382       -19.5754 
 134   1.0000      -0.715412       -19.4674 
 135   1.0000      -0.713824       -19.4241 
 136   1.0000      -0.711887       -19.3714 
 137   1.0000      -0.710708       -19.3394 
 138   1.0000      -0.709344       -19.3022 
 139   1.0000      -0.701292       -19.0831 
 140   1.0000      -0.700506       -19.0617 
 141   1.0000      -0.698492       -19.0069 
 142   1.0000      -0.698036       -18.9945 
 143   1.0000      -0.697311       -18.9748 
 144   1.0000      -0.694826       -18.9072 
 145   1.0000      -0.689640       -18.7660 
 146   1.0000      -0.685348       -18.6493 
 147   1.0000      -0.680107       -18.5066 
 148   1.0000      -0.676503       -18.4086 
 149   1.0000      -0.674518       -18.3546 
 150   1.0000      -0.666745       -18.1431 
 151   1.0000      -0.658186       -17.9102 
 152   1.0000      -0.651112       -17.7177 
 153   1.0000      -0.645650       -17.5690 
 154   1.0000      -0.641647       -17.4601 
 155   1.0000      -0.634949       -17.2778 
 156   1.0000      -0.632269       -17.2049 
 157   1.0000      -0.626728       -17.0541 
 158   1.0000      -0.623901       -16.9772 
 159   1.0000      -0.619504       -16.8576 
 160   1.0000      -0.614730       -16.7277 
 161   1.0000      -0.611256       -16.6331 
 162   1.0000      -0.604260       -16.4427 
 163   1.0000      -0.601921       -16.3791 
 164   1.0000      -0.585131       -15.9222 
 165   1.0000      -0.583463       -15.8768 
 166   1.0000      -0.576916       -15.6987 
 167   1.0000      -0.567997       -15.4560 
 168   1.0000      -0.558982       -15.2107 
 169   1.0000      -0.555866       -15.1259 
 170   1.0000      -0.551253       -15.0004 
 171   1.0000      -0.545526       -14.8445 
 172   1.0000      -0.542325       -14.7574 
 173   1.0000      -0.541891       -14.7456 
 174   1.0000      -0.535986       -14.5849 
 175   1.0000      -0.533646       -14.5212 
 176   1.0000      -0.528129       -14.3711 
 177   1.0000      -0.519880       -14.1466 
 178   1.0000      -0.519367       -14.1327 
 179   1.0000      -0.515201       -14.0193 
 180   1.0000      -0.508242       -13.8300 
 181   1.0000      -0.505765       -13.7626 
 182   1.0000      -0.496814       -13.5190 
 183   1.0000      -0.492592       -13.4041 
 184   1.0000      -0.485526       -13.2118 
 185   1.0000      -0.484559       -13.1855 
 186   1.0000      -0.479747       -13.0546 
 187   1.0000      -0.456131       -12.4120 
 188   1.0000      -0.446245       -12.1430 
 189   1.0000      -0.445484       -12.1222 
 190   1.0000      -0.441735       -12.0202 
 191   1.0000      -0.437044       -11.8926 
 192   1.0000      -0.427532       -11.6337 
 193   1.0000      -0.419759       -11.4222 
 194   0.0000       0.014003         0.3811 
 195   0.0000       0.025548         0.6952 
 196   0.0000       0.032153         0.8749 
 197   0.0000       0.033809         0.9200 
 198   0.0000       0.040611         1.1051 
 199   0.0000       0.042134         1.1465 
 200   0.0000       0.045399         1.2354 
 201   0.0000       0.052581         1.4308 
 202   0.0000       0.058126         1.5817 
 203   0.0000       0.062886         1.7112 
 204   0.0000       0.064671         1.7598 
 205   0.0000       0.069114         1.8807 
 206   0.0000       0.071378         1.9423 
 207   0.0000       0.078723         2.1422 
 208   0.0000       0.079270         2.1571 
 209   0.0000       0.079914         2.1746 
 210   0.0000       0.085382         2.3234 
 211   0.0000       0.089184         2.4268 
 212   0.0000       0.091938         2.5018 
 213   0.0000       0.093055         2.5322 
 214   0.0000       0.098417         2.6781 
 215   0.0000       0.099598         2.7102 
 216   0.0000       0.101264         2.7555 
 217   0.0000       0.105077         2.8593 
 218   0.0000       0.107864         2.9351 
 219   0.0000       0.111913         3.0453 
 220   0.0000       0.114477         3.1151 
 221   0.0000       0.118632         3.2281 
 222   0.0000       0.122507         3.3336 
 223   0.0000       0.133009         3.6193 
 224   0.0000       0.135108         3.6765 
 225   0.0000       0.141231         3.8431 
 226   0.0000       0.147026         4.0008 
 227   0.0000       0.150706         4.1009 
 228   0.0000       0.154940         4.2161 
 229   0.0000       0.159112         4.3297 
 230   0.0000       0.161188         4.3861 
 231   0.0000       0.165385         4.5004 
 232   0.0000       0.169185         4.6038 
 233   0.0000       0.171759         4.6738 
 234   0.0000       0.175079         4.7641 
 235   0.0000       0.176720         4.8088 
 236   0.0000       0.180855         4.9213 
 237   0.0000       0.182877         4.9763 
 238   0.0000       0.189879         5.1669 
 239   0.0000       0.194249         5.2858 
 240   0.0000       0.195792         5.3278 
 241   0.0000       0.199876         5.4389 
 242   0.0000       0.200150         5.4464 
 243   0.0000       0.206752         5.6260 
 244   0.0000       0.209979         5.7138 
 245   0.0000       0.212243         5.7754 
 246   0.0000       0.215665         5.8685 
 247   0.0000       0.219466         5.9720 
 248   0.0000       0.219786         5.9807 
 249   0.0000       0.227761         6.1977 
 250   0.0000       0.231169         6.2904 
 251   0.0000       0.232121         6.3163 
 252   0.0000       0.237909         6.4738 
 253   0.0000       0.240332         6.5398 
 254   0.0000       0.243117         6.6156 
 255   0.0000       0.247577         6.7369 
 256   0.0000       0.249251         6.7825 
 257   0.0000       0.250200         6.8083 
 258   0.0000       0.254852         6.9349 
 259   0.0000       0.259246         7.0545 
 260   0.0000       0.262412         7.1406 
 261   0.0000       0.263744         7.1769 
 262   0.0000       0.269015         7.3203 
 263   0.0000       0.271350         7.3838 
 264   0.0000       0.274718         7.4755 
 265   0.0000       0.277931         7.5629 
 266   0.0000       0.280312         7.6277 
 267   0.0000       0.283437         7.7127 
 268   0.0000       0.284653         7.7458 
 269   0.0000       0.289268         7.8714 
 270   0.0000       0.291132         7.9221 
 271   0.0000       0.292122         7.9491 
 272   0.0000       0.295265         8.0346 
 273   0.0000       0.299588         8.1522 
 274   0.0000       0.300533         8.1779 
 275   0.0000       0.303738         8.2651 
 276   0.0000       0.304812         8.2944 
 277   0.0000       0.308244         8.3877 
 278   0.0000       0.314491         8.5577 
 279   0.0000       0.316864         8.6223 
 280   0.0000       0.319934         8.7059 
 281   0.0000       0.320946         8.7334 
 282   0.0000       0.325187         8.8488 
 283   0.0000       0.326168         8.8755 
 284   0.0000       0.329712         8.9719 
 285   0.0000       0.338156         9.2017 
 286   0.0000       0.342190         9.3115 
 287   0.0000       0.343956         9.3595 
 288   0.0000       0.345350         9.3974 
 289   0.0000       0.350785         9.5453 
 290   0.0000       0.352746         9.5987 
 291   0.0000       0.361329         9.8323 
 292   0.0000       0.363198         9.8831 
 293   0.0000       0.366168         9.9639 
 294   0.0000       0.371588        10.1114 
 295   0.0000       0.375520        10.2184 
 296   0.0000       0.380454        10.3527 
 297   0.0000       0.383735        10.4420 
 298   0.0000       0.385002        10.4764 
 299   0.0000       0.388666        10.5761 
 300   0.0000       0.394422        10.7328 
 301   0.0000       0.397896        10.8273 
 302   0.0000       0.399669        10.8755 
 303   0.0000       0.401522        10.9260 
 304   0.0000       0.404835        11.0161 
 305   0.0000       0.409835        11.1522 
 306   0.0000       0.413121        11.2416 
 307   0.0000       0.416292        11.3279 
 308   0.0000       0.420344        11.4381 
 309   0.0000       0.421945        11.4817 
 310   0.0000       0.425444        11.5769 
 311   0.0000       0.426828        11.6146 
 312   0.0000       0.428689        11.6652 
 313   0.0000       0.431771        11.7491 
 314   0.0000       0.434644        11.8273 
 315   0.0000       0.437794        11.9130 
 316   0.0000       0.439465        11.9584 
 317   0.0000       0.442408        12.0385 
 318   0.0000       0.445370        12.1191 
 319   0.0000       0.447479        12.1765 
 320   0.0000       0.450499        12.2587 
 321   0.0000       0.450823        12.2675 
 322   0.0000       0.452259        12.3066 
 323   0.0000       0.455233        12.3875 
 324   0.0000       0.456866        12.4319 
 325   0.0000       0.458713        12.4822 
 326   0.0000       0.460260        12.5243 
 327   0.0000       0.464022        12.6267 
 328   0.0000       0.467189        12.7129 
 329   0.0000       0.468525        12.7492 
 330   0.0000       0.470992        12.8163 
 331   0.0000       0.473231        12.8773 
 332   0.0000       0.475580        12.9412 
 333   0.0000       0.479089        13.0367 
 334   0.0000       0.480272        13.0689 
 335   0.0000       0.483764        13.1639 
 336   0.0000       0.486967        13.2511 
 337   0.0000       0.489226        13.3125 
 338   0.0000       0.490942        13.3592 
 339   0.0000       0.492280        13.3956 
 340   0.0000       0.495806        13.4916 
 341   0.0000       0.497728        13.5439 
 342   0.0000       0.500160        13.6100 
 343   0.0000       0.502154        13.6643 
 344   0.0000       0.503166        13.6918 
 345   0.0000       0.506806        13.7909 
 346   0.0000       0.510994        13.9049 
 347   0.0000       0.513513        13.9734 
 348   0.0000       0.514117        13.9898 
 349   0.0000       0.519378        14.1330 
 350   0.0000       0.521177        14.1819 
 351   0.0000       0.522342        14.2137 
 352   0.0000       0.525427        14.2976 
 353   0.0000       0.527566        14.3558 
 354   0.0000       0.532288        14.4843 
 355   0.0000       0.534976        14.5574 
 356   0.0000       0.537917        14.6375 
 357   0.0000       0.541915        14.7463 
 358   0.0000       0.542079        14.7507 
 359   0.0000       0.542299        14.7567 
 360   0.0000       0.547501        14.8982 
 361   0.0000       0.550348        14.9757 
 362   0.0000       0.552592        15.0368 
 363   0.0000       0.554230        15.0814 
 364   0.0000       0.556178        15.1344 
 365   0.0000       0.559249        15.2179 
 366   0.0000       0.561251        15.2724 
 367   0.0000       0.564814        15.3694 
 368   0.0000       0.565040        15.3755 
 369   0.0000       0.568877        15.4799 
 370   0.0000       0.570343        15.5198 
 371   0.0000       0.571899        15.5622 
 372   0.0000       0.577965        15.7272 
 373   0.0000       0.580399        15.7935 
 374   0.0000       0.581850        15.8329 
 375   0.0000       0.583364        15.8741 
 376   0.0000       0.587732        15.9930 
 377   0.0000       0.591374        16.0921 
 378   0.0000       0.592924        16.1343 
 379   0.0000       0.598227        16.2786 
 380   0.0000       0.601521        16.3682 
 381   0.0000       0.602374        16.3914 
 382   0.0000       0.605171        16.4675 
 383   0.0000       0.608383        16.5549 
 384   0.0000       0.612741        16.6735 
 385   0.0000       0.614018        16.7083 
 386   0.0000       0.616799        16.7839 
 387   0.0000       0.618863        16.8401 
 388   0.0000       0.624752        17.0004 
 389   0.0000       0.628506        17.1025 
 390   0.0000       0.630079        17.1453 
 391   0.0000       0.630344        17.1525 
 392   0.0000       0.633098        17.2275 
 393   0.0000       0.640633        17.4325 
 394   0.0000       0.642518        17.4838 
 395   0.0000       0.644879        17.5481 
 396   0.0000       0.647878        17.6297 
 397   0.0000       0.652131        17.7454 
 398   0.0000       0.654617        17.8130 
 399   0.0000       0.655535        17.8380 
 400   0.0000       0.660600        17.9758 
 401   0.0000       0.662262        18.0211 
 402   0.0000       0.665993        18.1226 
 403   0.0000       0.666801        18.1446 
 404   0.0000       0.668857        18.2005 
 405   0.0000       0.675705        18.3869 
 406   0.0000       0.677065        18.4239 
 407   0.0000       0.677521        18.4363 
 408   0.0000       0.682274        18.5656 
 409   0.0000       0.686866        18.6906 
 410   0.0000       0.691067        18.8049 
 411   0.0000       0.696295        18.9472 
 412   0.0000       0.697295        18.9744 
 413   0.0000       0.700536        19.0626 
 414   0.0000       0.701739        19.0953 
 415   0.0000       0.704740        19.1770 
 416   0.0000       0.707447        19.2506 
 417   0.0000       0.709942        19.3185 
 418   0.0000       0.712799        19.3962 
 419   0.0000       0.714048        19.4302 
 420   0.0000       0.717207        19.5162 
 421   0.0000       0.718230        19.5440 
 422   0.0000       0.723676        19.6922 
 423   0.0000       0.724970        19.7274 
 424   0.0000       0.727033        19.7836 
 425   0.0000       0.730375        19.8745 
 426   0.0000       0.732384        19.9292 
 427   0.0000       0.736297        20.0357 
 428   0.0000       0.739183        20.1142 
 429   0.0000       0.746493        20.3131 
 430   0.0000       0.749102        20.3841 
 431   0.0000       0.752069        20.4649 
 432   0.0000       0.756909        20.5965 
 433   0.0000       0.760923        20.7058 
 434   0.0000       0.763819        20.7846 
 435   0.0000       0.766982        20.8706 
 436   0.0000       0.769725        20.9453 
 437   0.0000       0.774262        21.0688 
 438   0.0000       0.777837        21.1660 
 439   0.0000       0.782212        21.2851 
 440   0.0000       0.787593        21.4315 
 441   0.0000       0.789152        21.4739 
 442   0.0000       0.793035        21.5796 
 443   0.0000       0.796064        21.6620 
 444   0.0000       0.798629        21.7318 
 445   0.0000       0.801877        21.8202 
 446   0.0000       0.805534        21.9197 
 447   0.0000       0.810537        22.0558 
 448   0.0000       0.813486        22.1361 
 449   0.0000       0.820912        22.3381 
 450   0.0000       0.823900        22.4195 
 451   0.0000       0.825757        22.4700 
 452   0.0000       0.831560        22.6279 
 453   0.0000       0.835611        22.7381 
 454   0.0000       0.838952        22.8291 
 455   0.0000       0.844391        22.9770 
 456   0.0000       0.850550        23.1446 
 457   0.0000       0.852301        23.1923 
 458   0.0000       0.856646        23.3105 
 459   0.0000       0.858976        23.3739 
 460   0.0000       0.860056        23.4033 
 461   0.0000       0.864054        23.5121 
 462   0.0000       0.868194        23.6248 
 463   0.0000       0.874083        23.7850 
 464   0.0000       0.878506        23.9054 
 465   0.0000       0.881951        23.9991 
 466   0.0000       0.884374        24.0650 
 467   0.0000       0.887814        24.1587 
 468   0.0000       0.892221        24.2786 
 469   0.0000       0.892476        24.2855 
 470   0.0000       0.896425        24.3930 
 471   0.0000       0.903334        24.5810 
 472   0.0000       0.906445        24.6656 
 473   0.0000       0.908292        24.7159 
 474   0.0000       0.911409        24.8007 
 475   0.0000       0.920817        25.0567 
 476   0.0000       0.923253        25.1230 
 477   0.0000       0.926311        25.2062 
 478   0.0000       0.934951        25.4413 
 479   0.0000       0.938327        25.5332 
 480   0.0000       0.942178        25.6380 
 481   0.0000       0.943699        25.6794 
 482   0.0000       0.949532        25.8381 
 483   0.0000       0.955947        26.0126 
 484   0.0000       0.959508        26.1095 
 485   0.0000       0.961258        26.1572 
 486   0.0000       0.965234        26.2654 
 487   0.0000       0.966838        26.3090 
 488   0.0000       0.970564        26.4104 
 489   0.0000       0.974298        26.5120 
 490   0.0000       0.977742        26.6057 
 491   0.0000       0.985314        26.8117 
 492   0.0000       0.988197        26.8902 
 493   0.0000       0.992636        27.0110 
 494   0.0000       0.996933        27.1279 
 495   0.0000       1.000066        27.2132 
 496   0.0000       1.003461        27.3056 
 497   0.0000       1.005648        27.3651 
 498   0.0000       1.013189        27.5703 
 499   0.0000       1.014982        27.6191 
 500   0.0000       1.023653        27.8550 
 501   0.0000       1.027868        27.9697 
 502   0.0000       1.034833        28.1592 
 503   0.0000       1.035230        28.1700 
 504   0.0000       1.040217        28.3058 
 505   0.0000       1.047009        28.4906 
 506   0.0000       1.047220        28.4963 
 507   0.0000       1.052484        28.6395 
 508   0.0000       1.053289        28.6614 
 509   0.0000       1.059113        28.8199 
 510   0.0000       1.064962        28.9791 
 511   0.0000       1.065834        29.0028 
 512   0.0000       1.071259        29.1504 
 513   0.0000       1.074294        29.2330 
 514   0.0000       1.075414        29.2635 
 515   0.0000       1.077100        29.3094 
 516   0.0000       1.085017        29.5248 
 517   0.0000       1.091320        29.6963 
 518   0.0000       1.094400        29.7802 
 519   0.0000       1.102649        30.0046 
 520   0.0000       1.105958        30.0946 
 521   0.0000       1.107627        30.1401 
 522   0.0000       1.112584        30.2749 
 523   0.0000       1.114550        30.3285 
 524   0.0000       1.117020        30.3957 
 525   0.0000       1.122995        30.5582 
 526   0.0000       1.125673        30.6311 
 527   0.0000       1.128711        30.7138 
 528   0.0000       1.130802        30.7707 
 529   0.0000       1.132609        30.8199 
 530   0.0000       1.135412        30.8961 
 531   0.0000       1.139757        31.0144 
 532   0.0000       1.145207        31.1627 
 533   0.0000       1.148243        31.2453 
 534   0.0000       1.150785        31.3145 
 535   0.0000       1.152226        31.3537 
 536   0.0000       1.154640        31.4193 
 537   0.0000       1.158090        31.5132 
 538   0.0000       1.163513        31.6608 
 539   0.0000       1.174787        31.9676 
 540   0.0000       1.177744        32.0480 
 541   0.0000       1.186992        32.2997 
 542   0.0000       1.191175        32.4135 
 543   0.0000       1.194799        32.5121 
 544   0.0000       1.197121        32.5753 
 545   0.0000       1.203989        32.7622 
 546   0.0000       1.207669        32.8623 
[...]
      dx2y2   :    -0.000003
      dxy     :    -0.000002
      f0      :    -0.000000  f :     0.000000
      f+1     :     0.000000
      f-1     :     0.000000
      f+2     :    -0.000000
      f-2     :    -0.000000
      f+3     :    -0.000000
      f-3     :     0.000000
 59 O s       :     0.004719  s :     0.004719
      pz      :     0.004199  p :     0.022299
      px      :     0.014380
      py      :     0.003720
      dz2     :     0.000003  d :     0.000737
      dxz     :     0.000326
      dyz     :     0.000007
      dx2y2   :     0.000010
      dxy     :     0.000391
      f0      :     0.000010  f :     0.000044
      f+1     :     0.000001
      f-1     :    -0.000004
      f+2     :     0.000007
      f-2     :     0.000011
      f+3     :     0.000002
      f-3     :     0.000017
 60 H s       :    -0.000160  s :    -0.000160
      pz      :    -0.000116  p :    -0.000346
      px      :    -0.000059
      py      :    -0.000172
 61 H s       :    -0.000210  s :    -0.000210
      pz      :     0.000008  p :     0.000023
      px      :    -0.000004
      py      :     0.000020
 62 H s       :    -0.000073  s :    -0.000073
      pz      :    -0.000001  p :     0.000003
      px      :     0.000003
      py      :     0.000000
 63 H s       :    -0.000003  s :    -0.000003
      pz      :     0.000000  p :    -0.000000
      px      :    -0.000000
      py      :    -0.000000
 64 H s       :    -0.000035  s :    -0.000035
      pz      :    -0.000001  p :     0.000004
      px      :     0.000006
      py      :    -0.000001
 65 H s       :    -0.000139  s :    -0.000139
      pz      :    -0.000007  p :     0.000007
      px      :    -0.000005
      py      :     0.000019
 66 H s       :    -0.000001  s :    -0.000001
      pz      :    -0.000001  p :    -0.000001
      px      :     0.000001
      py      :    -0.000001
 67 H s       :    -0.000011  s :    -0.000011
      pz      :     0.000001  p :     0.000005
      px      :     0.000002
      py      :     0.000002
 68 H s       :    -0.000005  s :    -0.000005
      pz      :    -0.000000  p :     0.000001
      px      :     0.000001
      py      :     0.000000
 69 H s       :    -0.000047  s :    -0.000047
      pz      :     0.000002  p :     0.000003
      px      :     0.000001
      py      :     0.000000
 70 H s       :    -0.000539  s :    -0.000539
      pz      :     0.000089  p :     0.000650
      px      :     0.000297
      py      :     0.000264
 71 O s       :     0.019474  s :     0.019474
      pz      :     0.077553  p :     0.499675
      px      :     0.002793
      py      :     0.419329
      dz2     :     0.000428  d :     0.011900
      dxz     :    -0.000028
      dyz     :     0.000373
      dx2y2   :     0.002548
      dxy     :     0.008578
      f0      :     0.000081  f :     0.001919
      f+1     :     0.000130
      f-1     :     0.000038
      f+2     :     0.000185
      f-2     :     0.000395
      f+3     :    -0.000031
      f-3     :     0.001122
 72 O s       :     0.019629  s :     0.019629
      pz      :     0.086788  p :     0.589030
      px      :    -0.006388
      py      :     0.508630
      dz2     :    -0.000341  d :     0.010703
      dxz     :     0.001297
      dyz     :     0.001466
      dx2y2   :     0.002689
      dxy     :     0.005591
      f0      :     0.000036  f :     0.001624
      f+1     :     0.000223
      f-1     :     0.000027
      f+2     :     0.000089
      f-2     :     0.000349
      f+3     :    -0.000037
      f-3     :     0.000937
 73 H s       :    -0.000461  s :    -0.000461
      pz      :     0.000146  p :     0.000360
      px      :     0.000140
      py      :     0.000074
 74 H s       :    -0.000520  s :    -0.000520
      pz      :     0.000135  p :     0.000401
      px      :     0.000195
      py      :     0.000071
 75 H s       :     0.000222  s :     0.000222
      pz      :     0.000002  p :     0.000040
      px      :     0.000033
      py      :     0.000005
 76 H s       :    -0.000155  s :    -0.000155
      pz      :     0.000047  p :     0.000168
      px      :     0.000033
      py      :     0.000087
 77 H s       :    -0.000108  s :    -0.000108
      pz      :     0.000063  p :     0.000139
      px      :     0.000046
      py      :     0.000029
 78 H s       :    -0.000098  s :    -0.000098
      pz      :     0.000022  p :     0.000040
      px      :     0.000006
      py      :     0.000012


                      *****************************
                      * MAYER POPULATION ANALYSIS *
                      *****************************

  NA   - Mulliken gross atomic population
  ZA   - Total nuclear charge
  QA   - Mulliken gross atomic charge
  VA   - Mayer's total valence
  BVA  - Mayer's bonded valence
  FA   - Mayer's free valence

  ATOM       NA         ZA         QA         VA         BVA        FA
  0 C      6.0459     6.0000    -0.0459     3.8455     3.8453     0.0002
  1 N      7.3260     7.0000    -0.3260     3.3146     3.3146     0.0000
  2 H      0.7076     1.0000     0.2924     0.9189     0.9189     0.0000
  3 C      5.8269     6.0000     0.1731     3.8833     3.8832     0.0001
  4 H      0.7891     1.0000     0.2109     0.9731     0.9731     0.0000
  5 N      7.2641     7.0000    -0.2641     3.1129     3.1118     0.0011
  6 C      6.0537     6.0000    -0.0537     3.9437     3.9435     0.0002
  7 H      0.8111     1.0000     0.1889     0.9750     0.9750     0.0000
  8 C      6.0993     6.0000    -0.0993     3.9008     3.9005     0.0003
  9 N      7.3213     7.0000    -0.3213     3.3275     3.3275     0.0000
 10 H      0.7120     1.0000     0.2880     0.9221     0.9221     0.0000
 11 C      5.8288     6.0000     0.1712     3.9686     3.9683     0.0003
 12 H      0.8101     1.0000     0.1899     0.9569     0.9569     0.0000
 13 N      7.2598     7.0000    -0.2598     2.9126     2.9105     0.0021
 14 C      6.0014     6.0000    -0.0014     3.9360     3.9357     0.0003
 15 H      0.8249     1.0000     0.1751     0.9493     0.9493     0.0000
 16 C      6.3629     6.0000    -0.3629     3.9151     3.9151     0.0000
 17 H      0.8663     1.0000     0.1337     0.9746     0.9746     0.0000
 18 H      0.8524     1.0000     0.1476     0.9720     0.9720     0.0000
 19 C      5.2796     6.0000     0.7204     3.8171     3.8170     0.0001
 20 O      8.7178     8.0000    -0.7178     1.6360     1.6344     0.0016
 21 O      8.6167     8.0000    -0.6167     1.7230     1.7219     0.0011
 22 C      6.0530     6.0000    -0.0530     3.8865     3.8864     0.0001
 23 N      7.3308     7.0000    -0.3308     3.3565     3.3565     0.0000
 24 H      0.7048     1.0000     0.2952     0.9185     0.9185     0.0000
 25 C      5.7756     6.0000     0.2244     3.9408     3.9408     0.0001
 26 H      0.8239     1.0000     0.1761     0.9726     0.9726     0.0000
 27 N      7.3544     7.0000    -0.3544     2.9240     2.9226     0.0014
 28 C      6.0564     6.0000    -0.0564     3.9155     3.9155     0.0001
 29 H      0.8143     1.0000     0.1857     0.9747     0.9747     0.0000
 30 C      6.0525     6.0000    -0.0525     3.8913     3.8913     0.0000
 31 N      7.3311     7.0000    -0.3311     3.3504     3.3504     0.0000
 32 H      0.7067     1.0000     0.2933     0.9192     0.9192     0.0000
 33 C      5.8131     6.0000     0.1869     3.9157     3.9157     0.0000
 34 H      0.7943     1.0000     0.2057     0.9520     0.9520     0.0000
 35 N      7.3500     7.0000    -0.3500     2.9863     2.9850     0.0012
 36 C      6.0672     6.0000    -0.0672     3.8669     3.8668     0.0000
 37 H      0.7715     1.0000     0.2285     0.9858     0.9858     0.0000
 38 C      6.3318     6.0000    -0.3318     3.9219     3.9218     0.0000
 39 H      0.8923     1.0000     0.1077     0.9749     0.9749     0.0000
 40 H      0.8554     1.0000     0.1446     0.9778     0.9778     0.0000
 41 C      5.3596     6.0000     0.6404     3.9481     3.9481     0.0000
 42 O      8.6651     8.0000    -0.6651     1.6376     1.6360     0.0017
 43 O      8.6864     8.0000    -0.6864     1.7401     1.7401     0.0000
 44 Fe    24.6607    26.0000     1.3393     7.4187     2.8398     4.5789
 45 Fe    24.6801    26.0000     1.3199     7.4314     2.8369     4.5946
 46 O      9.1136     8.0000    -1.1136     1.1095     1.1028     0.0067
 47 H      0.5762     1.0000     0.4238     0.9148     0.9148     0.0000
 48 C      5.7246     6.0000     0.2754     3.7136     3.7136     0.0000
 49 C      5.8897     6.0000     0.1103     4.0885     4.0885     0.0000
 50 C      5.8424     6.0000     0.1576     3.9000     3.9000     0.0000
 51 C      5.8966     6.0000     0.1034     4.0545     4.0545     0.0000
 52 C      5.9054     6.0000     0.0946     4.1694     4.1694     0.0000
 53 C      5.8834     6.0000     0.1166     3.8597     3.8597     0.0000
 54 O      8.7607     8.0000    -0.7607     1.5527     1.5450     0.0077
 55 O      8.5769     8.0000    -0.5769     1.8493     1.8493     0.0000
 56 O      8.5220     8.0000    -0.5220     1.8707     1.8707     0.0000
 57 O      8.4879     8.0000    -0.4879     1.8870     1.8870     0.0000
 58 O      8.5471     8.0000    -0.5471     1.8197     1.8197     0.0000
 59 O      8.5717     8.0000    -0.5717     1.6984     1.6973     0.0011
 60 H      0.8923     1.0000     0.1077     0.9920     0.9920     0.0000
 61 H      0.8959     1.0000     0.1041     0.9646     0.9646     0.0000
 62 H      0.9135     1.0000     0.0865     0.9810     0.9810     0.0000
 63 H      0.9254     1.0000     0.0746     0.9929     0.9929     0.0000
 64 H      0.9066     1.0000     0.0934     0.9936     0.9936     0.0000
 65 H      0.9350     1.0000     0.0650     0.9823     0.9823     0.0000
 66 H      0.6537     1.0000     0.3463     0.8896     0.8896     0.0000
 67 H      0.6660     1.0000     0.3340     0.8982     0.8982     0.0000
 68 H      0.6998     1.0000     0.3002     0.9244     0.9244     0.0000
 69 H      0.6791     1.0000     0.3209     0.9169     0.9169     0.0000
 70 H      0.6218     1.0000     0.3782     0.8691     0.8691     0.0000
 71 O      8.3076     8.0000    -0.3076     1.8048     1.5342     0.2705
 72 O      8.2821     8.0000    -0.2821     1.7986     1.4182     0.3804
 73 H      0.8157     1.0000     0.1843     0.9715     0.9715     0.0000
 74 H      0.8236     1.0000     0.1764     0.9761     0.9761     0.0000
 75 H      0.8773     1.0000     0.1227     0.9716     0.9716     0.0000
 76 H      0.8085     1.0000     0.1915     0.9702     0.9702     0.0000
 77 H      0.8063     1.0000     0.1937     0.9690     0.9690     0.0000
 78 H      0.8831     1.0000     0.1169     0.9691     0.9691     0.0000

  Mayer bond orders larger than 0.100000
B(  0-C ,  1-N ) :   1.1175 B(  0-C ,  6-C ) :   1.7262 B(  0-C , 73-H ) :   0.9478 
B(  1-N ,  2-H ) :   0.8943 B(  1-N ,  3-C ) :   1.3096 B(  3-C ,  4-H ) :   0.9507 
B(  3-C ,  5-N ) :   1.4887 B(  5-N ,  6-C ) :   1.1839 B(  5-N , 44-Fe) :   0.5801 
B(  6-C ,  7-H ) :   0.9626 B(  8-C ,  9-N ) :   1.1478 B(  8-C , 14-C ) :   1.7193 
B(  8-C , 74-H ) :   0.9518 B(  9-N , 10-H ) :   0.8964 B(  9-N , 11-C ) :   1.3057 
B( 11-C , 12-H ) :   0.9584 B( 11-C , 13-N ) :   1.5443 B( 13-N , 14-C ) :   1.1994 
B( 13-N , 44-Fe) :   0.4110 B( 14-C , 15-H ) :   0.9664 B( 16-C , 17-H ) :   0.9936 
B( 16-C , 18-H ) :   0.9627 B( 16-C , 19-C ) :   0.9664 B( 16-C , 75-H ) :   0.9834 
B( 19-C , 20-O ) :   1.3304 B( 19-C , 21-O ) :   1.5125 B( 20-O , 45-Fe) :   0.4190 
B( 21-O , 44-Fe) :   0.3027 B( 22-C , 23-N ) :   1.1277 B( 22-C , 28-C ) :   1.7374 
B( 22-C , 76-H ) :   0.9468 B( 23-N , 24-H ) :   0.8930 B( 23-N , 25-C ) :   1.3323 
B( 25-C , 26-H ) :   0.9546 B( 25-C , 27-N ) :   1.4903 B( 27-N , 28-C ) :   1.1938 
B( 27-N , 45-Fe) :   0.4164 B( 28-C , 29-H ) :   0.9647 B( 30-C , 31-N ) :   1.1326 
B( 30-C , 36-C ) :   1.7446 B( 30-C , 77-H ) :   0.9424 B( 31-N , 32-H ) :   0.8933 
B( 31-N , 33-C ) :   1.3305 B( 33-C , 34-H ) :   0.9531 B( 33-C , 35-N ) :   1.4887 
B( 35-N , 36-C ) :   1.1764 B( 35-N , 45-Fe) :   0.4773 B( 36-C , 37-H ) :   0.9264 
B( 38-C , 39-H ) :   0.9563 B( 38-C , 40-H ) :   0.9939 B( 38-C , 41-C ) :   0.9841 
B( 38-C , 78-H ) :   0.9849 B( 41-C , 42-O ) :   1.3721 B( 41-C , 43-O ) :   1.5756 
B( 42-O , 44-Fe) :   0.4131 B( 43-O , 47-H ) :   0.1270 B( 44-Fe, 46-O ) :   0.2643 
B( 44-Fe, 71-O ) :   0.4505 B( 44-Fe, 72-O ) :   0.3120 B( 45-Fe, 46-O ) :   0.3667 
B( 45-Fe, 54-O ) :   0.7495 B( 45-Fe, 59-O ) :   0.2320 B( 46-O , 47-H ) :   0.7426 
B( 48-C , 49-C ) :   0.9342 B( 48-C , 53-C ) :   0.9945 B( 48-C , 54-O ) :   0.8403 
B( 48-C , 60-H ) :   0.9934 B( 49-C , 50-C ) :   0.9729 B( 49-C , 55-O ) :   1.0764 
B( 49-C , 61-H ) :   0.9718 B( 50-C , 51-C ) :   0.9757 B( 50-C , 56-O ) :   0.9884 
B( 50-C , 62-H ) :   0.9975 B( 51-C , 52-C ) :   1.0146 B( 51-C , 57-O ) :   0.9785 
B( 51-C , 63-H ) :   0.9851 B( 52-C , 53-C ) :   1.0004 B( 52-C , 58-O ) :   0.9531 
B( 52-C , 64-H ) :   0.9916 B( 53-C , 59-O ) :   0.7057 B( 53-C , 65-H ) :   0.9866 
B( 55-O , 66-H ) :   0.8794 B( 56-O , 67-H ) :   0.8802 B( 57-O , 68-H ) :   0.8923 
B( 58-O , 69-H ) :   0.8809 B( 59-O , 70-H ) :   0.8412 B( 71-O , 72-O ) :   1.1684 


-------
TIMINGS
-------

Total SCF time: 0 days 5 hours 52 min 32 sec 

Total time                  ....   21152.701 sec
Sum of individual times     ....   21134.741 sec  ( 99.9%)

Fock matrix formation       ....   21000.932 sec  ( 99.3%)
Diagonalization             ....      50.272 sec  (  0.2%)
Density matrix formation    ....       5.934 sec  (  0.0%)
Population analysis         ....       1.755 sec  (  0.0%)
Initial guess               ....       3.324 sec  (  0.0%)
Orbital Transformation      ....      18.801 sec  (  0.1%)
Orbital Orthonormalization  ....       0.000 sec  (  0.0%)
DIIS solution               ....      52.743 sec  (  0.2%)

Maximum memory used throughout the entire SCF-calculation: 452.1 MB

-------------------------   --------------------
FINAL SINGLE POINT ENERGY     -4787.438560237624
-------------------------   --------------------


                            ***************************************
                            *     ORCA property calculations      *
                            ***************************************

                                    ---------------------
                                    Active property flags
                                    ---------------------
   (+) Dipole Moment


------------------------------------------------------------------------------
                       ORCA ELECTRIC PROPERTIES CALCULATION
------------------------------------------------------------------------------

Dipole Moment Calculation                       ... on
Quadrupole Moment Calculation                   ... off
Polarizability Calculation                      ... off
GBWName                                         ... /scratch/RC2-highspin_985/RC2-highspin.gbw
Electron density file                           ... /scratch/RC2-highspin_985/RC2-highspin.scfp
The origin for moment calculation is the CENTER OF MASS  = (80.282014, 89.286797 72.193302)

-------------
DIPOLE MOMENT
-------------
                                X             Y             Z
Electronic contribution:     -7.79841       6.09680      -7.60336
Nuclear contribution   :      2.82395      -8.54805       3.28465
                        -----------------------------------------
Total Dipole Moment    :     -4.97447      -2.45125      -4.31870
                        -----------------------------------------
Magnitude (a.u.)       :      7.02888
Magnitude (Debye)      :     17.86599



--------------------
Rotational spectrum 
--------------------
 
Rotational constants in cm-1:     0.002821     0.001898     0.001592 
Rotational constants in MHz :    84.561491    56.909288    47.739255 

 Dipole components along the rotational axes: 
x,y,z [a.u.] :    -2.899776    -6.366095     0.685049 
x,y,z [Debye]:    -7.370645   -16.181326     1.741256 

 
--------------------------------------------------------------------------
WARNING: There was an error initializing an OpenFabrics device.

  Local host:   cnode03
  Local device: mlx5_0
--------------------------------------------------------------------------
[cnode03:284557] 15 more processes have sent help message help-mpi-btl-openib.txt / error in device init
[cnode03:284557] Set MCA parameter "orte_base_help_aggregate" to 0 to see all help / error messages

Timings for individual modules:

Sum of individual times         ...    21156.790 sec (= 352.613 min)
GTO integral calculation        ...        3.220 sec (=   0.054 min)   0.0 %
SCF iterations                  ...    21153.570 sec (= 352.560 min) 100.0 %
                             ****ORCA TERMINATED NORMALLY****
TOTAL RUN TIME: 0 days 5 hours 52 minutes 38 seconds 369 msec

Sender: Unischeduler System <lcz@mgt01>
Subject: Job 132514: <#!/bin/bash
#BSUB -J intel
#BSUB -o RC2-highspin.out
#BSUB -n 16
#BSUB -q cqueue
export LD_LIBRARY_PATH=/apps/software/openmpi-4.1.1/lib:/apps/software/orca_5_0_0:$LD_LIBRARY_PATH
export PATH=/apps/software/openmpi-4.1.1/bin:/apps/software/orca_5_0_0:$PATH
mkdir /scratch/RC2-highspin_985
scp $USER@mgt01:/apps/users/lcz/newexe8/exe8/task3/RC2/HF/RC2-highspin.inp /scratch/RC2-highspin_985
/apps/software/orca_5_0_0/orca /scratch/RC2-highspin_985/RC2-highspin.inp >& RC2-highspin.out
scp /scratch/RC2-highspin_985/*.gbw $USER@mgt01:/apps/users/lcz/newexe8/exe8/task3/RC2/HF
scp /scratch/RC2-highspin_985/*.xyz $USER@mgt01:/apps/users/lcz/newexe8/exe8/task3/RC2/HF
scp /scratch/RC2-highspin_985/*.trj $USER@mgt01:/apps/users/lcz/newexe8/exe8/task3/RC2/HF> Exited

Job <#!/bin/bash
#BSUB -J intel
#BSUB -o RC2-highspin.out
#BSUB -n 16
#BSUB -q cqueue
export LD_LIBRARY_PATH=/apps/software/openmpi-4.1.1/lib:/apps/software/orca_5_0_0:$LD_LIBRARY_PATH
export PATH=/apps/software/openmpi-4.1.1/bin:/apps/software/orca_5_0_0:$PATH
mkdir /scratch/RC2-highspin_985
scp $USER@mgt01:/apps/users/lcz/newexe8/exe8/task3/RC2/HF/RC2-highspin.inp /scratch/RC2-highspin_985
/apps/software/orca_5_0_0/orca /scratch/RC2-highspin_985/RC2-highspin.inp >& RC2-highspin.out
scp /scratch/RC2-highspin_985/*.gbw $USER@mgt01:/apps/users/lcz/newexe8/exe8/task3/RC2/HF
scp /scratch/RC2-highspin_985/*.xyz $USER@mgt01:/apps/users/lcz/newexe8/exe8/task3/RC2/HF
scp /scratch/RC2-highspin_985/*.trj $USER@mgt01:/apps/users/lcz/newexe8/exe8/task3/RC2/HF> was submitted from host <mgt01> by user <lcz>.
Job was executed on host(s) <16*cnode03>, in queue <cqueue>, as user <lcz>.
</apps/users/lcz> was used as the home directory.
</apps/users/lcz/newexe8/exe8/task3/RC2/HF> was used as the working directory.
Started at 2022-05-16 15:14:15
Results reported at 2022-05-16 21:06:56

Your job looked like:

------------------------------------------------------------
# User input
#!/bin/bash
#BSUB -J intel
#BSUB -o RC2-highspin.out
#BSUB -n 16
#BSUB -q cqueue
export LD_LIBRARY_PATH=/apps/software/openmpi-4.1.1/lib:/apps/software/orca_5_0_0:$LD_LIBRARY_PATH
export PATH=/apps/software/openmpi-4.1.1/bin:/apps/software/orca_5_0_0:$PATH
mkdir /scratch/RC2-highspin_985
scp $USER@mgt01:/apps/users/lcz/newexe8/exe8/task3/RC2/HF/RC2-highspin.inp /scratch/RC2-highspin_985
/apps/software/orca_5_0_0/orca /scratch/RC2-highspin_985/RC2-highspin.inp >& RC2-highspin.out
scp /scratch/RC2-highspin_985/*.gbw $USER@mgt01:/apps/users/lcz/newexe8/exe8/task3/RC2/HF
scp /scratch/RC2-highspin_985/*.xyz $USER@mgt01:/apps/users/lcz/newexe8/exe8/task3/RC2/HF
scp /scratch/RC2-highspin_985/*.trj $USER@mgt01:/apps/users/lcz/newexe8/exe8/task3/RC2/HF
------------------------------------------------------------

Exited with exit code 1.

Resource usage summary:

    CPU time   :       337831.48 sec.
    Max Memory :             11401 MB
    Max Processes  :              21


The output (if any) follows:

/scratch/RC2-highspin_985/*.xyz: No such file or directory
/scratch/RC2-highspin_985/*.trj: No such file or directory
