
                                        *****************
                                        * O   R   C   A *
                                        *****************

                                            #,                                       
                                            ###                                      
                                            ####                                     
                                            #####                                    
                                            ######                                   
                                           ########,                                 
                                     ,,################,,,,,                         
                               ,,#################################,,                 
                          ,,##########################################,,             
                       ,#########################################, ''#####,          
                    ,#############################################,,   '####,        
                  ,##################################################,,,,####,       
                ,###########''''           ''''###############################       
              ,#####''   ,,,,##########,,,,          '''####'''          '####       
            ,##' ,,,,###########################,,,                        '##       
           ' ,,###''''                  '''############,,,                           
         ,,##''                                '''############,,,,        ,,,,,,###''
      ,#''                                            '''#######################'''  
     '                                                          ''''####''''         
             ,#######,   #######,   ,#######,      ##                                
            ,#'     '#,  ##    ##  ,#'     '#,    #''#        ######   ,####,        
            ##       ##  ##   ,#'  ##            #'  '#       #        #'  '#        
            ##       ##  #######   ##           ,######,      #####,   #    #        
            '#,     ,#'  ##    ##  '#,     ,#' ,#      #,         ##   #,  ,#        
             '#######'   ##     ##  '#######'  #'      '#     #####' # '####'        



                  #######################################################
                  #                        -***-                        #
                  #          Department of theory and spectroscopy      #
                  #    Directorship and core code : Frank Neese         #
                  #        Max Planck Institute fuer Kohlenforschung    #
                  #                Kaiser Wilhelm Platz 1               #
                  #                 D-45470 Muelheim/Ruhr               #
                  #                      Germany                        #
                  #                                                     #
                  #                  All rights reserved                #
                  #                        -***-                        #
                  #######################################################


                         Program Version 5.0.0 -  RELEASE  -
                                (SVN: $Rev: 19529$)
                ($Date: 2021-06-28 11:36:33 +0200 (Mo, 28 Jun 2021) $)


 With contributions from (in alphabetic order):
   Daniel Aravena         : Magnetic Suceptibility
   Michael Atanasov       : Ab Initio Ligand Field Theory (pilot matlab implementation)
   Alexander A. Auer      : GIAO ZORA, VPT2 properties, NMR spectrum
   Ute Becker             : Parallelization
   Giovanni Bistoni       : ED, misc. LED, open-shell LED, HFLD
   Martin Brehm           : Molecular dynamics
   Dmytro Bykov           : SCF Hessian
   Vijay G. Chilkuri      : MRCI spin determinant printing, contributions to CSF-ICE
   Dipayan Datta          : RHF DLPNO-CCSD density
   Achintya Kumar Dutta   : EOM-CC, STEOM-CC
   Dmitry Ganyushin       : Spin-Orbit,Spin-Spin,Magnetic field MRCI
   Miquel Garcia          : C-PCM Hessian, Gaussian charge scheme
   Yang Guo               : DLPNO-NEVPT2, F12-NEVPT2, CIM, IAO-localization
   Andreas Hansen         : Spin unrestricted coupled pair/coupled cluster methods
   Benjamin Helmich-Paris : MC-RPA, TRAH-SCF, COSX integrals
   Lee Huntington         : MR-EOM, pCC
   Robert Izsak           : Overlap fitted RIJCOSX, COSX-SCS-MP3, EOM
   Marcus Kettner         : VPT2
   Christian Kollmar      : KDIIS, OOCD, Brueckner-CCSD(T), CCSD density, CASPT2, CASPT2-K
   Simone Kossmann        : Meta GGA functionals, TD-DFT gradient, OOMP2, MP2 Hessian
   Martin Krupicka        : Initial AUTO-CI
   Lucas Lang             : DCDCAS
   Marvin Lechner         : AUTO-CI (C++ implementation), FIC-MRCC
   Dagmar Lenk            : GEPOL surface, SMD
   Dimitrios Liakos       : Extrapolation schemes; Compound Job, initial MDCI parallelization
   Dimitrios Manganas     : Further ROCIS development; embedding schemes
   Dimitrios Pantazis     : SARC Basis sets
   Anastasios Papadopoulos: AUTO-CI, single reference methods and gradients
   Taras Petrenko         : DFT Hessian,TD-DFT gradient, ASA, ECA, R-Raman, ABS, FL, XAS/XES, NRVS
   Peter Pinski           : DLPNO-MP2, DLPNO-MP2 Gradient
   Christoph Reimann      : Effective Core Potentials
   Marius Retegan         : Local ZFS, SOC
   Christoph Riplinger    : Optimizer, TS searches, QM/MM, DLPNO-CCSD(T), (RO)-DLPNO pert. Triples
   Tobias Risthaus        : Range-separated hybrids, TD-DFT gradient, RPA, STAB
   Michael Roemelt        : Original ROCIS implementation
   Masaaki Saitow         : Open-shell DLPNO-CCSD energy and density
   Barbara Sandhoefer     : DKH picture change effects
   Avijit Sen             : IP-ROCIS
   Kantharuban Sivalingam : CASSCF convergence, NEVPT2, FIC-MRCI
   Bernardo de Souza      : ESD, SOC TD-DFT
   Georgi Stoychev        : AutoAux, RI-MP2 NMR
   Willem Van den Heuvel  : Paramagnetic NMR
   Boris Wezisla          : Elementary symmetry handling
   Frank Wennmohs         : Technical directorship


 We gratefully acknowledge several colleagues who have allowed us to
 interface, adapt or use parts of their codes:
   Stefan Grimme, W. Hujo, H. Kruse, P. Pracht,  : VdW corrections, initial TS optimization,
                  C. Bannwarth, S. Ehlert          DFT functionals, gCP, sTDA/sTD-DF
   Ed Valeev, F. Pavosevic, A. Kumar             : LibInt (2-el integral package), F12 methods
   Garnet Chan, S. Sharma, J. Yang, R. Olivares  : DMRG
   Ulf Ekstrom                                   : XCFun DFT Library
   Mihaly Kallay                                 : mrcc  (arbitrary order and MRCC methods)
   Jiri Pittner, Ondrej Demel                    : Mk-CCSD
   Frank Weinhold                                : gennbo (NPA and NBO analysis)
   Christopher J. Cramer and Donald G. Truhlar   : smd solvation model
   Lars Goerigk                                  : TD-DFT with DH, B97 family of functionals
   V. Asgeirsson, H. Jonsson                     : NEB implementation
   FAccTs GmbH                                   : IRC, NEB, NEB-TS, DLPNO-Multilevel, CI-OPT
                                                   MM, QMMM, 2- and 3-layer-ONIOM, Crystal-QMMM,
                                                   LR-CPCM, SF, NACMEs, symmetry and pop. for TD-DFT,
                                                   nearIR, NL-DFT gradient (VV10), updates on ESD,
                                                   ML-optimized integration grids
   S Lehtola, MJT Oliveira, MAL Marques          : LibXC Library
   Liviu Ungur et al                             : ANISO software


 Your calculation uses the libint2 library for the computation of 2-el integrals
 For citations please refer to: http://libint.valeyev.net

 Your ORCA version has been built with support for libXC version: 5.1.0
 For citations please refer to: https://tddft.org/programs/libxc/

 This ORCA versions uses:
   CBLAS   interface :  Fast vector & matrix operations
   LAPACKE interface :  Fast linear algebra routines
   SCALAPACK package :  Parallel linear algebra routines
   Shared memory     :  Shared parallel matrices
   BLAS/LAPACK       :  OpenBLAS 0.3.15  USE64BITINT DYNAMIC_ARCH NO_AFFINITY SkylakeX SINGLE_THREADED
        Core in use  :  SkylakeX
   Copyright (c) 2011-2014, The OpenBLAS Project


================================================================================

----- Orbital basis set information -----
Your calculation utilizes the basis: def2-TZVP
   F. Weigend and R. Ahlrichs, Phys. Chem. Chem. Phys. 7, 3297 (2005).

================================================================================
                                        WARNINGS
                       Please study these warnings very carefully!
================================================================================


WARNING: Broken symmetry calculations need fully converged wavefunctions
  ===> : Setting SCFConvForced true
         You can overwrite this default with %scf ConvForced false 


INFO   : the flag for use of the SHARK integral package has been found!

================================================================================
                                       INPUT FILE
================================================================================
NAME = /scratch/RC2-flipspin_867/RC2-flipspin.inp
|  1> !UHF def2-TZVP Slowconv NoTrah NoRI VeryTightSCF
|  2> !MOread
|  3> 
|  4> %pal
|  5>     nprocs          16
|  6> end
|  7> 
|  8> %moinp "RC2-highspin.gbw"
|  9> 
| 10> %scf
| 11>     MaxIter         500
| 12>     FlipSpin        44
| 13>     FinalMs         0.5
| 14> end
| 15> 
| 16> *xyz +1 12
| 17>  C		41.75734		53.28449		36.46919
| 18>  N		42.79051		53.11573		35.57330
| 19>  H		43.17228		53.83016		34.93276
| 20>  C		43.13470		51.81354		35.56329
| 21>  H		43.91258		51.37948		34.93820
| 22>  N		42.38034		51.13480		36.42217
| 23>  C		41.51102		52.03696		36.99860
| 24>  H		40.83095		51.72793		37.79245
| 25>  C		40.09781		47.27650		33.80529
| 26>  N		40.02170		48.59447		33.39932
| 27>  H		39.44553		49.01241		32.66056
| 28>  C		40.82359		49.32561		34.20213
| 29>  H		40.95446		50.40104		34.10028
| 30>  N		41.40873		48.54956		35.10172
| 31>  C		40.96816		47.26932		34.87055
| 32>  H		41.28796		46.44831		35.50461
| 33>  C		38.24452		48.45120		37.81512
| 34>  H		38.05954		49.38046		37.26339
| 35>  H		37.98665		48.64263		38.86852
| 36>  C		39.72949		48.13040		37.79333
| 37>  O		40.09429		46.93627		38.07351
| 38>  O		40.51997		49.08118		37.60316
| 39>  C		38.64927		43.85206		40.73245
| 40>  N		39.75373		43.46182		41.46772
| 41>  H		39.79496		42.88382		42.31310
| 42>  C		40.85618		43.95072		40.86918
| 43>  H		41.86248		43.73518		41.21408
| 44>  N		40.53224		44.65285		39.79009
| 45>  C		39.15837		44.58557		39.68680
| 46>  H		38.64146		45.07274		38.87046
| 47>  C		42.78261		43.20374		35.50847
| 48>  N		41.70457		42.56369		36.07793
| 49>  H		41.38806		41.60804		35.87571
| 50>  C		41.22829		43.34611		37.06176
| 51>  H		40.41508		43.05921		37.72131
| 52>  N		41.93561		44.46974		37.14515
| 53>  C		42.91935		44.39163		36.18162
| 54>  H		43.65310		45.17946		36.03202
| 55>  C		45.76058		48.09668		34.01433
| 56>  H		45.12510		47.65198		33.22625
| 57>  H		46.65442		47.46412		34.10910
| 58>  C		44.94912		48.01873		35.29961
| 59>  O		44.13484		48.94943		35.55949
| 60>  O		45.08257		46.97820		36.01440
| 61>  Fe		42.54704		49.05340		36.88791
| 62>  Fe		41.81454		46.03362		38.62691
| 63>  O		42.83673		47.18336		37.38865
| 64>  H		43.73372		46.94370		37.02075
| 65>  C		43.49278		47.06016		40.65639
| 66>  C		43.63065		47.67500		42.05411
| 67>  C		45.10402		47.59104		42.50255
| 68>  C		45.62433		46.15327		42.46003
| 69>  C		45.40442		45.48020		41.08199
| 70>  C		43.93248		45.59938		40.69958
| 71>  O		42.19054		47.11944		40.15943
| 72>  O		42.78039		47.01168		42.97373
| 73>  O		45.28803		48.11581		43.80122
| 74>  O		46.99863		46.17840		42.81016
| 75>  O		45.74779		44.11749		41.08768
| 76>  O		43.60537		45.05344		39.42059
| 77>  H		44.16891		47.60985		39.96716
| 78>  H		43.37366		48.74650		41.98883
| 79>  H		45.70535		48.16646		41.76817
| 80>  H		45.03997		45.57270		43.19200
| 81>  H		46.02107		46.03839		40.34306
| 82>  H		43.34294		45.09136		41.47918
| 83>  H		42.11013		47.68750		43.28882
| 84>  H		45.23162		49.11556		43.72066
| 85>  H		47.38293		45.25457		42.73301
| 86>  H		46.61533		43.98339		41.55425
| 87>  H		43.52006		44.03995		39.45021
| 88>  O		42.85959		49.69549		38.87779
| 89>  O		44.06259		49.60890		38.41687
| 90>  H		41.30606		54.24869		36.70311
| 91>  H		39.55759		46.43186		33.37773
| 92>  H		37.59815		47.66320		37.42867
| 93>  H		37.60541		43.64578		40.96882
| 94>  H		43.42741		42.77068		34.74377
| 95>  H		46.04094		49.08905		33.66124
| 96> *
| 97> 
| 98>                          ****END OF INPUT****
================================================================================

                       ****************************
                       * Single Point Calculation *
                       ****************************

---------------------------------
CARTESIAN COORDINATES (ANGSTROEM)
---------------------------------
  C     41.757340   53.284490   36.469190
  N     42.790510   53.115730   35.573300
  H     43.172280   53.830160   34.932760
  C     43.134700   51.813540   35.563290
  H     43.912580   51.379480   34.938200
  N     42.380340   51.134800   36.422170
  C     41.511020   52.036960   36.998600
  H     40.830950   51.727930   37.792450
  C     40.097810   47.276500   33.805290
  N     40.021700   48.594470   33.399320
  H     39.445530   49.012410   32.660560
  C     40.823590   49.325610   34.202130
  H     40.954460   50.401040   34.100280
  N     41.408730   48.549560   35.101720
  C     40.968160   47.269320   34.870550
  H     41.287960   46.448310   35.504610
  C     38.244520   48.451200   37.815120
  H     38.059540   49.380460   37.263390
  H     37.986650   48.642630   38.868520
  C     39.729490   48.130400   37.793330
  O     40.094290   46.936270   38.073510
  O     40.519970   49.081180   37.603160
  C     38.649270   43.852060   40.732450
  N     39.753730   43.461820   41.467720
  H     39.794960   42.883820   42.313100
  C     40.856180   43.950720   40.869180
  H     41.862480   43.735180   41.214080
  N     40.532240   44.652850   39.790090
  C     39.158370   44.585570   39.686800
  H     38.641460   45.072740   38.870460
  C     42.782610   43.203740   35.508470
  N     41.704570   42.563690   36.077930
  H     41.388060   41.608040   35.875710
  C     41.228290   43.346110   37.061760
  H     40.415080   43.059210   37.721310
  N     41.935610   44.469740   37.145150
  C     42.919350   44.391630   36.181620
  H     43.653100   45.179460   36.032020
  C     45.760580   48.096680   34.014330
  H     45.125100   47.651980   33.226250
  H     46.654420   47.464120   34.109100
  C     44.949120   48.018730   35.299610
  O     44.134840   48.949430   35.559490
  O     45.082570   46.978200   36.014400
  Fe    42.547040   49.053400   36.887910
  Fe    41.814540   46.033620   38.626910
  O     42.836730   47.183360   37.388650
  H     43.733720   46.943700   37.020750
  C     43.492780   47.060160   40.656390
  C     43.630650   47.675000   42.054110
  C     45.104020   47.591040   42.502550
  C     45.624330   46.153270   42.460030
  C     45.404420   45.480200   41.081990
  C     43.932480   45.599380   40.699580
  O     42.190540   47.119440   40.159430
  O     42.780390   47.011680   42.973730
  O     45.288030   48.115810   43.801220
  O     46.998630   46.178400   42.810160
  O     45.747790   44.117490   41.087680
  O     43.605370   45.053440   39.420590
  H     44.168910   47.609850   39.967160
  H     43.373660   48.746500   41.988830
  H     45.705350   48.166460   41.768170
  H     45.039970   45.572700   43.192000
  H     46.021070   46.038390   40.343060
  H     43.342940   45.091360   41.479180
  H     42.110130   47.687500   43.288820
  H     45.231620   49.115560   43.720660
  H     47.382930   45.254570   42.733010
  H     46.615330   43.983390   41.554250
  H     43.520060   44.039950   39.450210
  O     42.859590   49.695490   38.877790
  O     44.062590   49.608900   38.416870
  H     41.306060   54.248690   36.703110
  H     39.557590   46.431860   33.377730
  H     37.598150   47.663200   37.428670
  H     37.605410   43.645780   40.968820
  H     43.427410   42.770680   34.743770
  H     46.040940   49.089050   33.661240

----------------------------
CARTESIAN COORDINATES (A.U.)
----------------------------
  NO LB      ZA    FRAG     MASS         X           Y           Z
   0 C     6.0000    0    12.011   78.909937  100.693093   68.916781
   1 N     7.0000    0    14.007   80.862345  100.374183   67.223795
   2 H     1.0000    0     1.008   81.583786  101.724260   66.013350
   3 C     6.0000    0    12.011   81.512770   97.913401   67.204879
   4 H     1.0000    0     1.008   82.982750   97.093146   66.023630
   5 N     7.0000    0    14.007   80.087236   96.630768   68.827927
   6 C     6.0000    0    12.011   78.444459   98.335603   69.917221
   7 H     1.0000    0     1.008   77.159313   97.751621   71.417380
   8 C     6.0000    0    12.011   75.773879   89.339638   63.882740
   9 N     7.0000    0    14.007   75.630052   91.830240   63.115568
  10 H     1.0000    0     1.008   74.541249   92.620032   61.719514
  11 C     6.0000    0    12.011   77.145405   93.211894   64.632659
  12 H     1.0000    0     1.008   77.392713   95.244162   64.440190
  13 N     7.0000    0    14.007   78.251159   91.745372   66.332638
  14 C     6.0000    0    12.011   77.418603   89.326069   65.895790
  15 H     1.0000    0     1.008   78.022937   87.774585   67.093989
  16 C     6.0000    0    12.011   72.271669   91.559499   71.460221
  17 H     1.0000    0     1.008   71.922107   93.315546   70.417602
  18 H     1.0000    0     1.008   71.784365   91.921249   73.450858
  19 C     6.0000    0    12.011   75.077856   90.953275   71.419043
  20 O     8.0000    0    15.999   75.767228   88.696696   71.948507
  21 O     8.0000    0    15.999   76.571646   92.749989   71.059674
  22 C     6.0000    0    12.011   73.036536   82.868384   76.973175
  23 N     7.0000    0    14.007   75.123663   82.130937   78.362634
  24 H     1.0000    0     1.008   75.201576   81.038675   79.960171
  25 C     6.0000    0    12.011   77.206991   83.054824   77.231558
  26 H     1.0000    0     1.008   79.108622   82.647513   77.883324
  27 N     7.0000    0    14.007   76.594833   84.381658   75.192373
  28 C     6.0000    0    12.011   73.998595   84.254517   74.997183
  29 H     1.0000    0     1.008   73.021777   85.175135   73.454524
  30 C     6.0000    0    12.011   80.847416   81.643237   67.101284
  31 N     7.0000    0    14.007   78.810216   80.433717   68.177407
  32 H     1.0000    0     1.008   78.212099   78.627801   67.795267
  33 C     6.0000    0    12.011   77.910177   81.912277   70.036576
  34 H     1.0000    0     1.008   76.373433   81.370114   71.282945
  35 N     7.0000    0    14.007   79.246818   84.035630   70.194161
  36 C     6.0000    0    12.011   81.105817   83.888023   68.373353
  37 H     1.0000    0     1.008   82.492404   85.376806   68.090650
  38 C     6.0000    0    12.011   86.474964   90.889553   64.277768
  39 H     1.0000    0     1.008   85.274081   90.049192   62.788513
  40 H     1.0000    0     1.008   88.164077   89.694188   64.456858
  41 C     6.0000    0    12.011   84.941527   90.742249   66.706596
  42 O     8.0000    0    15.999   83.402761   92.501017   67.197698
  43 O     8.0000    0    15.999   85.193711   88.775932   68.057353
  44 Fe   26.0000    0    55.850   80.402253   92.697492   69.708048
  45 Fe   26.0000    0    55.850   79.018029   86.990935   72.994281
  46 O     8.0000    0    15.999   80.949688   89.163628   70.654309
  47 H     1.0000    0     1.008   82.644754   88.710737   69.959079
  48 C     6.0000    0    12.011   82.189443   88.930814   76.829443
  49 C     6.0000    0    12.011   82.449980   90.092693   79.470751
  50 C     6.0000    0    12.011   85.234245   89.934032   80.318179
  51 C     6.0000    0    12.011   86.217489   87.217040   80.237828
  52 C     6.0000    0    12.011   85.801919   85.945123   77.633710
  53 C     6.0000    0    12.011   83.020356   86.170340   76.911060
  54 O     8.0000    0    15.999   79.728566   89.042837   75.890324
  55 O     8.0000    0    15.999   80.843221   88.839200   81.208581
  56 O     8.0000    0    15.999   85.581974   90.925704   82.772310
  57 O     8.0000    0    15.999   88.814539   87.264529   80.899478
  58 O     8.0000    0    15.999   86.450794   83.369974   77.644463
  59 O     8.0000    0    15.999   82.402207   85.138663   74.494119
  60 H     1.0000    0     1.008   83.467144   89.969578   75.526987
  61 H     1.0000    0     1.008   81.964339   92.117535   79.347389
  62 H     1.0000    0     1.008   86.370594   91.021418   78.930402
  63 H     1.0000    0     1.008   85.113208   86.119922   81.621051
  64 H     1.0000    0     1.008   86.967219   86.999949   76.237335
  65 H     1.0000    0     1.008   81.906286   85.210321   78.384290
  66 H     1.0000    0     1.008   79.576613   90.116315   81.804014
  67 H     1.0000    0     1.008   85.475374   92.814957   82.620074
  68 H     1.0000    0     1.008   89.540761   85.518744   80.753686
  69 H     1.0000    0     1.008   88.090207   83.116562   78.526152
  70 H     1.0000    0     1.008   82.240995   83.223444   74.550093
  71 O     8.0000    0    15.999   80.992887   93.910866   73.468376
  72 O     8.0000    0    15.999   83.266228   93.747235   72.597363
  73 H     1.0000    0     1.008   78.057141  102.515167   69.358826
  74 H     1.0000    0     1.008   74.753012   87.743499   63.074769
  75 H     1.0000    0     1.008   71.050207   90.070395   70.729936
  76 H     1.0000    0     1.008   71.063926   82.478571   77.419850
  77 H     1.0000    0     1.008   82.065912   80.824872   65.656210
  78 H     1.0000    0     1.008   87.004768   92.764861   63.610525

--------------------------------
INTERNAL COORDINATES (ANGSTROEM)
--------------------------------
 C      0   0   0     0.000000000000     0.00000000     0.00000000
 N      1   0   0     1.377874841413     0.00000000     0.00000000
 H      2   1   0     1.032690684281   126.56690754     0.00000000
 C      2   1   3     1.346946826085   108.35158006   186.56018908
 H      4   2   1     1.088229243358   124.92766287   178.98437847
 N      4   2   1     1.329444188975   110.10748531   359.35947821
 C      1   2   3     1.377417725819   105.84666528   173.99902137
 H      7   1   2     1.090042461696   130.40979987   174.90689854
 C      6   4   2     5.190807550401   107.65597249   124.41301292
 N      9   6   4     1.381176778657    57.52939409   306.92484037
 H     10   9   6     1.025871361380   129.15152137   189.01941182
 C     10   9   6     1.349850794644   108.01764599     6.20346507
 H     12  10   9     1.088140645459   123.44233235   179.77801141
 N     12  10   9     1.324350629629   110.43018933   359.92760131
 C     14  12  10     1.373519548969   106.86653561     0.00000000
 H     15  14  12     1.085523626505   120.80761376   181.82736043
 C     14  12  10     4.169465094434    96.92506748   277.32786463
 H     17  14  12     1.096424981884    77.32412073   336.25796610
 H     17  14  12     1.101269241285   142.75857726   234.54965608
 C     17  14  12     1.519382553869    41.74938597   195.88908203
 O     20  17  14     1.279658676874   118.19707780   239.17921252
 O     20  17  14     1.251001945522   117.34051995    64.59710379
 C     21  20  17     4.320925369420   134.86787992   326.07680708
 N     23  21  20     1.383018843726   105.15859614   231.81570289
 H     24  23  21     1.024915243959   129.03282297   167.49683015
 C     24  23  21     1.346354093134   108.36712514   346.04559810
 H     26  24  23     1.085381588014   123.07933143   183.89869231
 N     26  24  23     1.327538658044   110.70834564     0.70912672
 C     23  21  20     1.374992237287    13.45045254   140.58425548
 H     29  23  24     1.082100527955   129.56906142   179.60030123
 C     16  15  14     3.572286103744   144.17769988   233.79635781
 N     31  16  15     1.376996345565    95.45465794   240.67009495
 H     32  31  16     1.026809831955   126.33332646   145.36367549
 C     32  31  16     1.344226604297   108.03007121   318.18916445
 H     34  32  31     1.085646497070   123.79488349   183.95187621
 N     34  32  31     1.330338246988   110.43305053     0.80083441
 C     31  16  15     1.372192188507    41.92271004   132.55488454
 H     37  31  16     1.086943113231   128.84480837   259.96734611
 C      5   4   2     3.878842045882   144.58232096   179.62505438
 H     39   5   4     1.105740931141   103.66947843    86.57997890
 H     39   5   4     1.099119398473   148.64845069   257.47756316
 C     39   5   4     1.522001383869    65.68191657   345.01328108
 O     42  39   5     1.263642363487   118.65344313    12.11235222
 O     42  39   5     1.269423620191   117.47984728   188.43130010
 Fe    43  42  39     2.072828574026   131.47951446   163.21136705
 Fe    21  20  17     2.019972436693   136.03436399   197.76568162
 O     45  43  42     1.957475528659    90.15243816   356.96668550
 H     47  45  43     0.998688332614   105.54179856    13.49314191
 C     46  21  20     2.826493046091   122.68845254    46.63948465
 C     49  46  21     1.533185429392   148.60727908    44.27832165
 C     50  49  46     1.542389987033   109.21568117   165.04840333
 C     51  50  49     1.529612048658   111.59362003   304.14512468
 C     52  51  50     1.549315292186   112.63064217    53.36196156
 C     53  52  51     1.525466697146   109.02556304   306.58945733
 O     49  46  21     1.395102998922    37.38531499    19.26663124
 O     50  49  46     1.417263713781   110.48127529    42.63886663
 O     51  50  49     1.412723257365   111.80654919   181.38722744
 O     52  51  50     1.418422723944   107.82206950   176.67090476
 O     53  52  51     1.405316290769   112.51821496   186.53375912
 O     54  53  52     1.428589113706   114.55182161   178.00140537
 H     49  46  21     1.111012540838    95.48583514   264.82311977
 H     50  49  46     1.103819545261   108.32633262   281.25979141
 H     51  50  49     1.109963931711   107.27332604    60.48064646
 H     52  51  50     1.101961077080   107.23974806   296.32603153
 H     53  52  51     1.112587454315   107.10399959    64.64625203
 H     54  53  52     1.101552491713   107.63570455   300.10753198
 H     56  50  49     1.002627970934   106.82791102   243.83497053
 H     57  51  50     1.004575564206   106.77670987   285.55335149
 H     58  52  51     1.003543960871   109.61780637   183.64752810
 H     59  53  52     0.994130789434   110.23829718   315.21720152
 H     60  54  53     1.017505341804   111.94898443    79.10026779
 O     45  43  42     2.114140365491   120.34424512    88.88161015
 O     72  45  43     1.291183207179    77.37200598   352.74349713
 H      1   2   3     1.089978827684   123.94054873   351.18175040
 H      9   6   4     1.089982537291   172.60394341   180.52973945
 H     17  14  12     1.089991641895   103.67159097    83.58905266
 H     23  21  20     1.089984364521   126.07201173    35.85243795
 H     31  16  15     1.089988116266   127.41709390    23.06269607
 H     39   5   4     1.089987382771    55.19134929   187.28548628

---------------------------
INTERNAL COORDINATES (A.U.)
---------------------------
 C      0   0   0     0.000000000000     0.00000000     0.00000000
 N      1   0   0     2.603806097091     0.00000000     0.00000000
 H      2   1   0     1.951502574342   126.56690754     0.00000000
 C      2   1   3     2.545360618255   108.35158006   186.56018908
 H      4   2   1     2.056455240871   124.92766287   178.98437847
 N      4   2   1     2.512285427496   110.10748531   359.35947821
 C      1   2   3     2.602942273806   105.84666528   173.99902137
 H      7   1   2     2.059881726951   130.40979987   174.90689854
 C      6   4   2     9.809204684149   107.65597249   124.41301292
 N      9   6   4     2.610045854192    57.52939409   306.92484037
 H     10   9   6     1.938615921641   129.15152137   189.01941182
 C     10   9   6     2.550848323532   108.01764599     6.20346507
 H     12  10   9     2.056287815106   123.44233235   179.77801141
 N     12  10   9     2.502659995286   110.43018933   359.92760131
 C     14  12  10     2.595575787138   106.86653561     0.00000000
 H     15  14  12     2.051342365995   120.80761376   181.82736043
 C     14  12  10     7.879147153424    96.92506748   277.32786463
 H     17  14  12     2.071942942151    77.32412073   336.25796610
 H     17  14  12     2.081097265740   142.75857726   234.54965608
 C     17  14  12     2.871216919469    41.74938597   195.88908203
 O     20  17  14     2.418204444189   118.19707780   239.17921252
 O     20  17  14     2.364051070039   117.34051995    64.59710379
 C     21  20  17     8.165365593317   134.86787992   326.07680708
 N     23  21  20     2.613526852694   105.15859614   231.81570289
 H     24  23  21     1.936809121564   129.03282297   167.49683015
 C     24  23  21     2.544240515308   108.36712514   346.04559810
 H     26  24  23     2.051073952147   123.07933143   183.89869231
 N     26  24  23     2.508684495896   110.70834564     0.70912672
 C     23  21  20     2.598358764740    13.45045254   140.58425548
 H     29  23  24     2.044873647206   129.56906142   179.60030123
 C     16  15  14     6.750642408088   144.17769988   233.79635781
 N     31  16  15     2.602145980529    95.45465794   240.67009495
 H     32  31  16     1.940389374013   126.33332646   145.36367549
 C     32  31  16     2.540220144052   108.03007121   318.18916445
 H     34  32  31     2.051574557713   123.79488349   183.95187621
 N     34  32  31     2.513974952289   110.43305053     0.80083441
 C     31  16  15     2.593067439385    41.92271004   132.55488454
 H     37  31  16     2.054024807158   128.84480837   259.96734611
 C      5   4   2     7.329949183455   144.58232096   179.62505438
 H     39   5   4     2.089547534923   103.66947843    86.57997890
 H     39   5   4     2.077034651595   148.64845069   257.47756316
 C     39   5   4     2.876165790962    65.68191657   345.01328108
 O     42  39   5     2.387937998212   118.65344313    12.11235222
 O     42  39   5     2.398862990093   117.47984728   188.43130010
 Fe    43  42  39     3.917078327476   131.47951446   163.21136705
 Fe    21  20  17     3.817194703420   136.03436399   197.76568162
 O     45  43  42     3.699092663019    90.15243816   356.96668550
 H     47  45  43     1.887247441784   105.54179856    13.49314191
 C     46  21  20     5.341297776545   122.68845254    46.63948465
 C     49  46  21     2.897300574069   148.60727908    44.27832165
 C     50  49  46     2.914694667195   109.21568117   165.04840333
 C     51  50  49     2.890547863110   111.59362003   304.14512468
 C     52  51  50     2.927781597327   112.63064217    53.36196156
 C     53  52  51     2.882714284022   109.02556304   306.58945733
 O     49  46  21     2.636362596574    37.38531499    19.26663124
 O     50  49  46     2.678240278590   110.48127529    42.63886663
 O     51  50  49     2.669660059441   111.80654919   181.38722744
 O     52  51  50     2.680430490384   107.82206950   176.67090476
 O     53  52  51     2.655662921091   112.51821496   186.53375912
 O     54  53  52     2.699642182806   114.55182161   178.00140537
 H     49  46  21     2.099509433536    95.48583514   264.82311977
 H     50  49  46     2.085916641813   108.32633262   281.25979141
 H     51  50  49     2.097527849465   107.27332604    60.48064646
 H     52  51  50     2.082404645923   107.23974806   296.32603153
 H     53  52  51     2.102485588693   107.10399959    64.64625203
 H     54  53  52     2.081632531477   107.63570455   300.10753198
 H     56  50  49     1.894692279275   106.82791102   243.83497053
 H     57  51  50     1.898372697179   106.77670987   285.55335149
 H     58  52  51     1.896423249396   109.61780637   183.64752810
 H     59  53  52     1.878634933329   110.23829718   315.21720152
 H     60  54  53     1.922806435812   111.94898443    79.10026779
 O     45  43  42     3.995146299447   120.34424512    88.88161015
 O     72  45  43     2.439982650286    77.37200598   352.74349713
 H      1   2   3     2.059761476096   123.94054873   351.18175040
 H      9   6   4     2.059768486237   172.60394341   180.52973945
 H     17  14  12     2.059785691444   103.67159097    83.58905266
 H     23  21  20     2.059771939201   126.07201173    35.85243795
 H     31  16  15     2.059779028971   127.41709390    23.06269607
 H     39   5   4     2.059777642867    55.19134929   187.28548628

---------------------
BASIS SET INFORMATION
---------------------
There are 5 groups of distinct atoms

 Group   1 Type C   : 11s6p2d1f contracted to 5s3p2d1f pattern {62111/411/11/1}
 Group   2 Type N   : 11s6p2d1f contracted to 5s3p2d1f pattern {62111/411/11/1}
 Group   3 Type H   : 5s1p contracted to 3s1p pattern {311/1}
 Group   4 Type O   : 11s6p2d1f contracted to 5s3p2d1f pattern {62111/411/11/1}
 Group   5 Type Fe  : 17s11p7d1f contracted to 6s4p4d1f pattern {842111/6311/4111/1}

Atom   0C    basis set group =>   1
Atom   1N    basis set group =>   2
Atom   2H    basis set group =>   3
Atom   3C    basis set group =>   1
Atom   4H    basis set group =>   3
Atom   5N    basis set group =>   2
Atom   6C    basis set group =>   1
Atom   7H    basis set group =>   3
Atom   8C    basis set group =>   1
Atom   9N    basis set group =>   2
Atom  10H    basis set group =>   3
Atom  11C    basis set group =>   1
Atom  12H    basis set group =>   3
Atom  13N    basis set group =>   2
Atom  14C    basis set group =>   1
Atom  15H    basis set group =>   3
Atom  16C    basis set group =>   1
Atom  17H    basis set group =>   3
Atom  18H    basis set group =>   3
Atom  19C    basis set group =>   1
Atom  20O    basis set group =>   4
Atom  21O    basis set group =>   4
Atom  22C    basis set group =>   1
Atom  23N    basis set group =>   2
Atom  24H    basis set group =>   3
Atom  25C    basis set group =>   1
Atom  26H    basis set group =>   3
Atom  27N    basis set group =>   2
Atom  28C    basis set group =>   1
Atom  29H    basis set group =>   3
Atom  30C    basis set group =>   1
Atom  31N    basis set group =>   2
Atom  32H    basis set group =>   3
Atom  33C    basis set group =>   1
Atom  34H    basis set group =>   3
Atom  35N    basis set group =>   2
Atom  36C    basis set group =>   1
Atom  37H    basis set group =>   3
Atom  38C    basis set group =>   1
Atom  39H    basis set group =>   3
Atom  40H    basis set group =>   3
Atom  41C    basis set group =>   1
Atom  42O    basis set group =>   4
Atom  43O    basis set group =>   4
Atom  44Fe   basis set group =>   5
Atom  45Fe   basis set group =>   5
Atom  46O    basis set group =>   4
Atom  47H    basis set group =>   3
Atom  48C    basis set group =>   1
Atom  49C    basis set group =>   1
Atom  50C    basis set group =>   1
Atom  51C    basis set group =>   1
Atom  52C    basis set group =>   1
Atom  53C    basis set group =>   1
Atom  54O    basis set group =>   4
Atom  55O    basis set group =>   4
Atom  56O    basis set group =>   4
Atom  57O    basis set group =>   4
Atom  58O    basis set group =>   4
Atom  59O    basis set group =>   4
Atom  60H    basis set group =>   3
Atom  61H    basis set group =>   3
Atom  62H    basis set group =>   3
Atom  63H    basis set group =>   3
Atom  64H    basis set group =>   3
Atom  65H    basis set group =>   3
Atom  66H    basis set group =>   3
Atom  67H    basis set group =>   3
Atom  68H    basis set group =>   3
Atom  69H    basis set group =>   3
Atom  70H    basis set group =>   3
Atom  71O    basis set group =>   4
Atom  72O    basis set group =>   4
Atom  73H    basis set group =>   3
Atom  74H    basis set group =>   3
Atom  75H    basis set group =>   3
Atom  76H    basis set group =>   3
Atom  77H    basis set group =>   3
Atom  78H    basis set group =>   3
--------------------------------------------------------------------------
WARNING: There was an error initializing an OpenFabrics device.

  Local host:   cnode05
  Local device: mlx5_0
--------------------------------------------------------------------------


           ************************************************************
           *        Program running with 16 parallel MPI-processes    *
           *              working on a common directory               *
           ************************************************************
------------------------------------------------------------------------------
                           ORCA GTO INTEGRAL CALCULATION
------------------------------------------------------------------------------
------------------------------------------------------------------------------
                   ___                                                        
                  /   \      - P O W E R E D   B Y -                         
                 /     \                                                     
                 |  |  |   _    _      __       _____    __    __             
                 |  |  |  | |  | |    /  \     |  _  \  |  |  /  |          
                  \  \/   | |  | |   /    \    | | | |  |  | /  /          
                 / \  \   | |__| |  /  /\  \   | |_| |  |  |/  /          
                |  |  |   |  __  | /  /__\  \  |    /   |      \           
                |  |  |   | |  | | |   __   |  |    \   |  |\   \          
                \     /   | |  | | |  |  |  |  | |\  \  |  | \   \       
                 \___/    |_|  |_| |__|  |__|  |_| \__\ |__|  \__/        
                                                                              
                      - O R C A' S   B I G   F R I E N D -                    
                                      &                                       
                       - I N T E G R A L  F E E D E R -                       
                                                                              
 v1 FN, 2020, v2 2021                                                         
------------------------------------------------------------------------------


Reading SHARK input file /scratch/RC2-flipspin_867/RC2-flipspin.SHARKINP.tmp ... ok
----------------------
SHARK INTEGRAL PACKAGE
----------------------

Number of atoms                             ...     79
Number of basis functions                   ...   1627
Number of shells                            ...    639
Maximum angular momentum                    ...      3
Integral batch strategy                     ... SHARK/LIBINT Hybrid
RI-J (if used) integral strategy            ... SPLIT-RIJ (Revised 2003 algorithm where possible)
Printlevel                                  ...      1
Contraction scheme used                     ... SEGMENTED contraction
Coulomb Range Separation                    ... NOT USED
Exchange Range Separation                   ... NOT USED
Finite Nucleus Model                        ... NOT USED
Auxiliary Coulomb fitting basis             ... NOT available
Auxiliary J/K fitting basis                 ... NOT available
Auxiliary Correlation fitting basis         ... NOT available
Auxiliary 'external' fitting basis          ... NOT available
Integral threshold                          ...     1.000000e-12
Primitive cut-off                           ...     1.000000e-14
Primitive pair pre-selection threshold      ...     1.000000e-14

Calculating pre-screening integrals         ... done (  1.1 sec) Dimension = 639
Organizing shell pair data                  ... done (  0.8 sec)
Shell pair information
Total number of shell pairs                 ...    204480
Shell pairs after pre-screening             ...    119768
Total number of primitive shell pairs       ...    646982
Primitive shell pairs kept                  ...    232939
          la=0 lb=0:  31441 shell pairs
          la=1 lb=0:  35147 shell pairs
          la=1 lb=1:   9903 shell pairs
          la=2 lb=0:  17109 shell pairs
          la=2 lb=1:   9842 shell pairs
          la=2 lb=2:   2440 shell pairs
          la=3 lb=0:   7264 shell pairs
          la=3 lb=1:   4265 shell pairs
          la=3 lb=2:   1956 shell pairs
          la=3 lb=3:    401 shell pairs

Calculating one electron integrals          ... done (  0.2 sec)
Calculating Nuclear repulsion               ... done (  0.0 sec) ENN=   8199.259930178932 Eh

SHARK setup successfully completed in   2.2 seconds

Maximum memory used throughout the entire GTOINT-calculation: 175.0 MB
[cnode05:374102] 15 more processes have sent help message help-mpi-btl-openib.txt / error in device init
[cnode05:374102] Set MCA parameter "orte_base_help_aggregate" to 0 to see all help / error messages
--------------------------------------------------------------------------
WARNING: There was an error initializing an OpenFabrics device.

  Local host:   cnode05
  Local device: mlx5_0
--------------------------------------------------------------------------


           ************************************************************
           *        Program running with 16 parallel MPI-processes    *
           *              working on a common directory               *
           ************************************************************
-------------------------------------------------------------------------------
                                 ORCA SCF
-------------------------------------------------------------------------------

------------
SCF SETTINGS
------------
Hamiltonian:
 Ab initio Hamiltonian  Method          .... Hartree-Fock(GTOs)


General Settings:
 Integral files         IntName         .... /scratch/RC2-flipspin_867/RC2-flipspin
 Hartree-Fock type      HFTyp           .... UHF
 Total Charge           Charge          ....    1
 Multiplicity           Mult            ....   12
 Number of Electrons    NEL             ....  377
 Basis Dimension        Dim             .... 1627
 Nuclear Repulsion      ENuc            ....   8199.2599301789 Eh

Convergence Acceleration:
 DIIS                   CNVDIIS         .... on
   Start iteration      DIISMaxIt       ....     0
   Startup error        DIISStart       ....  0.200000
   # of expansion vecs  DIISMaxEq       ....     5
   Bias factor          DIISBfac        ....   1.050
   Max. coefficient     DIISMaxC        ....  10.000
 Trust-Rad. Augm. Hess. CNVTRAH         .... off
 SOSCF                  CNVSOSCF        .... off
 Level Shifting         CNVShift        .... on
   Level shift para.    LevelShift      ....    0.2500
   Turn off err/grad.   ShiftErr        ....    0.0000
 Zerner damping         CNVZerner       .... off
 Static damping         CNVDamp         .... on
   Fraction old density DampFac         ....    0.8500
   Max. Damping (<1)    DampMax         ....    0.9800
   Min. Damping (>=0)   DampMin         ....    0.0000
   Turn off err/grad.   DampErr         ....    0.0300
 Fernandez-Rico         CNVRico         .... off

SCF Procedure:
 Maximum # iterations   MaxIter         ....   500
 SCF integral mode      SCFMode         .... Direct
   Integral package                     .... SHARK and LIBINT hybrid scheme
 Reset frequency        DirectResetFreq ....    20
 Integral Threshold     Thresh          ....  1.000e-12 Eh
 Primitive CutOff       TCut            ....  1.000e-14 Eh

Convergence Tolerance:
 Convergence Check Mode ConvCheckMode   .... Total+1el-Energy
 Convergence forced     ConvForced      .... 1
 Energy Change          TolE            ....  1.000e-09 Eh
 1-El. energy change                    ....  1.000e-06 Eh
 DIIS Error             TolErr          ....  1.000e-08


The Flip-Spin feature is operative for generating broken symmetry solutions
 Fe44
We will now do a high-spin calculation with                 Ms=  5.5
and then try to converge to the broken symmetry state with Ms=  0.5


Diagonalization of the overlap matrix:
Smallest eigenvalue                        ... 3.228e-05
Time for diagonalization                   ...    0.339 sec
Threshold for overlap eigenvalues          ... 1.000e-08
Number of eigenvalues below threshold      ... 0
Time for construction of square roots      ...    0.459 sec
Total time needed                          ...    0.808 sec

---------------------
INITIAL GUESS: MOREAD
---------------------
Guess MOs are being read from file: RC2-highspin.gbw
Input Geometry matches current geometry (good)
Input basis set matches current basis set (good)
MOs were renormalized
[cnode05:374226] 15 more processes have sent help message help-mpi-btl-openib.txt / error in device init
[cnode05:374226] Set MCA parameter "orte_base_help_aggregate" to 0 to see all help / error messages
MOs were reorthogonalized (Cholesky)
                      ------------------
                      INITIAL GUESS DONE (   3.8 sec)
                      ------------------
--------------
SCF ITERATIONS
--------------
ITER       Energy         Delta-E        Max-DP      RMS-DP      [F,P]     Damp
               ***  Starting incremental Fock matrix formation  ***
  0  -4787.4385602377   0.000000000000 0.00000000  0.00000000  0.0000000 0.8500
                 **** Energy Check signals convergence ****

               *****************************************************
               *                     SUCCESS                       *
               *           SCF CONVERGED AFTER   1 CYCLES          *
               *****************************************************


----------------
TOTAL SCF ENERGY
----------------

Total Energy       :        -4787.43856024 Eh         -130272.82617 eV

Components:
Nuclear Repulsion  :         8199.25993018 Eh          223113.20556 eV
Electronic Energy  :       -12986.69849042 Eh         -353386.03172 eV
One Electron Energy:       -22914.08718533 Eh         -623524.01166 eV
Two Electron Energy:         9927.38869491 Eh          270137.97994 eV

Virial components:
Potential Energy   :        -9571.27385626 Eh         -260447.60253 eV
Kinetic Energy     :         4783.83529602 Eh          130174.77636 eV
Virial Ratio       :            2.00075322


---------------
SCF CONVERGENCE
---------------

  Last Energy change         ...   -6.0027e-10  Tolerance :   1.0000e-09
  Last MAX-Density change    ...    2.9280e-08  Tolerance :   1.0000e-08
  Last RMS-Density change    ...    7.9099e-11  Tolerance :   1.0000e-09
  Last DIIS Error            ...    2.3285e-08  Tolerance :   1.0000e-08

             **** THE GBW FILE WAS UPDATED (/scratch/RC2-flipspin_867/RC2-flipspin.gbw) ****
             **** DENSITY /scratch/RC2-flipspin_867/RC2-flipspin.scfp WAS UPDATED ****
             **** ENERGY FILE WAS UPDATED (/scratch/RC2-flipspin_867/RC2-flipspin.en.tmp) ****
----------------------
UHF SPIN CONTAMINATION
----------------------

Expectation value of <S**2>     :    35.798641
Ideal value S*(S+1) for S=5.5   :    35.750000
Deviation                       :     0.048641

             **** THE GBW FILE WAS UPDATED (/scratch/RC2-flipspin_867/RC2-flipspin.gbw) ****
             **** DENSITY /scratch/RC2-flipspin_867/RC2-flipspin.scfp WAS UPDATED ****
----------------
ORBITAL ENERGIES
----------------
                 SPIN UP ORBITALS
  NO   OCC          E(Eh)            E(eV) 
   0   1.0000    -261.610225     -7118.7761 
   1   1.0000    -261.605616     -7118.6507 
   2   1.0000     -32.276387      -878.2851 
   3   1.0000     -32.270145      -878.1153 
   4   1.0000     -27.753482      -755.2106 
   5   1.0000     -27.752540      -755.1850 
   6   1.0000     -27.751471      -755.1559 
   7   1.0000     -27.746832      -755.0297 
   8   1.0000     -27.746677      -755.0255 
   9   1.0000     -27.746110      -755.0100 
  10   1.0000     -20.692214      -563.0638 
  11   1.0000     -20.644508      -561.7656 
  12   1.0000     -20.639897      -561.6402 
  13   1.0000     -20.636126      -561.5375 
  14   1.0000     -20.620989      -561.1256 
  15   1.0000     -20.620191      -561.1039 
  16   1.0000     -20.612370      -560.8911 
  17   1.0000     -20.606915      -560.7427 
  18   1.0000     -20.602959      -560.6350 
  19   1.0000     -20.589133      -560.2588 
  20   1.0000     -20.585502      -560.1600 
  21   1.0000     -20.562503      -559.5341 
  22   1.0000     -20.539302      -558.9028 
  23   1.0000     -15.749895      -428.5764 
  24   1.0000     -15.746396      -428.4812 
  25   1.0000     -15.734962      -428.1701 
  26   1.0000     -15.728446      -427.9928 
  27   1.0000     -15.693159      -427.0326 
  28   1.0000     -15.688584      -426.9081 
  29   1.0000     -15.671383      -426.4400 
  30   1.0000     -15.669808      -426.3972 
  31   1.0000     -11.456528      -311.7480 
  32   1.0000     -11.432950      -311.1064 
  33   1.0000     -11.430028      -311.0269 
  34   1.0000     -11.416040      -310.6462 
  35   1.0000     -11.414352      -310.6003 
  36   1.0000     -11.408456      -310.4399 
  37   1.0000     -11.379535      -309.6529 
  38   1.0000     -11.374560      -309.5175 
  39   1.0000     -11.367674      -309.3301 
  40   1.0000     -11.363934      -309.2284 
  41   1.0000     -11.358643      -309.0844 
  42   1.0000     -11.358562      -309.0822 
  43   1.0000     -11.354421      -308.9695 
  44   1.0000     -11.350012      -308.8495 
  45   1.0000     -11.348698      -308.8138 
  46   1.0000     -11.346109      -308.7433 
  47   1.0000     -11.337872      -308.5192 
  48   1.0000     -11.329582      -308.2936 
  49   1.0000     -11.324609      -308.1583 
  50   1.0000     -11.315871      -307.9205 
  51   1.0000     -11.309365      -307.7435 
  52   1.0000     -11.283123      -307.0294 
  53   1.0000      -4.634213      -126.1034 
  54   1.0000      -4.626436      -125.8917 
  55   1.0000      -3.249581       -88.4256 
  56   1.0000      -3.247264       -88.3625 
  57   1.0000      -3.245192       -88.3062 
  58   1.0000      -3.242071       -88.2212 
  59   1.0000      -3.239341       -88.1470 
  60   1.0000      -3.237968       -88.1096 
  61   1.0000      -1.564181       -42.5635 
  62   1.0000      -1.502965       -40.8977 
  63   1.0000      -1.487080       -40.4655 
  64   1.0000      -1.473087       -40.0847 
  65   1.0000      -1.468375       -39.9565 
  66   1.0000      -1.463792       -39.8318 
  67   1.0000      -1.455886       -39.6167 
  68   1.0000      -1.449801       -39.4511 
  69   1.0000      -1.444608       -39.3098 
  70   1.0000      -1.419546       -38.6278 
  71   1.0000      -1.405520       -38.2461 
  72   1.0000      -1.401156       -38.1274 
  73   1.0000      -1.387309       -37.7506 
  74   1.0000      -1.369288       -37.2602 
  75   1.0000      -1.348811       -36.7030 
  76   1.0000      -1.341129       -36.4940 
  77   1.0000      -1.302466       -35.4419 
  78   1.0000      -1.297094       -35.2957 
  79   1.0000      -1.285685       -34.9853 
  80   1.0000      -1.278606       -34.7926 
  81   1.0000      -1.143718       -31.1222 
  82   1.0000      -1.133007       -30.8307 
  83   1.0000      -1.131012       -30.7764 
  84   1.0000      -1.130648       -30.7665 
  85   1.0000      -1.117758       -30.4157 
  86   1.0000      -1.109260       -30.1845 
  87   1.0000      -1.077893       -29.3310 
  88   1.0000      -1.045487       -28.4491 
  89   1.0000      -1.041602       -28.3434 
  90   1.0000      -1.024782       -27.8857 
  91   1.0000      -0.993527       -27.0353 
  92   1.0000      -0.987296       -26.8657 
  93   1.0000      -0.981529       -26.7088 
  94   1.0000      -0.976866       -26.5819 
  95   1.0000      -0.967687       -26.3321 
  96   1.0000      -0.963587       -26.2205 
  97   1.0000      -0.962293       -26.1853 
  98   1.0000      -0.956653       -26.0318 
  99   1.0000      -0.956290       -26.0220 
 100   1.0000      -0.952442       -25.9173 
 101   1.0000      -0.950525       -25.8651 
 102   1.0000      -0.944976       -25.7141 
 103   1.0000      -0.936677       -25.4883 
 104   1.0000      -0.927686       -25.2436 
 105   1.0000      -0.923209       -25.1218 
 106   1.0000      -0.918850       -25.0032 
 107   1.0000      -0.907965       -24.7070 
 108   1.0000      -0.905252       -24.6332 
 109   1.0000      -0.900603       -24.5067 
 110   1.0000      -0.885138       -24.0858 
 111   1.0000      -0.879189       -23.9240 
 112   1.0000      -0.870239       -23.6804 
 113   1.0000      -0.868610       -23.6361 
 114   1.0000      -0.857461       -23.3327 
 115   1.0000      -0.845084       -22.9959 
 116   1.0000      -0.836153       -22.7529 
 117   1.0000      -0.807850       -21.9827 
 118   1.0000      -0.802068       -21.8254 
 119   1.0000      -0.782114       -21.2824 
 120   1.0000      -0.775170       -21.0935 
 121   1.0000      -0.762558       -20.7503 
 122   1.0000      -0.752105       -20.4658 
 123   1.0000      -0.749574       -20.3969 
 124   1.0000      -0.746388       -20.3102 
 125   1.0000      -0.739109       -20.1122 
 126   1.0000      -0.738909       -20.1067 
 127   1.0000      -0.735029       -20.0011 
 128   1.0000      -0.731366       -19.9015 
 129   1.0000      -0.728799       -19.8316 
 130   1.0000      -0.727808       -19.8047 
 131   1.0000      -0.722858       -19.6700 
 132   1.0000      -0.720645       -19.6098 
 133   1.0000      -0.719382       -19.5754 
 134   1.0000      -0.715412       -19.4674 
 135   1.0000      -0.713824       -19.4241 
 136   1.0000      -0.711887       -19.3714 
 137   1.0000      -0.710708       -19.3394 
 138   1.0000      -0.709344       -19.3022 
 139   1.0000      -0.701292       -19.0831 
 140   1.0000      -0.700506       -19.0617 
 141   1.0000      -0.698492       -19.0069 
 142   1.0000      -0.698036       -18.9945 
 143   1.0000      -0.697311       -18.9748 
 144   1.0000      -0.694826       -18.9072 
 145   1.0000      -0.689640       -18.7660 
 146   1.0000      -0.685348       -18.6493 
 147   1.0000      -0.680107       -18.5066 
 148   1.0000      -0.676503       -18.4086 
 149   1.0000      -0.674518       -18.3546 
 150   1.0000      -0.666745       -18.1431 
 151   1.0000      -0.658186       -17.9102 
 152   1.0000      -0.651112       -17.7177 
 153   1.0000      -0.645650       -17.5690 
 154   1.0000      -0.641647       -17.4601 
 155   1.0000      -0.634949       -17.2778 
 156   1.0000      -0.632269       -17.2049 
 157   1.0000      -0.626728       -17.0541 
 158   1.0000      -0.623901       -16.9772 
 159   1.0000      -0.619504       -16.8576 
 160   1.0000      -0.614730       -16.7277 
 161   1.0000      -0.611256       -16.6331 
 162   1.0000      -0.604260       -16.4427 
 163   1.0000      -0.601921       -16.3791 
 164   1.0000      -0.585131       -15.9222 
 165   1.0000      -0.583463       -15.8768 
 166   1.0000      -0.576916       -15.6987 
 167   1.0000      -0.567997       -15.4560 
 168   1.0000      -0.558982       -15.2107 
 169   1.0000      -0.555866       -15.1259 
 170   1.0000      -0.551253       -15.0004 
 171   1.0000      -0.545526       -14.8445 
 172   1.0000      -0.542325       -14.7574 
 173   1.0000      -0.541891       -14.7456 
 174   1.0000      -0.535986       -14.5849 
 175   1.0000      -0.533646       -14.5212 
 176   1.0000      -0.528129       -14.3711 
 177   1.0000      -0.519880       -14.1466 
 178   1.0000      -0.519367       -14.1327 
 179   1.0000      -0.515201       -14.0193 
 180   1.0000      -0.508242       -13.8300 
 181   1.0000      -0.505765       -13.7626 
 182   1.0000      -0.496814       -13.5190 
 183   1.0000      -0.492592       -13.4041 
 184   1.0000      -0.485526       -13.2118 
 185   1.0000      -0.484559       -13.1855 
 186   1.0000      -0.479747       -13.0546 
 187   1.0000      -0.456131       -12.4120 
 188   1.0000      -0.446245       -12.1430 
 189   1.0000      -0.445484       -12.1222 
 190   1.0000      -0.441735       -12.0202 
 191   1.0000      -0.437044       -11.8926 
 192   1.0000      -0.427532       -11.6337 
 193   1.0000      -0.419759       -11.4222 
 194   0.0000       0.014003         0.3811 
 195   0.0000       0.025548         0.6952 
 196   0.0000       0.032153         0.8749 
 197   0.0000       0.033809         0.9200 
 198   0.0000       0.040611         1.1051 
 199   0.0000       0.042134         1.1465 
 200   0.0000       0.045399         1.2354 
 201   0.0000       0.052581         1.4308 
 202   0.0000       0.058126         1.5817 
 203   0.0000       0.062886         1.7112 
 204   0.0000       0.064671         1.7598 
 205   0.0000       0.069114         1.8807 
 206   0.0000       0.071378         1.9423 
 207   0.0000       0.078723         2.1422 
 208   0.0000       0.079270         2.1571 
 209   0.0000       0.079914         2.1746 
 210   0.0000       0.085382         2.3234 
 211   0.0000       0.089184         2.4268 
 212   0.0000       0.091938         2.5018 
 213   0.0000       0.093055         2.5322 
 214   0.0000       0.098417         2.6781 
 215   0.0000       0.099598         2.7102 
 216   0.0000       0.101264         2.7555 
 217   0.0000       0.105077         2.8593 
 218   0.0000       0.107864         2.9351 
 219   0.0000       0.111913         3.0453 
 220   0.0000       0.114477         3.1151 
 221   0.0000       0.118632         3.2281 
 222   0.0000       0.122507         3.3336 
 223   0.0000       0.133009         3.6193 
 224   0.0000       0.135108         3.6765 
 225   0.0000       0.141231         3.8431 
 226   0.0000       0.147026         4.0008 
 227   0.0000       0.150706         4.1009 
 228   0.0000       0.154940         4.2161 
 229   0.0000       0.159112         4.3297 
 230   0.0000       0.161188         4.3861 
 231   0.0000       0.165385         4.5004 
 232   0.0000       0.169185         4.6038 
 233   0.0000       0.171759         4.6738 
 234   0.0000       0.175079         4.7641 
 235   0.0000       0.176720         4.8088 
 236   0.0000       0.180855         4.9213 
 237   0.0000       0.182877         4.9763 
 238   0.0000       0.189879         5.1669 
 239   0.0000       0.194249         5.2858 
 240   0.0000       0.195792         5.3278 
 241   0.0000       0.199876         5.4389 
 242   0.0000       0.200150         5.4464 
 243   0.0000       0.206752         5.6260 
 244   0.0000       0.209979         5.7138 
 245   0.0000       0.212243         5.7754 
 246   0.0000       0.215665         5.8685 
 247   0.0000       0.219466         5.9720 
 248   0.0000       0.219786         5.9807 
 249   0.0000       0.227761         6.1977 
 250   0.0000       0.231169         6.2904 
 251   0.0000       0.232121         6.3163 
 252   0.0000       0.237909         6.4738 
 253   0.0000       0.240332         6.5398 
 254   0.0000       0.243117         6.6156 
 255   0.0000       0.247577         6.7369 
 256   0.0000       0.249251         6.7825 
 257   0.0000       0.250200         6.8083 
 258   0.0000       0.254852         6.9349 
 259   0.0000       0.259246         7.0545 
 260   0.0000       0.262412         7.1406 
 261   0.0000       0.263744         7.1769 
 262   0.0000       0.269015         7.3203 
 263   0.0000       0.271350         7.3838 
 264   0.0000       0.274718         7.4755 
 265   0.0000       0.277931         7.5629 
 266   0.0000       0.280312         7.6277 
 267   0.0000       0.283437         7.7127 
 268   0.0000       0.284653         7.7458 
 269   0.0000       0.289268         7.8714 
 270   0.0000       0.291132         7.9221 
 271   0.0000       0.292122         7.9491 
 272   0.0000       0.295265         8.0346 
 273   0.0000       0.299588         8.1522 
 274   0.0000       0.300533         8.1779 
 275   0.0000       0.303738         8.2651 
 276   0.0000       0.304812         8.2944 
 277   0.0000       0.308244         8.3877 
 278   0.0000       0.314491         8.5577 
 279   0.0000       0.316864         8.6223 
 280   0.0000       0.319934         8.7059 
 281   0.0000       0.320946         8.7334 
 282   0.0000       0.325187         8.8488 
 283   0.0000       0.326168         8.8755 
 284   0.0000       0.329712         8.9719 
 285   0.0000       0.338156         9.2017 
 286   0.0000       0.342190         9.3115 
 287   0.0000       0.343956         9.3595 
 288   0.0000       0.345350         9.3974 
 289   0.0000       0.350785         9.5453 
 290   0.0000       0.352746         9.5987 
 291   0.0000       0.361329         9.8323 
 292   0.0000       0.363198         9.8831 
 293   0.0000       0.366168         9.9639 
 294   0.0000       0.371588        10.1114 
 295   0.0000       0.375520        10.2184 
 296   0.0000       0.380454        10.3527 
 297   0.0000       0.383735        10.4420 
 298   0.0000       0.385002        10.4764 
 299   0.0000       0.388666        10.5761 
 300   0.0000       0.394422        10.7328 
 301   0.0000       0.397896        10.8273 
 302   0.0000       0.399669        10.8755 
 303   0.0000       0.401522        10.9260 
 304   0.0000       0.404835        11.0161 
 305   0.0000       0.409835        11.1522 
 306   0.0000       0.413121        11.2416 
 307   0.0000       0.416292        11.3279 
 308   0.0000       0.420344        11.4381 
 309   0.0000       0.421945        11.4817 
 310   0.0000       0.425444        11.5769 
 311   0.0000       0.426828        11.6146 
 312   0.0000       0.428689        11.6652 
 313   0.0000       0.431771        11.7491 
 314   0.0000       0.434644        11.8273 
 315   0.0000       0.437794        11.9130 
 316   0.0000       0.439465        11.9584 
 317   0.0000       0.442408        12.0385 
 318   0.0000       0.445370        12.1191 
 319   0.0000       0.447479        12.1765 
 320   0.0000       0.450499        12.2587 
 321   0.0000       0.450823        12.2675 
 322   0.0000       0.452259        12.3066 
 323   0.0000       0.455233        12.3875 
 324   0.0000       0.456866        12.4319 
 325   0.0000       0.458713        12.4822 
 326   0.0000       0.460260        12.5243 
 327   0.0000       0.464022        12.6267 
 328   0.0000       0.467189        12.7129 
 329   0.0000       0.468525        12.7492 
 330   0.0000       0.470992        12.8163 
 331   0.0000       0.473231        12.8773 
 332   0.0000       0.475580        12.9412 
 333   0.0000       0.479089        13.0367 
 334   0.0000       0.480272        13.0689 
 335   0.0000       0.483764        13.1639 
 336   0.0000       0.486967        13.2511 
 337   0.0000       0.489226        13.3125 
 338   0.0000       0.490942        13.3592 
 339   0.0000       0.492280        13.3956 
 340   0.0000       0.495806        13.4916 
 341   0.0000       0.497728        13.5439 
 342   0.0000       0.500160        13.6100 
 343   0.0000       0.502154        13.6643 
 344   0.0000       0.503166        13.6918 
 345   0.0000       0.506806        13.7909 
 346   0.0000       0.510994        13.9049 
 347   0.0000       0.513513        13.9734 
 348   0.0000       0.514117        13.9898 
 349   0.0000       0.519378        14.1330 
 350   0.0000       0.521177        14.1819 
 351   0.0000       0.522342        14.2137 
 352   0.0000       0.525427        14.2976 
 353   0.0000       0.527566        14.3558 
 354   0.0000       0.532288        14.4843 
 355   0.0000       0.534976        14.5574 
 356   0.0000       0.537917        14.6375 
 357   0.0000       0.541915        14.7463 
 358   0.0000       0.542079        14.7507 
 359   0.0000       0.542299        14.7567 
 360   0.0000       0.547501        14.8982 
 361   0.0000       0.550348        14.9757 
 362   0.0000       0.552592        15.0368 
 363   0.0000       0.554230        15.0814 
 364   0.0000       0.556178        15.1344 
 365   0.0000       0.559249        15.2179 
 366   0.0000       0.561251        15.2724 
 367   0.0000       0.564814        15.3694 
 368   0.0000       0.565040        15.3755 
 369   0.0000       0.568877        15.4799 
 370   0.0000       0.570343        15.5198 
 371   0.0000       0.571899        15.5622 
 372   0.0000       0.577965        15.7272 
 373   0.0000       0.580399        15.7935 
 374   0.0000       0.581850        15.8329 
 375   0.0000       0.583364        15.8741 
 376   0.0000       0.587732        15.9930 
 377   0.0000       0.591374        16.0921 
 378   0.0000       0.592924        16.1343 
 379   0.0000       0.598227        16.2786 
 380   0.0000       0.601521        16.3682 
 381   0.0000       0.602374        16.3914 
 382   0.0000       0.605171        16.4675 
 383   0.0000       0.608383        16.5549 
 384   0.0000       0.612741        16.6735 
 385   0.0000       0.614018        16.7083 
 386   0.0000       0.616799        16.7839 
 387   0.0000       0.618863        16.8401 
 388   0.0000       0.624752        17.0004 
 389   0.0000       0.628506        17.1025 
 390   0.0000       0.630079        17.1453 
 391   0.0000       0.630344        17.1525 
 392   0.0000       0.633098        17.2275 
 393   0.0000       0.640633        17.4325 
 394   0.0000       0.642518        17.4838 
 395   0.0000       0.644879        17.5481 
 396   0.0000       0.647878        17.6297 
 397   0.0000       0.652131        17.7454 
 398   0.0000       0.654617        17.8130 
 399   0.0000       0.655535        17.8380 
 400   0.0000       0.660600        17.9758 
 401   0.0000       0.662262        18.0211 
 402   0.0000       0.665993        18.1226 
 403   0.0000       0.666801        18.1446 
 404   0.0000       0.668857        18.2005 
 405   0.0000       0.675705        18.3869 
 406   0.0000       0.677065        18.4239 
 407   0.0000       0.677521        18.4363 
 408   0.0000       0.682274        18.5656 
 409   0.0000       0.686866        18.6906 
 410   0.0000       0.691067        18.8049 
 411   0.0000       0.696295        18.9472 
 412   0.0000       0.697295        18.9744 
 413   0.0000       0.700536        19.0626 
 414   0.0000       0.701739        19.0953 
 415   0.0000       0.704740        19.1770 
 416   0.0000       0.707447        19.2506 
 417   0.0000       0.709942        19.3185 
 418   0.0000       0.712799        19.3962 
 419   0.0000       0.714048        19.4302 
 420   0.0000       0.717207        19.5162 
 421   0.0000       0.718230        19.5440 
 422   0.0000       0.723676        19.6922 
 423   0.0000       0.724970        19.7274 
 424   0.0000       0.727033        19.7836 
 425   0.0000       0.730375        19.8745 
 426   0.0000       0.732384        19.9292 
 427   0.0000       0.736297        20.0357 
 428   0.0000       0.739183        20.1142 
 429   0.0000       0.746493        20.3131 
 430   0.0000       0.749102        20.3841 
 431   0.0000       0.752069        20.4649 
 432   0.0000       0.756909        20.5965 
 433   0.0000       0.760923        20.7058 
 434   0.0000       0.763819        20.7846 
 435   0.0000       0.766982        20.8706 
 436   0.0000       0.769725        20.9453 
 437   0.0000       0.774262        21.0688 
 438   0.0000       0.777837        21.1660 
 439   0.0000       0.782212        21.2851 
 440   0.0000       0.787593        21.4315 
 441   0.0000       0.789152        21.4739 
 442   0.0000       0.793035        21.5796 
 443   0.0000       0.796064        21.6620 
 444   0.0000       0.798629        21.7318 
 445   0.0000       0.801877        21.8202 
 446   0.0000       0.805534        21.9197 
 447   0.0000       0.810537        22.0558 
 448   0.0000       0.813486        22.1361 
 449   0.0000       0.820912        22.3381 
 450   0.0000       0.823900        22.4195 
 451   0.0000       0.825757        22.4700 
 452   0.0000       0.831560        22.6279 
 453   0.0000       0.835611        22.7381 
 454   0.0000       0.838952        22.8291 
 455   0.0000       0.844391        22.9771 
 456   0.0000       0.850550        23.1446 
 457   0.0000       0.852301        23.1923 
 458   0.0000       0.856646        23.3105 
 459   0.0000       0.858976        23.3739 
 460   0.0000       0.860056        23.4033 
 461   0.0000       0.864054        23.5121 
 462   0.0000       0.868194        23.6248 
 463   0.0000       0.874083        23.7850 
 464   0.0000       0.878506        23.9054 
 465   0.0000       0.881951        23.9991 
 466   0.0000       0.884374        24.0650 
 467   0.0000       0.887814        24.1587 
 468   0.0000       0.892221        24.2786 
 469   0.0000       0.892476        24.2855 
 470   0.0000       0.896425        24.3930 
 471   0.0000       0.903334        24.5810 
 472   0.0000       0.906445        24.6656 
 473   0.0000       0.908292        24.7159 
 474   0.0000       0.911409        24.8007 
 475   0.0000       0.920817        25.0567 
 476   0.0000       0.923253        25.1230 
 477   0.0000       0.926311        25.2062 
 478   0.0000       0.934951        25.4413 
 479   0.0000       0.938327        25.5332 
 480   0.0000       0.942178        25.6380 
 481   0.0000       0.943699        25.6794 
 482   0.0000       0.949532        25.8381 
 483   0.0000       0.955947        26.0126 
 484   0.0000       0.959508        26.1095 
 485   0.0000       0.961258        26.1572 
 486   0.0000       0.965234        26.2654 
 487   0.0000       0.966838        26.3090 
 488   0.0000       0.970564        26.4104 
 489   0.0000       0.974298        26.5120 
 490   0.0000       0.977742        26.6057 
 491   0.0000       0.985314        26.8117 
 492   0.0000       0.988197        26.8902 
 493   0.0000       0.992636        27.0110 
 494   0.0000       0.996933        27.1279 
 495   0.0000       1.000066        27.2132 
 496   0.0000       1.003461        27.3056 
 497   0.0000       1.005648        27.3651 
 498   0.0000       1.013189        27.5703 
 499   0.0000       1.014982        27.6191 
 500   0.0000       1.023653        27.8550 
 501   0.0000       1.027868        27.9697 
 502   0.0000       1.034833        28.1592 
 503   0.0000       1.035230        28.1700 
 504   0.0000       1.040217        28.3058 
 505   0.0000       1.047009        28.4906 
 506   0.0000       1.047220        28.4963 
 507   0.0000       1.052484        28.6395 
 508   0.0000       1.053289        28.6614 
 509   0.0000       1.059113        28.8199 
 510   0.0000       1.064962        28.9791 
 511   0.0000       1.065834        29.0028 
 512   0.0000       1.071259        29.1504 
 513   0.0000       1.074294        29.2330 
 514   0.0000       1.075414        29.2635 
 515   0.0000       1.077100        29.3094 
 516   0.0000       1.085017        29.5248 
 517   0.0000       1.091320        29.6963 
 518   0.0000       1.094400        29.7802 
 519   0.0000       1.102649        30.0046 
 520   0.0000       1.105958        30.0946 
 521   0.0000       1.107627        30.1401 
 522   0.0000       1.112584        30.2749 
 523   0.0000       1.114550        30.3285 
 524   0.0000       1.117020        30.3957 
 525   0.0000       1.122995        30.5582 
 526   0.0000       1.125673        30.6311 
 527   0.0000       1.128711        30.7138 
 528   0.0000       1.130802        30.7707 
 529   0.0000       1.132609        30.8199 
 530   0.0000       1.135412        30.8961 
 531   0.0000       1.139757        31.0144 
 532   0.0000       1.145207        31.1627 
 533   0.0000       1.148243        31.2453 
 534   0.0000       1.150785        31.3145 
 535   0.0000       1.152226        31.3537 
 536   0.0000       1.154640        31.4193 
 537   0.0000       1.158090        31.5132 
 538   0.0000       1.163513        31.6608 
 539   0.0000       1.174787        31.9676 
 540   0.0000       1.177744        32.0480 
 541   0.0000       1.186992        32.2997 
 542   0.0000       1.191175        32.4135 
 543   0.0000       1.194799        32.5121 
 544   0.0000       1.197121        32.5753 
 545   0.0000       1.203989        32.7622 
 546   0.0000       1.207669        32.8623 
 547   0.0000       1.208950        32.8972 
 548   0.0000       1.212944        33.0059 
 549   0.0000       1.219085        33.1730 
 550   0.0000       1.225922        33.3590 
 551   0.0000       1.227156        33.3926 
 552   0.0000       1.231107        33.5001 
 553   0.0000       1.234990        33.6058 
 554   0.0000       1.237829        33.6830 
 555   0.0000       1.244089        33.8534 
 556   0.0000       1.249142        33.9909 
 557   0.0000       1.249932        34.0124 
 558   0.0000       1.258607        34.2484 
 559   0.0000       1.263095        34.3706 
 560   0.0000       1.267024        34.4775 
 561   0.0000       1.272386        34.6234 
 562   0.0000       1.276025        34.7224 
 563   0.0000       1.279641        34.8208 
 564   0.0000       1.282147        34.8890 
 565   0.0000       1.288179        35.0531 
 566   0.0000       1.293262        35.1914 
 567   0.0000       1.298777        35.3415 
 568   0.0000       1.299586        35.3635 
 569   0.0000       1.304659        35.5016 
 570   0.0000       1.311575        35.6898 
 571   0.0000       1.316714        35.8296 
 572   0.0000       1.318419        35.8760 
 573   0.0000       1.324365        36.0378 
 574   0.0000       1.330856        36.2144 
 575   0.0000       1.334624        36.3170 
 576   0.0000       1.337677        36.4000 
 577   0.0000       1.345674        36.6176 
 578   0.0000       1.351996        36.7897 
 579   0.0000       1.354119        36.8474 
 580   0.0000       1.359642        36.9977 
 581   0.0000       1.367615        37.2147 
 582   0.0000       1.368463        37.2378 
 583   0.0000       1.373944        37.3869 
 584   0.0000       1.377430        37.4818 
 585   0.0000       1.381989        37.6058 
 586   0.0000       1.388434        37.7812 
 587   0.0000       1.390985        37.8506 
 588   0.0000       1.398193        38.0468 
 589   0.0000       1.400506        38.1097 
 590   0.0000       1.404326        38.2136 
 591   0.0000       1.408337        38.3228 
 592   0.0000       1.409237        38.3473 
 593   0.0000       1.417392        38.5692 
 594   0.0000       1.417839        38.5814 
 595   0.0000       1.425959        38.8023 
 596   0.0000       1.430501        38.9259 
 597   0.0000       1.437491        39.1161 
 598   0.0000       1.439025        39.1579 
 599   0.0000       1.441738        39.2317 
 600   0.0000       1.445266        39.3277 
 601   0.0000       1.448508        39.4159 
 602   0.0000       1.453010        39.5384 
 603   0.0000       1.462589        39.7991 
 604   0.0000       1.468341        39.9556 
 605   0.0000       1.470646        40.0183 
 606   0.0000       1.473383        40.0928 
 607   0.0000       1.478111        40.2215 
 608   0.0000       1.485385        40.4194 
 609   0.0000       1.491516        40.5862 
 610   0.0000       1.492057        40.6009 
 611   0.0000       1.502257        40.8785 
 612   0.0000       1.510200        41.0946 
 613   0.0000       1.515149        41.2293 
 614   0.0000       1.523980        41.4696 
 615   0.0000       1.527378        41.5621 
 616   0.0000       1.534547        41.7572 
 617   0.0000       1.535016        41.7699 
 618   0.0000       1.542327        41.9688 
 619   0.0000       1.551312        42.2133 
 620   0.0000       1.554421        42.2979 
 621   0.0000       1.561315        42.4855 
 622   0.0000       1.563212        42.5372 
 623   0.0000       1.568695        42.6864 
 624   0.0000       1.573825        42.8260 
 625   0.0000       1.579731        42.9867 
 626   0.0000       1.580040        42.9951 
 627   0.0000       1.582992        43.0754 
 628   0.0000       1.591194        43.2986 
 629   0.0000       1.592740        43.3407 
 630   0.0000       1.596051        43.4307 
 631   0.0000       1.602053        43.5941 
 632   0.0000       1.604245        43.6537 
 633   0.0000       1.607674        43.7470 
 634   0.0000       1.613159        43.8963 
 635   0.0000       1.614565        43.9346 
 636   0.0000       1.615776        43.9675 
 637   0.0000       1.620698        44.1014 
 638   0.0000       1.626482        44.2588 
 639   0.0000       1.627006        44.2731 
 640   0.0000       1.629822        44.3497 
 641   0.0000       1.631798        44.4035 
 642   0.0000       1.636992        44.5448 
 643   0.0000       1.642911        44.7059 
 644   0.0000       1.648353        44.8540 
 645   0.0000       1.651580        44.9418 
 646   0.0000       1.659722        45.1633 
 647   0.0000       1.664082        45.2820 
 648   0.0000       1.667712        45.3807 
 649   0.0000       1.673365        45.5346 
 650   0.0000       1.681432        45.7541 
 651   0.0000       1.686424        45.8899 
 652   0.0000       1.693928        46.0941 
 653   0.0000       1.696073        46.1525 
 654   0.0000       1.701018        46.2871 
 655   0.0000       1.705779        46.4166 
 656   0.0000       1.707934        46.4752 
 657   0.0000       1.711975        46.5852 
 658   0.0000       1.715140        46.6713 
 659   0.0000       1.720171        46.8082 
 660   0.0000       1.722384        46.8685 
 661   0.0000       1.726568        46.9823 
 662   0.0000       1.729095        47.0511 
 663   0.0000       1.734295        47.1926 
 664   0.0000       1.741787        47.3964 
 665   0.0000       1.748963        47.5917 
 666   0.0000       1.749523        47.6069 
 667   0.0000       1.750703        47.6391 
 668   0.0000       1.751889        47.6713 
 669   0.0000       1.754810        47.7508 
 670   0.0000       1.758887        47.8617 
 671   0.0000       1.759803        47.8867 
 672   0.0000       1.767633        48.0997 
 673   0.0000       1.770942        48.1898 
 674   0.0000       1.773201        48.2513 
 675   0.0000       1.778417        48.3932 
 676   0.0000       1.780213        48.4421 
 677   0.0000       1.782241        48.4973 
 678   0.0000       1.784906        48.5697 
 679   0.0000       1.786039        48.6006 
 680   0.0000       1.792596        48.7790 
 681   0.0000       1.793479        48.8030 
 682   0.0000       1.797277        48.9064 
 683   0.0000       1.805619        49.1334 
 684   0.0000       1.808477        49.2112 
 685   0.0000       1.811961        49.3060 
 686   0.0000       1.814454        49.3738 
 687   0.0000       1.819455        49.5099 
 688   0.0000       1.821767        49.5728 
 689   0.0000       1.823725        49.6261 
 690   0.0000       1.827878        49.7391 
 691   0.0000       1.834611        49.9223 
 692   0.0000       1.835942        49.9585 
 693   0.0000       1.837877        50.0112 
 694   0.0000       1.840857        50.0923 
 695   0.0000       1.842813        50.1455 
 696   0.0000       1.852840        50.4183 
 697   0.0000       1.853463        50.4353 
 698   0.0000       1.857615        50.5483 
 699   0.0000       1.862419        50.6790 
 700   0.0000       1.865566        50.7646 
 701   0.0000       1.866375        50.7867 
 702   0.0000       1.875024        51.0220 
 703   0.0000       1.879288        51.1380 
 704   0.0000       1.882116        51.2150 
 705   0.0000       1.886288        51.3285 
 706   0.0000       1.890612        51.4462 
 707   0.0000       1.896230        51.5990 
 708   0.0000       1.897044        51.6212 
 709   0.0000       1.898830        51.6698 
 710   0.0000       1.903906        51.8079 
 711   0.0000       1.905659        51.8556 
 712   0.0000       1.913689        52.0741 
 713   0.0000       1.914545        52.0974 
 714   0.0000       1.917048        52.1655 
 715   0.0000       1.921491        52.2864 
 716   0.0000       1.930078        52.5201 
 717   0.0000       1.930457        52.5304 
[...]
 29 H      0.8145     1.0000     0.1855     0.9747     0.9747     0.0000
 30 C      6.0524     6.0000    -0.0524     3.8914     3.8914     0.0000
 31 N      7.3310     7.0000    -0.3310     3.3505     3.3505     0.0000
 32 H      0.7067     1.0000     0.2933     0.9191     0.9191     0.0000
 33 C      5.8131     6.0000     0.1869     3.9157     3.9157     0.0000
 34 H      0.7942     1.0000     0.2058     0.9519     0.9519     0.0000
 35 N      7.3501     7.0000    -0.3501     2.9865     2.9853     0.0011
 36 C      6.0672     6.0000    -0.0672     3.8670     3.8669     0.0000
 37 H      0.7717     1.0000     0.2283     0.9857     0.9857     0.0000
 38 C      6.3319     6.0000    -0.3319     3.9219     3.9219     0.0000
 39 H      0.8922     1.0000     0.1078     0.9749     0.9749     0.0000
 40 H      0.8550     1.0000     0.1450     0.9777     0.9777     0.0000
 41 C      5.3590     6.0000     0.6410     3.9470     3.9470     0.0000
 42 O      8.6644     8.0000    -0.6644     1.6366     1.6349     0.0018
 43 O      8.6857     8.0000    -0.6857     1.7412     1.7412     0.0000
 44 Fe    24.6510    26.0000     1.3490     7.4374     2.8236     4.6138
 45 Fe    24.6808    26.0000     1.3192     7.4313     2.8382     4.5931
 46 O      9.1120     8.0000    -1.1120     1.1096     1.1064     0.0032
 47 H      0.5757     1.0000     0.4243     0.9144     0.9144     0.0000
 48 C      5.7236     6.0000     0.2764     3.7122     3.7121     0.0000
 49 C      5.8905     6.0000     0.1095     4.0898     4.0898     0.0000
 50 C      5.8427     6.0000     0.1573     3.9003     3.9003     0.0000
 51 C      5.8967     6.0000     0.1033     4.0547     4.0547     0.0000
 52 C      5.9051     6.0000     0.0949     4.1692     4.1692     0.0000
 53 C      5.8832     6.0000     0.1168     3.8588     3.8588     0.0000
 54 O      8.7597     8.0000    -0.7597     1.5550     1.5472     0.0078
 55 O      8.5771     8.0000    -0.5771     1.8488     1.8488     0.0000
 56 O      8.5223     8.0000    -0.5223     1.8704     1.8704     0.0000
 57 O      8.4879     8.0000    -0.4879     1.8869     1.8869     0.0000
 58 O      8.5473     8.0000    -0.5473     1.8194     1.8194     0.0000
 59 O      8.5718     8.0000    -0.5718     1.6981     1.6970     0.0011
 60 H      0.8917     1.0000     0.1083     0.9928     0.9928     0.0000
 61 H      0.8951     1.0000     0.1049     0.9647     0.9647     0.0000
 62 H      0.9131     1.0000     0.0869     0.9810     0.9810     0.0000
 63 H      0.9255     1.0000     0.0745     0.9929     0.9929     0.0000
 64 H      0.9067     1.0000     0.0933     0.9936     0.9936     0.0000
 65 H      0.9352     1.0000     0.0648     0.9822     0.9822     0.0000
 66 H      0.6538     1.0000     0.3462     0.8896     0.8896     0.0000
 67 H      0.6660     1.0000     0.3340     0.8982     0.8982     0.0000
 68 H      0.6999     1.0000     0.3001     0.9245     0.9245     0.0000
 69 H      0.6791     1.0000     0.3209     0.9169     0.9169     0.0000
 70 H      0.6220     1.0000     0.3780     0.8692     0.8692     0.0000
 71 O      8.3265     8.0000    -0.3265     1.7587     1.5199     0.2388
 72 O      8.2883     8.0000    -0.2883     1.7706     1.3956     0.3749
 73 H      0.8155     1.0000     0.1845     0.9715     0.9715     0.0000
 74 H      0.8232     1.0000     0.1768     0.9760     0.9760     0.0000
 75 H      0.8773     1.0000     0.1227     0.9716     0.9715     0.0000
 76 H      0.8085     1.0000     0.1915     0.9702     0.9702     0.0000
 77 H      0.8062     1.0000     0.1938     0.9690     0.9690     0.0000
 78 H      0.8828     1.0000     0.1172     0.9691     0.9691     0.0000

  Mayer bond orders larger than 0.100000
B(  0-C ,  1-N ) :   1.1170 B(  0-C ,  6-C ) :   1.7262 B(  0-C , 73-H ) :   0.9477 
B(  1-N ,  2-H ) :   0.8942 B(  1-N ,  3-C ) :   1.3105 B(  3-C ,  4-H ) :   0.9508 
B(  3-C ,  5-N ) :   1.4875 B(  5-N ,  6-C ) :   1.1840 B(  5-N , 44-Fe) :   0.5842 
B(  6-C ,  7-H ) :   0.9625 B(  8-C ,  9-N ) :   1.1477 B(  8-C , 14-C ) :   1.7196 
B(  8-C , 74-H ) :   0.9517 B(  9-N , 10-H ) :   0.8963 B(  9-N , 11-C ) :   1.3064 
B( 11-C , 12-H ) :   0.9582 B( 11-C , 13-N ) :   1.5437 B( 13-N , 14-C ) :   1.1988 
B( 13-N , 44-Fe) :   0.4144 B( 14-C , 15-H ) :   0.9662 B( 16-C , 17-H ) :   0.9935 
B( 16-C , 18-H ) :   0.9627 B( 16-C , 19-C ) :   0.9666 B( 16-C , 75-H ) :   0.9834 
B( 19-C , 20-O ) :   1.3310 B( 19-C , 21-O ) :   1.5113 B( 20-O , 45-Fe) :   0.4185 
B( 21-O , 44-Fe) :   0.3043 B( 22-C , 23-N ) :   1.1277 B( 22-C , 28-C ) :   1.7375 
B( 22-C , 76-H ) :   0.9468 B( 23-N , 24-H ) :   0.8930 B( 23-N , 25-C ) :   1.3323 
B( 25-C , 26-H ) :   0.9546 B( 25-C , 27-N ) :   1.4904 B( 27-N , 28-C ) :   1.1937 
B( 27-N , 45-Fe) :   0.4164 B( 28-C , 29-H ) :   0.9647 B( 30-C , 31-N ) :   1.1327 
B( 30-C , 36-C ) :   1.7447 B( 30-C , 77-H ) :   0.9423 B( 31-N , 32-H ) :   0.8932 
B( 31-N , 33-C ) :   1.3306 B( 33-C , 34-H ) :   0.9530 B( 33-C , 35-N ) :   1.4887 
B( 35-N , 36-C ) :   1.1762 B( 35-N , 45-Fe) :   0.4776 B( 36-C , 37-H ) :   0.9266 
B( 38-C , 39-H ) :   0.9562 B( 38-C , 40-H ) :   0.9938 B( 38-C , 41-C ) :   0.9841 
B( 38-C , 78-H ) :   0.9849 B( 41-C , 42-O ) :   1.3698 B( 41-C , 43-O ) :   1.5765 
B( 42-O , 44-Fe) :   0.4163 B( 43-O , 47-H ) :   0.1270 B( 44-Fe, 46-O ) :   0.2706 
B( 44-Fe, 71-O ) :   0.4373 B( 44-Fe, 72-O ) :   0.2891 B( 45-Fe, 46-O ) :   0.3653 
B( 45-Fe, 54-O ) :   0.7523 B( 45-Fe, 59-O ) :   0.2323 B( 46-O , 47-H ) :   0.7419 
B( 48-C , 49-C ) :   0.9350 B( 48-C , 53-C ) :   0.9939 B( 48-C , 54-O ) :   0.8394 
B( 48-C , 60-H ) :   0.9931 B( 49-C , 50-C ) :   0.9733 B( 49-C , 55-O ) :   1.0759 
B( 49-C , 61-H ) :   0.9716 B( 50-C , 51-C ) :   0.9758 B( 50-C , 56-O ) :   0.9881 
B( 50-C , 62-H ) :   0.9975 B( 51-C , 52-C ) :   1.0147 B( 51-C , 57-O ) :   0.9783 
B( 51-C , 63-H ) :   0.9851 B( 52-C , 53-C ) :   1.0007 B( 52-C , 58-O ) :   0.9529 
B( 52-C , 64-H ) :   0.9915 B( 53-C , 59-O ) :   0.7052 B( 53-C , 65-H ) :   0.9865 
B( 55-O , 66-H ) :   0.8795 B( 56-O , 67-H ) :   0.8802 B( 57-O , 68-H ) :   0.8924 
B( 58-O , 69-H ) :   0.8809 B( 59-O , 70-H ) :   0.8413 B( 71-O , 72-O ) :   1.1698 


-------
TIMINGS
-------

Total SCF time: 0 days 3 hours 45 min 56 sec 

Total time                  ....   13556.851 sec
Sum of individual times     ....   13922.113 sec  (102.7%)

Fock matrix formation       ....   13726.014 sec  (101.2%)
Diagonalization             ....      89.860 sec  (  0.7%)
Density matrix formation    ....       6.366 sec  (  0.0%)
Population analysis         ....       1.821 sec  (  0.0%)
Initial guess               ....       3.788 sec  (  0.0%)
Orbital Transformation      ....       0.000 sec  (  0.0%)
Orbital Orthonormalization  ....       3.475 sec  (  0.0%)
DIIS solution               ....      94.264 sec  (  0.7%)
--------------------------
UHF CORRESPONDING ORBITALS
--------------------------
Transforming orbitals                         ... done
Choosing virtual orbitals in the orth. comp.  ... done

                ***UHF Corresponding Orbitals were saved in /scratch/RC2-flipspin_867/RC2-flipspin.uco***


Now the overlap between the corresponding orbitals will be plotted
Since there are an equal number of alpha and beta orbitals each orbital in the
alpha set is matched by an orbital in the beta set. If all overlaps are close to
one you have a normal UHF solution with some spin polarization
If you have a broken symmetry solution there will be overlaps that are
significantly smaller than one. These orbitals are the non-orthogonal magnetic
orbitals of the broken symmetry UHF solution.

----------------------
 Orbital    Overlap(*)
----------------------
   0:      1.00000
   1:      1.00000
   2:      1.00000
   3:      1.00000
   4:      1.00000
   5:      1.00000
   6:      1.00000
   7:      1.00000
   8:      1.00000
   9:      1.00000
  10:      1.00000
  11:      1.00000
  12:      1.00000
  13:      1.00000
  14:      1.00000
  15:      1.00000
  16:      1.00000
  17:      1.00000
  18:      1.00000
  19:      1.00000
  20:      1.00000
  21:      1.00000
  22:      1.00000
  23:      1.00000
  24:      1.00000
  25:      1.00000
  26:      1.00000
  27:      1.00000
  28:      1.00000
  29:      1.00000
  30:      1.00000
  31:      1.00000
  32:      1.00000
  33:      1.00000
  34:      1.00000
  35:      1.00000
  36:      1.00000
  37:      1.00000
  38:      1.00000
  39:      1.00000
  40:      1.00000
  41:      1.00000
  42:      1.00000
  43:      1.00000
  44:      1.00000
  45:      1.00000
  46:      1.00000
  47:      1.00000
  48:      1.00000
  49:      1.00000
  50:      1.00000
  51:      1.00000
  52:      1.00000
  53:      1.00000
  54:      1.00000
  55:      1.00000
  56:      1.00000
  57:      1.00000
  58:      1.00000
  59:      1.00000
  60:      1.00000
  61:      1.00000
  62:      1.00000
  63:      1.00000
  64:      1.00000
  65:      1.00000
  66:      1.00000
  67:      1.00000
  68:      1.00000
  69:      1.00000
  70:      1.00000
  71:      1.00000
  72:      1.00000
  73:      1.00000
  74:      1.00000
  75:      1.00000
  76:      1.00000
  77:      1.00000
  78:      1.00000
  79:      1.00000
  80:      1.00000
  81:      1.00000
  82:      1.00000
  83:      1.00000
  84:      1.00000
  85:      1.00000
  86:      1.00000
  87:      1.00000
  88:      1.00000
  89:      1.00000
  90:      1.00000
  91:      1.00000
  92:      1.00000
  93:      1.00000
  94:      1.00000
  95:      1.00000
  96:      1.00000
  97:      1.00000
  98:      1.00000
  99:      1.00000
 100:      1.00000
 101:      1.00000
 102:      1.00000
 103:      1.00000
 104:      1.00000
 105:      1.00000
 106:      1.00000
 107:      1.00000
 108:      1.00000
 109:      1.00000
 110:      1.00000
 111:      1.00000
 112:      1.00000
 113:      1.00000
 114:      1.00000
 115:      1.00000
 116:      1.00000
 117:      1.00000
 118:      1.00000
 119:      1.00000
 120:      1.00000
 121:      1.00000
 122:      1.00000
 123:      1.00000
 124:      1.00000
 125:      1.00000
 126:      1.00000
 127:      1.00000
 128:      1.00000
 129:      1.00000
 130:      1.00000
 131:      1.00000
 132:      1.00000
 133:      1.00000
 134:      1.00000
 135:      1.00000
 136:      1.00000
 137:      1.00000
 138:      1.00000
 139:      1.00000
 140:      0.99999
 141:      0.99999
 142:      0.99999
 143:      0.99999
 144:      0.99999
 145:      0.99998
 146:      0.99998
 147:      0.99998
 148:      0.99998
 149:      0.99997
 150:      0.99997
 151:      0.99997
 152:      0.99997
 153:      0.99996
 154:      0.99996
 155:      0.99996
 156:      0.99996
 157:      0.99994
 158:      0.99994
 159:      0.99993
 160:      0.99992
 161:      0.99990
 162:      0.99988
 163:      0.99987
 164:      0.99986
 165:      0.99983
 166:      0.99982
 167:      0.99982
 168:      0.99981
 169:      0.99980
 170:      0.99980
 171:      0.99978
 172:      0.99977
 173:      0.99966
 174:      0.99954
 175:      0.99944
 176:      0.99941
 177:      0.99924
 178:      0.99918
 179:      0.99906
 180:      0.99883
 181:      0.99877
 182:      0.99090
 183:      0.05606
 184:      0.03384
 185:      0.01594
 186:      0.00366
 187:      0.00287
 188:     -0.00000
(*)  the overlap is weighted by the product of occupation numbers
     NOTE: the whole analysis is not valid for fractional occupations

------------------------------------------
BROKEN SYMMETRY MAGNETIC COUPLING ANALYSIS
------------------------------------------

S(High-Spin)      =   5.5    
<S**2>(High-Spin) =  35.7986    
<S**2>(BrokenSym) =   5.7828    
E(High-Spin)      = -4787.438560 Eh
E(BrokenSym)      = -4787.434530 Eh
E(High-Spin)-E(BrokenSym)= -0.1097 eV   -884.375 cm**-1 (FERROMAGNETIC coupling)

          ---------------------------------------------------------
          | Spin-Hamiltonian Analysis based on H(HDvV)= -2J*SA*SB |
    -------                                                       -----------
    | J(1) =      29.24 cm**-1    (from -(E[HS]-E[BS])/Smax**2)             |
    | J(2) =      24.74 cm**-1    (from -(E[HS]-E[BS])/(Smax*(Smax+1))      |
    | J(3) =      29.46 cm**-1    (from -(E[HS]-E[BS])/(<S**2>HS-<S**2>BS)) |
    -------------------------------------------------------------------------

  J(1): (a) A.P. Ginsberg J. Am. Chem. Soc. 102 (1980), 111
        (b) L. Noodleman J. Chem. Phys. 74 (1981), 5737
        (c) L. Noodleman E.R. Davidson Chem. Phys. 109 (1985), 131
  J(2)  (d) A. Bencini D. Gatteschi J. Am. Chem. Soc. 108 (1980), 5763
  J(3)  (e) K. Yamaguchi Y. Takahara T. Fueno in: V.H. Smith (Ed.)
            Applied Quantum Chemistry. Reidel, Dordrecht (1986), pp 155
        (f) T.Soda et al. Chem. Phys. Lett., 319, (2000), 223

-------
TIMINGS
-------

Total SCF time: 0 days 3 hours 52 min 41 sec 

Total time                  ....   13961.858 sec
Sum of individual times     ....   13573.356 sec  ( 97.2%)

Fock matrix formation       ....       0.000 sec  (  0.0%)
Diagonalization             ....       0.000 sec  (  0.0%)
Density matrix formation    ....       0.000 sec  (  0.0%)
Population analysis         ....   13573.356 sec  ( 97.2%)
Initial guess               ....       0.000 sec  (  0.0%)
Orbital Transformation      ....       0.000 sec  (  0.0%)
Orbital Orthonormalization  ....       0.000 sec  (  0.0%)
DIIS solution               ....       0.000 sec  (  0.0%)

Maximum memory used throughout the entire SCF-calculation: 499.9 MB

-------------------------   --------------------
FINAL SINGLE POINT ENERGY     -4787.434530357948
-------------------------   --------------------


                            ***************************************
                            *     ORCA property calculations      *
                            ***************************************

                                    ---------------------
                                    Active property flags
                                    ---------------------
   (+) Dipole Moment


------------------------------------------------------------------------------
                       ORCA ELECTRIC PROPERTIES CALCULATION
------------------------------------------------------------------------------

Dipole Moment Calculation                       ... on
Quadrupole Moment Calculation                   ... off
Polarizability Calculation                      ... off
GBWName                                         ... /scratch/RC2-flipspin_867/RC2-flipspin.gbw
Electron density file                           ... /scratch/RC2-flipspin_867/RC2-flipspin.scfp
The origin for moment calculation is the CENTER OF MASS  = (80.282014, 89.286797 72.193302)

-------------
DIPOLE MOMENT
-------------
                                X             Y             Z
Electronic contribution:     -7.82536       6.07664      -7.68465
Nuclear contribution   :      2.82395      -8.54805       3.28465
                        -----------------------------------------
Total Dipole Moment    :     -5.00141      -2.47142      -4.40000
                        -----------------------------------------
Magnitude (a.u.)       :      7.10507
Magnitude (Debye)      :     18.05965



--------------------
Rotational spectrum 
--------------------
 
Rotational constants in cm-1:     0.002821     0.001898     0.001592 
Rotational constants in MHz :    84.561491    56.909288    47.739255 

 Dipole components along the rotational axes: 
x,y,z [a.u.] :    -2.956821    -6.427067     0.657301 
x,y,z [Debye]:    -7.515643   -16.336305     1.670728 

 
--------------------------------------------------------------------------
WARNING: There was an error initializing an OpenFabrics device.

  Local host:   cnode05
  Local device: mlx5_0
--------------------------------------------------------------------------
[cnode05:404094] 15 more processes have sent help message help-mpi-btl-openib.txt / error in device init
[cnode05:404094] Set MCA parameter "orte_base_help_aggregate" to 0 to see all help / error messages

Timings for individual modules:

Sum of individual times         ...    13971.921 sec (= 232.865 min)
GTO integral calculation        ...        3.040 sec (=   0.051 min)   0.0 %
SCF iterations                  ...    13968.881 sec (= 232.815 min) 100.0 %
                             ****ORCA TERMINATED NORMALLY****
TOTAL RUN TIME: 0 days 3 hours 52 minutes 53 seconds 399 msec

Sender: Unischeduler System <lcz@mgt01>
Subject: Job 132783: <#!/bin/bash
#BSUB -J intel
#BSUB -o RC2-flipspin.out
#BSUB -n 16
#BSUB -q cqueue
export LD_LIBRARY_PATH=/apps/software/openmpi-4.1.1/lib:/apps/software/orca_5_0_0:$LD_LIBRARY_PATH
export PATH=/apps/software/openmpi-4.1.1/bin:/apps/software/orca_5_0_0:$PATH
mkdir /scratch/RC2-flipspin_867
scp $USER@mgt01:/apps/users/lcz/newexe8/exe8/task3/RC2/HF/NoTrah/RC2-flipspin.inp /scratch/RC2-flipspin_867
scp $USER@mgt01:/apps/users/lcz/newexe8/exe8/task3/RC2/HF/NoTrah/RC2-highspin.gbw /scratch/RC2-flipspin_867
/apps/software/orca_5_0_0/orca /scratch/RC2-flipspin_867/RC2-flipspin.inp >& RC2-flipspin.out
scp /scratch/RC2-flipspin_867/*.gbw $USER@mgt01:/apps/users/lcz/newexe8/exe8/task3/RC2/HF/NoTrah
scp /scratch/RC2-flipspin_867/*.xyz $USER@mgt01:/apps/users/lcz/newexe8/exe8/task3/RC2/HF/NoTrah
scp /scratch/RC2-flipspin_867/*.trj $USER@mgt01:/apps/users/lcz/newexe8/exe8/task3/RC2/HF/NoTrah> Exited

Job <#!/bin/bash
#BSUB -J intel
#BSUB -o RC2-flipspin.out
#BSUB -n 16
#BSUB -q cqueue
export LD_LIBRARY_PATH=/apps/software/openmpi-4.1.1/lib:/apps/software/orca_5_0_0:$LD_LIBRARY_PATH
export PATH=/apps/software/openmpi-4.1.1/bin:/apps/software/orca_5_0_0:$PATH
mkdir /scratch/RC2-flipspin_867
scp $USER@mgt01:/apps/users/lcz/newexe8/exe8/task3/RC2/HF/NoTrah/RC2-flipspin.inp /scratch/RC2-flipspin_867
scp $USER@mgt01:/apps/users/lcz/newexe8/exe8/task3/RC2/HF/NoTrah/RC2-highspin.gbw /scratch/RC2-flipspin_867
/apps/software/orca_5_0_0/orca /scratch/RC2-flipspin_867/RC2-flipspin.inp >& RC2-flipspin.out
scp /scratch/RC2-flipspin_867/*.gbw $USER@mgt01:/apps/users/lcz/newexe8/exe8/task3/RC2/HF/NoTrah
scp /scratch/RC2-flipspin_867/*.xyz $USER@mgt01:/apps/users/lcz/newexe8/exe8/task3/RC2/HF/NoTrah
scp /scratch/RC2-flipspin_867/*.trj $USER@mgt01:/apps/users/lcz/newexe8/exe8/task3/RC2/HF/NoTrah> was submitted from host <mgt01> by user <lcz>.
Job was executed on host(s) <16*cnode05>, in queue <cqueue>, as user <lcz>.
</apps/users/lcz> was used as the home directory.
</apps/users/lcz/newexe8/exe8/task3/RC2/HF/NoTrah> was used as the working directory.
Started at 2022-05-17 11:03:20
Results reported at 2022-05-17 14:56:17

Your job looked like:

------------------------------------------------------------
# User input
#!/bin/bash
#BSUB -J intel
#BSUB -o RC2-flipspin.out
#BSUB -n 16
#BSUB -q cqueue
export LD_LIBRARY_PATH=/apps/software/openmpi-4.1.1/lib:/apps/software/orca_5_0_0:$LD_LIBRARY_PATH
export PATH=/apps/software/openmpi-4.1.1/bin:/apps/software/orca_5_0_0:$PATH
mkdir /scratch/RC2-flipspin_867
scp $USER@mgt01:/apps/users/lcz/newexe8/exe8/task3/RC2/HF/NoTrah/RC2-flipspin.inp /scratch/RC2-flipspin_867
scp $USER@mgt01:/apps/users/lcz/newexe8/exe8/task3/RC2/HF/NoTrah/RC2-highspin.gbw /scratch/RC2-flipspin_867
/apps/software/orca_5_0_0/orca /scratch/RC2-flipspin_867/RC2-flipspin.inp >& RC2-flipspin.out
scp /scratch/RC2-flipspin_867/*.gbw $USER@mgt01:/apps/users/lcz/newexe8/exe8/task3/RC2/HF/NoTrah
scp /scratch/RC2-flipspin_867/*.xyz $USER@mgt01:/apps/users/lcz/newexe8/exe8/task3/RC2/HF/NoTrah
scp /scratch/RC2-flipspin_867/*.trj $USER@mgt01:/apps/users/lcz/newexe8/exe8/task3/RC2/HF/NoTrah
------------------------------------------------------------

Exited with exit code 1.

Resource usage summary:

    CPU time   :        223073.5 sec.
    Max Memory :             10414 MB
    Max Processes  :              21


The output (if any) follows:

/scratch/RC2-flipspin_867/*.xyz: No such file or directory
/scratch/RC2-flipspin_867/*.trj: No such file or directory
