
                                        *****************
                                        * O   R   C   A *
                                        *****************

                                            #,                                       
                                            ###                                      
                                            ####                                     
                                            #####                                    
                                            ######                                   
                                           ########,                                 
                                     ,,################,,,,,                         
                               ,,#################################,,                 
                          ,,##########################################,,             
                       ,#########################################, ''#####,          
                    ,#############################################,,   '####,        
                  ,##################################################,,,,####,       
                ,###########''''           ''''###############################       
              ,#####''   ,,,,##########,,,,          '''####'''          '####       
            ,##' ,,,,###########################,,,                        '##       
           ' ,,###''''                  '''############,,,                           
         ,,##''                                '''############,,,,        ,,,,,,###''
      ,#''                                            '''#######################'''  
     '                                                          ''''####''''         
             ,#######,   #######,   ,#######,      ##                                
            ,#'     '#,  ##    ##  ,#'     '#,    #''#        ######   ,####,        
            ##       ##  ##   ,#'  ##            #'  '#       #        #'  '#        
            ##       ##  #######   ##           ,######,      #####,   #    #        
            '#,     ,#'  ##    ##  '#,     ,#' ,#      #,         ##   #,  ,#        
             '#######'   ##     ##  '#######'  #'      '#     #####' # '####'        



                  #######################################################
                  #                        -***-                        #
                  #          Department of theory and spectroscopy      #
                  #    Directorship and core code : Frank Neese         #
                  #        Max Planck Institute fuer Kohlenforschung    #
                  #                Kaiser Wilhelm Platz 1               #
                  #                 D-45470 Muelheim/Ruhr               #
                  #                      Germany                        #
                  #                                                     #
                  #                  All rights reserved                #
                  #                        -***-                        #
                  #######################################################


                         Program Version 5.0.0 -  RELEASE  -
                                (SVN: $Rev: 19529$)
                ($Date: 2021-06-28 11:36:33 +0200 (Mo, 28 Jun 2021) $)


 With contributions from (in alphabetic order):
   Daniel Aravena         : Magnetic Suceptibility
   Michael Atanasov       : Ab Initio Ligand Field Theory (pilot matlab implementation)
   Alexander A. Auer      : GIAO ZORA, VPT2 properties, NMR spectrum
   Ute Becker             : Parallelization
   Giovanni Bistoni       : ED, misc. LED, open-shell LED, HFLD
   Martin Brehm           : Molecular dynamics
   Dmytro Bykov           : SCF Hessian
   Vijay G. Chilkuri      : MRCI spin determinant printing, contributions to CSF-ICE
   Dipayan Datta          : RHF DLPNO-CCSD density
   Achintya Kumar Dutta   : EOM-CC, STEOM-CC
   Dmitry Ganyushin       : Spin-Orbit,Spin-Spin,Magnetic field MRCI
   Miquel Garcia          : C-PCM Hessian, Gaussian charge scheme
   Yang Guo               : DLPNO-NEVPT2, F12-NEVPT2, CIM, IAO-localization
   Andreas Hansen         : Spin unrestricted coupled pair/coupled cluster methods
   Benjamin Helmich-Paris : MC-RPA, TRAH-SCF, COSX integrals
   Lee Huntington         : MR-EOM, pCC
   Robert Izsak           : Overlap fitted RIJCOSX, COSX-SCS-MP3, EOM
   Marcus Kettner         : VPT2
   Christian Kollmar      : KDIIS, OOCD, Brueckner-CCSD(T), CCSD density, CASPT2, CASPT2-K
   Simone Kossmann        : Meta GGA functionals, TD-DFT gradient, OOMP2, MP2 Hessian
   Martin Krupicka        : Initial AUTO-CI
   Lucas Lang             : DCDCAS
   Marvin Lechner         : AUTO-CI (C++ implementation), FIC-MRCC
   Dagmar Lenk            : GEPOL surface, SMD
   Dimitrios Liakos       : Extrapolation schemes; Compound Job, initial MDCI parallelization
   Dimitrios Manganas     : Further ROCIS development; embedding schemes
   Dimitrios Pantazis     : SARC Basis sets
   Anastasios Papadopoulos: AUTO-CI, single reference methods and gradients
   Taras Petrenko         : DFT Hessian,TD-DFT gradient, ASA, ECA, R-Raman, ABS, FL, XAS/XES, NRVS
   Peter Pinski           : DLPNO-MP2, DLPNO-MP2 Gradient
   Christoph Reimann      : Effective Core Potentials
   Marius Retegan         : Local ZFS, SOC
   Christoph Riplinger    : Optimizer, TS searches, QM/MM, DLPNO-CCSD(T), (RO)-DLPNO pert. Triples
   Tobias Risthaus        : Range-separated hybrids, TD-DFT gradient, RPA, STAB
   Michael Roemelt        : Original ROCIS implementation
   Masaaki Saitow         : Open-shell DLPNO-CCSD energy and density
   Barbara Sandhoefer     : DKH picture change effects
   Avijit Sen             : IP-ROCIS
   Kantharuban Sivalingam : CASSCF convergence, NEVPT2, FIC-MRCI
   Bernardo de Souza      : ESD, SOC TD-DFT
   Georgi Stoychev        : AutoAux, RI-MP2 NMR
   Willem Van den Heuvel  : Paramagnetic NMR
   Boris Wezisla          : Elementary symmetry handling
   Frank Wennmohs         : Technical directorship


 We gratefully acknowledge several colleagues who have allowed us to
 interface, adapt or use parts of their codes:
   Stefan Grimme, W. Hujo, H. Kruse, P. Pracht,  : VdW corrections, initial TS optimization,
                  C. Bannwarth, S. Ehlert          DFT functionals, gCP, sTDA/sTD-DF
   Ed Valeev, F. Pavosevic, A. Kumar             : LibInt (2-el integral package), F12 methods
   Garnet Chan, S. Sharma, J. Yang, R. Olivares  : DMRG
   Ulf Ekstrom                                   : XCFun DFT Library
   Mihaly Kallay                                 : mrcc  (arbitrary order and MRCC methods)
   Jiri Pittner, Ondrej Demel                    : Mk-CCSD
   Frank Weinhold                                : gennbo (NPA and NBO analysis)
   Christopher J. Cramer and Donald G. Truhlar   : smd solvation model
   Lars Goerigk                                  : TD-DFT with DH, B97 family of functionals
   V. Asgeirsson, H. Jonsson                     : NEB implementation
   FAccTs GmbH                                   : IRC, NEB, NEB-TS, DLPNO-Multilevel, CI-OPT
                                                   MM, QMMM, 2- and 3-layer-ONIOM, Crystal-QMMM,
                                                   LR-CPCM, SF, NACMEs, symmetry and pop. for TD-DFT,
                                                   nearIR, NL-DFT gradient (VV10), updates on ESD,
                                                   ML-optimized integration grids
   S Lehtola, MJT Oliveira, MAL Marques          : LibXC Library
   Liviu Ungur et al                             : ANISO software


 Your calculation uses the libint2 library for the computation of 2-el integrals
 For citations please refer to: http://libint.valeyev.net

 Your ORCA version has been built with support for libXC version: 5.1.0
 For citations please refer to: https://tddft.org/programs/libxc/

 This ORCA versions uses:
   CBLAS   interface :  Fast vector & matrix operations
   LAPACKE interface :  Fast linear algebra routines
   SCALAPACK package :  Parallel linear algebra routines
   Shared memory     :  Shared parallel matrices
   BLAS/LAPACK       :  OpenBLAS 0.3.15  USE64BITINT DYNAMIC_ARCH NO_AFFINITY SkylakeX SINGLE_THREADED
        Core in use  :  SkylakeX
   Copyright (c) 2011-2014, The OpenBLAS Project


================================================================================

----- Orbital basis set information -----
Your calculation utilizes the basis: def2-SVP
   F. Weigend and R. Ahlrichs, Phys. Chem. Chem. Phys. 7, 3297 (2005).

================================================================================
                                        WARNINGS
                       Please study these warnings very carefully!
================================================================================


INFO   : the flag for use of the SHARK integral package has been found!

================================================================================
                                       INPUT FILE
================================================================================
NAME = FeH2O62+-cas65-mul1.inp
|  1> ! def2-svp pal8 UseSym
|  2> ! MOread
|  3> 
|  4> %moinp  "FeH2O62+-rohf.gbw"
|  5> 
|  6> %casscf
|  7>     nel     6
|  8>     norb    5
|  9>     irrep   0
| 10>     mult    1
| 11>     nroots  1
| 12> end
| 13> 
| 14> *xyz 2 1
| 15>  Fe     -0.64257176050830       0.51803920561668        0.11515259480577
| 16>  O      0.11174687498777        2.15027362958097        -0.78003307659188
| 17>  H      0.70766775417542        2.71590643817051        -0.25346860209865
| 18>  O      -1.31193844940493       -0.30254437211926       -1.59153974321848
| 19>  H      -1.93648366806763       0.13093135988795        -2.20090760771949
| 20>  O      0.02720918798052        1.33940572113505        1.82122676893196
| 21>  H      0.65258765622944        0.90686870076571        2.43040311553976
| 22>  O      -1.39648053530566       -1.11444807905756       1.01023916292248
| 23>  H      -1.99331392681300       -1.67940484230818       0.48397490889195
| 24>  O      -2.28682023617329       1.63340828371306        0.41005372492049
| 25>  H      -2.35377021104600       2.47291065207153        -0.08301808819513
| 26>  O      1.00194372931180        -0.59712335622834       -0.17950165163229
| 27>  H      1.06807766676477        -1.43758842942053       0.31202545851205
| 28>  H      -3.18922098471738       1.27280247171927        0.48036417156888
| 29>  H      -0.66521991563992       -0.78352006296416       -2.14179468111308
| 30>  H      1.90454646424149        -0.23678289755293       -0.24845043594753
| 31>  H      0.43776650602076        2.17113603799071        -1.69794346797289
| 32>  H      -0.61875604533523       1.82123954705219        2.37159866149671
| 33>  H      -1.72126010670064       -1.13595000805262       1.92856878689935
| 34> *
| 35> 
| 36>                          ****END OF INPUT****
================================================================================

------------------------------------------------------------------------------
                            SYMMETRY HANDLING SETUP
------------------------------------------------------------------------------

------------------
SYMMETRY DETECTION
------------------
The point group will now be determined using a tolerance of 1.0000e-04.
Splitting atom subsets according to nuclear charge, mass and basis set.
Splitting atom subsets according to distance from the molecule's center.
Identifying relative distance patterns of the atoms.
Splitting atom subsets according to atoms' relative distance patterns.
Bring atoms of each subset into input order.
The molecule is neither linear nor planar.
There is at least one atom subset not centered around the molecule's center.
The molecule does not have a center of inversion.
Analyzing the first atom subset for its symmetry.
The subset is an off-center atom pair.
Testing point group C2v.
Test failed.
Testing point group C2.
Test failed.
Testing point group Cs.
Test failed.
Testing point group Cs.
Test failed.
No testing is needed for point group C1.
This point group has been found:    C1
Largest non-degenerate subgroup:    C1


Mass-centered symmetry-perfected Cartesians (point group C1):

Atom          Symmetry-perfected Cartesians (x, y, z; au)
  0      -0.000241687993   -0.000159992562    0.000092312497
  1       1.425213950808    3.084316055090   -1.691563445455
  2       2.551341209958    4.153207155684   -0.696500796811
  3      -1.265161413177   -1.550838224476   -3.225088801231
  4      -2.445380834700   -0.731687805281   -4.376627179950
  5       1.265460874369    1.551997777341    3.224105265751
  6       2.447254909411    0.734621266061    4.375281728103
  7      -1.424922802320   -3.085113877705    1.691560792389
  8      -2.552774459848   -4.152727437755    0.697065478199
  9      -3.107421003117    2.107582103285    0.557374684998
 10      -3.233938120299    3.694011668260   -0.374396006147
 11       3.107442210759   -2.107511829251   -0.556723517468
 12       3.232417240703   -3.695760642710    0.372128108103
 13      -4.812711280911    1.426135876316    0.690242173517
 14      -0.043040498630   -2.459750557246   -4.264919937689
 15       4.813114187504   -1.426567047383   -0.687017837091
 16       2.041301767742    3.123740293478   -3.426162700646
 17       0.044763491368    2.462531750384    4.264157414507
 18      -2.038667246149   -3.125746634856    3.426952282372


------------------
SYMMETRY REDUCTION
------------------
ORCA supports only abelian point groups.
It is now checked, if the determined point group is supported:
Point Group ( C1    ) is          ... supported

The point group is C1 - hence turning off symmetry
If this is a round-off problem, please increase the symmetry
        detection tolerance (%method SymThresh)

Storing the symmetry object:
Symmetry file                     ... FeH2O62+-cas65-mul1.sym.tmp
Writing symmetry information      ... done

                       ****************************
                       * Single Point Calculation *
                       ****************************

---------------------------------
CARTESIAN COORDINATES (ANGSTROEM)
---------------------------------
  Fe    -0.000128   -0.000085    0.000049
  O      0.754191    1.632150   -0.895137
  H      1.350112    2.197783   -0.368572
  O     -0.669495   -0.820668   -1.706643
  H     -1.294040   -0.387193   -2.316011
  O      0.669653    0.821282    1.706123
  H      1.295032    0.388745    2.315299
  O     -0.754037   -1.632572    0.895135
  H     -1.350870   -2.197529    0.368871
  O     -1.644376    1.115284    0.294950
  H     -1.711326    1.954787   -0.198122
  O      1.644388   -1.115247   -0.294605
  H      1.710522   -1.955712    0.196922
  H     -2.546777    0.754679    0.365260
  H     -0.022776   -1.301644   -2.256898
  H      2.546990   -0.754907   -0.363554
  H      1.080210    1.653012   -1.813047
  H      0.023688    1.303116    2.256495
  H     -1.078816   -1.654074    1.813465

----------------------------
CARTESIAN COORDINATES (A.U.)
----------------------------
  NO LB      ZA    FRAG     MASS         X           Y           Z
   0 Fe   26.0000    0    55.850   -0.000242   -0.000160    0.000092
   1 O     8.0000    0    15.999    1.425214    3.084316   -1.691563
   2 H     1.0000    0     1.008    2.551341    4.153207   -0.696501
   3 O     8.0000    0    15.999   -1.265161   -1.550838   -3.225089
   4 H     1.0000    0     1.008   -2.445381   -0.731688   -4.376627
   5 O     8.0000    0    15.999    1.265461    1.551998    3.224105
   6 H     1.0000    0     1.008    2.447255    0.734621    4.375282
   7 O     8.0000    0    15.999   -1.424923   -3.085114    1.691561
   8 H     1.0000    0     1.008   -2.552774   -4.152727    0.697065
   9 O     8.0000    0    15.999   -3.107421    2.107582    0.557375
  10 H     1.0000    0     1.008   -3.233938    3.694012   -0.374396
  11 O     8.0000    0    15.999    3.107442   -2.107512   -0.556724
  12 H     1.0000    0     1.008    3.232417   -3.695761    0.372128
  13 H     1.0000    0     1.008   -4.812711    1.426136    0.690242
  14 H     1.0000    0     1.008   -0.043040   -2.459751   -4.264920
  15 H     1.0000    0     1.008    4.813114   -1.426567   -0.687018
  16 H     1.0000    0     1.008    2.041302    3.123740   -3.426163
  17 H     1.0000    0     1.008    0.044763    2.462532    4.264157
  18 H     1.0000    0     1.008   -2.038667   -3.125747    3.426952

--------------------------------
INTERNAL COORDINATES (ANGSTROEM)
--------------------------------
 Fe     0   0   0     0.000000000000     0.00000000     0.00000000
 O      1   0   0     2.008617237033     0.00000000     0.00000000
 H      2   1   0     0.975875152980   117.37766494     0.00000000
 O      1   2   3     2.008533770920    94.49943795   192.95450358
 H      4   1   2     0.974313673660   124.28449280   302.59596573
 O      1   2   3     2.008466718518    85.46986981    12.95255418
 H      6   1   2     0.974311204804   124.30521217   237.46496978
 O      1   2   3     2.008624688627   179.98597657   277.05848035
 H      8   1   6     0.975879247976   117.37097903   166.96388279
 O      1   2   3     2.008623385964    85.50402152    98.76181304
 H     10   1   2     0.975892585536   117.36530511    13.06977633
 O      1   2   3     2.008691081412    94.49130414   278.77265031
 H     12   1   2     0.975886334030   117.36953047   167.06704431
 H     10   1   2     0.974323981807   124.28045717   151.64103527
 H      4   1   2     0.975890861611   117.36256160    81.18273885
 H     12   1   2     0.974315594723   124.29807744    28.45241659
 H      2   1   3     0.974311822010   124.25903324   138.59308223
 H      6   1   2     0.975881211304   117.40260721    98.77790691
 H      8   1   6     0.974306625873   124.26848603    28.36184628

---------------------------
INTERNAL COORDINATES (A.U.)
---------------------------
 Fe     0   0   0     0.000000000000     0.00000000     0.00000000
 O      1   0   0     3.795736485866     0.00000000     0.00000000
 H      2   1   0     1.844136780030   117.37766494     0.00000000
 O      1   2   3     3.795578757770    94.49943795   192.95450358
 H      4   1   2     1.841186011751   124.28449280   302.59596573
 O      1   2   3     3.795452047094    85.46986981    12.95255418
 H      6   1   2     1.841181346290   124.30521217   237.46496978
 O      1   2   3     3.795750567338   179.98597657   277.05848035
 H      8   1   6     1.844144518453   117.37097903   166.96388279
 O      1   2   3     3.795748105662    85.50402152    98.76181304
 H     10   1   2     1.844169722787   117.36530511    13.06977633
 O      1   2   3     3.795876031518    94.49130414   278.77265031
 H     12   1   2     1.844157909152   117.36953047   167.06704431
 H     10   1   2     1.841205491327   124.28045717   151.64103527
 H      4   1   2     1.844166465042   117.36256160    81.18273885
 H     12   1   2     1.841189642034   124.29807744    28.45241659
 H      2   1   3     1.841182512641   124.25903324   138.59308223
 H      6   1   2     1.844148228604   117.40260721    98.77790691
 H      8   1   6     1.841172693364   124.26848603    28.36184628

---------------------
BASIS SET INFORMATION
---------------------
There are 3 groups of distinct atoms

 Group   1 Type Fe  : 14s9p5d1f contracted to 5s3p2d1f pattern {63311/531/41/1}
 Group   2 Type O   : 7s4p1d contracted to 3s2p1d pattern {511/31/1}
 Group   3 Type H   : 4s1p contracted to 2s1p pattern {31/1}

Atom   0Fe   basis set group =>   1
Atom   1O    basis set group =>   2
Atom   2H    basis set group =>   3
Atom   3O    basis set group =>   2
Atom   4H    basis set group =>   3
Atom   5O    basis set group =>   2
Atom   6H    basis set group =>   3
Atom   7O    basis set group =>   2
Atom   8H    basis set group =>   3
Atom   9O    basis set group =>   2
Atom  10H    basis set group =>   3
Atom  11O    basis set group =>   2
Atom  12H    basis set group =>   3
Atom  13H    basis set group =>   3
Atom  14H    basis set group =>   3
Atom  15H    basis set group =>   3
Atom  16H    basis set group =>   3
Atom  17H    basis set group =>   3
Atom  18H    basis set group =>   3
--------------------------------------------------------------------------
WARNING: There was an error initializing an OpenFabrics device.

  Local host:   cnode04
  Local device: mlx5_0
--------------------------------------------------------------------------


           ************************************************************
           *        Program running with 8 parallel MPI-processes     *
           *              working on a common directory               *
           ************************************************************
------------------------------------------------------------------------------
                           ORCA GTO INTEGRAL CALCULATION
------------------------------------------------------------------------------
------------------------------------------------------------------------------
                   ___                                                        
                  /   \      - P O W E R E D   B Y -                         
                 /     \                                                     
                 |  |  |   _    _      __       _____    __    __             
                 |  |  |  | |  | |    /  \     |  _  \  |  |  /  |          
                  \  \/   | |  | |   /    \    | | | |  |  | /  /          
                 / \  \   | |__| |  /  /\  \   | |_| |  |  |/  /          
                |  |  |   |  __  | /  /__\  \  |    /   |      \           
                |  |  |   | |  | | |   __   |  |    \   |  |\   \          
                \     /   | |  | | |  |  |  |  | |\  \  |  | \   \       
                 \___/    |_|  |_| |__|  |__|  |_| \__\ |__|  \__/        
                                                                              
                      - O R C A' S   B I G   F R I E N D -                    
                                      &                                       
                       - I N T E G R A L  F E E D E R -                       
                                                                              
 v1 FN, 2020, v2 2021                                                         
------------------------------------------------------------------------------


Reading SHARK input file FeH2O62+-cas65-mul1.SHARKINP.tmp ... ok
----------------------
SHARK INTEGRAL PACKAGE
----------------------

Number of atoms                             ...     19
Number of basis functions                   ...    175
Number of shells                            ...     83
Maximum angular momentum                    ...      3
Integral batch strategy                     ... SHARK/LIBINT Hybrid
RI-J (if used) integral strategy            ... SPLIT-RIJ (Revised 2003 algorithm where possible)
Printlevel                                  ...      1
Contraction scheme used                     ... SEGMENTED contraction
Coulomb Range Separation                    ... NOT USED
Exchange Range Separation                   ... NOT USED
Finite Nucleus Model                        ... NOT USED
Auxiliary Coulomb fitting basis             ... NOT available
Auxiliary J/K fitting basis                 ... NOT available
Auxiliary Correlation fitting basis         ... NOT available
Auxiliary 'external' fitting basis          ... NOT available
Integral threshold                          ...     1.000000e-10
Primitive cut-off                           ...     1.000000e-11
Primitive pair pre-selection threshold      ...     1.000000e-11

Calculating pre-screening integrals         ... done (  0.0 sec) Dimension = 83
Organizing shell pair data                  ... done (  0.0 sec)
Shell pair information
Total number of shell pairs                 ...      3486
Shell pairs after pre-screening             ...      3281
Total number of primitive shell pairs       ...     13195
Primitive shell pairs kept                  ...      8744
          la=0 lb=0:   1083 shell pairs
          la=1 lb=0:   1175 shell pairs
          la=1 lb=1:    351 shell pairs
          la=2 lb=0:    358 shell pairs
          la=2 lb=1:    198 shell pairs
          la=2 lb=2:     33 shell pairs
          la=3 lb=0:     47 shell pairs
          la=3 lb=1:     27 shell pairs
          la=3 lb=2:      8 shell pairs
          la=3 lb=3:      1 shell pairs

Calculating one electron integrals          ... done (  0.0 sec)
Calculating Nuclear repulsion               ... done (  0.0 sec) ENN=    695.793466821567 Eh

SHARK setup successfully completed in   0.1 seconds

Maximum memory used throughout the entire GTOINT-calculation: 12.5 MB
[cnode04:32718] 7 more processes have sent help message help-mpi-btl-openib.txt / error in device init
[cnode04:32718] Set MCA parameter "orte_base_help_aggregate" to 0 to see all help / error messages
--------------------------------------------------------------------------
WARNING: There was an error initializing an OpenFabrics device.

  Local host:   cnode04
  Local device: mlx5_0
--------------------------------------------------------------------------


           ************************************************************
           *        Program running with 8 parallel MPI-processes     *
           *              working on a common directory               *
           ************************************************************
-------------------------------------------------------------------------------
                                 ORCA SCF
-------------------------------------------------------------------------------

------------
SCF SETTINGS
------------
Hamiltonian:
 Ab initio Hamiltonian  Method          .... Hartree-Fock(GTOs)


General Settings:
 Integral files         IntName         .... FeH2O62+-cas65-mul1
 Hartree-Fock type      HFTyp           .... CASSCF
 Total Charge           Charge          ....    2
 Multiplicity           Mult            ....    1
 Number of Electrons    NEL             ....   84
 Basis Dimension        Dim             ....  175
 Nuclear Repulsion      ENuc            ....    695.7934668216 Eh


Diagonalization of the overlap matrix:
Smallest eigenvalue                        ... 1.374e-02
Time for diagonalization                   ...    0.003 sec
Threshold for overlap eigenvalues          ... 1.000e-08
Number of eigenvalues below threshold      ... 0
Time for construction of square roots      ...    0.004 sec
Total time needed                          ...    0.008 sec

---------------------
INITIAL GUESS: MOREAD
---------------------
Guess MOs are being read from file: FeH2O62+-rohf.gbw
Input Geometry matches current geometry (good)
Input basis set matches current basis set (good)
MOs were renormalized
Gram-Schmidt orthogonalization of all MOs with pivot on actives
                      ------------------
                      INITIAL GUESS DONE (   0.0 sec)
                      ------------------


 ... the calculation is a CASSCF calculation -I'm leaving here GOOD LUCK!!!

[cnode04:32778] 7 more processes have sent help message help-mpi-btl-openib.txt / error in device init
[cnode04:32778] Set MCA parameter "orte_base_help_aggregate" to 0 to see all help / error messages
--------------------------------------------------------------------------
WARNING: There was an error initializing an OpenFabrics device.

  Local host:   cnode04
  Local device: mlx5_0
--------------------------------------------------------------------------


           ************************************************************
           *        Program running with 8 parallel MPI-processes     *
           *              working on a common directory               *
           ************************************************************
-------------------------------------------------------------------------------
                              ORCA-CASSCF
-------------------------------------------------------------------------------

Setting up the integral package       ... done
Building the CAS space                ... done (45 configurations for Mult=1)

SYSTEM-SPECIFIC SETTINGS:
Number of active electrons          ...    6
Number of active orbitals           ...    5
Total number of electrons           ...   84
Total number of orbitals            ...  175

Determined orbital ranges:
   Internal       0 -   38 (  39 orbitals)
   Active        39 -   43 (   5 orbitals)
   External      44 -  174 ( 131 orbitals)
Number of rotation parameters      ...   5959

CI-STEP:
CI strategy                         ... General CI
Number of multiplicity blocks       ...    1
BLOCK  1 WEIGHT=   1.0000
  Multiplicity                      ...    1
  #(Configurations)                 ...   45
  #(CSFs)                           ...   50
  #(Roots)                          ...    1
    ROOT=0 WEIGHT=    1.000000

  PrintLevel                        ...    1
  N(GuessMat)                       ...       512
  MaxDim(CI)                        ...        10
  MaxIter(CI)                       ...        64
  Energy Tolerance CI               ...  1.00e-08
  Residual Tolerance CI             ...  1.00e-08
  Shift(CI)                         ...  1.00e-04

INTEGRAL-TRANSFORMATION-STEP:
  Algorithm                         ... EXACT

ORBITAL-IMPROVEMENT-STEP:
  Algorithm                         ... SuperCI(PT)
  Default Parametrization           ... CAYLEY
  Act-Act rotations                 ... depends on algorithm used

  Note: SuperCI(PT) will ignore FreezeIE, FreezeAct and FreezeGrad. In general Default settings are encouraged.
        In conjunction with ShiftUp, ShiftDn or GradScaling the performance of SuperCI(PT) is less optimal.  

  MaxRot                            ... 2.00e-01 
  Max. no of vectors (DIIS)         ... 15
  DThresh (cut-off) metric          ... 1.00e-06
  Switch step at gradient           ...  3.00e-02 
  Switch step at iteration          ...        50   
  Switch step to                    ... SuperCI(PT)    

SCF-SETTINGS:
  Incremental                       ... on
  RIJCOSX approximation             ... off
  RI-JK approximation               ... off
  AO integral handling              ... DIRECT
  Integral Neglect Thresh           ...  1.00e-10
  Primitive cutoff TCut             ...  1.00e-11
  Energy convergence tolerance      ...  1.00e-07
  Orbital gradient convergence      ...  1.00e-03
  Max. number of iterations         ...        75  


FINAL ORBITALS:
  Active   Orbitals                 ... natural 
  Internal Orbitals                 ... canonical 
  External Orbitals                 ... canonical 

------------------
CAS-SCF ITERATIONS
------------------


MACRO-ITERATION   1: 
   --- Inactive Energy E0 = -1700.74754109 Eh
CI-ITERATION   0: 
 -1717.622979043   0.000000000000 (    0.00)
   CI-PROBLEM SOLVED
   DENSITIES MADE

                 <<<<<<<<<<<<<<<<<<INITIAL CI STATE CHECK>>>>>>>>>>>>>>>>>>

BLOCK  1 MULT= 1 NROOTS= 1 
ROOT   0:  E=   -1717.6229790432 Eh
      0.66543 [    44]: 22200
      0.13987 [    37]: 21201
      0.13956 [    43]: 22110
      0.02381 [    35]: 21111
      0.01026 [    39]: 22002
      0.01026 [    31]: 20220

                 <<<<<<<<<<<<<<<<<<INITIAL CI STATE CHECK>>>>>>>>>>>>>>>>>>

   E(CAS)= -1717.622979043 Eh DE=    0.000000e+00
[cnode04:32846] 7 more processes have sent help message help-mpi-btl-openib.txt / error in device init
[cnode04:32846] Set MCA parameter "orte_base_help_aggregate" to 0 to see all help / error messages
   --- Energy gap subspaces: Ext-Act = -0.161   Act-Int = 0.056
   N(occ)=  1.98637 1.80891 1.80919 0.19763 0.19791
   ||g|| =     5.710450e-01 Max(G)=    2.802234e-01 Rot=172,14
   --- Orbital Update [SuperCI(PT)]
   --- Canonicalize Internal Space
   --- Canonicalize External Space
   --- SX_PT (Skipped TA=0 IT=0): ||X|| =      0.247618215 Max(X)(39,33) =      0.225442444 
   --- SFit(Active Orbitals)

MACRO-ITERATION   2: 
   --- Inactive Energy E0 = -1700.21211373 Eh
CI-ITERATION   0: 
 -1717.634444375   0.000000000000 (    0.00)
   CI-PROBLEM SOLVED
   DENSITIES MADE
   E(CAS)= -1717.634444375 Eh DE=   -1.146533e-02
   --- Energy gap subspaces: Ext-Act = -0.166   Act-Int = 0.046
   N(occ)=  1.96815 1.82192 1.82214 0.19378 0.19401
   ||g|| =     9.335394e-02 Max(G)=    2.785923e-02 Rot=172,14
   --- Orbital Update [SuperCI(PT)]
   --- Canonicalize Internal Space
   --- Canonicalize External Space
   --- SX_PT (Skipped TA=0 IT=0): ||X|| =      0.050170654 Max(X)(39,37) =      0.046138099 
   --- SFit(Active Orbitals)

MACRO-ITERATION   3: 
   --- Inactive Energy E0 = -1700.17913854 Eh
CI-ITERATION   0: 
 -1717.635294098   0.000000000000 (    0.00)
   CI-PROBLEM SOLVED
   DENSITIES MADE
   E(CAS)= -1717.635294098 Eh DE=   -8.497224e-04
   --- Energy gap subspaces: Ext-Act = -0.172   Act-Int = 0.047
   N(occ)=  1.96621 1.82546 1.82568 0.19121 0.19144
   ||g|| =     2.934879e-02 Max(G)=    5.060416e-03 Rot=75,41
   --- Orbital Update [SuperCI(PT)]
   --- Canonicalize Internal Space
   --- Canonicalize External Space
   --- SX_PT (Skipped TA=0 IT=0): ||X|| =      0.005429383 Max(X)(39,37) =      0.002111940 
   --- SFit(Active Orbitals)

MACRO-ITERATION   4: 
   --- Inactive Energy E0 = -1700.18062445 Eh
CI-ITERATION   0: 
 -1717.635339231   0.000000000000 (    0.00)
   CI-PROBLEM SOLVED
   DENSITIES MADE
   E(CAS)= -1717.635339231 Eh DE=   -4.513367e-05
   --- Energy gap subspaces: Ext-Act = -0.171   Act-Int = 0.043
   N(occ)=  1.96605 1.82606 1.82628 0.19069 0.19092
   ||g|| =     1.579589e-02 Max(G)=   -2.797609e-03 Rot=73,39
   --- Orbital Update [SuperCI(PT)]
   --- Canonicalize Internal Space
   --- Canonicalize External Space
   --- SX_PT (Skipped TA=0 IT=0): ||X|| =      0.002769999 Max(X)(61,39) =      0.000576742 
   --- SFit(Active Orbitals)

MACRO-ITERATION   5: 
   --- Inactive Energy E0 = -1700.18291522 Eh
CI-ITERATION   0: 
 -1717.635352137   0.000000000000 (    0.00)
   CI-PROBLEM SOLVED
   DENSITIES MADE
   E(CAS)= -1717.635352137 Eh DE=   -1.290565e-05
   --- Energy gap subspaces: Ext-Act = -0.172   Act-Int = 0.044
   N(occ)=  1.96602 1.82630 1.82652 0.19047 0.19070
   ||g|| =     2.180139e-03 Max(G)=    4.623591e-04 Rot=75,41
   --- Orbital Update [SuperCI(PT)]
   --- Canonicalize Internal Space
   --- Canonicalize External Space
   --- SX_PT (Skipped TA=0 IT=0): ||X|| =      0.000815086 Max(X)(41,30) =      0.000226082 
   --- SFit(Active Orbitals)

MACRO-ITERATION   6: 
   --- Inactive Energy E0 = -1700.18366569 Eh
CI-ITERATION   0: 
 -1717.635352728   0.000000000000 (    0.00)
   CI-PROBLEM SOLVED
   DENSITIES MADE
   E(CAS)= -1717.635352728 Eh DE=   -5.910663e-07
   --- Energy gap subspaces: Ext-Act = -0.172   Act-Int = 0.044
   N(occ)=  1.96601 1.82645 1.82667 0.19032 0.19055
   ||g|| =     4.824344e-04 Max(G)=   -8.759857e-05 Rot=75,41
                     ---- THE CAS-SCF GRADIENT HAS CONVERGED ----
                            --- FINALIZING ORBITALS ---
                    ---- DOING ONE FINAL ITERATION FOR PRINTING ----
   --- Forming Natural Orbitals
   --- Canonicalize Internal Space
   --- Canonicalize External Space

MACRO-ITERATION   7: 
   --- Inactive Energy E0 = -1700.18366568 Eh
   --- All densities will be recomputed
CI-ITERATION   0: 
 -1717.635352719   0.000000000000 (    0.00)
   CI-PROBLEM SOLVED
   DENSITIES MADE
   E(CAS)= -1717.635352719 Eh DE=    8.634288e-09
   --- Energy gap subspaces: Ext-Act = -0.231   Act-Int = 0.044
   N(occ)=  1.96601 1.96171 1.96170 0.05529 0.05528
   ||g|| =     4.824356e-04 Max(G)=   -1.157211e-04 Rot=75,41
--------------
CASSCF RESULTS
--------------

Final CASSCF energy       : -1717.635352719 Eh  -46739.2341 eV

----------------
ORBITAL ENERGIES
----------------

  NO   OCC          E(Eh)            E(eV) 
   0   2.0000    -261.616272     -7118.9407 
   1   2.0000     -32.182009      -875.7170 
   2   2.0000     -27.672035      -752.9944 
   3   2.0000     -27.671125      -752.9696 
   4   2.0000     -27.671123      -752.9695 
   5   2.0000     -20.909968      -568.9892 
   6   2.0000     -20.909963      -568.9890 
   7   2.0000     -20.909957      -568.9888 
   8   2.0000     -20.909944      -568.9885 
   9   2.0000     -20.909919      -568.9878 
  10   2.0000     -20.909905      -568.9875 
  11   2.0000      -4.408768      -119.9687 
  12   2.0000      -2.992915       -81.4414 
  13   2.0000      -2.991183       -81.3942 
  14   2.0000      -2.991182       -81.3942 
  15   2.0000      -1.688874       -45.9566 
  16   2.0000      -1.677459       -45.6460 
  17   2.0000      -1.672906       -45.5221 
  18   2.0000      -1.672899       -45.5219 
  19   2.0000      -1.670777       -45.4642 
  20   2.0000      -1.670767       -45.4639 
  21   2.0000      -1.069468       -29.1017 
  22   2.0000      -1.066622       -29.0243 
  23   2.0000      -1.059972       -28.8433 
  24   2.0000      -1.059951       -28.8427 
  25   2.0000      -1.059024       -28.8175 
  26   2.0000      -1.059003       -28.8169 
  27   2.0000      -1.009351       -27.4658 
  28   2.0000      -0.963375       -26.2148 
  29   2.0000      -0.953788       -25.9539 
  30   2.0000      -0.953761       -25.9532 
  31   2.0000      -0.949947       -25.8494 
  32   2.0000      -0.949927       -25.8488 
  33   2.0000      -0.872359       -23.7381 
  34   2.0000      -0.872332       -23.7374 
  35   2.0000      -0.870775       -23.6950 
  36   2.0000      -0.870765       -23.6947 
  37   2.0000      -0.865962       -23.5640 
  38   2.0000      -0.852640       -23.2015 
  39   1.9660      -0.808365       -21.9967 
  40   1.9617      -0.803482       -21.8639 
  41   1.9617      -0.803476       -21.8637 
  42   0.0553       0.032891         0.8950 
  43   0.0553       0.032908         0.8955 
  44   0.0000      -0.198436        -5.3997 
  45   0.0000      -0.117137        -3.1875 
  46   0.0000      -0.117123        -3.1871 
  47   0.0000      -0.104455        -2.8424 
  48   0.0000      -0.070114        -1.9079 
  49   0.0000      -0.070105        -1.9077 
  50   0.0000      -0.033134        -0.9016 
  51   0.0000      -0.031623        -0.8605 
  52   0.0000      -0.031619        -0.8604 
  53   0.0000      -0.030306        -0.8247 
  54   0.0000      -0.019914        -0.5419 
  55   0.0000      -0.019911        -0.5418 
  56   0.0000       0.049816         1.3556 
  57   0.0000       0.200405         5.4533 
  58   0.0000       0.207300         5.6409 
  59   0.0000       0.207386         5.6433 
  60   0.0000       0.263909         7.1813 
  61   0.0000       0.389582        10.6011 
  62   0.0000       0.450323        12.2539 
  63   0.0000       0.450383        12.2555 
  64   0.0000       0.498786        13.5727 
  65   0.0000       0.505241        13.7483 
  66   0.0000       0.505269        13.7491 
  67   0.0000       0.543658        14.7937 
  68   0.0000       0.543690        14.7945 
  69   0.0000       0.586318        15.9545 
  70   0.0000       0.591585        16.0978 
  71   0.0000       0.591608        16.0985 
  72   0.0000       0.623026        16.9534 
  73   0.0000       0.747626        20.3439 
  74   0.0000       0.770645        20.9703 
  75   0.0000       0.770656        20.9706 
  76   0.0000       0.845904        23.0182 
  77   0.0000       0.859174        23.3793 
  78   0.0000       0.859252        23.3814 
  79   0.0000       0.918488        24.9933 
  80   0.0000       0.918561        24.9953 
  81   0.0000       0.985021        26.8038 
  82   0.0000       0.985612        26.8199 
  83   0.0000       0.993675        27.0393 
  84   0.0000       0.993699        27.0399 
  85   0.0000       1.005461        27.3600 
  86   0.0000       1.005465        27.3601 
  87   0.0000       1.047816        28.5125 
  88   0.0000       1.068667        29.0799 
  89   0.0000       1.068696        29.0807 
  90   0.0000       1.074527        29.2394 
  91   0.0000       1.119768        30.4704 
  92   0.0000       1.119852        30.4727 
  93   0.0000       1.194694        32.5093 
  94   0.0000       1.194780        32.5116 
  95   0.0000       1.219520        33.1848 
  96   0.0000       1.222968        33.2786 
  97   0.0000       1.255640        34.1677 
  98   0.0000       1.255658        34.1682 
  99   0.0000       1.293585        35.2002 
 100   0.0000       1.293686        35.2030 
 101   0.0000       1.300569        35.3903 
 102   0.0000       1.311215        35.6800 
 103   0.0000       1.322765        35.9943 
 104   0.0000       1.322804        35.9953 
 105   0.0000       1.352532        36.8043 
 106   0.0000       1.352674        36.8081 
 107   0.0000       1.371979        37.3334 
 108   0.0000       1.505422        40.9646 
 109   0.0000       1.505483        40.9663 
 110   0.0000       1.526055        41.5261 
 111   0.0000       1.583373        43.0858 
 112   0.0000       1.616395        43.9844 
 113   0.0000       1.616434        43.9854 
 114   0.0000       1.712622        46.6028 
 115   0.0000       1.721662        46.8488 
 116   0.0000       1.721700        46.8498 
 117   0.0000       1.807100        49.1737 
 118   0.0000       1.813240        49.3408 
 119   0.0000       1.813296        49.3423 
 120   0.0000       1.950881        53.0862 
 121   0.0000       1.950913        53.0871 
 122   0.0000       2.004286        54.5394 
 123   0.0000       2.062818        56.1321 
 124   0.0000       2.151503        58.5454 
 125   0.0000       2.151630        58.5488 
 126   0.0000       2.191981        59.6468 
 127   0.0000       2.197472        59.7963 
 128   0.0000       2.197520        59.7976 
 129   0.0000       2.205084        60.0034 
 130   0.0000       2.205135        60.0048 
 131   0.0000       2.215554        60.2883 
 132   0.0000       2.255287        61.3695 
 133   0.0000       2.255367        61.3716 
 134   0.0000       2.258052        61.4447 
 135   0.0000       2.259083        61.4728 
 136   0.0000       2.259198        61.4759 
 137   0.0000       2.264810        61.6286 
 138   0.0000       2.915624        79.3382 
 139   0.0000       2.933191        79.8162 
 140   0.0000       2.933200        79.8164 
 141   0.0000       2.957535        80.4786 
 142   0.0000       3.015164        82.0468 
 143   0.0000       3.015217        82.0482 
 144   0.0000       3.023151        82.2641 
 145   0.0000       3.023257        82.2670 
 146   0.0000       3.023305        82.2683 
 147   0.0000       3.031466        82.4904 
 148   0.0000       3.100871        84.3790 
 149   0.0000       3.100992        84.3823 
 150   0.0000       3.172604        86.3310 
 151   0.0000       3.172654        86.3323 
 152   0.0000       3.176400        86.4342 
 153   0.0000       3.177833        86.4732 
 154   0.0000       3.271770        89.0294 
 155   0.0000       3.271935        89.0339 
 156   0.0000       3.550479        96.6135 
 157   0.0000       3.550575        96.6161 
 158   0.0000       3.559059        96.8469 
 159   0.0000       3.559157        96.8496 
 160   0.0000       3.565478        97.0216 
 161   0.0000       3.610516        98.2471 
 162   0.0000       3.848484       104.7226 
 163   0.0000       3.856796       104.9487 
 164   0.0000       3.901741       106.1718 
 165   0.0000       3.901763       106.1724 
 166   0.0000       3.933855       107.0456 
 167   0.0000       3.933879       107.0463 
 168   0.0000       4.184060       113.8541 
 169   0.0000       4.239242       115.3556 
 170   0.0000       4.260017       115.9210 
 171   0.0000       4.260039       115.9216 
 172   0.0000       4.363401       118.7342 
 173   0.0000       4.373485       119.0086 
 174   0.0000       4.373554       119.0105 


---------------------------------------------
CAS-SCF STATES FOR BLOCK  1 MULT= 1 NROOTS= 1
---------------------------------------------

ROOT   0:  E=   -1717.6353527194 Eh
      0.94750 [    44]: 22200
      0.00882 [    31]: 20220
      0.00882 [    39]: 22002
      0.00776 [    41]: 22020
      0.00776 [    29]: 20202
      0.00732 [     9]: 02220
      0.00732 [     7]: 02202


--------------
DENSITY MATRIX
--------------

                  0          1          2          3          4    
      0       1.966014   0.000000  -0.000000  -0.000000  -0.000000
      1       0.000000   1.961707  -0.000000  -0.000000  -0.000000
      2      -0.000000  -0.000000   1.961703  -0.000000   0.000000
      3      -0.000000  -0.000000  -0.000000   0.055294  -0.000000
      4      -0.000000  -0.000000   0.000000  -0.000000   0.055282
Trace of the electron density:  6.000000

-----------------
ENERGY COMPONENTS
-----------------

One electron energy          :  -3735.757377539 Eh     -101655.1263 eV
Two electron energy          :   1322.328557998 Eh       35982.3894 eV
Nuclear repulsion energy     :    695.793466822 Eh       18933.5028 eV
                               ----------------
                                -1717.635352719

Kinetic energy               :   1715.573293702 Eh       46683.1226 eV
Potential energy             :  -3433.208646421 Eh      -93422.3568 eV
Virial ratio                 :     -2.001201965 
                               ----------------
                                -1717.635352719

Core energy                  :  -1700.183665679 Eh   -46264.3496 eV


----------------------------
LOEWDIN ORBITAL-COMPOSITIONS
----------------------------

                      0         1         2         3         4         5   
                 -261.61627 -32.18201 -27.67204 -27.67113 -27.67112 -20.90997
                   2.00000   2.00000   2.00000   2.00000   2.00000   2.00000
                  --------  --------  --------  --------  --------  --------
 0 Fe s             100.0     100.0       0.0       0.0       0.0       0.0
 0 Fe pz              0.0       0.0       8.8      10.8      80.4       0.0
 0 Fe px              0.0       0.0       0.3      86.7      13.0       0.0
 0 Fe py              0.0       0.0      90.9       2.5       6.6       0.0
 1 O  s               0.0       0.0       0.0       0.0       0.0       0.5
 3 O  s               0.0       0.0       0.0       0.0       0.0      40.5
 5 O  s               0.0       0.0       0.0       0.0       0.0      10.3
 7 O  s               0.0       0.0       0.0       0.0       0.0       1.9
 9 O  s               0.0       0.0       0.0       0.0       0.0      39.3
11 O  s               0.0       0.0       0.0       0.0       0.0       7.4

                      6         7         8         9        10        11   
                 -20.90996 -20.90996 -20.90994 -20.90992 -20.90991  -4.40877
                   2.00000   2.00000   2.00000   2.00000   2.00000   2.00000
                  --------  --------  --------  --------  --------  --------
 0 Fe s               0.0       0.0       0.0       0.0       0.0      99.2
 1 O  s               0.8       9.7      31.4       0.3      57.1       0.0
 3 O  s               6.0      27.0       1.1      21.6       3.8       0.0
 5 O  s              43.8       5.3       9.7      27.5       3.2       0.0
 7 O  s              25.5       2.5      46.2       0.3      23.4       0.0
 9 O  s              23.7       2.7      11.2      18.4       4.4       0.0
11 O  s               0.0      52.6       0.1      31.7       8.0       0.0

                     12        13        14        15        16        17   
                  -2.99292  -2.99118  -2.99118  -1.68887  -1.67746  -1.67291
                   2.00000   2.00000   2.00000   2.00000   2.00000   2.00000
                  --------  --------  --------  --------  --------  --------
 0 Fe s               0.0       0.0       0.0       6.7       0.0       0.0
 0 Fe pz              8.7       1.2      89.4       0.0       0.4       0.6
 0 Fe px              0.3      97.3       1.7       0.0       0.0       3.0
 0 Fe py             90.1       0.9       8.2       0.0       4.1       0.0
 1 O  s               0.0       0.0       0.0      10.1      10.2       0.5
 2 H  s               0.0       0.0       0.0       2.1       2.3       0.2
 2 H  pz              0.0       0.0       0.0       0.2       0.2       0.0
 2 H  px              0.0       0.0       0.0       0.2       0.2       0.0
 2 H  py              0.0       0.0       0.0       0.2       0.2       0.0
 3 O  s               0.0       0.0       0.0      10.1      10.3      12.4
 3 O  pz              0.1       0.0       0.1       0.0       0.1       0.1
 4 H  s               0.0       0.0       0.0       2.0       2.1       2.7
 4 H  pz              0.0       0.0       0.0       0.2       0.2       0.3
 4 H  px              0.0       0.0       0.0       0.3       0.3       0.3
 4 H  py              0.0       0.0       0.0       0.1       0.1       0.2
 5 O  s               0.0       0.0       0.0      10.1      10.3      12.4
 5 O  pz              0.1       0.0       0.1       0.0       0.1       0.1
 6 H  s               0.0       0.0       0.0       2.0       2.1       2.7
 6 H  pz              0.0       0.0       0.0       0.2       0.2       0.3
 6 H  px              0.0       0.0       0.0       0.3       0.3       0.3
 6 H  py              0.0       0.0       0.0       0.1       0.1       0.2
 7 O  s               0.0       0.0       0.0      10.1      10.2       0.5
 8 H  s               0.0       0.0       0.0       2.1       2.3       0.2
 8 H  pz              0.0       0.0       0.0       0.2       0.2       0.0
 8 H  px              0.0       0.0       0.0       0.2       0.2       0.0
 8 H  py              0.0       0.0       0.0       0.2       0.2       0.0
 9 O  s               0.0       0.0       0.0      10.1      10.3      18.3
 9 O  px              0.1       0.1       0.0       0.0       0.1       0.1
10 H  s               0.0       0.0       0.0       2.1       2.3       3.7
10 H  pz              0.0       0.0       0.0       0.1       0.2       0.3
10 H  py              0.0       0.0       0.0       0.5       0.5       0.8
11 O  s               0.0       0.0       0.0      10.1      10.3      18.2
11 O  px              0.1       0.1       0.0       0.0       0.1       0.1
12 H  s               0.0       0.0       0.0       2.1       2.3       3.7
12 H  pz              0.0       0.0       0.0       0.1       0.2       0.3
12 H  py              0.0       0.0       0.0       0.5       0.5       0.8
13 H  s               0.0       0.0       0.0       2.0       2.0       3.9
13 H  px              0.0       0.0       0.0       0.5       0.5       0.9
13 H  py              0.0       0.0       0.0       0.1       0.1       0.2
14 H  s               0.0       0.0       0.0       2.1       2.3       2.3
14 H  pz              0.0       0.0       0.0       0.2       0.2       0.2
14 H  px              0.0       0.0       0.0       0.3       0.3       0.3
14 H  py              0.0       0.0       0.0       0.2       0.2       0.2
15 H  s               0.0       0.0       0.0       2.0       2.0       3.9
15 H  px              0.0       0.0       0.0       0.5       0.5       0.9
15 H  py              0.0       0.0       0.0       0.1       0.1       0.2
16 H  s               0.0       0.0       0.0       2.0       2.0       0.1
16 H  pz              0.0       0.0       0.0       0.5       0.5       0.0
17 H  s               0.0       0.0       0.0       2.1       2.3       2.3
17 H  pz              0.0       0.0       0.0       0.2       0.2       0.2
17 H  px              0.0       0.0       0.0       0.3       0.3       0.3
17 H  py              0.0       0.0       0.0       0.2       0.2       0.2
18 H  s               0.0       0.0       0.0       2.0       2.0       0.1
18 H  pz              0.0       0.0       0.0       0.5       0.5       0.0

                     18        19        20        21        22        23   
                  -1.67290  -1.67078  -1.67077  -1.06947  -1.06662  -1.05997
                   2.00000   2.00000   2.00000   2.00000   2.00000   2.00000
                  --------  --------  --------  --------  --------  --------
 0 Fe s               0.0       0.0       0.0       0.3       0.0       0.0
 0 Fe pz              2.7       0.0       0.0       0.0       0.2       0.0
 0 Fe px              0.6       0.0       0.0       0.0       0.0       0.0
 0 Fe py              0.3       0.0       0.0       0.0       1.6       0.0
 0 Fe dz2             0.0       0.7       0.0       0.1       0.0       0.1
 0 Fe dxz             0.0       0.3       0.1       0.0       0.0       0.2
 0 Fe dyz             0.0       0.2       0.7       0.1       0.0       0.0
 0 Fe dx2y2           0.0       0.0       0.3       0.3       0.0       0.0
 0 Fe dxy             0.0       0.4       0.7       0.0       0.0       0.2
 1 O  s              20.2       0.5      20.9       0.0       0.0       0.0
 1 O  pz              0.0       0.0       0.0      10.0      10.2      15.0
 1 O  px              0.2       0.0       0.2       0.0       0.0       0.7
 1 O  py              0.0       0.0       0.0       0.8       0.6       2.0
 2 H  s               4.0       0.1       4.2       2.0       1.9       4.5
 2 H  pz              0.4       0.0       0.4       0.0       0.0       0.0
 2 H  px              0.4       0.0       0.4       0.2       0.1       0.2
 2 H  py              0.4       0.0       0.4       0.1       0.1       0.2
 3 O  s               8.4      18.3       2.8       0.0       0.0       0.0
 3 O  pz              0.1       0.2       0.0       0.8       0.8       0.2
 3 O  px              0.0       0.0       0.0       6.1       6.5      10.1
 3 O  py              0.0       0.0       0.0       4.0       3.4       2.9
 4 H  s               1.8       3.8       0.6       3.2       3.2       2.8
 4 H  pz              0.2       0.4       0.1       0.2       0.2       0.3
 4 H  px              0.2       0.5       0.1       0.1       0.1       0.0
 4 H  py              0.1       0.2       0.0       0.0       0.0       0.0
 5 O  s               8.2      18.4       2.9       0.0       0.0       0.0
 5 O  pz              0.1       0.2       0.0       0.8       0.8       0.2
 5 O  px              0.0       0.0       0.0       6.1       6.5      10.3
 5 O  py              0.0       0.0       0.0       4.0       3.4       2.9
 6 H  s               1.7       3.8       0.6       3.2       3.2       2.8
 6 H  pz              0.2       0.4       0.1       0.2       0.2       0.3
 6 H  px              0.2       0.5       0.1       0.1       0.1       0.0
 6 H  py              0.1       0.2       0.0       0.0       0.0       0.0
 7 O  s              20.4       0.4      20.7       0.0       0.0       0.0
 7 O  pz              0.0       0.0       0.0      10.0      10.1      15.6
 7 O  px              0.2       0.0       0.2       0.0       0.0       0.7
 7 O  py              0.0       0.0       0.0       0.8       0.6       2.1
 8 H  s               4.0       0.1       4.2       2.0       1.9       4.7
 8 H  pz              0.4       0.0       0.4       0.0       0.0       0.0
 8 H  px              0.4       0.0       0.4       0.2       0.1       0.2
 8 H  py              0.4       0.0       0.4       0.1       0.1       0.2
 9 O  s               2.6      13.0       8.2       0.0       0.0       0.0
 9 O  pz              0.0       0.0       0.0       0.5       0.7       0.1
 9 O  px              0.0       0.1       0.1       5.3       5.4       0.5
 9 O  py              0.0       0.0       0.0       4.9       4.5       0.2
10 H  s               0.4       2.7       1.5       1.9       1.9       0.0
10 H  pz              0.0       0.2       0.1       0.1       0.0       0.0
10 H  px              0.0       0.0       0.0       0.1       0.1       0.0
10 H  py              0.1       0.6       0.4       0.1       0.1       0.0
11 O  s               2.6      13.1       8.2       0.0       0.0       0.0
11 O  pz              0.0       0.0       0.0       0.5       0.7       0.1
11 O  px              0.0       0.1       0.1       5.4       5.4       0.6
11 O  py              0.0       0.0       0.0       5.0       4.5       0.3
12 H  s               0.4       2.7       1.5       2.0       1.9       0.1
12 H  pz              0.0       0.2       0.1       0.1       0.0       0.0
12 H  px              0.0       0.0       0.0       0.1       0.1       0.0
12 H  py              0.1       0.6       0.4       0.1       0.1       0.0
13 H  s               0.6       2.7       1.7       3.2       3.2       0.2
13 H  px              0.1       0.7       0.4       0.2       0.2       0.0
13 H  py              0.0       0.1       0.1       0.0       0.0       0.0
14 H  s               1.8       3.6       0.7       2.0       1.9       3.7
14 H  pz              0.1       0.3       0.1       0.2       0.2       0.2
14 H  px              0.2       0.5       0.1       0.0       0.0       0.0
14 H  py              0.1       0.3       0.0       0.0       0.0       0.1
15 H  s               0.6       2.7       1.7       3.2       3.2       0.2
15 H  px              0.1       0.7       0.4       0.2       0.2       0.0
15 H  py              0.0       0.1       0.1       0.0       0.0       0.0
16 H  s               4.3       0.1       4.4       3.2       3.2       4.5
16 H  pz              1.1       0.0       1.1       0.2       0.2       0.2
16 H  px              0.1       0.0       0.1       0.1       0.1       0.2
17 H  s               1.8       3.6       0.7       2.0       1.9       3.7
17 H  pz              0.1       0.3       0.1       0.2       0.2       0.2
17 H  px              0.2       0.5       0.1       0.0       0.0       0.0
17 H  py              0.1       0.3       0.0       0.0       0.0       0.1
18 H  s               4.4       0.1       4.3       3.2       3.2       4.6
18 H  pz              1.1       0.0       1.1       0.2       0.2       0.2
18 H  px              0.1       0.0       0.1       0.1       0.1       0.2

                     24        25        26        27        28        29   
                  -1.05995  -1.05902  -1.05900  -1.00935  -0.96337  -0.95379
                   2.00000   2.00000   2.00000   2.00000   2.00000   2.00000
                  --------  --------  --------  --------  --------  --------
 0 Fe s               0.0       0.0       0.0       8.2       0.0       0.0
 0 Fe pz              0.0       0.4       0.3       0.0       0.6       0.0
 0 Fe px              0.0       0.3       0.5       0.0       0.0       0.0
 0 Fe py              0.0       0.0       0.0       0.0       5.8       0.0
 0 Fe dz2             0.0       0.0       0.0       0.0       0.0       2.9
 0 Fe dxz             0.1       0.0       0.0       0.0       0.0       2.1
 0 Fe dyz             0.2       0.0       0.0       0.0       0.0       0.7
 0 Fe dx2y2           0.1       0.0       0.0       0.0       0.0       0.3
 0 Fe dxy             0.1       0.0       0.0       0.0       0.0       3.1
 1 O  s               0.0       0.0       0.0       0.4       0.7       0.0
 1 O  pz              2.0      16.6       0.4       0.6       0.3       0.3
 1 O  px              1.1       1.2       0.3       4.5       7.8       0.0
 1 O  py              0.2       2.7       0.5       7.6       4.5       0.0
 2 H  s               0.9       5.4       0.4       1.4       1.6       0.0
 2 H  pz              0.0       0.0       0.0       0.2       0.2       0.0
 2 H  px              0.0       0.3       0.0       0.0       0.0       0.0
 2 H  py              0.0       0.2       0.0       0.0       0.0       0.0
 3 O  s               0.0       0.0       0.0       0.4       0.8       1.6
 3 O  pz              0.1       0.3       0.0      10.8      11.8      18.9
 3 O  px              4.7       5.9       8.4       0.0       0.3       0.2
 3 O  py              3.1       3.3       3.6       1.9       0.5       0.1
 4 H  s               2.2       1.8       3.0       0.3       0.2       1.8
 4 H  pz              0.1       0.2       0.2       0.1       0.1       0.1
 4 H  px              0.0       0.0       0.0       0.0       0.1       0.1
 4 H  py              0.0       0.0       0.0       0.1       0.0       0.1
 5 O  s               0.0       0.0       0.0       0.4       0.8       1.6
 5 O  pz              0.1       0.3       0.0      10.8      11.8      18.9
 5 O  px              5.0       6.1       7.9       0.0       0.3       0.2
 5 O  py              3.2       3.4       3.4       1.9       0.5       0.1
 6 H  s               2.3       1.8       2.9       0.3       0.2       1.8
 6 H  pz              0.1       0.2       0.2       0.1       0.1       0.1
 6 H  px              0.0       0.0       0.0       0.0       0.1       0.1
 6 H  py              0.0       0.0       0.0       0.1       0.0       0.1
 7 O  s               0.0       0.0       0.0       0.4       0.7       0.0
 7 O  pz              2.1      16.0       0.3       0.6       0.3       0.3
 7 O  px              1.1       1.2       0.3       4.5       7.8       0.0
 7 O  py              0.2       2.6       0.5       7.6       4.5       0.0
 8 H  s               1.0       5.3       0.4       1.4       1.6       0.0
 8 H  pz              0.0       0.0       0.0       0.2       0.2       0.0
 8 H  px              0.0       0.3       0.0       0.0       0.0       0.0
 8 H  py              0.0       0.2       0.0       0.0       0.0       0.0
 9 O  s               0.0       0.0       0.0       0.4       0.8       1.3
 9 O  pz              4.2       0.3       3.2       0.3       2.0       1.2
 9 O  px              4.7       1.2       3.4       6.8       6.4      11.6
 9 O  py             11.8       0.8      12.5       5.7       4.3       4.0
 9 O  dx2y2           0.1       0.0       0.1       0.0       0.0       0.0
10 H  s               5.5       0.4       5.4       1.4       1.6       1.2
10 H  pz              0.1       0.0       0.1       0.1       0.0       0.0
10 H  px              0.1       0.0       0.1       0.1       0.1       0.3
10 H  py              0.3       0.0       0.2       0.0       0.1       0.0
11 O  s               0.0       0.0       0.0       0.4       0.7       1.3
11 O  pz              4.1       0.2       3.2       0.3       2.0       1.2
11 O  px              4.7       1.2       3.4       6.7       6.3      11.6
11 O  py             11.7       0.8      12.6       5.7       4.3       4.0
11 O  dx2y2           0.1       0.0       0.1       0.0       0.0       0.0
12 H  s               5.5       0.4       5.4       1.4       1.6       1.2
12 H  pz              0.1       0.0       0.1       0.1       0.0       0.0
12 H  px              0.1       0.0       0.1       0.1       0.1       0.3
12 H  py              0.3       0.0       0.3       0.0       0.1       0.0
13 H  s               4.8       0.7       4.1       0.3       0.2       1.0
13 H  px              0.4       0.1       0.4       0.0       0.0       0.0
13 H  py              0.0       0.0       0.0       0.2       0.2       0.2
14 H  s               1.8       2.9       2.9       1.4       1.6       0.9
14 H  pz              0.2       0.1       0.2       0.0       0.0       0.2
14 H  px              0.0       0.1       0.0       0.2       0.1       0.1
15 H  s               4.8       0.7       4.1       0.3       0.2       1.0
15 H  px              0.4       0.0       0.4       0.0       0.0       0.0
15 H  py              0.0       0.0       0.0       0.2       0.2       0.2
16 H  s               0.5       4.8       0.1       0.3       0.2       0.1
16 H  pz              0.0       0.2       0.0       0.0       0.0       0.0
16 H  px              0.1       0.2       0.0       0.0       0.1       0.0
16 H  py              0.0       0.1       0.0       0.1       0.1       0.0
17 H  s               1.9       2.9       2.8       1.4       1.6       0.9
17 H  pz              0.2       0.2       0.2       0.0       0.0       0.2
17 H  px              0.0       0.1       0.0       0.2       0.1       0.1
18 H  s               0.5       4.6       0.1       0.3       0.2       0.1
18 H  pz              0.0       0.2       0.0       0.0       0.0       0.0
18 H  px              0.1       0.2       0.0       0.0       0.1       0.0
18 H  py              0.0       0.1       0.0       0.1       0.1       0.0

                     30        31        32        33        34        35   
                  -0.95376  -0.94995  -0.94993  -0.87236  -0.87233  -0.87078
                   2.00000   2.00000   2.00000   2.00000   2.00000   2.00000
                  --------  --------  --------  --------  --------  --------
 0 Fe pz              0.0       0.2       5.4       0.0       0.0       1.0
 0 Fe px              0.0       6.0       0.2       0.0       0.0       0.1
 0 Fe py              0.0       0.0       0.6       0.0       0.0       0.1
 0 Fe dz2             0.1       0.0       0.0       2.0       0.0       0.0
 0 Fe dxz             0.5       0.0       0.0       0.1       0.7       0.0
 0 Fe dyz             4.4       0.0       0.0       0.2       0.0       0.0
 0 Fe dx2y2           1.7       0.0       0.0       0.1       0.1       0.0
 0 Fe dxy             2.4       0.0       0.0       0.0       1.5       0.0
 1 O  s               1.9       0.0       1.7       0.0       0.1       0.4
 1 O  pz              3.5       0.0       4.6       0.0       0.6       0.1
 1 O  px             12.7       0.1      11.4       2.8      10.2      12.6
 1 O  py              7.7       2.2       7.1       3.8      13.1       7.7
 2 H  s               1.4       0.2       0.9       0.1       0.0       0.1
 2 H  pz              0.3       0.0       0.3       0.0       0.0       0.0
 2 H  px              0.0       0.0       0.1       0.1       0.2       0.3
 2 H  py              0.0       0.0       0.0       0.1       0.4       0.3
 3 O  s               0.3       1.3       0.5       0.1       0.0       0.0
 3 O  pz              4.7      14.8       8.0       0.5       0.0       0.1
 3 O  px              0.0       0.1       0.4       8.8       0.3       8.1
 3 O  py              0.3       0.1       1.8      20.7       0.0      15.6
 4 H  s               0.2       1.7       0.5       0.1       0.1       0.0
 4 H  px              0.0       0.1       0.0       0.3       0.0       0.2
 4 H  py              0.0       0.0       0.1       0.5       0.0       0.4
 5 O  s               0.3       1.3       0.5       0.1       0.0       0.0
 5 O  pz              4.7      14.8       8.0       0.5       0.0       0.1
 5 O  px              0.0       0.1       0.4       9.0       0.3       8.0
 5 O  py              0.3       0.1       1.8      21.1       0.0      15.2
 6 H  s               0.2       1.7       0.5       0.1       0.1       0.0
 6 H  px              0.0       0.1       0.0       0.3       0.0       0.2
 6 H  py              0.0       0.0       0.1       0.5       0.0       0.4
 7 O  s               1.9       0.0       1.7       0.0       0.0       0.4
 7 O  pz              3.5       0.0       4.7       0.0       0.6       0.1
 7 O  px             12.6       0.1      11.4       2.7      10.2      13.0
 7 O  py              7.7       2.2       7.1       3.7      13.4       8.0
 8 H  s               1.4       0.2       0.9       0.1       0.0       0.1
 8 H  pz              0.3       0.0       0.3       0.0       0.0       0.0
 8 H  px              0.0       0.0       0.1       0.1       0.2       0.3
 8 H  py              0.0       0.0       0.0       0.1       0.4       0.3
 9 O  s               0.7       1.3       0.4       0.0       0.1       0.3
 9 O  pz              0.5       0.3       1.4       7.4      15.5       0.0
 9 O  px              6.3      15.5       3.2       0.1       0.0       1.0
 9 O  py              0.6       5.0       0.0       1.5       5.6       0.5
10 H  s               0.2       1.1       0.0       0.0       0.1       0.2
10 H  pz              0.0       0.0       0.0       0.1       0.5       0.0
10 H  px              0.1       0.3       0.0       0.0       0.0       0.0
11 O  s               0.7       1.3       0.4       0.0       0.1       0.3
11 O  pz              0.5       0.3       1.4       7.5      16.2       0.0
11 O  px              6.3      15.4       3.2       0.1       0.0       1.0
11 O  py              0.6       5.0       0.0       1.5       5.8       0.5
12 H  s               0.2       1.0       0.0       0.0       0.1       0.2
12 H  pz              0.0       0.0       0.0       0.1       0.5       0.0
12 H  px              0.1       0.3       0.0       0.0       0.0       0.0
13 H  s               0.9       1.6       0.7       0.0       0.1       0.1
13 H  pz              0.0       0.0       0.0       0.2       0.4       0.0
13 H  py              0.1       0.3       0.0       0.1       0.1       0.0
14 H  s               0.5       0.4       0.7       0.0       0.1       0.0
14 H  pz              0.0       0.2       0.0       0.0       0.0       0.0
14 H  px              0.1       0.0       0.2       0.3       0.0       0.2
14 H  py              0.0       0.0       0.0       0.5       0.0       0.4
15 H  s               0.9       1.6       0.6       0.0       0.1       0.1
15 H  pz              0.0       0.0       0.0       0.2       0.4       0.0
15 H  py              0.1       0.3       0.0       0.1       0.1       0.0
16 H  s               1.8       0.0       2.2       0.1       0.0       0.1
16 H  pz              0.1       0.0       0.1       0.0       0.0       0.0
16 H  px              0.1       0.0       0.1       0.0       0.2       0.3
16 H  py              0.2       0.1       0.2       0.1       0.4       0.2
17 H  s               0.5       0.4       0.7       0.0       0.1       0.0
17 H  pz              0.0       0.2       0.0       0.0       0.0       0.0
17 H  px              0.1       0.0       0.2       0.3       0.0       0.2
17 H  py              0.0       0.0       0.0       0.5       0.0       0.4
18 H  s               1.8       0.0       2.2       0.1       0.0       0.1
18 H  pz              0.1       0.0       0.1       0.0       0.0       0.0
18 H  px              0.1       0.0       0.1       0.0       0.2       0.3
18 H  py              0.2       0.1       0.2       0.1       0.4       0.2

                     36        37        38        39        40        41   
                  -0.87077  -0.86596  -0.85264  -0.80837  -0.80348  -0.80348
                   2.00000   2.00000   2.00000   1.96601   1.96171   1.96170
                  --------  --------  --------  --------  --------  --------
 0 Fe s               0.0       0.3       0.0       0.1       0.0       0.0
 0 Fe px              1.1       0.0       0.0       0.0       0.0       0.0
 0 Fe py              0.0       0.0       0.1       0.0       0.0       0.0
 0 Fe dz2             0.0       0.1       0.0      13.4      34.5       8.2
 0 Fe dxz             0.0       0.0       0.0       0.1      54.8      18.4
 0 Fe dyz             0.0       0.1       0.0      23.5       1.0      26.3
 0 Fe dx2y2           0.0       0.3       0.0      60.8       2.4      16.2
 0 Fe dxy             0.0       0.0       0.0       0.9       6.3      29.8
 1 O  s               0.1       0.2       0.0       0.0       0.0       0.0
 1 O  pz              0.6       0.5       0.6       0.0       0.0       0.0
 1 O  px              1.9       9.5       6.1       0.0       0.0       0.1
 1 O  py              7.4       5.6       9.1       0.0       0.0       0.0
 2 H  s               0.1       0.2       0.1       0.0       0.0       0.0
 2 H  px              0.1       0.1       0.1       0.0       0.0       0.0
 2 H  py              0.2       0.2       0.3       0.0       0.0       0.0
 3 O  s               0.5       0.1       0.0       0.0       0.0       0.0
 3 O  pz              2.1       1.2       0.1       0.0       0.0       0.0
 3 O  px              1.8       6.3       5.6       0.0       0.1       0.0
 3 O  py              3.2       7.9      10.0       0.1       0.0       0.0
 4 H  s               0.2       0.0       0.0       0.1       0.0       0.0
 4 H  px              0.1       0.2       0.2       0.0       0.0       0.0
 4 H  py              0.1       0.2       0.3       0.0       0.0       0.0
 5 O  s               0.5       0.2       0.0       0.0       0.0       0.0
 5 O  pz              2.1       1.2       0.1       0.0       0.0       0.0
 5 O  px              1.7       6.3       5.6       0.0       0.1       0.0
 5 O  py              3.1       7.9      10.0       0.1       0.0       0.0
 6 H  s               0.2       0.0       0.0       0.1       0.0       0.0
 6 H  px              0.1       0.2       0.2       0.0       0.0       0.0
 6 H  py              0.1       0.2       0.3       0.0       0.0       0.0
 7 O  s               0.0       0.2       0.0       0.0       0.0       0.0
 7 O  pz              0.6       0.5       0.6       0.0       0.0       0.0
 7 O  px              1.9       9.4       6.1       0.0       0.0       0.1
 7 O  py              7.2       5.4       9.1       0.0       0.0       0.0
 8 H  s               0.1       0.2       0.1       0.0       0.0       0.0
 8 H  px              0.1       0.1       0.1       0.0       0.0       0.0
 8 H  py              0.2       0.2       0.3       0.0       0.0       0.0
 9 O  s               0.2       0.1       0.0       0.0       0.0       0.0
 9 O  pz             24.4      13.7      12.2       0.0       0.1       0.0
 9 O  px              0.0       0.0       0.2       0.0       0.0       0.0
 9 O  py              5.4       1.3       3.3       0.0       0.0       0.0
10 H  s               0.0       0.2       0.1       0.0       0.0       0.1
10 H  pz              0.6       0.2       0.3       0.0       0.0       0.0
10 H  py              0.2       0.1       0.1       0.0       0.0       0.0
11 O  s               0.2       0.2       0.0       0.0       0.0       0.0
11 O  pz             23.3      14.2      12.3       0.0       0.1       0.0
11 O  px              0.0       0.0       0.2       0.0       0.0       0.0
11 O  py              5.1       1.4       3.3       0.0       0.0       0.0
12 H  s               0.0       0.2       0.1       0.0       0.0       0.1
12 H  pz              0.6       0.2       0.3       0.0       0.0       0.0
12 H  py              0.2       0.1       0.1       0.0       0.0       0.0
13 H  pz              0.6       0.4       0.3       0.0       0.0       0.0
13 H  py              0.1       0.0       0.1       0.0       0.0       0.0
14 H  s               0.2       0.2       0.1       0.0       0.1       0.0
14 H  py              0.1       0.3       0.3       0.0       0.0       0.0
15 H  pz              0.6       0.4       0.3       0.0       0.0       0.0
15 H  py              0.1       0.0       0.1       0.0       0.0       0.0
16 H  px              0.1       0.2       0.2       0.0       0.0       0.0
16 H  py              0.2       0.1       0.2       0.0       0.0       0.0
17 H  s               0.2       0.2       0.1       0.0       0.1       0.0
17 H  py              0.1       0.3       0.3       0.0       0.0       0.0
18 H  px              0.1       0.2       0.2       0.0       0.0       0.0
18 H  py              0.2       0.1       0.2       0.0       0.0       0.0

                     42        43        44        45        46        47   
                   0.03289   0.03291  -0.19844  -0.11714  -0.11712  -0.10446
                   0.05529   0.05528   0.00000   0.00000   0.00000   0.00000
                  --------  --------  --------  --------  --------  --------
 0 Fe s               0.0       0.0      46.8       0.0       0.0       0.0
 0 Fe pz              0.0       0.0       0.0       0.0       0.8       0.1
 0 Fe px              0.0       0.0       0.0       0.9       0.0       0.0
 0 Fe py              0.0       0.0       0.0       0.0       0.1       0.6
 0 Fe dz2            12.0      28.5       0.0       0.0       0.0       0.0
 0 Fe dxz             0.5      23.9       0.0       0.0       0.0       0.0
 0 Fe dyz             5.8      39.9       0.0       0.0       0.0       0.0
 0 Fe dx2y2          16.9       1.6       0.0       0.0       0.0       0.0
 0 Fe dxy            58.7       0.0       0.0       0.0       0.0       0.0
 1 O  s               0.2       0.3       1.7       0.6       1.8       1.5
 1 O  pz              0.1       0.1       0.0       0.0       0.8       0.0
 1 O  px              0.1       0.1       0.1       1.0       0.2       0.1
 1 O  py              0.4       0.5       0.0       0.0       0.1       0.6
 2 H  s               0.0       0.0       2.6       4.6       2.7       9.7
 2 H  pz              0.0       0.0       0.3       0.3       0.2       0.6
 2 H  px              0.0       0.0       0.1       0.1       0.1       0.5
 2 H  py              0.0       0.0       0.1       0.2       0.1       0.3
 3 O  s               0.0       0.4       1.7       0.6       1.9       1.5
 3 O  pz              0.1       0.7       0.1       0.1       1.2       0.3
 3 O  px              0.0       0.1       0.0       0.6       0.0       0.0
 3 O  py              0.0       0.3       0.0       0.0       0.2       0.4
 4 H  s               0.0       0.1       3.5       6.3      11.3       2.6
 4 H  pz              0.0       0.0       0.1       0.3       0.4       0.1
 4 H  px              0.0       0.0       0.2       0.3       0.8       0.2
 4 H  py              0.0       0.0       0.2       0.3       0.4       0.2
 5 O  s               0.0       0.4       1.7       0.6       1.9       1.5
 5 O  pz              0.1       0.7       0.1       0.1       1.2       0.3
 5 O  px              0.0       0.1       0.0       0.6       0.0       0.0
 5 O  py              0.0       0.3       0.0       0.0       0.2       0.4
 6 H  s               0.0       0.1       3.5       6.3      11.3       2.6
 6 H  pz              0.0       0.0       0.1       0.3       0.4       0.1
 6 H  px              0.0       0.0       0.2       0.3       0.8       0.2
 6 H  py              0.0       0.0       0.2       0.3       0.4       0.2
 7 O  s               0.2       0.3       1.7       0.6       1.8       1.5
 7 O  pz              0.1       0.1       0.0       0.0       0.8       0.0
 7 O  px              0.1       0.1       0.1       1.0       0.2       0.1
 7 O  py              0.4       0.5       0.0       0.0       0.1       0.6
 8 H  s               0.0       0.0       2.6       4.6       2.7       9.7
 8 H  pz              0.0       0.0       0.3       0.3       0.2       0.6
 8 H  px              0.0       0.0       0.1       0.1       0.1       0.5
 8 H  py              0.0       0.0       0.1       0.2       0.1       0.3
 9 O  s               0.5       0.0       1.7       2.5       0.0       1.5
 9 O  pz              0.0       0.0       0.0       0.1       0.6       0.0
 9 O  px              0.7       0.0       0.1       1.3       0.0       0.1
 9 O  py              0.4       0.0       0.0       0.0       0.1       0.6
10 H  s               0.0       0.0       2.6       6.2       1.1       9.7
10 H  pz              0.0       0.0       0.1       0.2       0.0       0.4
10 H  py              0.0       0.0       0.3       0.8       0.1       1.0
11 O  s               0.5       0.0       1.7       2.5       0.0       1.5
11 O  pz              0.0       0.0       0.0       0.1       0.6       0.0
11 O  px              0.7       0.0       0.1       1.3       0.0       0.1
11 O  py              0.4       0.0       0.0       0.0       0.0       0.6
12 H  s               0.0       0.0       2.6       6.2       1.1       9.7
12 H  pz              0.0       0.0       0.1       0.2       0.0       0.4
12 H  py              0.0       0.0       0.3       0.8       0.1       1.0
[...]
Input electron density              ... FeH2O62+-cas65-mul1.scfp
BaseName (.gbw .S,...)              ... FeH2O62+-cas65-mul1

                    ********************************
                    * MULLIKEN POPULATION ANALYSIS *
                    ********************************

-----------------------
MULLIKEN ATOMIC CHARGES
-----------------------
   0 Fe:    1.215286
   1 O :   -0.405128
   2 H :    0.271691
   3 O :   -0.405140
   4 H :    0.264239
   5 O :   -0.405196
   6 H :    0.264240
   7 O :   -0.405151
   8 H :    0.271712
   9 O :   -0.405121
  10 H :    0.271694
  11 O :   -0.405169
  12 H :    0.271706
  13 H :    0.264226
  14 H :    0.271699
  15 H :    0.264222
  16 H :    0.264215
  17 H :    0.271723
  18 H :    0.264252
Sum of atomic charges:    2.0000000

--------------------------------
MULLIKEN REDUCED ORBITAL CHARGES
--------------------------------
  0 Fes       :     6.217124  s :     6.217124
      pz      :     4.104604  p :    12.312891
      px      :     4.104741
      py      :     4.103546
      dz2     :     1.193599  d :     6.252471
      dxz     :     1.497690
      dyz     :     1.097826
      dx2y2   :     1.609294
      dxy     :     0.854063
      f0      :     0.000289  f :     0.002227
      f+1     :     0.000358
      f-1     :     0.000334
      f+2     :     0.000161
      f-2     :     0.000416
      f+3     :     0.000229
      f-3     :     0.000440
  1 O s       :     3.669185  s :     3.669185
      pz      :     1.303688  p :     4.727700
      px      :     1.697868
      py      :     1.726145
      dz2     :     0.001931  d :     0.008243
      dxz     :     0.003206
      dyz     :     0.000744
      dx2y2   :     0.000653
      dxy     :     0.001708
  2 H s       :     0.658710  s :     0.658710
      pz      :     0.023133  p :     0.069600
      px      :     0.023413
      py      :     0.023054
  3 O s       :     3.669204  s :     3.669204
      pz      :     1.537817  p :     4.727692
      px      :     1.488729
      py      :     1.701147
      dz2     :     0.000488  d :     0.008243
      dxz     :     0.004244
      dyz     :     0.002434
      dx2y2   :     0.000185
      dxy     :     0.000892
  4 H s       :     0.665693  s :     0.665693
      pz      :     0.022085  p :     0.070068
      px      :     0.027731
      py      :     0.020252
  5 O s       :     3.669182  s :     3.669182
      pz      :     1.537989  p :     4.727774
      px      :     1.488663
      py      :     1.701121
      dz2     :     0.000488  d :     0.008240
      dxz     :     0.004244
      dyz     :     0.002432
      dx2y2   :     0.000184
      dxy     :     0.000893
  6 H s       :     0.665693  s :     0.665693
      pz      :     0.022079  p :     0.070067
      px      :     0.027764
      py      :     0.020224
  7 O s       :     3.669200  s :     3.669200
      pz      :     1.303463  p :     4.727708
      px      :     1.697710
      py      :     1.726535
      dz2     :     0.001939  d :     0.008242
      dxz     :     0.003199
      dyz     :     0.000743
      dx2y2   :     0.000653
      dxy     :     0.001708
  8 H s       :     0.658688  s :     0.658688
      pz      :     0.023121  p :     0.069600
      px      :     0.023449
      py      :     0.023029
  9 O s       :     3.669229  s :     3.669229
      pz      :     1.818887  p :     4.727647
      px      :     1.451653
      py      :     1.457107
      dz2     :     0.000919  d :     0.008245
      dxz     :     0.000521
      dyz     :     0.002151
      dx2y2   :     0.003438
      dxy     :     0.001215
 10 H s       :     0.658706  s :     0.658706
      pz      :     0.021971  p :     0.069600
      px      :     0.010905
      py      :     0.036725
 11 O s       :     3.669211  s :     3.669211
      pz      :     1.819864  p :     4.727715
      px      :     1.451499
      py      :     1.456353
      dz2     :     0.000917  d :     0.008242
      dxz     :     0.000520
      dyz     :     0.002148
      dx2y2   :     0.003449
      dxy     :     0.001209
 12 H s       :     0.658695  s :     0.658695
      pz      :     0.021923  p :     0.069599
      px      :     0.010903
      py      :     0.036773
 13 H s       :     0.665706  s :     0.665706
      pz      :     0.014895  p :     0.070067
      px      :     0.037791
      py      :     0.017381
 14 H s       :     0.658701  s :     0.658701
      pz      :     0.019168  p :     0.069599
      px      :     0.028097
      py      :     0.022335
 15 H s       :     0.665710  s :     0.665710
      pz      :     0.014890  p :     0.070068
      px      :     0.037807
      py      :     0.017372
 16 H s       :     0.665719  s :     0.665719
      pz      :     0.041538  p :     0.070066
      px      :     0.015874
      py      :     0.012654
 17 H s       :     0.658679  s :     0.658679
      pz      :     0.019175  p :     0.069598
      px      :     0.028065
      py      :     0.022359
 18 H s       :     0.665681  s :     0.665681
      pz      :     0.041563  p :     0.070067
      px      :     0.015849
      py      :     0.012655


                     *******************************
                     * LOEWDIN POPULATION ANALYSIS *
                     *******************************

----------------------
LOEWDIN ATOMIC CHARGES
----------------------
   0 Fe:    0.516223
   1 O :   -0.030381
   2 H :    0.139831
   3 O :   -0.030374
   4 H :    0.137837
   5 O :   -0.030362
   6 H :    0.137832
   7 O :   -0.030374
   8 H :    0.139852
   9 O :   -0.030393
  10 H :    0.139857
  11 O :   -0.030421
  12 H :    0.139853
  13 H :    0.137837
  14 H :    0.139851
  15 H :    0.137828
  16 H :    0.137811
  17 H :    0.139863
  18 H :    0.137831

-------------------------------
LOEWDIN REDUCED ORBITAL CHARGES
-------------------------------
  0 Fes       :     6.294985  s :     6.294985
      pz      :     4.224847  p :    12.686002
      px      :     4.223561
      py      :     4.237594
      dz2     :     1.245832  d :     6.499354
      dxz     :     1.531443
      dyz     :     1.157202
      dx2y2   :     1.636608
      dxy     :     0.928270
      f0      :     0.000464  f :     0.003436
      f+1     :     0.000540
      f-1     :     0.000506
      f+2     :     0.000242
      f-2     :     0.000653
      f+3     :     0.000345
      f-3     :     0.000686
  1 O s       :     3.357504  s :     3.357504
      pz      :     1.321952  p :     4.656394
      px      :     1.675235
      py      :     1.659207
      dz2     :     0.004947  d :     0.016483
      dxz     :     0.005961
      dyz     :     0.002122
      dx2y2   :     0.000464
      dxy     :     0.002990
  2 H s       :     0.683385  s :     0.683385
      pz      :     0.046808  p :     0.176785
      px      :     0.065423
      py      :     0.064553
  3 O s       :     3.357513  s :     3.357513
      pz      :     1.524289  p :     4.656377
      px      :     1.478211
      py      :     1.653878
      dz2     :     0.000459  d :     0.016484
      dxz     :     0.008237
      dyz     :     0.004379
      dx2y2   :     0.000458
      dxy     :     0.002951
  4 H s       :     0.685156  s :     0.685156
      pz      :     0.061250  p :     0.177007
      px      :     0.062285
      py      :     0.053472
  5 O s       :     3.357474  s :     3.357474
      pz      :     1.524443  p :     4.656407
      px      :     1.478139
      py      :     1.653825
      dz2     :     0.000459  d :     0.016481
      dxz     :     0.008238
      dyz     :     0.004375
      dx2y2   :     0.000457
      dxy     :     0.002952
  6 H s       :     0.685159  s :     0.685159
      pz      :     0.061239  p :     0.177009
      px      :     0.062361
      py      :     0.053409
  7 O s       :     3.357500  s :     3.357500
      pz      :     1.321779  p :     4.656391
      px      :     1.675084
      py      :     1.659529
      dz2     :     0.004964  d :     0.016482
      dxz     :     0.005947
      dyz     :     0.002117
      dx2y2   :     0.000464
      dxy     :     0.002990
  8 H s       :     0.683365  s :     0.683365
      pz      :     0.046775  p :     0.176783
      px      :     0.065500
      py      :     0.064507
  9 O s       :     3.357555  s :     3.357555
      pz      :     1.766807  p :     4.656354
      px      :     1.445560
      py      :     1.443987
      dz2     :     0.001672  d :     0.016485
      dxz     :     0.000400
      dyz     :     0.004344
      dx2y2   :     0.007108
      dxy     :     0.002962
 10 H s       :     0.683368  s :     0.683368
      pz      :     0.061505  p :     0.176775
      px      :     0.030013
      py      :     0.085258
 11 O s       :     3.357533  s :     3.357533
      pz      :     1.767636  p :     4.656406
      px      :     1.445394
      py      :     1.443376
      dz2     :     0.001671  d :     0.016482
      dxz     :     0.000396
      dyz     :     0.004331
      dx2y2   :     0.007130
      dxy     :     0.002954
 12 H s       :     0.683368  s :     0.683368
      pz      :     0.061425  p :     0.176779
      px      :     0.029998
      py      :     0.085357
 13 H s       :     0.685162  s :     0.685162
      pz      :     0.044252  p :     0.177001
      px      :     0.092443
      py      :     0.040306
 14 H s       :     0.683371  s :     0.683371
      pz      :     0.055430  p :     0.176778
      px      :     0.063794
      py      :     0.057554
 15 H s       :     0.685166  s :     0.685166
      pz      :     0.044273  p :     0.177006
      px      :     0.092468
      py      :     0.040265
 16 H s       :     0.685182  s :     0.685182
      pz      :     0.089955  p :     0.177008
      px      :     0.047037
      py      :     0.040016
 17 H s       :     0.683355  s :     0.683355
      pz      :     0.055447  p :     0.176782
      px      :     0.063719
      py      :     0.057615
 18 H s       :     0.685158  s :     0.685158
      pz      :     0.090008  p :     0.177011
      px      :     0.046971
      py      :     0.040031


                      *****************************
                      * MAYER POPULATION ANALYSIS *
                      *****************************

  NA   - Mulliken gross atomic population
  ZA   - Total nuclear charge
  QA   - Mulliken gross atomic charge
  VA   - Mayer's total valence
  BVA  - Mayer's bonded valence
  FA   - Mayer's free valence

  ATOM       NA         ZA         QA         VA         BVA        FA
  0 Fe    24.7847    26.0000     1.2153     1.9513     1.5296     0.4218
  1 O      8.4051     8.0000    -0.4051     2.1176     2.1162     0.0014
  2 H      0.7283     1.0000     0.2717     0.9530     0.9529     0.0001
  3 O      8.4051     8.0000    -0.4051     2.1176     2.1162     0.0014
  4 H      0.7358     1.0000     0.2642     0.9556     0.9554     0.0002
  5 O      8.4052     8.0000    -0.4052     2.1176     2.1161     0.0014
  6 H      0.7358     1.0000     0.2642     0.9556     0.9554     0.0002
  7 O      8.4052     8.0000    -0.4052     2.1176     2.1162     0.0014
  8 H      0.7283     1.0000     0.2717     0.9530     0.9528     0.0001
  9 O      8.4051     8.0000    -0.4051     2.1176     2.1162     0.0014
 10 H      0.7283     1.0000     0.2717     0.9530     0.9528     0.0001
 11 O      8.4052     8.0000    -0.4052     2.1176     2.1162     0.0014
 12 H      0.7283     1.0000     0.2717     0.9530     0.9529     0.0001
 13 H      0.7358     1.0000     0.2642     0.9556     0.9554     0.0002
 14 H      0.7283     1.0000     0.2717     0.9530     0.9529     0.0001
 15 H      0.7358     1.0000     0.2642     0.9556     0.9554     0.0002
 16 H      0.7358     1.0000     0.2642     0.9556     0.9554     0.0002
 17 H      0.7283     1.0000     0.2717     0.9530     0.9528     0.0001
 18 H      0.7357     1.0000     0.2643     0.9556     0.9554     0.0002

  Mayer bond orders larger than 0.100000
B(  0-Fe,  1-O ) :   0.2438 B(  0-Fe,  3-O ) :   0.2438 B(  0-Fe,  5-O ) :   0.2437 
B(  0-Fe,  7-O ) :   0.2438 B(  0-Fe,  9-O ) :   0.2438 B(  0-Fe, 11-O ) :   0.2438 
B(  1-O ,  2-H ) :   0.9279 B(  1-O , 16-H ) :   0.9351 B(  3-O ,  4-H ) :   0.9351 
B(  3-O , 14-H ) :   0.9279 B(  5-O ,  6-H ) :   0.9351 B(  5-O , 17-H ) :   0.9279 
B(  7-O ,  8-H ) :   0.9279 B(  7-O , 18-H ) :   0.9351 B(  9-O , 10-H ) :   0.9279 
B(  9-O , 13-H ) :   0.9351 B( 11-O , 12-H ) :   0.9279 B( 11-O , 15-H ) :   0.9351 



-------------------------------------------------------------
 Forming the transition density       ... done in 0.001651 sec
-------------------------------------------------------------



==========================================
CASSCF UV, CD spectra and dipole moments
==========================================
-------------------
ABSORPTION SPECTRUM
-------------------

Center of mass           = ( -0.0000,  0.0000, -0.0000)
Nuclear contribution to the dipole moment =     0.002291,    0.001304,   -0.000077 au

Calculating the Dipole integrals                  ... done
Transforming integrals                            ... done
Calculating the Linear Momentum integrals         ... done
Transforming integrals                            ... done
Calculating the Angular Momentum integrals        ... done
Transforming integrals                            ... done

------------------------------------------------------------------------------
                                 DIPOLE MOMENTS
------------------------------------------------------------------------------
  Root  Block           TX        TY        TZ           |T|
                      (Debye)   (Debye)   (Debye)      (Debye)
------------------------------------------------------------------------------
    0    0            0.00196   0.00088   0.00161      0.00269

--------------
CASSCF TIMINGS
--------------

Total time                       ...       16.1 sec
Sum of individual times          ...       15.8 sec ( 97.9%)

Calculation of AO operators
   F(Core) operator              ...        3.1 sec ( 19.3%)
   G(Act) operator               ...        2.9 sec ( 18.1%)
   J(AO) operators               ...        0.0 sec (  0.0%)
Calculation of MO transformed quantities
   J(MO) operators               ...        9.6 sec ( 59.4%)
   (pq|rs) integrals             ...        0.0 sec (  0.0%)
   AO->MO one electron integrals ...        0.0 sec (  0.1%)
Configuration interaction steps
   CI-setup phase                ...        0.0 sec (  0.0%)
   CI-solution phase             ...        0.1 sec (  0.7%)
   Generation of densities       ...        0.0 sec (  0.0%)
Orbital improvement steps
   Orbital gradient              ...        0.0 sec (  0.1%)
   O(1) converger                ...        0.0 sec (  0.2%)
Properties                       ...        0.0 sec (  0.0%)
   SOC integral calculation      ...        0.0 sec (  0.0%)
   SSC RMEs (incl. integrals)    ...        0.0 sec (  0.0%)
   SOC RMEs                      ...        0.0 sec (  0.0%)

Maximum memory used throughout the entire CASSCF-calculation: 80.3 MB

-------------------------   --------------------
FINAL SINGLE POINT ENERGY     -1717.635352719439
-------------------------   --------------------


                            ***************************************
                            *     ORCA property calculations      *
                            ***************************************

                                    ---------------------
                                    Active property flags
                                    ---------------------
   (+) Dipole Moment


------------------------------------------------------------------------------
                       ORCA ELECTRIC PROPERTIES CALCULATION
------------------------------------------------------------------------------

Dipole Moment Calculation                       ... on
Quadrupole Moment Calculation                   ... off
Polarizability Calculation                      ... off
GBWName                                         ... FeH2O62+-cas65-mul1.gbw
Electron density file                           ... FeH2O62+-cas65-mul1.scfp
The origin for moment calculation is the CENTER OF MASS  = (-0.000000,  0.000000  0.000000)

-------------
DIPOLE MOMENT
-------------
                                X             Y             Z
Electronic contribution:     -0.00152      -0.00096       0.00071
Nuclear contribution   :      0.00229       0.00130      -0.00008
                        -----------------------------------------
Total Dipole Moment    :      0.00077       0.00035       0.00063
                        -----------------------------------------
Magnitude (a.u.)       :      0.00106
Magnitude (Debye)      :      0.00269



--------------------
Rotational spectrum 
--------------------
 
Rotational constants in cm-1:     0.057213     0.051955     0.051945 
Rotational constants in MHz :  1715.201752  1557.579206  1557.273951 

 Dipole components along the rotational axes: 
x,y,z [a.u.] :     0.000473    -0.000538     0.000777 
x,y,z [Debye]:     0.001202    -0.001367     0.001974 

 
--------------------------------------------------------------------------
WARNING: There was an error initializing an OpenFabrics device.

  Local host:   cnode04
  Local device: mlx5_0
--------------------------------------------------------------------------
[cnode04:32937] 7 more processes have sent help message help-mpi-btl-openib.txt / error in device init
[cnode04:32937] Set MCA parameter "orte_base_help_aggregate" to 0 to see all help / error messages

Timings for individual modules:

Sum of individual times         ...       20.594 sec (=   0.343 min)
GTO integral calculation        ...        0.470 sec (=   0.008 min)   2.3 %
SCF iterations                  ...        0.447 sec (=   0.007 min)   2.2 %
CASSCF iterations               ...       19.678 sec (=   0.328 min)  95.6 %
                             ****ORCA TERMINATED NORMALLY****
TOTAL RUN TIME: 0 days 0 hours 0 minutes 21 seconds 169 msec

Sender: Unischeduler System <lcz@mgt01>
Subject: Job 125447: <#!/bin/bash
#BSUB -J intel
#BSUB -o FeH2O62+-cas65-mul1.out
#BSUB -n 8
#BSUB -q cqueue
#BSUB -R span[hosts=1]
export LD_LIBRARY_PATH=/apps/software/openmpi-4.1.1/lib:/apps/software/orca_5_0_0:$LD_LIBRARY_PATH
export PATH=/apps/software/openmpi-4.1.1/bin:/apps/software/orca_5_0_0:$PATH
/apps/software/orca_5_0_0/orca FeH2O62+-cas65-mul1.inp >& FeH2O62+-cas65-mul1.out> Done

Job <#!/bin/bash
#BSUB -J intel
#BSUB -o FeH2O62+-cas65-mul1.out
#BSUB -n 8
#BSUB -q cqueue
#BSUB -R span[hosts=1]
export LD_LIBRARY_PATH=/apps/software/openmpi-4.1.1/lib:/apps/software/orca_5_0_0:$LD_LIBRARY_PATH
export PATH=/apps/software/openmpi-4.1.1/bin:/apps/software/orca_5_0_0:$PATH
/apps/software/orca_5_0_0/orca FeH2O62+-cas65-mul1.inp >& FeH2O62+-cas65-mul1.out> was submitted from host <mgt01> by user <lcz>.
Job was executed on host(s) <8*cnode04>, in queue <cqueue>, as user <lcz>.
</apps/users/lcz> was used as the home directory.
</apps/users/lcz/exe9/task5/orca> was used as the working directory.
Started at 2022-04-26 18:07:09
Results reported at 2022-04-26 18:07:30

Your job looked like:

------------------------------------------------------------
# User input
#!/bin/bash
#BSUB -J intel
#BSUB -o FeH2O62+-cas65-mul1.out
#BSUB -n 8
#BSUB -q cqueue
#BSUB -R span[hosts=1]
export LD_LIBRARY_PATH=/apps/software/openmpi-4.1.1/lib:/apps/software/orca_5_0_0:$LD_LIBRARY_PATH
export PATH=/apps/software/openmpi-4.1.1/bin:/apps/software/orca_5_0_0:$PATH
/apps/software/orca_5_0_0/orca FeH2O62+-cas65-mul1.inp >& FeH2O62+-cas65-mul1.out
------------------------------------------------------------

Successfully completed.

Resource usage summary:

    CPU time   :          104.44 sec.
    Max Memory :              1341 MB
    Max Processes  :              13


The output (if any) follows:

