
                                        *****************
                                        * O   R   C   A *
                                        *****************

                                            #,                                       
                                            ###                                      
                                            ####                                     
                                            #####                                    
                                            ######                                   
                                           ########,                                 
                                     ,,################,,,,,                         
                               ,,#################################,,                 
                          ,,##########################################,,             
                       ,#########################################, ''#####,          
                    ,#############################################,,   '####,        
                  ,##################################################,,,,####,       
                ,###########''''           ''''###############################       
              ,#####''   ,,,,##########,,,,          '''####'''          '####       
            ,##' ,,,,###########################,,,                        '##       
           ' ,,###''''                  '''############,,,                           
         ,,##''                                '''############,,,,        ,,,,,,###''
      ,#''                                            '''#######################'''  
     '                                                          ''''####''''         
             ,#######,   #######,   ,#######,      ##                                
            ,#'     '#,  ##    ##  ,#'     '#,    #''#        ######   ,####,        
            ##       ##  ##   ,#'  ##            #'  '#       #        #'  '#        
            ##       ##  #######   ##           ,######,      #####,   #    #        
            '#,     ,#'  ##    ##  '#,     ,#' ,#      #,         ##   #,  ,#        
             '#######'   ##     ##  '#######'  #'      '#     #####' # '####'        



                  #######################################################
                  #                        -***-                        #
                  #          Department of theory and spectroscopy      #
                  #    Directorship and core code : Frank Neese         #
                  #        Max Planck Institute fuer Kohlenforschung    #
                  #                Kaiser Wilhelm Platz 1               #
                  #                 D-45470 Muelheim/Ruhr               #
                  #                      Germany                        #
                  #                                                     #
                  #                  All rights reserved                #
                  #                        -***-                        #
                  #######################################################


                         Program Version 5.0.0 -  RELEASE  -
                                (SVN: $Rev: 19529$)
                ($Date: 2021-06-28 11:36:33 +0200 (Mo, 28 Jun 2021) $)


 With contributions from (in alphabetic order):
   Daniel Aravena         : Magnetic Suceptibility
   Michael Atanasov       : Ab Initio Ligand Field Theory (pilot matlab implementation)
   Alexander A. Auer      : GIAO ZORA, VPT2 properties, NMR spectrum
   Ute Becker             : Parallelization
   Giovanni Bistoni       : ED, misc. LED, open-shell LED, HFLD
   Martin Brehm           : Molecular dynamics
   Dmytro Bykov           : SCF Hessian
   Vijay G. Chilkuri      : MRCI spin determinant printing, contributions to CSF-ICE
   Dipayan Datta          : RHF DLPNO-CCSD density
   Achintya Kumar Dutta   : EOM-CC, STEOM-CC
   Dmitry Ganyushin       : Spin-Orbit,Spin-Spin,Magnetic field MRCI
   Miquel Garcia          : C-PCM Hessian, Gaussian charge scheme
   Yang Guo               : DLPNO-NEVPT2, F12-NEVPT2, CIM, IAO-localization
   Andreas Hansen         : Spin unrestricted coupled pair/coupled cluster methods
   Benjamin Helmich-Paris : MC-RPA, TRAH-SCF, COSX integrals
   Lee Huntington         : MR-EOM, pCC
   Robert Izsak           : Overlap fitted RIJCOSX, COSX-SCS-MP3, EOM
   Marcus Kettner         : VPT2
   Christian Kollmar      : KDIIS, OOCD, Brueckner-CCSD(T), CCSD density, CASPT2, CASPT2-K
   Simone Kossmann        : Meta GGA functionals, TD-DFT gradient, OOMP2, MP2 Hessian
   Martin Krupicka        : Initial AUTO-CI
   Lucas Lang             : DCDCAS
   Marvin Lechner         : AUTO-CI (C++ implementation), FIC-MRCC
   Dagmar Lenk            : GEPOL surface, SMD
   Dimitrios Liakos       : Extrapolation schemes; Compound Job, initial MDCI parallelization
   Dimitrios Manganas     : Further ROCIS development; embedding schemes
   Dimitrios Pantazis     : SARC Basis sets
   Anastasios Papadopoulos: AUTO-CI, single reference methods and gradients
   Taras Petrenko         : DFT Hessian,TD-DFT gradient, ASA, ECA, R-Raman, ABS, FL, XAS/XES, NRVS
   Peter Pinski           : DLPNO-MP2, DLPNO-MP2 Gradient
   Christoph Reimann      : Effective Core Potentials
   Marius Retegan         : Local ZFS, SOC
   Christoph Riplinger    : Optimizer, TS searches, QM/MM, DLPNO-CCSD(T), (RO)-DLPNO pert. Triples
   Tobias Risthaus        : Range-separated hybrids, TD-DFT gradient, RPA, STAB
   Michael Roemelt        : Original ROCIS implementation
   Masaaki Saitow         : Open-shell DLPNO-CCSD energy and density
   Barbara Sandhoefer     : DKH picture change effects
   Avijit Sen             : IP-ROCIS
   Kantharuban Sivalingam : CASSCF convergence, NEVPT2, FIC-MRCI
   Bernardo de Souza      : ESD, SOC TD-DFT
   Georgi Stoychev        : AutoAux, RI-MP2 NMR
   Willem Van den Heuvel  : Paramagnetic NMR
   Boris Wezisla          : Elementary symmetry handling
   Frank Wennmohs         : Technical directorship


 We gratefully acknowledge several colleagues who have allowed us to
 interface, adapt or use parts of their codes:
   Stefan Grimme, W. Hujo, H. Kruse, P. Pracht,  : VdW corrections, initial TS optimization,
                  C. Bannwarth, S. Ehlert          DFT functionals, gCP, sTDA/sTD-DF
   Ed Valeev, F. Pavosevic, A. Kumar             : LibInt (2-el integral package), F12 methods
   Garnet Chan, S. Sharma, J. Yang, R. Olivares  : DMRG
   Ulf Ekstrom                                   : XCFun DFT Library
   Mihaly Kallay                                 : mrcc  (arbitrary order and MRCC methods)
   Jiri Pittner, Ondrej Demel                    : Mk-CCSD
   Frank Weinhold                                : gennbo (NPA and NBO analysis)
   Christopher J. Cramer and Donald G. Truhlar   : smd solvation model
   Lars Goerigk                                  : TD-DFT with DH, B97 family of functionals
   V. Asgeirsson, H. Jonsson                     : NEB implementation
   FAccTs GmbH                                   : IRC, NEB, NEB-TS, DLPNO-Multilevel, CI-OPT
                                                   MM, QMMM, 2- and 3-layer-ONIOM, Crystal-QMMM,
                                                   LR-CPCM, SF, NACMEs, symmetry and pop. for TD-DFT,
                                                   nearIR, NL-DFT gradient (VV10), updates on ESD,
                                                   ML-optimized integration grids
   S Lehtola, MJT Oliveira, MAL Marques          : LibXC Library
   Liviu Ungur et al                             : ANISO software


 Your calculation uses the libint2 library for the computation of 2-el integrals
 For citations please refer to: http://libint.valeyev.net

 Your ORCA version has been built with support for libXC version: 5.1.0
 For citations please refer to: https://tddft.org/programs/libxc/

 This ORCA versions uses:
   CBLAS   interface :  Fast vector & matrix operations
   LAPACKE interface :  Fast linear algebra routines
   SCALAPACK package :  Parallel linear algebra routines
   Shared memory     :  Shared parallel matrices
   BLAS/LAPACK       :  OpenBLAS 0.3.15  USE64BITINT DYNAMIC_ARCH NO_AFFINITY SkylakeX SINGLE_THREADED
        Core in use  :  SkylakeX
   Copyright (c) 2011-2014, The OpenBLAS Project


================================================================================

----- Orbital basis set information -----
Your calculation utilizes the basis: def2-SVP
   F. Weigend and R. Ahlrichs, Phys. Chem. Chem. Phys. 7, 3297 (2005).

================================================================================
                                        WARNINGS
                       Please study these warnings very carefully!
================================================================================


INFO   : the flag for use of the SHARK integral package has been found!

================================================================================
                                       INPUT FILE
================================================================================
NAME = FeH2O62+-cas65-mul3.inp
|  1> ! def2-svp pal8 UseSym
|  2> ! MOread
|  3> 
|  4> %moinp  "FeH2O62+-rohf.gbw"
|  5> 
|  6> %casscf
|  7>     nel     6
|  8>     norb    5
|  9>     irrep   0
| 10>     mult    3
| 11>     nroots  1
| 12> end
| 13> 
| 14> *xyz 2 3
| 15>  Fe     -0.64257176050830       0.51803920561668        0.11515259480577
| 16>  O      0.11174687498777        2.15027362958097        -0.78003307659188
| 17>  H      0.70766775417542        2.71590643817051        -0.25346860209865
| 18>  O      -1.31193844940493       -0.30254437211926       -1.59153974321848
| 19>  H      -1.93648366806763       0.13093135988795        -2.20090760771949
| 20>  O      0.02720918798052        1.33940572113505        1.82122676893196
| 21>  H      0.65258765622944        0.90686870076571        2.43040311553976
| 22>  O      -1.39648053530566       -1.11444807905756       1.01023916292248
| 23>  H      -1.99331392681300       -1.67940484230818       0.48397490889195
| 24>  O      -2.28682023617329       1.63340828371306        0.41005372492049
| 25>  H      -2.35377021104600       2.47291065207153        -0.08301808819513
| 26>  O      1.00194372931180        -0.59712335622834       -0.17950165163229
| 27>  H      1.06807766676477        -1.43758842942053       0.31202545851205
| 28>  H      -3.18922098471738       1.27280247171927        0.48036417156888
| 29>  H      -0.66521991563992       -0.78352006296416       -2.14179468111308
| 30>  H      1.90454646424149        -0.23678289755293       -0.24845043594753
| 31>  H      0.43776650602076        2.17113603799071        -1.69794346797289
| 32>  H      -0.61875604533523       1.82123954705219        2.37159866149671
| 33>  H      -1.72126010670064       -1.13595000805262       1.92856878689935
| 34> *
| 35> 
| 36>                          ****END OF INPUT****
================================================================================

------------------------------------------------------------------------------
                            SYMMETRY HANDLING SETUP
------------------------------------------------------------------------------

------------------
SYMMETRY DETECTION
------------------
The point group will now be determined using a tolerance of 1.0000e-04.
Splitting atom subsets according to nuclear charge, mass and basis set.
Splitting atom subsets according to distance from the molecule's center.
Identifying relative distance patterns of the atoms.
Splitting atom subsets according to atoms' relative distance patterns.
Bring atoms of each subset into input order.
The molecule is neither linear nor planar.
There is at least one atom subset not centered around the molecule's center.
The molecule does not have a center of inversion.
Analyzing the first atom subset for its symmetry.
The subset is an off-center atom pair.
Testing point group C2v.
Test failed.
Testing point group C2.
Test failed.
Testing point group Cs.
Test failed.
Testing point group Cs.
Test failed.
No testing is needed for point group C1.
This point group has been found:    C1
Largest non-degenerate subgroup:    C1


Mass-centered symmetry-perfected Cartesians (point group C1):

Atom          Symmetry-perfected Cartesians (x, y, z; au)
  0      -0.000241687993   -0.000159992562    0.000092312497
  1       1.425213950808    3.084316055090   -1.691563445455
  2       2.551341209958    4.153207155684   -0.696500796811
  3      -1.265161413177   -1.550838224476   -3.225088801231
  4      -2.445380834700   -0.731687805281   -4.376627179950
  5       1.265460874369    1.551997777341    3.224105265751
  6       2.447254909411    0.734621266061    4.375281728103
  7      -1.424922802320   -3.085113877705    1.691560792389
  8      -2.552774459848   -4.152727437755    0.697065478199
  9      -3.107421003117    2.107582103285    0.557374684998
 10      -3.233938120299    3.694011668260   -0.374396006147
 11       3.107442210759   -2.107511829251   -0.556723517468
 12       3.232417240703   -3.695760642710    0.372128108103
 13      -4.812711280911    1.426135876316    0.690242173517
 14      -0.043040498630   -2.459750557246   -4.264919937689
 15       4.813114187504   -1.426567047383   -0.687017837091
 16       2.041301767742    3.123740293478   -3.426162700646
 17       0.044763491368    2.462531750384    4.264157414507
 18      -2.038667246149   -3.125746634856    3.426952282372


------------------
SYMMETRY REDUCTION
------------------
ORCA supports only abelian point groups.
It is now checked, if the determined point group is supported:
Point Group ( C1    ) is          ... supported

The point group is C1 - hence turning off symmetry
If this is a round-off problem, please increase the symmetry
        detection tolerance (%method SymThresh)

Storing the symmetry object:
Symmetry file                     ... FeH2O62+-cas65-mul3.sym.tmp
Writing symmetry information      ... done

                       ****************************
                       * Single Point Calculation *
                       ****************************

---------------------------------
CARTESIAN COORDINATES (ANGSTROEM)
---------------------------------
  Fe    -0.000128   -0.000085    0.000049
  O      0.754191    1.632150   -0.895137
  H      1.350112    2.197783   -0.368572
  O     -0.669495   -0.820668   -1.706643
  H     -1.294040   -0.387193   -2.316011
  O      0.669653    0.821282    1.706123
  H      1.295032    0.388745    2.315299
  O     -0.754037   -1.632572    0.895135
  H     -1.350870   -2.197529    0.368871
  O     -1.644376    1.115284    0.294950
  H     -1.711326    1.954787   -0.198122
  O      1.644388   -1.115247   -0.294605
  H      1.710522   -1.955712    0.196922
  H     -2.546777    0.754679    0.365260
  H     -0.022776   -1.301644   -2.256898
  H      2.546990   -0.754907   -0.363554
  H      1.080210    1.653012   -1.813047
  H      0.023688    1.303116    2.256495
  H     -1.078816   -1.654074    1.813465

----------------------------
CARTESIAN COORDINATES (A.U.)
----------------------------
  NO LB      ZA    FRAG     MASS         X           Y           Z
   0 Fe   26.0000    0    55.850   -0.000242   -0.000160    0.000092
   1 O     8.0000    0    15.999    1.425214    3.084316   -1.691563
   2 H     1.0000    0     1.008    2.551341    4.153207   -0.696501
   3 O     8.0000    0    15.999   -1.265161   -1.550838   -3.225089
   4 H     1.0000    0     1.008   -2.445381   -0.731688   -4.376627
   5 O     8.0000    0    15.999    1.265461    1.551998    3.224105
   6 H     1.0000    0     1.008    2.447255    0.734621    4.375282
   7 O     8.0000    0    15.999   -1.424923   -3.085114    1.691561
   8 H     1.0000    0     1.008   -2.552774   -4.152727    0.697065
   9 O     8.0000    0    15.999   -3.107421    2.107582    0.557375
  10 H     1.0000    0     1.008   -3.233938    3.694012   -0.374396
  11 O     8.0000    0    15.999    3.107442   -2.107512   -0.556724
  12 H     1.0000    0     1.008    3.232417   -3.695761    0.372128
  13 H     1.0000    0     1.008   -4.812711    1.426136    0.690242
  14 H     1.0000    0     1.008   -0.043040   -2.459751   -4.264920
  15 H     1.0000    0     1.008    4.813114   -1.426567   -0.687018
  16 H     1.0000    0     1.008    2.041302    3.123740   -3.426163
  17 H     1.0000    0     1.008    0.044763    2.462532    4.264157
  18 H     1.0000    0     1.008   -2.038667   -3.125747    3.426952

--------------------------------
INTERNAL COORDINATES (ANGSTROEM)
--------------------------------
 Fe     0   0   0     0.000000000000     0.00000000     0.00000000
 O      1   0   0     2.008617237033     0.00000000     0.00000000
 H      2   1   0     0.975875152980   117.37766494     0.00000000
 O      1   2   3     2.008533770920    94.49943795   192.95450358
 H      4   1   2     0.974313673660   124.28449280   302.59596573
 O      1   2   3     2.008466718518    85.46986981    12.95255418
 H      6   1   2     0.974311204804   124.30521217   237.46496978
 O      1   2   3     2.008624688627   179.98597657   277.05848035
 H      8   1   6     0.975879247976   117.37097903   166.96388279
 O      1   2   3     2.008623385964    85.50402152    98.76181304
 H     10   1   2     0.975892585536   117.36530511    13.06977633
 O      1   2   3     2.008691081412    94.49130414   278.77265031
 H     12   1   2     0.975886334030   117.36953047   167.06704431
 H     10   1   2     0.974323981807   124.28045717   151.64103527
 H      4   1   2     0.975890861611   117.36256160    81.18273885
 H     12   1   2     0.974315594723   124.29807744    28.45241659
 H      2   1   3     0.974311822010   124.25903324   138.59308223
 H      6   1   2     0.975881211304   117.40260721    98.77790691
 H      8   1   6     0.974306625873   124.26848603    28.36184628

---------------------------
INTERNAL COORDINATES (A.U.)
---------------------------
 Fe     0   0   0     0.000000000000     0.00000000     0.00000000
 O      1   0   0     3.795736485866     0.00000000     0.00000000
 H      2   1   0     1.844136780030   117.37766494     0.00000000
 O      1   2   3     3.795578757770    94.49943795   192.95450358
 H      4   1   2     1.841186011751   124.28449280   302.59596573
 O      1   2   3     3.795452047094    85.46986981    12.95255418
 H      6   1   2     1.841181346290   124.30521217   237.46496978
 O      1   2   3     3.795750567338   179.98597657   277.05848035
 H      8   1   6     1.844144518453   117.37097903   166.96388279
 O      1   2   3     3.795748105662    85.50402152    98.76181304
 H     10   1   2     1.844169722787   117.36530511    13.06977633
 O      1   2   3     3.795876031518    94.49130414   278.77265031
 H     12   1   2     1.844157909152   117.36953047   167.06704431
 H     10   1   2     1.841205491327   124.28045717   151.64103527
 H      4   1   2     1.844166465042   117.36256160    81.18273885
 H     12   1   2     1.841189642034   124.29807744    28.45241659
 H      2   1   3     1.841182512641   124.25903324   138.59308223
 H      6   1   2     1.844148228604   117.40260721    98.77790691
 H      8   1   6     1.841172693364   124.26848603    28.36184628

---------------------
BASIS SET INFORMATION
---------------------
There are 3 groups of distinct atoms

 Group   1 Type Fe  : 14s9p5d1f contracted to 5s3p2d1f pattern {63311/531/41/1}
 Group   2 Type O   : 7s4p1d contracted to 3s2p1d pattern {511/31/1}
 Group   3 Type H   : 4s1p contracted to 2s1p pattern {31/1}

Atom   0Fe   basis set group =>   1
Atom   1O    basis set group =>   2
Atom   2H    basis set group =>   3
Atom   3O    basis set group =>   2
Atom   4H    basis set group =>   3
Atom   5O    basis set group =>   2
Atom   6H    basis set group =>   3
Atom   7O    basis set group =>   2
Atom   8H    basis set group =>   3
Atom   9O    basis set group =>   2
Atom  10H    basis set group =>   3
Atom  11O    basis set group =>   2
Atom  12H    basis set group =>   3
Atom  13H    basis set group =>   3
Atom  14H    basis set group =>   3
Atom  15H    basis set group =>   3
Atom  16H    basis set group =>   3
Atom  17H    basis set group =>   3
Atom  18H    basis set group =>   3
--------------------------------------------------------------------------
WARNING: There was an error initializing an OpenFabrics device.

  Local host:   cnode04
  Local device: mlx5_0
--------------------------------------------------------------------------


           ************************************************************
           *        Program running with 8 parallel MPI-processes     *
           *              working on a common directory               *
           ************************************************************
------------------------------------------------------------------------------
                           ORCA GTO INTEGRAL CALCULATION
------------------------------------------------------------------------------
------------------------------------------------------------------------------
                   ___                                                        
                  /   \      - P O W E R E D   B Y -                         
                 /     \                                                     
                 |  |  |   _    _      __       _____    __    __             
                 |  |  |  | |  | |    /  \     |  _  \  |  |  /  |          
                  \  \/   | |  | |   /    \    | | | |  |  | /  /          
                 / \  \   | |__| |  /  /\  \   | |_| |  |  |/  /          
                |  |  |   |  __  | /  /__\  \  |    /   |      \           
                |  |  |   | |  | | |   __   |  |    \   |  |\   \          
                \     /   | |  | | |  |  |  |  | |\  \  |  | \   \       
                 \___/    |_|  |_| |__|  |__|  |_| \__\ |__|  \__/        
                                                                              
                      - O R C A' S   B I G   F R I E N D -                    
                                      &                                       
                       - I N T E G R A L  F E E D E R -                       
                                                                              
 v1 FN, 2020, v2 2021                                                         
------------------------------------------------------------------------------


Reading SHARK input file FeH2O62+-cas65-mul3.SHARKINP.tmp ... ok
----------------------
SHARK INTEGRAL PACKAGE
----------------------

Number of atoms                             ...     19
Number of basis functions                   ...    175
Number of shells                            ...     83
Maximum angular momentum                    ...      3
Integral batch strategy                     ... SHARK/LIBINT Hybrid
RI-J (if used) integral strategy            ... SPLIT-RIJ (Revised 2003 algorithm where possible)
Printlevel                                  ...      1
Contraction scheme used                     ... SEGMENTED contraction
Coulomb Range Separation                    ... NOT USED
Exchange Range Separation                   ... NOT USED
Finite Nucleus Model                        ... NOT USED
Auxiliary Coulomb fitting basis             ... NOT available
Auxiliary J/K fitting basis                 ... NOT available
Auxiliary Correlation fitting basis         ... NOT available
Auxiliary 'external' fitting basis          ... NOT available
Integral threshold                          ...     1.000000e-10
Primitive cut-off                           ...     1.000000e-11
Primitive pair pre-selection threshold      ...     1.000000e-11

Calculating pre-screening integrals         ... done (  0.0 sec) Dimension = 83
Organizing shell pair data                  ... done (  0.1 sec)
Shell pair information
Total number of shell pairs                 ...      3486
Shell pairs after pre-screening             ...      3281
Total number of primitive shell pairs       ...     13195
Primitive shell pairs kept                  ...      8744
          la=0 lb=0:   1083 shell pairs
          la=1 lb=0:   1175 shell pairs
          la=1 lb=1:    351 shell pairs
          la=2 lb=0:    358 shell pairs
          la=2 lb=1:    198 shell pairs
          la=2 lb=2:     33 shell pairs
          la=3 lb=0:     47 shell pairs
          la=3 lb=1:     27 shell pairs
          la=3 lb=2:      8 shell pairs
          la=3 lb=3:      1 shell pairs

Calculating one electron integrals          ... done (  0.0 sec)
Calculating Nuclear repulsion               ... done (  0.0 sec) ENN=    695.793466821567 Eh

SHARK setup successfully completed in   0.4 seconds

Maximum memory used throughout the entire GTOINT-calculation: 12.5 MB
[cnode04:32334] 7 more processes have sent help message help-mpi-btl-openib.txt / error in device init
[cnode04:32334] Set MCA parameter "orte_base_help_aggregate" to 0 to see all help / error messages
--------------------------------------------------------------------------
WARNING: There was an error initializing an OpenFabrics device.

  Local host:   cnode04
  Local device: mlx5_0
--------------------------------------------------------------------------


           ************************************************************
           *        Program running with 8 parallel MPI-processes     *
           *              working on a common directory               *
           ************************************************************
-------------------------------------------------------------------------------
                                 ORCA SCF
-------------------------------------------------------------------------------

------------
SCF SETTINGS
------------
Hamiltonian:
 Ab initio Hamiltonian  Method          .... Hartree-Fock(GTOs)


General Settings:
 Integral files         IntName         .... FeH2O62+-cas65-mul3
 Hartree-Fock type      HFTyp           .... CASSCF
 Total Charge           Charge          ....    2
 Multiplicity           Mult            ....    3
 Number of Electrons    NEL             ....   84
 Basis Dimension        Dim             ....  175
 Nuclear Repulsion      ENuc            ....    695.7934668216 Eh


Diagonalization of the overlap matrix:
Smallest eigenvalue                        ... 1.374e-02
Time for diagonalization                   ...    0.004 sec
Threshold for overlap eigenvalues          ... 1.000e-08
Number of eigenvalues below threshold      ... 0
Time for construction of square roots      ...    0.132 sec
Total time needed                          ...    0.136 sec

---------------------
INITIAL GUESS: MOREAD
---------------------
Guess MOs are being read from file: FeH2O62+-rohf.gbw
Input Geometry matches current geometry (good)
Input basis set matches current basis set (good)
MOs were renormalized
Gram-Schmidt orthogonalization of all MOs with pivot on actives
                      ------------------
                      INITIAL GUESS DONE (   0.1 sec)
                      ------------------


 ... the calculation is a CASSCF calculation -I'm leaving here GOOD LUCK!!!

[cnode04:32398] 7 more processes have sent help message help-mpi-btl-openib.txt / error in device init
[cnode04:32398] Set MCA parameter "orte_base_help_aggregate" to 0 to see all help / error messages
--------------------------------------------------------------------------
WARNING: There was an error initializing an OpenFabrics device.

  Local host:   cnode04
  Local device: mlx5_0
--------------------------------------------------------------------------


           ************************************************************
           *        Program running with 8 parallel MPI-processes     *
           *              working on a common directory               *
           ************************************************************
-------------------------------------------------------------------------------
                              ORCA-CASSCF
-------------------------------------------------------------------------------

Setting up the integral package       ... done
Building the CAS space                ... done (35 configurations for Mult=3)

SYSTEM-SPECIFIC SETTINGS:
Number of active electrons          ...    6
Number of active orbitals           ...    5
Total number of electrons           ...   84
Total number of orbitals            ...  175

Determined orbital ranges:
   Internal       0 -   38 (  39 orbitals)
   Active        39 -   43 (   5 orbitals)
   External      44 -  174 ( 131 orbitals)
Number of rotation parameters      ...   5959

CI-STEP:
CI strategy                         ... General CI
Number of multiplicity blocks       ...    1
BLOCK  1 WEIGHT=   1.0000
  Multiplicity                      ...    3
  #(Configurations)                 ...   35
  #(CSFs)                           ...   45
  #(Roots)                          ...    1
    ROOT=0 WEIGHT=    1.000000

  PrintLevel                        ...    1
  N(GuessMat)                       ...       512
  MaxDim(CI)                        ...        10
  MaxIter(CI)                       ...        64
  Energy Tolerance CI               ...  1.00e-08
  Residual Tolerance CI             ...  1.00e-08
  Shift(CI)                         ...  1.00e-04

INTEGRAL-TRANSFORMATION-STEP:
  Algorithm                         ... EXACT

ORBITAL-IMPROVEMENT-STEP:
  Algorithm                         ... SuperCI(PT)
  Default Parametrization           ... CAYLEY
  Act-Act rotations                 ... depends on algorithm used

  Note: SuperCI(PT) will ignore FreezeIE, FreezeAct and FreezeGrad. In general Default settings are encouraged.
        In conjunction with ShiftUp, ShiftDn or GradScaling the performance of SuperCI(PT) is less optimal.  

  MaxRot                            ... 2.00e-01 
  Max. no of vectors (DIIS)         ... 15
  DThresh (cut-off) metric          ... 1.00e-06
  Switch step at gradient           ...  3.00e-02 
  Switch step at iteration          ...        50   
  Switch step to                    ... SuperCI(PT)    

SCF-SETTINGS:
  Incremental                       ... on
  RIJCOSX approximation             ... off
  RI-JK approximation               ... off
  AO integral handling              ... DIRECT
  Integral Neglect Thresh           ...  1.00e-10
  Primitive cutoff TCut             ...  1.00e-11
  Energy convergence tolerance      ...  1.00e-07
  Orbital gradient convergence      ...  1.00e-03
  Max. number of iterations         ...        75  


FINAL ORBITALS:
  Active   Orbitals                 ... natural 
  Internal Orbitals                 ... canonical 
  External Orbitals                 ... canonical 

------------------
CAS-SCF ITERATIONS
------------------


MACRO-ITERATION   1: 
[cnode04:32464] 7 more processes have sent help message help-mpi-btl-openib.txt / error in device init
[cnode04:32464] Set MCA parameter "orte_base_help_aggregate" to 0 to see all help / error messages
   --- Inactive Energy E0 = -1700.74754109 Eh
CI-ITERATION   0: 
 -1717.631348896   0.000000000000 (    0.00)
   CI-PROBLEM SOLVED
   DENSITIES MADE

                 <<<<<<<<<<<<<<<<<<INITIAL CI STATE CHECK>>>>>>>>>>>>>>>>>>

BLOCK  1 MULT= 3 NROOTS= 1 
ROOT   0:  E=   -1717.6313488956 Eh
      0.44614 [    31]: 21210
      0.44164 [    33]: 22101
      0.02970 [    24]: 20211
      0.02926 [    32]: 22011
      0.01493 [    25]: 21012
      0.01486 [    23]: 20121
      0.00531 [    29]: 21120
      0.00518 [    27]: 21102
      0.00334 [    18]: 12111

                 <<<<<<<<<<<<<<<<<<INITIAL CI STATE CHECK>>>>>>>>>>>>>>>>>>

   E(CAS)= -1717.631348896 Eh DE=    0.000000e+00
   --- Energy gap subspaces: Ext-Act = -0.015   Act-Int = 0.070
   N(occ)=  1.98337 1.43379 1.43908 0.57429 0.56947
   ||g|| =     2.974261e-01 Max(G)=    1.548444e-01 Rot=172,14
   --- Orbital Update [SuperCI(PT)]
   --- Canonicalize Internal Space
   --- Canonicalize External Space
   --- SX_PT (Skipped TA=0 IT=0): ||X|| =      0.266095237 Max(X)(39,33) =      0.217631366 
   --- SFit(Active Orbitals)

MACRO-ITERATION   2: 
   --- Inactive Energy E0 = -1700.09900200 Eh
CI-ITERATION   0: 
 -1717.639647154   0.000000000000 (    0.00)
   CI-PROBLEM SOLVED
   DENSITIES MADE
   E(CAS)= -1717.639647154 Eh DE=   -8.298259e-03
   --- Energy gap subspaces: Ext-Act = -0.005   Act-Int = 0.027
   N(occ)=  1.94061 1.43361 1.44016 0.59584 0.58978
   ||g|| =     6.088103e-02 Max(G)=   -1.771438e-02 Rot=168,14
   --- Orbital Update [SuperCI(PT)]
   --- Canonicalize Internal Space
   --- Canonicalize External Space
   --- SX_PT (Skipped TA=0 IT=0): ||X|| =      0.044054822 Max(X)(39,37) =      0.040141736 
   --- SFit(Active Orbitals)

MACRO-ITERATION   3: 
   --- Inactive Energy E0 = -1700.05045255 Eh
CI-ITERATION   0: 
 -1717.640142587   0.000000000000 (    0.00)
   CI-PROBLEM SOLVED
   DENSITIES MADE
   E(CAS)= -1717.640142587 Eh DE=   -4.954332e-04
   --- Energy gap subspaces: Ext-Act = -0.008   Act-Int = 0.017
   N(occ)=  1.94116 1.43313 1.44071 0.59598 0.58902
   ||g|| =     1.988923e-02 Max(G)=   -4.420255e-03 Rot=61,11
   --- Orbital Update [SuperCI(PT)]
   --- Canonicalize Internal Space
   --- Canonicalize External Space
   --- SX_PT (Skipped TA=0 IT=0): ||X|| =      0.005711489 Max(X)(39,37) =      0.004393605 
   --- SFit(Active Orbitals)

MACRO-ITERATION   4: 
   --- Inactive Energy E0 = -1700.04396661 Eh
CI-ITERATION   0: 
 -1717.640170521   0.000000000000 (    0.00)
   CI-PROBLEM SOLVED
   DENSITIES MADE
   E(CAS)= -1717.640170521 Eh DE=   -2.793358e-05
   --- Energy gap subspaces: Ext-Act = -0.007   Act-Int = 0.012
   N(occ)=  1.94165 1.43308 1.44113 0.59575 0.58840
   ||g|| =     9.165488e-03 Max(G)=    2.243519e-03 Rot=61,39
   --- Orbital Update [SuperCI(PT)]
   --- Canonicalize Internal Space
   --- Canonicalize External Space
   --- SX_PT (Skipped TA=0 IT=0): ||X|| =      0.001595603 Max(X)(61,39) =      0.000464232 
   --- SFit(Active Orbitals)

MACRO-ITERATION   5: 
   --- Inactive Energy E0 = -1700.04464621 Eh
CI-ITERATION   0: 
 -1717.640175370   0.000000000000 (    0.00)
   CI-PROBLEM SOLVED
   DENSITIES MADE
   E(CAS)= -1717.640175370 Eh DE=   -4.848561e-06
   --- Energy gap subspaces: Ext-Act = -0.008   Act-Int = 0.013
   N(occ)=  1.94175 1.43304 1.44126 0.59572 0.58823
   ||g|| =     2.537256e-03 Max(G)=   -6.738930e-04 Rot=61,11
   --- Orbital Update [SuperCI(PT)]
   --- Canonicalize Internal Space
   --- Canonicalize External Space
   --- SX_PT (Skipped TA=0 IT=0): ||X|| =      0.000460245 Max(X)(39,11) =      0.000196698 
   --- SFit(Active Orbitals)

MACRO-ITERATION   6: 
   --- Inactive Energy E0 = -1700.04450967 Eh
CI-ITERATION   0: 
 -1717.640176051   0.000000000000 (    0.00)
   CI-PROBLEM SOLVED
   DENSITIES MADE
   E(CAS)= -1717.640176051 Eh DE=   -6.816897e-07
   --- Energy gap subspaces: Ext-Act = -0.008   Act-Int = 0.012
   N(occ)=  1.94183 1.43298 1.44142 0.59572 0.58805
   ||g|| =     4.279829e-04 Max(G)=    1.495288e-04 Rot=57,11
                     ---- THE CAS-SCF GRADIENT HAS CONVERGED ----
                            --- FINALIZING ORBITALS ---
                    ---- DOING ONE FINAL ITERATION FOR PRINTING ----
   --- Forming Natural Orbitals
   --- Canonicalize Internal Space
   --- Canonicalize External Space

MACRO-ITERATION   7: 
   --- Inactive Energy E0 = -1700.04450966 Eh
   --- All densities will be recomputed
CI-ITERATION   0: 
 -1717.640176042   0.000000000000 (    0.00)
   CI-PROBLEM SOLVED
   DENSITIES MADE
   E(CAS)= -1717.640176042 Eh DE=    8.893494e-09
   --- Energy gap subspaces: Ext-Act = -0.031   Act-Int = 0.012
   N(occ)=  1.94183 1.49620 1.48807 0.54119 0.53271
   ||g|| =     4.279979e-04 Max(G)=    1.492703e-04 Rot=57,11
--------------
CASSCF RESULTS
--------------

Final CASSCF energy       : -1717.640176042 Eh  -46739.3654 eV

----------------
ORBITAL ENERGIES
----------------

  NO   OCC          E(Eh)            E(eV) 
   0   2.0000    -261.596541     -7118.4038 
   1   2.0000     -32.163250      -875.2065 
   2   2.0000     -27.655580      -752.5466 
   3   2.0000     -27.655506      -752.5446 
   4   2.0000     -27.648521      -752.3545 
   5   2.0000     -20.908237      -568.9421 
   6   2.0000     -20.908217      -568.9415 
   7   2.0000     -20.908204      -568.9412 
   8   2.0000     -20.908171      -568.9402 
   9   2.0000     -20.908146      -568.9396 
  10   2.0000     -20.908109      -568.9386 
  11   2.0000      -4.348258      -118.3221 
  12   2.0000      -2.988713       -81.3270 
  13   2.0000      -2.988662       -81.3256 
  14   2.0000      -2.985379       -81.2363 
  15   2.0000      -1.689113       -45.9631 
  16   2.0000      -1.677648       -45.6511 
  17   2.0000      -1.673173       -45.5293 
  18   2.0000      -1.673140       -45.5285 
  19   2.0000      -1.671059       -45.4718 
  20   2.0000      -1.671024       -45.4709 
  21   2.0000      -1.069174       -29.0937 
  22   2.0000      -1.066461       -29.0199 
  23   2.0000      -1.059946       -28.8426 
  24   2.0000      -1.059919       -28.8419 
  25   2.0000      -1.059004       -28.8170 
  26   2.0000      -1.058985       -28.8165 
  27   2.0000      -1.010614       -27.5002 
  28   2.0000      -0.964349       -26.2413 
  29   2.0000      -0.957328       -26.0502 
  30   2.0000      -0.957313       -26.0498 
  31   2.0000      -0.951484       -25.8912 
  32   2.0000      -0.951448       -25.8902 
  33   2.0000      -0.873288       -23.7634 
  34   2.0000      -0.873245       -23.7622 
  35   2.0000      -0.870881       -23.6979 
  36   2.0000      -0.870857       -23.6972 
  37   2.0000      -0.866044       -23.5662 
  38   2.0000      -0.852734       -23.2041 
  39   1.9418      -0.840305       -22.8659 
  40   1.4962      -0.618307       -16.8250 
  41   1.4881      -0.615029       -16.7358 
  42   0.5412      -0.171537        -4.6678 
  43   0.5327      -0.168127        -4.5750 
  44   0.0000      -0.199095        -5.4176 
  45   0.0000      -0.117556        -3.1989 
  46   0.0000      -0.117536        -3.1983 
  47   0.0000      -0.104588        -2.8460 
  48   0.0000      -0.070103        -1.9076 
  49   0.0000      -0.070086        -1.9071 
  50   0.0000      -0.033307        -0.9063 
  51   0.0000      -0.031808        -0.8655 
  52   0.0000      -0.031801        -0.8654 
  53   0.0000      -0.030348        -0.8258 
  54   0.0000      -0.020142        -0.5481 
  55   0.0000      -0.020129        -0.5477 
  56   0.0000       0.049196         1.3387 
  57   0.0000       0.196322         5.3422 
  58   0.0000       0.202500         5.5103 
  59   0.0000       0.202610         5.5133 
  60   0.0000       0.263551         7.1716 
  61   0.0000       0.390531        10.6269 
  62   0.0000       0.452474        12.3125 
  63   0.0000       0.452559        12.3148 
  64   0.0000       0.498614        13.5680 
  65   0.0000       0.504921        13.7396 
  66   0.0000       0.504932        13.7399 
  67   0.0000       0.543672        14.7941 
  68   0.0000       0.543699        14.7948 
  69   0.0000       0.586264        15.9531 
  70   0.0000       0.591334        16.0910 
  71   0.0000       0.591356        16.0916 
  72   0.0000       0.623159        16.9570 
  73   0.0000       0.748749        20.3745 
  74   0.0000       0.774379        21.0719 
  75   0.0000       0.774480        21.0747 
  76   0.0000       0.845557        23.0088 
  77   0.0000       0.859202        23.3801 
  78   0.0000       0.859290        23.3825 
  79   0.0000       0.918285        24.9878 
  80   0.0000       0.918360        24.9898 
  81   0.0000       0.984607        26.7925 
  82   0.0000       0.985875        26.8270 
  83   0.0000       0.993298        27.0290 
  84   0.0000       0.993320        27.0296 
  85   0.0000       1.006182        27.3796 
  86   0.0000       1.006217        27.3806 
  87   0.0000       1.047176        28.4951 
  88   0.0000       1.068430        29.0734 
  89   0.0000       1.068458        29.0742 
  90   0.0000       1.074648        29.2427 
  91   0.0000       1.119007        30.4497 
  92   0.0000       1.119128        30.4530 
  93   0.0000       1.195343        32.5269 
  94   0.0000       1.195410        32.5288 
  95   0.0000       1.218905        33.1681 
  96   0.0000       1.224103        33.3095 
  97   0.0000       1.255406        34.1613 
  98   0.0000       1.255418        34.1617 
  99   0.0000       1.286150        34.9979 
 100   0.0000       1.286292        35.0018 
 101   0.0000       1.301841        35.4249 
 102   0.0000       1.310888        35.6711 
 103   0.0000       1.322736        35.9935 
 104   0.0000       1.322761        35.9942 
 105   0.0000       1.351713        36.7820 
 106   0.0000       1.351861        36.7860 
 107   0.0000       1.371152        37.3110 
 108   0.0000       1.504467        40.9386 
 109   0.0000       1.504523        40.9401 
 110   0.0000       1.525569        41.5128 
 111   0.0000       1.583217        43.0815 
 112   0.0000       1.617431        44.0125 
 113   0.0000       1.617489        44.0141 
 114   0.0000       1.711933        46.5841 
 115   0.0000       1.721253        46.8377 
 116   0.0000       1.721276        46.8383 
 117   0.0000       1.807450        49.1832 
 118   0.0000       1.813413        49.3455 
 119   0.0000       1.813439        49.3462 
 120   0.0000       1.949195        53.0403 
 121   0.0000       1.949229        53.0412 
 122   0.0000       2.003535        54.5189 
 123   0.0000       2.061519        56.0968 
 124   0.0000       2.147609        58.4394 
 125   0.0000       2.147745        58.4431 
 126   0.0000       2.192163        59.6518 
 127   0.0000       2.197684        59.8020 
 128   0.0000       2.197752        59.8039 
 129   0.0000       2.205311        60.0096 
 130   0.0000       2.205382        60.0115 
 131   0.0000       2.215816        60.2954 
 132   0.0000       2.255018        61.3622 
 133   0.0000       2.255115        61.3648 
 134   0.0000       2.258188        61.4484 
 135   0.0000       2.258854        61.4665 
 136   0.0000       2.258988        61.4702 
 137   0.0000       2.264869        61.6302 
 138   0.0000       2.915626        79.3382 
 139   0.0000       2.933131        79.8145 
 140   0.0000       2.933156        79.8152 
 141   0.0000       2.957357        80.4738 
 142   0.0000       3.015025        82.0430 
 143   0.0000       3.015104        82.0452 
 144   0.0000       3.023142        82.2639 
 145   0.0000       3.023165        82.2645 
 146   0.0000       3.023265        82.2672 
 147   0.0000       3.031427        82.4893 
 148   0.0000       3.100129        84.3588 
 149   0.0000       3.100262        84.3624 
 150   0.0000       3.172668        86.3327 
 151   0.0000       3.172713        86.3339 
 152   0.0000       3.176513        86.4373 
 153   0.0000       3.178035        86.4787 
 154   0.0000       3.270390        88.9918 
 155   0.0000       3.270545        88.9961 
 156   0.0000       3.550498        96.6140 
 157   0.0000       3.550618        96.6172 
 158   0.0000       3.559006        96.8455 
 159   0.0000       3.559131        96.8489 
 160   0.0000       3.565464        97.0212 
 161   0.0000       3.610632        98.2503 
 162   0.0000       3.848436       104.7213 
 163   0.0000       3.856570       104.9426 
 164   0.0000       3.901849       106.1747 
 165   0.0000       3.901874       106.1754 
 166   0.0000       3.933890       107.0466 
 167   0.0000       3.933904       107.0470 
 168   0.0000       4.196659       114.1969 
 169   0.0000       4.233696       115.2047 
 170   0.0000       4.262563       115.9902 
 171   0.0000       4.262628       115.9920 
 172   0.0000       4.348320       118.3238 
 173   0.0000       4.365733       118.7976 
 174   0.0000       4.365878       118.8016 


---------------------------------------------
CAS-SCF STATES FOR BLOCK  1 MULT= 3 NROOTS= 1
---------------------------------------------

ROOT   0:  E=   -1717.6401760424 Eh
      0.47396 [    34]: 22110
      0.46552 [    30]: 21201
      0.01122 [    13]: 11211
      0.01100 [     5]: 02211
      0.00563 [    19]: 12120
      0.00552 [    17]: 12102
      0.00374 [    24]: 20211
      0.00364 [    32]: 22011
      0.00350 [    22]: 20112
      0.00341 [    26]: 21021
      0.00298 [     3]: 02112
      0.00294 [     2]: 01221
      0.00256 [    27]: 21102
      0.00253 [    29]: 21120


--------------
DENSITY MATRIX
--------------

                  0          1          2          3          4    
      0       1.941827  -0.000000  -0.000000  -0.000000  -0.000000
      1      -0.000000   1.496200   0.000000  -0.000000  -0.000000
      2      -0.000000   0.000000   1.488072   0.000000  -0.000000
      3      -0.000000  -0.000000   0.000000   0.541194   0.000000
      4      -0.000000  -0.000000  -0.000000   0.000000   0.532707
Trace of the electron density:  6.000000
Extracting Spin-Density from 2-RDM (MULT=3) ... done

-------------------
SPIN-DENSITY MATRIX
-------------------

                  0          1          2          3          4    
      0       0.024118   0.000072   0.000017  -0.001148  -0.000213
      1       0.000072   0.488970  -0.000001  -0.074644   0.000152
      2       0.000017  -0.000001   0.497489  -0.000098  -0.074317
      3      -0.001148  -0.074644  -0.000098   0.498976  -0.000017
      4      -0.000213   0.000152  -0.074317  -0.000017   0.490447
Trace of the spin density:  2.000000

-----------------
ENERGY COMPONENTS
-----------------

One electron energy          :  -3735.922661742 Eh     -101659.6239 eV
Two electron energy          :   1322.489018878 Eh       35986.7557 eV
Nuclear repulsion energy     :    695.793466822 Eh       18933.5028 eV
                               ----------------
                                -1717.640176042

Kinetic energy               :   1716.033826440 Eh       46695.6544 eV
Potential energy             :  -3433.674002483 Eh      -93435.0198 eV
Virial ratio                 :     -2.000936083 
                               ----------------
                                -1717.640176042

Core energy                  :  -1700.044509659 Eh   -46260.5629 eV


----------------------------
LOEWDIN ORBITAL-COMPOSITIONS
----------------------------

                      0         1         2         3         4         5   
                 -261.59654 -32.16325 -27.65558 -27.65551 -27.64852 -20.90824
                   2.00000   2.00000   2.00000   2.00000   2.00000   2.00000
                  --------  --------  --------  --------  --------  --------
 0 Fe s             100.0     100.0       0.0       0.0       0.0       0.0
 0 Fe pz              0.0       0.0      36.7      54.7       8.7       0.0
 0 Fe px              0.0       0.0      61.4      38.2       0.3       0.0
 0 Fe py              0.0       0.0       1.9       7.1      91.0       0.0
 1 O  s               0.0       0.0       0.0       0.0       0.0       0.2
 3 O  s               0.0       0.0       0.0       0.0       0.0      61.6
 5 O  s               0.0       0.0       0.0       0.0       0.0      35.7
 9 O  s               0.0       0.0       0.0       0.0       0.0       1.9
11 O  s               0.0       0.0       0.0       0.0       0.0       0.4

                      6         7         8         9        10        11   
                 -20.90822 -20.90820 -20.90817 -20.90815 -20.90811  -4.34826
                   2.00000   2.00000   2.00000   2.00000   2.00000   2.00000
                  --------  --------  --------  --------  --------  --------
 0 Fe s               0.0       0.0       0.0       0.0       0.0      97.6
 0 Fe dz2             0.0       0.0       0.0       0.0       0.0       0.2
 0 Fe dyz             0.0       0.0       0.0       0.0       0.0       0.4
 0 Fe dx2y2           0.0       0.0       0.0       0.0       0.0       0.9
 1 O  s               1.1       0.4       0.7      25.6      71.8       0.0
 3 O  s              25.8       4.7       7.0       0.0       0.7       0.0
 5 O  s              53.3       0.3       9.5       0.5       0.5       0.0
 7 O  s               2.7       0.3       1.1      72.4      23.4       0.0
 9 O  s              13.2      54.8      27.5       1.3       1.3       0.0
11 O  s               3.8      39.4      54.1       0.0       2.1       0.0

                     12        13        14        15        16        17   
                  -2.98871  -2.98866  -2.98538  -1.68911  -1.67765  -1.67317
                   2.00000   2.00000   2.00000   2.00000   2.00000   2.00000
                  --------  --------  --------  --------  --------  --------
 0 Fe s               0.0       0.0       0.0       6.7       0.0       0.0
 0 Fe pz             38.4      52.3       8.5       0.0       0.4       1.4
 0 Fe px             58.8      40.1       0.3       0.0       0.0       2.2
 0 Fe py              2.1       6.8      90.3       0.0       4.1       0.1
 1 O  s               0.0       0.0       0.0      10.1      10.1       0.3
 1 O  py              0.0       0.1       0.1       0.0       0.0       0.0
 2 H  s               0.0       0.0       0.0       2.1       2.2       0.0
 2 H  pz              0.0       0.0       0.0       0.2       0.2       0.0
 2 H  px              0.0       0.0       0.0       0.2       0.2       0.0
 2 H  py              0.0       0.0       0.0       0.2       0.2       0.0
 3 O  s               0.0       0.0       0.0      10.2      10.4      17.5
 3 O  pz              0.1       0.0       0.1       0.0       0.1       0.2
 4 H  s               0.0       0.0       0.0       2.0       2.1       3.8
 4 H  pz              0.0       0.0       0.0       0.2       0.2       0.4
 4 H  px              0.0       0.0       0.0       0.3       0.3       0.5
 4 H  py              0.0       0.0       0.0       0.1       0.1       0.2
 5 O  s               0.0       0.0       0.0      10.2      10.4      17.4
 5 O  pz              0.1       0.0       0.1       0.0       0.1       0.2
 6 H  s               0.0       0.0       0.0       2.0       2.1       3.8
 6 H  pz              0.0       0.0       0.0       0.2       0.2       0.4
 6 H  px              0.0       0.0       0.0       0.3       0.3       0.5
 6 H  py              0.0       0.0       0.0       0.1       0.1       0.2
 7 O  s               0.0       0.0       0.0      10.1      10.1       0.3
 7 O  py              0.0       0.1       0.1       0.0       0.0       0.0
 8 H  s               0.0       0.0       0.0       2.1       2.3       0.0
 8 H  pz              0.0       0.0       0.0       0.2       0.2       0.0
 8 H  px              0.0       0.0       0.0       0.2       0.2       0.0
 8 H  py              0.0       0.0       0.0       0.2       0.2       0.0
 9 O  s               0.0       0.0       0.0      10.1      10.3      13.4
10 H  s               0.0       0.0       0.0       2.1       2.3       2.8
10 H  pz              0.0       0.0       0.0       0.1       0.2       0.2
10 H  py              0.0       0.0       0.0       0.5       0.5       0.6
11 O  s               0.0       0.0       0.0      10.1      10.3      13.4
12 H  s               0.0       0.0       0.0       2.1       2.3       2.8
12 H  pz              0.0       0.0       0.0       0.1       0.2       0.2
12 H  py              0.0       0.0       0.0       0.5       0.5       0.6
13 H  s               0.0       0.0       0.0       2.0       2.0       2.9
13 H  px              0.0       0.0       0.0       0.5       0.5       0.7
13 H  py              0.0       0.0       0.0       0.1       0.1       0.1
14 H  s               0.0       0.0       0.0       2.1       2.3       3.4
14 H  pz              0.0       0.0       0.0       0.2       0.2       0.3
14 H  px              0.0       0.0       0.0       0.3       0.3       0.5
14 H  py              0.0       0.0       0.0       0.2       0.2       0.3
15 H  s               0.0       0.0       0.0       2.0       2.0       2.8
15 H  px              0.0       0.0       0.0       0.5       0.5       0.7
15 H  py              0.0       0.0       0.0       0.1       0.1       0.1
16 H  s               0.0       0.0       0.0       2.0       2.0       0.1
16 H  pz              0.0       0.0       0.0       0.5       0.5       0.0
17 H  s               0.0       0.0       0.0       2.2       2.3       3.4
17 H  pz              0.0       0.0       0.0       0.2       0.2       0.3
17 H  px              0.0       0.0       0.0       0.3       0.3       0.5
17 H  py              0.0       0.0       0.0       0.2       0.2       0.3
18 H  s               0.0       0.0       0.0       2.0       2.0       0.1
18 H  pz              0.0       0.0       0.0       0.5       0.5       0.0

                     18        19        20        21        22        23   
                  -1.67314  -1.67106  -1.67102  -1.06917  -1.06646  -1.05995
                   2.00000   2.00000   2.00000   2.00000   2.00000   2.00000
                  --------  --------  --------  --------  --------  --------
 0 Fe s               0.0       0.0       0.0       0.3       0.0       0.0
 0 Fe pz              1.9       0.0       0.0       0.0       0.2       0.0
 0 Fe px              1.5       0.0       0.0       0.0       0.0       0.0
 0 Fe py              0.3       0.0       0.0       0.0       1.6       0.0
 0 Fe dz2             0.0       0.7       0.0       0.1       0.0       0.1
 0 Fe dxz             0.0       0.4       0.1       0.0       0.0       0.3
 0 Fe dyz             0.0       0.3       0.6       0.1       0.0       0.1
 0 Fe dx2y2           0.0       0.0       0.3       0.3       0.0       0.0
 0 Fe dxy             0.0       0.4       0.8       0.0       0.0       0.0
 1 O  s              20.6       0.8      20.7       0.0       0.0       0.0
 1 O  pz              0.0       0.0       0.0       9.9      10.1       6.1
 1 O  px              0.2       0.0       0.2       0.0       0.0       0.0
 1 O  py              0.0       0.0       0.0       0.8       0.6       0.8
 2 H  s               4.1       0.1       4.2       2.0       1.9       1.5
 2 H  pz              0.4       0.0       0.4       0.0       0.0       0.0
 2 H  px              0.4       0.0       0.4       0.2       0.1       0.1
 2 H  py              0.4       0.0       0.4       0.1       0.1       0.1
 3 O  s               3.2      18.8       2.3       0.0       0.0       0.0
 3 O  pz              0.0       0.2       0.0       0.7       0.8       0.0
 3 O  px              0.0       0.0       0.0       6.1       6.6      14.8
 3 O  py              0.0       0.0       0.0       4.0       3.4       5.7
 3 O  dxz             0.0       0.0       0.0       0.1       0.1       0.1
 4 H  s               0.7       3.9       0.5       3.2       3.2       4.8
 4 H  pz              0.1       0.4       0.1       0.2       0.2       0.4
 4 H  px              0.1       0.5       0.1       0.1       0.1       0.0
 4 H  py              0.0       0.2       0.0       0.0       0.0       0.0
 5 O  s               3.1      18.9       2.4       0.0       0.0       0.0
 5 O  pz              0.0       0.2       0.0       0.7       0.8       0.0
 5 O  px              0.0       0.0       0.0       6.1       6.5      15.2
 5 O  py              0.0       0.0       0.0       4.0       3.4       5.8
 5 O  dxz             0.0       0.0       0.0       0.1       0.1       0.1
 6 H  s               0.6       3.9       0.5       3.2       3.2       4.9
 6 H  pz              0.1       0.4       0.1       0.2       0.2       0.4
 6 H  px              0.1       0.5       0.1       0.1       0.1       0.0
 6 H  py              0.0       0.2       0.0       0.0       0.0       0.0
 7 O  s              20.7       0.7      20.5       0.0       0.0       0.0
 7 O  pz              0.0       0.0       0.0       9.9      10.1       6.3
 7 O  px              0.2       0.0       0.2       0.0       0.0       0.0
 7 O  py              0.0       0.0       0.0       0.8       0.5       0.9
 8 H  s               4.2       0.1       4.1       2.0       1.9       1.6
 8 H  pz              0.4       0.0       0.4       0.0       0.0       0.0
 8 H  px              0.4       0.0       0.4       0.2       0.1       0.1
 8 H  py              0.4       0.0       0.4       0.1       0.1       0.1
 9 O  s               7.4      12.2       9.0       0.0       0.0       0.0
 9 O  pz              0.0       0.0       0.0       0.5       0.7       1.9
 9 O  px              0.1       0.1       0.1       5.2       5.4       0.4
 9 O  py              0.0       0.0       0.0       5.0       4.5       2.3
10 H  s               1.3       2.6       1.7       2.0       1.9       1.3
10 H  pz              0.1       0.2       0.1       0.1       0.0       0.0
10 H  px              0.0       0.0       0.0       0.1       0.1       0.0
10 H  py              0.3       0.6       0.4       0.1       0.1       0.1
11 O  s               7.3      12.3       9.0       0.0       0.0       0.0
11 O  pz              0.0       0.0       0.0       0.5       0.7       1.8
11 O  px              0.1       0.1       0.1       5.2       5.4       0.3
11 O  py              0.0       0.0       0.0       5.1       4.5       2.0
12 H  s               1.3       2.6       1.7       2.0       1.9       1.2
12 H  pz              0.1       0.2       0.1       0.1       0.0       0.0
12 H  px              0.0       0.0       0.0       0.1       0.1       0.0
12 H  py              0.3       0.6       0.4       0.1       0.1       0.1
13 H  s               1.6       2.6       1.9       3.2       3.2       0.7
13 H  px              0.4       0.6       0.5       0.2       0.2       0.1
13 H  py              0.1       0.1       0.1       0.0       0.0       0.0
14 H  s               0.8       3.7       0.5       2.0       1.9       5.5
14 H  pz              0.1       0.3       0.0       0.2       0.2       0.4
14 H  px              0.1       0.5       0.1       0.0       0.0       0.0
14 H  py              0.1       0.3       0.0       0.0       0.0       0.1
15 H  s               1.6       2.6       1.9       3.2       3.2       0.6
15 H  px              0.4       0.6       0.5       0.2       0.2       0.1
15 H  py              0.1       0.1       0.1       0.0       0.0       0.0
16 H  s               4.4       0.2       4.3       3.2       3.2       1.9
16 H  pz              1.1       0.0       1.1       0.1       0.2       0.1
16 H  px              0.1       0.0       0.1       0.1       0.1       0.0
17 H  s               0.7       3.7       0.6       2.0       1.9       5.6
17 H  pz              0.1       0.3       0.0       0.2       0.2       0.4
17 H  px              0.1       0.5       0.1       0.0       0.0       0.0
17 H  py              0.1       0.3       0.0       0.0       0.0       0.1
18 H  s               4.4       0.1       4.3       3.2       3.2       2.0
18 H  pz              1.1       0.0       1.1       0.1       0.2       0.1
18 H  px              0.1       0.0       0.1       0.1       0.1       0.1

                     24        25        26        27        28        29   
                  -1.05992  -1.05900  -1.05899  -1.01061  -0.96435  -0.95733
                   2.00000   2.00000   2.00000   2.00000   2.00000   2.00000
                  --------  --------  --------  --------  --------  --------
 0 Fe s               0.0       0.0       0.0       8.3       0.0       0.0
 0 Fe pz              0.0       0.0       0.7       0.0       0.6       0.0
 0 Fe px              0.0       0.8       0.0       0.0       0.0       0.0
 0 Fe py              0.0       0.0       0.1       0.0       5.7       0.0
 0 Fe dz2             0.0       0.0       0.0       0.0       0.0       2.9
 0 Fe dxz             0.0       0.0       0.0       0.0       0.0       2.5
 0 Fe dyz             0.2       0.0       0.0       0.0       0.0       2.3
 0 Fe dxy             0.2       0.0       0.0       0.0       0.0       1.2
 1 O  s               0.0       0.0       0.0       0.4       0.7       0.4
 1 O  pz             11.0       7.3       9.7       0.6       0.3       1.3
 1 O  px              1.8       0.2       1.3       4.4       7.6       1.9
 1 O  py              1.4       0.6       2.6       7.6       4.6       0.8
 2 H  s               3.9       1.9       4.0       1.4       1.6       0.1
 2 H  pz              0.0       0.0       0.0       0.2       0.2       0.0
 2 H  px              0.1       0.1       0.2       0.0       0.0       0.0
 2 H  py              0.2       0.1       0.1       0.0       0.0       0.0
 3 O  s               0.0       0.0       0.0       0.4       0.7       1.9
 3 O  pz              0.3       0.1       0.2      10.8      11.8      23.2
 3 O  px              0.0      13.8       0.4       0.0       0.3       0.2
 3 O  py              0.3       6.9       0.1       1.9       0.5       0.3
 3 O  dxz             0.0       0.1       0.0       0.0       0.0       0.0
 4 H  s               0.1       4.6       0.2       0.3       0.2       1.9
 4 H  pz              0.0       0.4       0.0       0.1       0.1       0.1
 4 H  px              0.0       0.0       0.0       0.0       0.1       0.1
 4 H  py              0.0       0.0       0.0       0.1       0.0       0.1
 5 O  s               0.0       0.0       0.0       0.4       0.8       1.9
 5 O  pz              0.3       0.1       0.2      10.8      11.8      23.1
 5 O  px              0.0      13.6       0.3       0.0       0.3       0.2
 5 O  py              0.3       6.8       0.1       1.9       0.5       0.3
 5 O  dxz             0.0       0.1       0.0       0.0       0.0       0.0
 6 H  s               0.1       4.5       0.2       0.3       0.2       1.9
 6 H  pz              0.0       0.4       0.0       0.1       0.1       0.1
 6 H  px              0.0       0.0       0.0       0.0       0.1       0.1
 6 H  py              0.0       0.0       0.0       0.1       0.0       0.1
 7 O  s               0.0       0.0       0.0       0.4       0.7       0.4
 7 O  pz             11.4       7.2       9.2       0.6       0.3       1.3
 7 O  px              1.9       0.2       1.3       4.4       7.7       1.9
 7 O  py              1.4       0.6       2.5       7.6       4.6       0.8
 8 H  s               4.1       1.8       3.8       1.4       1.6       0.1
 8 H  pz              0.0       0.0       0.0       0.2       0.2       0.0
 8 H  px              0.2       0.1       0.2       0.0       0.0       0.0
 8 H  py              0.2       0.1       0.1       0.0       0.0       0.0
 9 O  s               0.0       0.0       0.0       0.4       0.7       0.6
 9 O  pz              2.4       0.6       2.9       0.2       1.9       0.6
 9 O  px              4.8       0.1       4.4       6.9       6.4       5.5
 9 O  py              9.8       2.6      10.8       5.6       4.3       2.7
10 H  s               4.3       1.0       4.7       1.4       1.6       0.7
10 H  px              0.1       0.0       0.1       0.1       0.1       0.1
10 H  py              0.2       0.0       0.2       0.0       0.1       0.0
11 O  s               0.0       0.0       0.0       0.4       0.7       0.6
11 O  pz              2.4       0.6       2.9       0.2       1.9       0.6
11 O  px              4.9       0.1       4.4       6.9       6.3       5.5
11 O  py             10.0       2.7      10.7       5.6       4.3       2.7
12 H  s               4.4       1.1       4.7       1.4       1.6       0.7
12 H  px              0.1       0.0       0.1       0.1       0.1       0.1
12 H  py              0.2       0.1       0.2       0.0       0.1       0.0
13 H  s               4.3       0.4       4.3       0.3       0.2       0.4
13 H  px              0.4       0.0       0.4       0.0       0.0       0.0
13 H  py              0.0       0.0       0.0       0.2       0.2       0.1
14 H  s               0.0       5.8       0.0       1.4       1.6       1.3
14 H  pz              0.0       0.4       0.0       0.0       0.0       0.2
14 H  px              0.0       0.1       0.0       0.2       0.1       0.2
15 H  s               4.4       0.5       4.3       0.3       0.2       0.4
15 H  px              0.4       0.1       0.4       0.0       0.0       0.0
15 H  py              0.0       0.0       0.0       0.2       0.2       0.1
16 H  s               3.0       2.2       2.7       0.3       0.2       0.6
16 H  pz              0.1       0.1       0.1       0.0       0.0       0.0
16 H  px              0.2       0.1       0.2       0.0       0.1       0.0
16 H  py              0.0       0.0       0.1       0.1       0.1       0.0
17 H  s               0.0       5.7       0.0       1.4       1.6       1.3
17 H  pz              0.0       0.3       0.0       0.0       0.0       0.2
17 H  px              0.0       0.1       0.0       0.2       0.1       0.2
18 H  s               3.1       2.1       2.5       0.3       0.2       0.6
18 H  pz              0.1       0.1       0.1       0.0       0.0       0.0
18 H  px              0.2       0.1       0.1       0.0       0.1       0.0
18 H  py              0.0       0.0       0.1       0.1       0.1       0.0

                     30        31        32        33        34        35   
                  -0.95731  -0.95148  -0.95145  -0.87329  -0.87324  -0.87088
                   2.00000   2.00000   2.00000   2.00000   2.00000   2.00000
                  --------  --------  --------  --------  --------  --------
 0 Fe pz              0.0       0.9       4.8       0.0       0.0       0.9
 0 Fe px              0.0       5.3       0.9       0.0       0.0       0.2
 0 Fe py              0.0       0.0       0.6       0.0       0.0       0.1
 0 Fe dz2             0.1       0.0       0.0       2.0       0.0       0.0
 0 Fe dxz             0.0       0.0       0.0       0.0       0.9       0.0
 0 Fe dyz             2.7       0.0       0.0       0.1       0.0       0.0
 0 Fe dx2y2           1.9       0.0       0.0       0.2       0.0       0.0
 0 Fe dxy             4.1       0.0       0.0       0.0       1.4       0.0
 1 O  s               1.6       0.1       1.6       0.0       0.1       0.4
 1 O  pz              2.6       0.2       4.6       0.1       0.4       0.1
 1 O  px             10.2       0.8      10.3       0.9      12.6       3.0
 1 O  py              7.5       0.8       8.7       1.3      15.1       0.1
 2 H  s               1.3       0.1       1.0       0.1       0.0       0.2
 2 H  pz              0.3       0.0       0.3       0.0       0.0       0.0
 2 H  px              0.0       0.0       0.0       0.1       0.3       0.0
 2 H  py              0.0       0.0       0.0       0.0       0.4       0.0
 3 O  s               0.0       1.5       0.2       0.1       0.0       0.3
 3 O  pz              0.3      18.7       4.0       0.7       0.0       1.6
 3 O  px              0.1       0.3       0.3       7.7       1.3       8.9
 3 O  py              0.2       0.0       2.0      19.8       0.9      16.9
 4 H  s               0.0       2.1       0.2       0.1       0.0       0.1
 4 H  px              0.0       0.1       0.0       0.3       0.0       0.3
 4 H  py              0.0       0.1       0.1       0.4       0.0       0.4
 5 O  s               0.0       1.5       0.2       0.1       0.0       0.3
 5 O  pz              0.3      18.7       3.9       0.7       0.0       1.6
 5 O  px              0.1       0.3       0.3       7.8       1.4       8.7
 5 O  py              0.2       0.0       2.0      20.0       1.0      16.6
 6 H  s               0.0       2.1       0.2       0.1       0.0       0.1
 6 H  px              0.0       0.1       0.0       0.3       0.0       0.3
 6 H  py              0.0       0.1       0.1       0.4       0.0       0.4
 7 O  s               1.6       0.1       1.6       0.0       0.1       0.4
 7 O  pz              2.6       0.2       4.6       0.1       0.4       0.1
 7 O  px             10.2       0.8      10.3       0.9      12.6       3.0
 7 O  py              7.5       0.8       8.7       1.2      15.3       0.1
 8 H  s               1.3       0.1       1.0       0.1       0.0       0.2
 8 H  pz              0.3       0.0       0.3       0.0       0.0       0.0
 8 H  px              0.0       0.0       0.0       0.1       0.3       0.0
 8 H  py              0.0       0.0       0.0       0.0       0.4       0.0
 9 O  s               1.3       1.0       0.7       0.0       0.1       0.0
 9 O  pz              0.9       0.1       1.5      12.4      10.9      11.1
 9 O  px             12.4      12.2       6.5       0.1       0.1       0.5
 9 O  py              2.1       5.0       0.1       2.7       4.2       4.1
10 H  s               0.7       1.0       0.1       0.0       0.1       0.0
10 H  pz              0.0       0.0       0.0       0.3       0.4       0.3
10 H  px              0.2       0.3       0.1       0.0       0.0       0.0
10 H  py              0.0       0.0       0.0       0.1       0.1       0.1
11 O  s               1.3       1.0       0.7       0.0       0.1       0.0
11 O  pz              0.9       0.1       1.5      12.5      11.3      10.8
11 O  px             12.5      12.2       6.5       0.1       0.1       0.5
11 O  py              2.2       5.0       0.1       2.7       4.3       4.0
12 H  s               0.7       0.9       0.1       0.0       0.1       0.0
12 H  pz              0.0       0.0       0.0       0.3       0.4       0.3
12 H  px              0.2       0.3       0.1       0.0       0.0       0.0
12 H  py              0.0       0.0       0.0       0.1       0.1       0.1
13 H  s               1.5       1.1       1.1       0.0       0.2       0.0
13 H  pz              0.0       0.0       0.0       0.3       0.3       0.3
13 H  py              0.2       0.3       0.1       0.1       0.1       0.1
14 H  s               0.1       0.6       0.5       0.0       0.1       0.1
14 H  pz              0.0       0.2       0.0       0.0       0.0       0.0
14 H  px              0.0       0.1       0.1       0.3       0.0       0.2
14 H  py              0.0       0.0       0.0       0.5       0.0       0.5
15 H  s               1.5       1.1       1.1       0.0       0.2       0.0
15 H  pz              0.0       0.0       0.0       0.3       0.3       0.3
15 H  py              0.2       0.3       0.1       0.1       0.1       0.1
16 H  s               1.4       0.1       2.1       0.1       0.0       0.2
16 H  pz              0.1       0.0       0.1       0.0       0.0       0.0
16 H  px              0.1       0.0       0.1       0.0       0.3       0.1
16 H  py              0.2       0.0       0.2       0.0       0.4       0.0
17 H  s               0.1       0.6       0.5       0.0       0.1       0.1
17 H  pz              0.0       0.2       0.0       0.0       0.0       0.0
17 H  px              0.0       0.1       0.1       0.3       0.0       0.2
17 H  py              0.0       0.0       0.0       0.5       0.0       0.5
18 H  s               1.4       0.1       2.1       0.1       0.0       0.2
18 H  pz              0.1       0.0       0.1       0.0       0.0       0.0
18 H  px              0.1       0.0       0.1       0.0       0.3       0.1
18 H  py              0.2       0.0       0.2       0.0       0.4       0.0

                     36        37        38        39        40        41   
                  -0.87086  -0.86604  -0.85273  -0.84031  -0.61831  -0.61503
                   2.00000   2.00000   2.00000   1.94183   1.49620   1.48807
                  --------  --------  --------  --------  --------  --------
 0 Fe s               0.0       0.3       0.0       1.6       0.0       0.0
 0 Fe pz              0.2       0.0       0.0       0.0       0.0       0.0
 0 Fe px              1.0       0.0       0.0       0.0       0.0       0.0
 0 Fe py              0.0       0.0       0.1       0.0       0.0       0.0
 0 Fe dz2             0.0       0.1       0.0      13.1      26.0      17.8
 0 Fe dxz             0.0       0.0       0.0       0.1      67.5       7.3
 0 Fe dyz             0.0       0.2       0.0      23.2       3.5      22.2
 0 Fe dx2y2           0.0       0.4       0.0      59.8       0.5      18.6
 0 Fe dxy             0.0       0.0       0.0       0.9       1.2      32.9
 1 O  s               0.1       0.2       0.0       0.0       0.0       0.0
 1 O  pz              0.6       0.5       0.6       0.0       0.0       0.0
 1 O  px             11.9       9.7       6.3       0.0       0.0       0.2
 1 O  py             14.7       5.5       9.0       0.0       0.0       0.0
 2 H  s               0.0       0.2       0.1       0.0       0.0       0.1
 2 H  px              0.3       0.1       0.1       0.0       0.0       0.0
 2 H  py              0.4       0.2       0.3       0.0       0.0       0.0
 3 O  s               0.2       0.2       0.0       0.0       0.0       0.0
 3 O  pz              0.7       1.2       0.1       0.0       0.0       0.0
 3 O  px              0.9       6.3       5.6       0.0       0.1       0.0
 3 O  py              1.8       7.7       9.9       0.1       0.0       0.1
 4 H  s               0.1       0.0       0.0       0.1       0.0       0.0
 4 H  px              0.0       0.2       0.2       0.0       0.0       0.0
 4 H  py              0.1       0.2       0.3       0.0       0.0       0.0
 5 O  s               0.2       0.2       0.0       0.0       0.0       0.0
 5 O  pz              0.7       1.3       0.1       0.0       0.0       0.0
 5 O  px              0.9       6.3       5.7       0.0       0.1       0.0
 5 O  py              1.8       7.8      10.0       0.1       0.0       0.1
 6 H  s               0.1       0.0       0.0       0.1       0.0       0.0
 6 H  px              0.0       0.2       0.2       0.0       0.0       0.0
 6 H  py              0.1       0.2       0.3       0.0       0.0       0.0
 7 O  s               0.1       0.2       0.0       0.0       0.0       0.0
 7 O  pz              0.6       0.5       0.5       0.0       0.0       0.0
 7 O  px             12.1       9.5       6.3       0.0       0.0       0.2
 7 O  py             14.8       5.3       9.0       0.0       0.0       0.0
 8 H  s               0.0       0.2       0.1       0.0       0.0       0.1
 8 H  px              0.3       0.1       0.1       0.0       0.0       0.0
 8 H  py              0.4       0.2       0.3       0.0       0.0       0.0
 9 O  s               0.5       0.2       0.0       0.0       0.0       0.0
 9 O  pz             13.3      13.7      12.3       0.1       0.2       0.0
 9 O  px              0.6       0.0       0.1       0.0       0.0       0.0
 9 O  py              1.5       1.3       3.3       0.0       0.0       0.0
10 H  s               0.2       0.2       0.1       0.0       0.0       0.0
10 H  pz              0.3       0.2       0.3       0.0       0.0       0.0
10 H  py              0.1       0.1       0.1       0.0       0.0       0.0
11 O  s               0.5       0.2       0.0       0.0       0.0       0.0
11 O  pz             12.7      14.2      12.3       0.1       0.2       0.0
11 O  px              0.5       0.0       0.1       0.0       0.0       0.0
11 O  py              1.4       1.3       3.3       0.0       0.0       0.0
12 H  s               0.2       0.2       0.1       0.0       0.0       0.0
12 H  pz              0.3       0.2       0.3       0.0       0.0       0.0
12 H  py              0.1       0.1       0.1       0.0       0.0       0.0
13 H  s               0.1       0.0       0.0       0.1       0.0       0.0
13 H  pz              0.3       0.4       0.3       0.0       0.0       0.0
14 H  s               0.1       0.2       0.1       0.0       0.1       0.0
14 H  py              0.0       0.3       0.3       0.0       0.0       0.0
15 H  s               0.1       0.0       0.0       0.1       0.0       0.0
15 H  pz              0.3       0.4       0.3       0.0       0.0       0.0
16 H  px              0.3       0.3       0.2       0.0       0.0       0.0
16 H  py              0.4       0.1       0.2       0.0       0.0       0.0
17 H  s               0.1       0.2       0.1       0.0       0.1       0.0
17 H  py              0.0       0.3       0.3       0.0       0.0       0.0
18 H  px              0.3       0.2       0.2       0.0       0.0       0.0
18 H  py              0.4       0.1       0.2       0.0       0.0       0.0

                     42        43        44        45        46        47   
                  -0.17154  -0.16813  -0.19909  -0.11756  -0.11754  -0.10459
                   0.54119   0.53271   0.00000   0.00000   0.00000   0.00000
                  --------  --------  --------  --------  --------  --------
 0 Fe s               0.0       0.0      46.8       0.0       0.0       0.0
 0 Fe pz              0.0       0.0       0.0       0.0       0.8       0.1
 0 Fe px              0.0       0.0       0.0       0.9       0.0       0.0
 0 Fe py              0.0       0.0       0.0       0.0       0.1       0.6
 0 Fe dz2             1.5      38.0       0.0       0.0       0.0       0.0
 0 Fe dxz             6.7      15.9       0.0       0.0       0.0       0.0
 0 Fe dyz            37.4       9.7       0.0       0.0       0.0       0.0
 0 Fe dx2y2          14.8       3.1       0.0       0.0       0.0       0.0
 0 Fe dxy            33.4      27.1       0.0       0.0       0.0       0.0
 1 O  s               0.5       0.0       1.7       0.1       2.4       1.5
 1 O  pz              0.2       0.0       0.0       0.1       0.7       0.0
 1 O  px              0.1       0.0       0.1       0.6       0.6       0.1
 1 O  py              0.9       0.0       0.0       0.0       0.1       0.6
 2 H  s               0.0       0.0       2.5       2.3       5.0       9.7
 2 H  pz              0.0       0.0       0.3       0.1       0.4       0.6
 2 H  px              0.0       0.0       0.1       0.1       0.2       0.5
 2 H  py              0.1       0.0       0.1       0.1       0.3       0.3
 3 O  s               0.1       0.4       1.7       1.4       1.1       1.5
 3 O  pz              0.1       0.7       0.1       0.4       0.9       0.3
 3 O  px              0.0       0.1       0.0       0.4       0.1       0.0
 3 O  py              0.1       0.2       0.0       0.0       0.1       0.4
 4 H  s               0.0       0.1       3.5      12.1       5.5       2.6
 4 H  pz              0.0       0.0       0.1       0.5       0.2       0.1
 4 H  px              0.0       0.0       0.2       0.7       0.5       0.2
 4 H  py              0.0       0.0       0.2       0.5       0.2       0.2
 5 O  s               0.1       0.4       1.7       1.4       1.1       1.5
 5 O  pz              0.1       0.7       0.1       0.4       0.9       0.3
 5 O  px              0.0       0.1       0.0       0.5       0.1       0.0
 5 O  py              0.1       0.2       0.0       0.0       0.1       0.4
 6 H  s               0.0       0.1       3.5      12.1       5.5       2.6
 6 H  pz              0.0       0.0       0.1       0.5       0.2       0.1
 6 H  px              0.0       0.0       0.2       0.7       0.5       0.2
 6 H  py              0.0       0.0       0.2       0.5       0.2       0.2
 7 O  s               0.5       0.0       1.7       0.1       2.4       1.5
 7 O  pz              0.2       0.0       0.0       0.1       0.7       0.0
 7 O  px              0.1       0.0       0.1       0.6       0.6       0.1
 7 O  py              0.9       0.0       0.0       0.0       0.1       0.6
 8 H  s               0.0       0.0       2.5       2.3       5.0       9.7
 8 H  pz              0.0       0.0       0.3       0.1       0.4       0.6
 8 H  px              0.0       0.0       0.1       0.1       0.2       0.5
[...]
      pz      :     0.000036  p :     0.000090
      px      :    -0.000009
      py      :     0.000063
 16 H s       :     0.000706  s :     0.000706
      pz      :    -0.000009  p :     0.000091
      px      :     0.000030
      py      :     0.000070
 17 H s       :     0.000703  s :     0.000703
      pz      :     0.000019  p :     0.000067
      px      :     0.000029
      py      :     0.000019
 18 H s       :     0.000706  s :     0.000706
      pz      :    -0.000009  p :     0.000091
      px      :     0.000030
      py      :     0.000070


                     *******************************
                     * LOEWDIN POPULATION ANALYSIS *
                     *******************************

-----------------------------------------
LOEWDIN ATOMIC CHARGES AND SPIN DENSITIES
-----------------------------------------
   0 Fe:    0.576622    1.926730
   1 O :   -0.038983    0.010300
   2 H :    0.139536    0.001000
   3 O :   -0.038858    0.010171
   4 H :    0.136597    0.001000
   5 O :   -0.038846    0.010172
   6 H :    0.136592    0.001000
   7 O :   -0.038974    0.010297
   8 H :    0.139557    0.001000
   9 O :   -0.038910    0.010178
  10 H :    0.139578    0.000991
  11 O :   -0.038935    0.010177
  12 H :    0.139573    0.000990
  13 H :    0.136591    0.001002
  14 H :    0.139578    0.000985
  15 H :    0.136581    0.001002
  16 H :    0.136545    0.001010
  17 H :    0.139589    0.000985
  18 H :    0.136566    0.001010

--------------------------------------------------
LOEWDIN REDUCED ORBITAL CHARGES AND SPIN DENSITIES
--------------------------------------------------
CHARGE
  0 Fes       :     6.294674  s :     6.294674
      pz      :     4.225910  p :    12.687442
      px      :     4.224829
      py      :     4.236703
      dz2     :     1.243448  d :     6.438491
      dxz     :     1.324570
      dyz     :     1.226534
      dx2y2   :     1.627755
      dxy     :     1.016184
      f0      :     0.000384  f :     0.002771
      f+1     :     0.000398
      f-1     :     0.000413
      f+2     :     0.000215
      f-2     :     0.000515
      f+3     :     0.000298
      f-3     :     0.000547
  1 O s       :     3.360428  s :     3.360428
      pz      :     1.322771  p :     4.662055
      px      :     1.674997
      py      :     1.664287
      dz2     :     0.004914  d :     0.016500
      dxz     :     0.005972
      dyz     :     0.002099
      dx2y2   :     0.000475
      dxy     :     0.003041
  2 H s       :     0.683275  s :     0.683275
      pz      :     0.046892  p :     0.177189
      px      :     0.065351
      py      :     0.064946
  3 O s       :     3.360393  s :     3.360393
      pz      :     1.528651  p :     4.661965
      px      :     1.478470
      py      :     1.654845
      dz2     :     0.000507  d :     0.016500
      dxz     :     0.008194
      dyz     :     0.004445
      dx2y2   :     0.000446
      dxy     :     0.002908
  4 H s       :     0.686038  s :     0.686038
      pz      :     0.061580  p :     0.177365
      px      :     0.062199
      py      :     0.053586
  5 O s       :     3.360356  s :     3.360356
      pz      :     1.528794  p :     4.661992
      px      :     1.478402
      py      :     1.654796
      dz2     :     0.000506  d :     0.016498
      dxz     :     0.008196
      dyz     :     0.004442
      dx2y2   :     0.000445
      dxy     :     0.002908
  6 H s       :     0.686042  s :     0.686042
      pz      :     0.061568  p :     0.177366
      px      :     0.062275
      py      :     0.053524
  7 O s       :     3.360422  s :     3.360422
      pz      :     1.322596  p :     4.662053
      px      :     1.674847
      py      :     1.664611
      dz2     :     0.004931  d :     0.016499
      dxz     :     0.005958
      dyz     :     0.002094
      dx2y2   :     0.000476
      dxy     :     0.003041
  8 H s       :     0.683255  s :     0.683255
      pz      :     0.046859  p :     0.177187
      px      :     0.065429
      py      :     0.064900
  9 O s       :     3.360443  s :     3.360443
      pz      :     1.765876  p :     4.661967
      px      :     1.449296
      py      :     1.446795
      dz2     :     0.001795  d :     0.016500
      dxz     :     0.000344
      dyz     :     0.004261
      dx2y2   :     0.007057
      dxy     :     0.003043
 10 H s       :     0.683245  s :     0.683245
      pz      :     0.061438  p :     0.177177
      px      :     0.030354
      py      :     0.085385
 11 O s       :     3.360423  s :     3.360423
      pz      :     1.766700  p :     4.662015
      px      :     1.449131
      py      :     1.446184
      dz2     :     0.001795  d :     0.016498
      dxz     :     0.000340
      dyz     :     0.004249
      dx2y2   :     0.007080
      dxy     :     0.003035
 12 H s       :     0.683247  s :     0.683247
      pz      :     0.061358  p :     0.177180
      px      :     0.030340
      py      :     0.085483
 13 H s       :     0.686048  s :     0.686048
      pz      :     0.044150  p :     0.177361
      px      :     0.092651
      py      :     0.040560
 14 H s       :     0.683246  s :     0.683246
      pz      :     0.055740  p :     0.177175
      px      :     0.063825
      py      :     0.057611
 15 H s       :     0.686053  s :     0.686053
      pz      :     0.044171  p :     0.177365
      px      :     0.092676
      py      :     0.040519
 16 H s       :     0.686085  s :     0.686085
      pz      :     0.089876  p :     0.177370
      px      :     0.046994
      py      :     0.040501
 17 H s       :     0.683232  s :     0.683232
      pz      :     0.055755  p :     0.177179
      px      :     0.063751
      py      :     0.057673
 18 H s       :     0.686060  s :     0.686060
      pz      :     0.089930  p :     0.177374
      px      :     0.046928
      py      :     0.040516

SPIN
  0 Fes       :     0.000380  s :     0.000380
      pz      :     0.000000  p :     0.000000
      px      :     0.000000
      py      :     0.000000
      dz2     :     0.383181  d :     1.926350
      dxz     :     0.430490
      dyz     :     0.406640
      dx2y2   :     0.182566
      dxy     :     0.523474
      f0      :     0.000000  f :     0.000000
      f+1     :     0.000000
      f-1     :     0.000000
      f+2     :     0.000000
      f-2     :     0.000000
      f+3     :     0.000000
      f-3     :     0.000000
  1 O s       :     0.002621  s :     0.002621
      pz      :     0.001116  p :     0.007254
      px      :     0.001546
      py      :     0.004592
      dz2     :     0.000034  d :     0.000425
      dxz     :     0.000034
      dyz     :     0.000113
      dx2y2   :     0.000067
      dxy     :     0.000176
  2 H s       :     0.000543  s :     0.000543
      pz      :     0.000086  p :     0.000457
      px      :     0.000079
      py      :     0.000292
  3 O s       :     0.002587  s :     0.002587
      pz      :     0.004127  p :     0.007165
      px      :     0.001193
      py      :     0.001845
      dz2     :     0.000139  d :     0.000420
      dxz     :     0.000141
      dyz     :     0.000098
      dx2y2   :     0.000015
      dxy     :     0.000027
  4 H s       :     0.000509  s :     0.000509
      pz      :     0.000265  p :     0.000490
      px      :     0.000068
      py      :     0.000157
  5 O s       :     0.002589  s :     0.002589
      pz      :     0.004123  p :     0.007163
      px      :     0.001194
      py      :     0.001847
      dz2     :     0.000139  d :     0.000420
      dxz     :     0.000141
      dyz     :     0.000098
      dx2y2   :     0.000015
      dxy     :     0.000027
  6 H s       :     0.000510  s :     0.000510
      pz      :     0.000265  p :     0.000490
      px      :     0.000068
      py      :     0.000158
  7 O s       :     0.002620  s :     0.002620
      pz      :     0.001115  p :     0.007252
      px      :     0.001544
      py      :     0.004593
      dz2     :     0.000035  d :     0.000425
      dxz     :     0.000034
      dyz     :     0.000113
      dx2y2   :     0.000067
      dxy     :     0.000176
  8 H s       :     0.000544  s :     0.000544
      pz      :     0.000086  p :     0.000457
      px      :     0.000078
      py      :     0.000292
  9 O s       :     0.002593  s :     0.002593
      pz      :     0.001301  p :     0.007163
      px      :     0.003613
      py      :     0.002250
      dz2     :     0.000102  d :     0.000421
      dxz     :     0.000069
      dyz     :     0.000045
      dx2y2   :     0.000089
      dxy     :     0.000117
 10 H s       :     0.000540  s :     0.000540
      pz      :     0.000063  p :     0.000451
      px      :     0.000259
      py      :     0.000129
 11 O s       :     0.002594  s :     0.002594
      pz      :     0.001303  p :     0.007162
      px      :     0.003612
      py      :     0.002247
      dz2     :     0.000102  d :     0.000421
      dxz     :     0.000069
      dyz     :     0.000045
      dx2y2   :     0.000089
      dxy     :     0.000116
 12 H s       :     0.000540  s :     0.000540
      pz      :     0.000064  p :     0.000451
      px      :     0.000259
      py      :     0.000129
 13 H s       :     0.000512  s :     0.000512
      pz      :     0.000095  p :     0.000490
      px      :     0.000201
      py      :     0.000194
 14 H s       :     0.000533  s :     0.000533
      pz      :     0.000266  p :     0.000451
      px      :     0.000067
      py      :     0.000119
 15 H s       :     0.000512  s :     0.000512
      pz      :     0.000095  p :     0.000490
      px      :     0.000201
      py      :     0.000194
 16 H s       :     0.000514  s :     0.000514
      pz      :     0.000042  p :     0.000497
      px      :     0.000104
      py      :     0.000350
 17 H s       :     0.000534  s :     0.000534
      pz      :     0.000265  p :     0.000451
      px      :     0.000067
      py      :     0.000119
 18 H s       :     0.000514  s :     0.000514
      pz      :     0.000042  p :     0.000497
      px      :     0.000104
      py      :     0.000350


                      *****************************
                      * MAYER POPULATION ANALYSIS *
                      *****************************

  NA   - Mulliken gross atomic population
  ZA   - Total nuclear charge
  QA   - Mulliken gross atomic charge
  VA   - Mayer's total valence
  BVA  - Mayer's bonded valence
  FA   - Mayer's free valence

  ATOM       NA         ZA         QA         VA         BVA        FA
  0 Fe    24.7404    26.0000     1.2596     4.4758     1.3758     3.1000
  1 O      8.4121     8.0000    -0.4121     2.0993     2.0922     0.0071
  2 H      0.7280     1.0000     0.2720     0.9533     0.9524     0.0009
  3 O      8.4120     8.0000    -0.4120     2.0996     2.0924     0.0071
  4 H      0.7366     1.0000     0.2634     0.9561     0.9553     0.0008
  5 O      8.4121     8.0000    -0.4121     2.0995     2.0924     0.0071
  6 H      0.7366     1.0000     0.2634     0.9561     0.9553     0.0008
  7 O      8.4121     8.0000    -0.4121     2.0993     2.0922     0.0071
  8 H      0.7280     1.0000     0.2720     0.9533     0.9524     0.0009
  9 O      8.4120     8.0000    -0.4120     2.0995     2.0924     0.0071
 10 H      0.7280     1.0000     0.2720     0.9533     0.9524     0.0009
 11 O      8.4120     8.0000    -0.4120     2.0995     2.0923     0.0071
 12 H      0.7280     1.0000     0.2720     0.9533     0.9524     0.0009
 13 H      0.7366     1.0000     0.2634     0.9561     0.9553     0.0008
 14 H      0.7280     1.0000     0.2720     0.9533     0.9524     0.0009
 15 H      0.7366     1.0000     0.2634     0.9561     0.9553     0.0008
 16 H      0.7366     1.0000     0.2634     0.9561     0.9554     0.0008
 17 H      0.7280     1.0000     0.2720     0.9533     0.9524     0.0009
 18 H      0.7366     1.0000     0.2634     0.9561     0.9553     0.0008

  Mayer bond orders larger than 0.100000
B(  0-Fe,  1-O ) :   0.2196 B(  0-Fe,  3-O ) :   0.2199 B(  0-Fe,  5-O ) :   0.2198 
B(  0-Fe,  7-O ) :   0.2196 B(  0-Fe,  9-O ) :   0.2198 B(  0-Fe, 11-O ) :   0.2197 
B(  1-O ,  2-H ) :   0.9280 B(  1-O , 16-H ) :   0.9355 B(  3-O ,  4-H ) :   0.9354 
B(  3-O , 14-H ) :   0.9280 B(  5-O ,  6-H ) :   0.9354 B(  5-O , 17-H ) :   0.9280 
B(  7-O ,  8-H ) :   0.9280 B(  7-O , 18-H ) :   0.9354 B(  9-O , 10-H ) :   0.9280 
B(  9-O , 13-H ) :   0.9354 B( 11-O , 12-H ) :   0.9280 B( 11-O , 15-H ) :   0.9355 



-------------------------------------------------------------
 Forming the transition density       ... done in 0.001814 sec
-------------------------------------------------------------



==========================================
CASSCF UV, CD spectra and dipole moments
==========================================
-------------------
ABSORPTION SPECTRUM
-------------------

Center of mass           = ( -0.0000,  0.0000, -0.0000)
Nuclear contribution to the dipole moment =     0.002291,    0.001304,   -0.000077 au

Calculating the Dipole integrals                  ... done
Transforming integrals                            ... done
Calculating the Linear Momentum integrals         ... done
Transforming integrals                            ... done
Calculating the Angular Momentum integrals        ... done
Transforming integrals                            ... done

------------------------------------------------------------------------------
                                 DIPOLE MOMENTS
------------------------------------------------------------------------------
  Root  Block           TX        TY        TZ           |T|
                      (Debye)   (Debye)   (Debye)      (Debye)
------------------------------------------------------------------------------
    0    0            0.00184   0.00082   0.00161      0.00258

--------------
CASSCF TIMINGS
--------------

Total time                       ...       17.1 sec
Sum of individual times          ...       16.7 sec ( 97.9%)

Calculation of AO operators
   F(Core) operator              ...        3.1 sec ( 18.1%)
   G(Act) operator               ...        2.9 sec ( 17.3%)
   J(AO) operators               ...        0.0 sec (  0.0%)
Calculation of MO transformed quantities
   J(MO) operators               ...       10.5 sec ( 61.4%)
   (pq|rs) integrals             ...        0.0 sec (  0.0%)
   AO->MO one electron integrals ...        0.0 sec (  0.0%)
Configuration interaction steps
   CI-setup phase                ...        0.0 sec (  0.0%)
   CI-solution phase             ...        0.1 sec (  0.6%)
   Generation of densities       ...        0.0 sec (  0.0%)
Orbital improvement steps
   Orbital gradient              ...        0.0 sec (  0.1%)
   O(1) converger                ...        0.0 sec (  0.2%)
Properties                       ...        0.0 sec (  0.0%)
   SOC integral calculation      ...        0.0 sec (  0.0%)
   SSC RMEs (incl. integrals)    ...        0.0 sec (  0.0%)
   SOC RMEs                      ...        0.0 sec (  0.0%)

Maximum memory used throughout the entire CASSCF-calculation: 80.3 MB

-------------------------   --------------------
FINAL SINGLE POINT ENERGY     -1717.640176042379
-------------------------   --------------------


                            ***************************************
                            *     ORCA property calculations      *
                            ***************************************

                                    ---------------------
                                    Active property flags
                                    ---------------------
   (+) Dipole Moment


------------------------------------------------------------------------------
                       ORCA ELECTRIC PROPERTIES CALCULATION
------------------------------------------------------------------------------

Dipole Moment Calculation                       ... on
Quadrupole Moment Calculation                   ... off
Polarizability Calculation                      ... off
GBWName                                         ... FeH2O62+-cas65-mul3.gbw
Electron density file                           ... FeH2O62+-cas65-mul3.scfp
The origin for moment calculation is the CENTER OF MASS  = (-0.000000,  0.000000  0.000000)

-------------
DIPOLE MOMENT
-------------
                                X             Y             Z
Electronic contribution:     -0.00157      -0.00098       0.00071
Nuclear contribution   :      0.00229       0.00130      -0.00008
                        -----------------------------------------
Total Dipole Moment    :      0.00073       0.00032       0.00063
                        -----------------------------------------
Magnitude (a.u.)       :      0.00101
Magnitude (Debye)      :      0.00258



--------------------
Rotational spectrum 
--------------------
 
Rotational constants in cm-1:     0.057213     0.051955     0.051945 
Rotational constants in MHz :  1715.201752  1557.579206  1557.273951 

 Dipole components along the rotational axes: 
x,y,z [a.u.] :     0.000453    -0.000492     0.000763 
x,y,z [Debye]:     0.001152    -0.001251     0.001940 

 
--------------------------------------------------------------------------
WARNING: There was an error initializing an OpenFabrics device.

  Local host:   cnode04
  Local device: mlx5_0
--------------------------------------------------------------------------
[cnode04:32573] 7 more processes have sent help message help-mpi-btl-openib.txt / error in device init
[cnode04:32573] Set MCA parameter "orte_base_help_aggregate" to 0 to see all help / error messages

Timings for individual modules:

Sum of individual times         ...       26.211 sec (=   0.437 min)
GTO integral calculation        ...        2.368 sec (=   0.039 min)   9.0 %
SCF iterations                  ...        2.012 sec (=   0.034 min)   7.7 %
CASSCF iterations               ...       21.831 sec (=   0.364 min)  83.3 %
                             ****ORCA TERMINATED NORMALLY****
TOTAL RUN TIME: 0 days 0 hours 0 minutes 26 seconds 792 msec

Sender: Unischeduler System <lcz@mgt01>
Subject: Job 125446: <#!/bin/bash
#BSUB -J intel
#BSUB -o FeH2O62+-cas65-mul3.out
#BSUB -n 8
#BSUB -q cqueue
#BSUB -R span[hosts=1]
export LD_LIBRARY_PATH=/apps/software/openmpi-4.1.1/lib:/apps/software/orca_5_0_0:$LD_LIBRARY_PATH
export PATH=/apps/software/openmpi-4.1.1/bin:/apps/software/orca_5_0_0:$PATH
/apps/software/orca_5_0_0/orca FeH2O62+-cas65-mul3.inp >& FeH2O62+-cas65-mul3.out> Done

Job <#!/bin/bash
#BSUB -J intel
#BSUB -o FeH2O62+-cas65-mul3.out
#BSUB -n 8
#BSUB -q cqueue
#BSUB -R span[hosts=1]
export LD_LIBRARY_PATH=/apps/software/openmpi-4.1.1/lib:/apps/software/orca_5_0_0:$LD_LIBRARY_PATH
export PATH=/apps/software/openmpi-4.1.1/bin:/apps/software/orca_5_0_0:$PATH
/apps/software/orca_5_0_0/orca FeH2O62+-cas65-mul3.inp >& FeH2O62+-cas65-mul3.out> was submitted from host <mgt01> by user <lcz>.
Job was executed on host(s) <8*cnode04>, in queue <cqueue>, as user <lcz>.
</apps/users/lcz> was used as the home directory.
</apps/users/lcz/exe9/task5/orca> was used as the working directory.
Started at 2022-04-26 18:06:12
Results reported at 2022-04-26 18:06:39

Your job looked like:

------------------------------------------------------------
# User input
#!/bin/bash
#BSUB -J intel
#BSUB -o FeH2O62+-cas65-mul3.out
#BSUB -n 8
#BSUB -q cqueue
#BSUB -R span[hosts=1]
export LD_LIBRARY_PATH=/apps/software/openmpi-4.1.1/lib:/apps/software/orca_5_0_0:$LD_LIBRARY_PATH
export PATH=/apps/software/openmpi-4.1.1/bin:/apps/software/orca_5_0_0:$PATH
/apps/software/orca_5_0_0/orca FeH2O62+-cas65-mul3.inp >& FeH2O62+-cas65-mul3.out
------------------------------------------------------------

Successfully completed.

Resource usage summary:

    CPU time   :          109.66 sec.
    Max Memory :              1349 MB
    Max Processes  :              13


The output (if any) follows:

