
                                        *****************
                                        * O   R   C   A *
                                        *****************

                                            #,                                       
                                            ###                                      
                                            ####                                     
                                            #####                                    
                                            ######                                   
                                           ########,                                 
                                     ,,################,,,,,                         
                               ,,#################################,,                 
                          ,,##########################################,,             
                       ,#########################################, ''#####,          
                    ,#############################################,,   '####,        
                  ,##################################################,,,,####,       
                ,###########''''           ''''###############################       
              ,#####''   ,,,,##########,,,,          '''####'''          '####       
            ,##' ,,,,###########################,,,                        '##       
           ' ,,###''''                  '''############,,,                           
         ,,##''                                '''############,,,,        ,,,,,,###''
      ,#''                                            '''#######################'''  
     '                                                          ''''####''''         
             ,#######,   #######,   ,#######,      ##                                
            ,#'     '#,  ##    ##  ,#'     '#,    #''#        ######   ,####,        
            ##       ##  ##   ,#'  ##            #'  '#       #        #'  '#        
            ##       ##  #######   ##           ,######,      #####,   #    #        
            '#,     ,#'  ##    ##  '#,     ,#' ,#      #,         ##   #,  ,#        
             '#######'   ##     ##  '#######'  #'      '#     #####' # '####'        



                  #######################################################
                  #                        -***-                        #
                  #          Department of theory and spectroscopy      #
                  #    Directorship and core code : Frank Neese         #
                  #        Max Planck Institute fuer Kohlenforschung    #
                  #                Kaiser Wilhelm Platz 1               #
                  #                 D-45470 Muelheim/Ruhr               #
                  #                      Germany                        #
                  #                                                     #
                  #                  All rights reserved                #
                  #                        -***-                        #
                  #######################################################


                         Program Version 5.0.0 -  RELEASE  -
                                (SVN: $Rev: 19529$)
                ($Date: 2021-06-28 11:36:33 +0200 (Mo, 28 Jun 2021) $)


 With contributions from (in alphabetic order):
   Daniel Aravena         : Magnetic Suceptibility
   Michael Atanasov       : Ab Initio Ligand Field Theory (pilot matlab implementation)
   Alexander A. Auer      : GIAO ZORA, VPT2 properties, NMR spectrum
   Ute Becker             : Parallelization
   Giovanni Bistoni       : ED, misc. LED, open-shell LED, HFLD
   Martin Brehm           : Molecular dynamics
   Dmytro Bykov           : SCF Hessian
   Vijay G. Chilkuri      : MRCI spin determinant printing, contributions to CSF-ICE
   Dipayan Datta          : RHF DLPNO-CCSD density
   Achintya Kumar Dutta   : EOM-CC, STEOM-CC
   Dmitry Ganyushin       : Spin-Orbit,Spin-Spin,Magnetic field MRCI
   Miquel Garcia          : C-PCM Hessian, Gaussian charge scheme
   Yang Guo               : DLPNO-NEVPT2, F12-NEVPT2, CIM, IAO-localization
   Andreas Hansen         : Spin unrestricted coupled pair/coupled cluster methods
   Benjamin Helmich-Paris : MC-RPA, TRAH-SCF, COSX integrals
   Lee Huntington         : MR-EOM, pCC
   Robert Izsak           : Overlap fitted RIJCOSX, COSX-SCS-MP3, EOM
   Marcus Kettner         : VPT2
   Christian Kollmar      : KDIIS, OOCD, Brueckner-CCSD(T), CCSD density, CASPT2, CASPT2-K
   Simone Kossmann        : Meta GGA functionals, TD-DFT gradient, OOMP2, MP2 Hessian
   Martin Krupicka        : Initial AUTO-CI
   Lucas Lang             : DCDCAS
   Marvin Lechner         : AUTO-CI (C++ implementation), FIC-MRCC
   Dagmar Lenk            : GEPOL surface, SMD
   Dimitrios Liakos       : Extrapolation schemes; Compound Job, initial MDCI parallelization
   Dimitrios Manganas     : Further ROCIS development; embedding schemes
   Dimitrios Pantazis     : SARC Basis sets
   Anastasios Papadopoulos: AUTO-CI, single reference methods and gradients
   Taras Petrenko         : DFT Hessian,TD-DFT gradient, ASA, ECA, R-Raman, ABS, FL, XAS/XES, NRVS
   Peter Pinski           : DLPNO-MP2, DLPNO-MP2 Gradient
   Christoph Reimann      : Effective Core Potentials
   Marius Retegan         : Local ZFS, SOC
   Christoph Riplinger    : Optimizer, TS searches, QM/MM, DLPNO-CCSD(T), (RO)-DLPNO pert. Triples
   Tobias Risthaus        : Range-separated hybrids, TD-DFT gradient, RPA, STAB
   Michael Roemelt        : Original ROCIS implementation
   Masaaki Saitow         : Open-shell DLPNO-CCSD energy and density
   Barbara Sandhoefer     : DKH picture change effects
   Avijit Sen             : IP-ROCIS
   Kantharuban Sivalingam : CASSCF convergence, NEVPT2, FIC-MRCI
   Bernardo de Souza      : ESD, SOC TD-DFT
   Georgi Stoychev        : AutoAux, RI-MP2 NMR
   Willem Van den Heuvel  : Paramagnetic NMR
   Boris Wezisla          : Elementary symmetry handling
   Frank Wennmohs         : Technical directorship


 We gratefully acknowledge several colleagues who have allowed us to
 interface, adapt or use parts of their codes:
   Stefan Grimme, W. Hujo, H. Kruse, P. Pracht,  : VdW corrections, initial TS optimization,
                  C. Bannwarth, S. Ehlert          DFT functionals, gCP, sTDA/sTD-DF
   Ed Valeev, F. Pavosevic, A. Kumar             : LibInt (2-el integral package), F12 methods
   Garnet Chan, S. Sharma, J. Yang, R. Olivares  : DMRG
   Ulf Ekstrom                                   : XCFun DFT Library
   Mihaly Kallay                                 : mrcc  (arbitrary order and MRCC methods)
   Jiri Pittner, Ondrej Demel                    : Mk-CCSD
   Frank Weinhold                                : gennbo (NPA and NBO analysis)
   Christopher J. Cramer and Donald G. Truhlar   : smd solvation model
   Lars Goerigk                                  : TD-DFT with DH, B97 family of functionals
   V. Asgeirsson, H. Jonsson                     : NEB implementation
   FAccTs GmbH                                   : IRC, NEB, NEB-TS, DLPNO-Multilevel, CI-OPT
                                                   MM, QMMM, 2- and 3-layer-ONIOM, Crystal-QMMM,
                                                   LR-CPCM, SF, NACMEs, symmetry and pop. for TD-DFT,
                                                   nearIR, NL-DFT gradient (VV10), updates on ESD,
                                                   ML-optimized integration grids
   S Lehtola, MJT Oliveira, MAL Marques          : LibXC Library
   Liviu Ungur et al                             : ANISO software


 Your calculation uses the libint2 library for the computation of 2-el integrals
 For citations please refer to: http://libint.valeyev.net

 Your ORCA version has been built with support for libXC version: 5.1.0
 For citations please refer to: https://tddft.org/programs/libxc/

 This ORCA versions uses:
   CBLAS   interface :  Fast vector & matrix operations
   LAPACKE interface :  Fast linear algebra routines
   SCALAPACK package :  Parallel linear algebra routines
   Shared memory     :  Shared parallel matrices
   BLAS/LAPACK       :  OpenBLAS 0.3.15  USE64BITINT DYNAMIC_ARCH NO_AFFINITY SkylakeX SINGLE_THREADED
        Core in use  :  SkylakeX
   Copyright (c) 2011-2014, The OpenBLAS Project


================================================================================

----- Orbital basis set information -----
Your calculation utilizes the basis: def2-SVP
   F. Weigend and R. Ahlrichs, Phys. Chem. Chem. Phys. 7, 3297 (2005).

================================================================================
                                        WARNINGS
                       Please study these warnings very carefully!
================================================================================


INFO   : the flag for use of the SHARK integral package has been found!

================================================================================
                                       INPUT FILE
================================================================================
NAME = FeH2O62+-cas65-mul5.inp
|  1> ! def2-svp pal8 UseSym
|  2> ! MOread
|  3> 
|  4> %moinp  "FeH2O62+-rohf.gbw"
|  5> 
|  6> %casscf
|  7>     nel     6
|  8>     norb    5
|  9>     irrep   0
| 10>     mult    5
| 11>     nroots  1
| 12> end
| 13> 
| 14> *xyz 2 5
| 15>  Fe     -0.64257176050830       0.51803920561668        0.11515259480577
| 16>  O      0.11174687498777        2.15027362958097        -0.78003307659188
| 17>  H      0.70766775417542        2.71590643817051        -0.25346860209865
| 18>  O      -1.31193844940493       -0.30254437211926       -1.59153974321848
| 19>  H      -1.93648366806763       0.13093135988795        -2.20090760771949
| 20>  O      0.02720918798052        1.33940572113505        1.82122676893196
| 21>  H      0.65258765622944        0.90686870076571        2.43040311553976
| 22>  O      -1.39648053530566       -1.11444807905756       1.01023916292248
| 23>  H      -1.99331392681300       -1.67940484230818       0.48397490889195
| 24>  O      -2.28682023617329       1.63340828371306        0.41005372492049
| 25>  H      -2.35377021104600       2.47291065207153        -0.08301808819513
| 26>  O      1.00194372931180        -0.59712335622834       -0.17950165163229
| 27>  H      1.06807766676477        -1.43758842942053       0.31202545851205
| 28>  H      -3.18922098471738       1.27280247171927        0.48036417156888
| 29>  H      -0.66521991563992       -0.78352006296416       -2.14179468111308
| 30>  H      1.90454646424149        -0.23678289755293       -0.24845043594753
| 31>  H      0.43776650602076        2.17113603799071        -1.69794346797289
| 32>  H      -0.61875604533523       1.82123954705219        2.37159866149671
| 33>  H      -1.72126010670064       -1.13595000805262       1.92856878689935
| 34> *
| 35> 
| 36>                          ****END OF INPUT****
================================================================================

------------------------------------------------------------------------------
                            SYMMETRY HANDLING SETUP
------------------------------------------------------------------------------

------------------
SYMMETRY DETECTION
------------------
The point group will now be determined using a tolerance of 1.0000e-04.
Splitting atom subsets according to nuclear charge, mass and basis set.
Splitting atom subsets according to distance from the molecule's center.
Identifying relative distance patterns of the atoms.
Splitting atom subsets according to atoms' relative distance patterns.
Bring atoms of each subset into input order.
The molecule is neither linear nor planar.
There is at least one atom subset not centered around the molecule's center.
The molecule does not have a center of inversion.
Analyzing the first atom subset for its symmetry.
The subset is an off-center atom pair.
Testing point group C2v.
Test failed.
Testing point group C2.
Test failed.
Testing point group Cs.
Test failed.
Testing point group Cs.
Test failed.
No testing is needed for point group C1.
This point group has been found:    C1
Largest non-degenerate subgroup:    C1


Mass-centered symmetry-perfected Cartesians (point group C1):

Atom          Symmetry-perfected Cartesians (x, y, z; au)
  0      -0.000241687993   -0.000159992562    0.000092312497
  1       1.425213950808    3.084316055090   -1.691563445455
  2       2.551341209958    4.153207155684   -0.696500796811
  3      -1.265161413177   -1.550838224476   -3.225088801231
  4      -2.445380834700   -0.731687805281   -4.376627179950
  5       1.265460874369    1.551997777341    3.224105265751
  6       2.447254909411    0.734621266061    4.375281728103
  7      -1.424922802320   -3.085113877705    1.691560792389
  8      -2.552774459848   -4.152727437755    0.697065478199
  9      -3.107421003117    2.107582103285    0.557374684998
 10      -3.233938120299    3.694011668260   -0.374396006147
 11       3.107442210759   -2.107511829251   -0.556723517468
 12       3.232417240703   -3.695760642710    0.372128108103
 13      -4.812711280911    1.426135876316    0.690242173517
 14      -0.043040498630   -2.459750557246   -4.264919937689
 15       4.813114187504   -1.426567047383   -0.687017837091
 16       2.041301767742    3.123740293478   -3.426162700646
 17       0.044763491368    2.462531750384    4.264157414507
 18      -2.038667246149   -3.125746634856    3.426952282372


------------------
SYMMETRY REDUCTION
------------------
ORCA supports only abelian point groups.
It is now checked, if the determined point group is supported:
Point Group ( C1    ) is          ... supported

The point group is C1 - hence turning off symmetry
If this is a round-off problem, please increase the symmetry
        detection tolerance (%method SymThresh)

Storing the symmetry object:
Symmetry file                     ... FeH2O62+-cas65-mul5.sym.tmp
Writing symmetry information      ... done

                       ****************************
                       * Single Point Calculation *
                       ****************************

---------------------------------
CARTESIAN COORDINATES (ANGSTROEM)
---------------------------------
  Fe    -0.000128   -0.000085    0.000049
  O      0.754191    1.632150   -0.895137
  H      1.350112    2.197783   -0.368572
  O     -0.669495   -0.820668   -1.706643
  H     -1.294040   -0.387193   -2.316011
  O      0.669653    0.821282    1.706123
  H      1.295032    0.388745    2.315299
  O     -0.754037   -1.632572    0.895135
  H     -1.350870   -2.197529    0.368871
  O     -1.644376    1.115284    0.294950
  H     -1.711326    1.954787   -0.198122
  O      1.644388   -1.115247   -0.294605
  H      1.710522   -1.955712    0.196922
  H     -2.546777    0.754679    0.365260
  H     -0.022776   -1.301644   -2.256898
  H      2.546990   -0.754907   -0.363554
  H      1.080210    1.653012   -1.813047
  H      0.023688    1.303116    2.256495
  H     -1.078816   -1.654074    1.813465

----------------------------
CARTESIAN COORDINATES (A.U.)
----------------------------
  NO LB      ZA    FRAG     MASS         X           Y           Z
   0 Fe   26.0000    0    55.850   -0.000242   -0.000160    0.000092
   1 O     8.0000    0    15.999    1.425214    3.084316   -1.691563
   2 H     1.0000    0     1.008    2.551341    4.153207   -0.696501
   3 O     8.0000    0    15.999   -1.265161   -1.550838   -3.225089
   4 H     1.0000    0     1.008   -2.445381   -0.731688   -4.376627
   5 O     8.0000    0    15.999    1.265461    1.551998    3.224105
   6 H     1.0000    0     1.008    2.447255    0.734621    4.375282
   7 O     8.0000    0    15.999   -1.424923   -3.085114    1.691561
   8 H     1.0000    0     1.008   -2.552774   -4.152727    0.697065
   9 O     8.0000    0    15.999   -3.107421    2.107582    0.557375
  10 H     1.0000    0     1.008   -3.233938    3.694012   -0.374396
  11 O     8.0000    0    15.999    3.107442   -2.107512   -0.556724
  12 H     1.0000    0     1.008    3.232417   -3.695761    0.372128
  13 H     1.0000    0     1.008   -4.812711    1.426136    0.690242
  14 H     1.0000    0     1.008   -0.043040   -2.459751   -4.264920
  15 H     1.0000    0     1.008    4.813114   -1.426567   -0.687018
  16 H     1.0000    0     1.008    2.041302    3.123740   -3.426163
  17 H     1.0000    0     1.008    0.044763    2.462532    4.264157
  18 H     1.0000    0     1.008   -2.038667   -3.125747    3.426952

--------------------------------
INTERNAL COORDINATES (ANGSTROEM)
--------------------------------
 Fe     0   0   0     0.000000000000     0.00000000     0.00000000
 O      1   0   0     2.008617237033     0.00000000     0.00000000
 H      2   1   0     0.975875152980   117.37766494     0.00000000
 O      1   2   3     2.008533770920    94.49943795   192.95450358
 H      4   1   2     0.974313673660   124.28449280   302.59596573
 O      1   2   3     2.008466718518    85.46986981    12.95255418
 H      6   1   2     0.974311204804   124.30521217   237.46496978
 O      1   2   3     2.008624688627   179.98597657   277.05848035
 H      8   1   6     0.975879247976   117.37097903   166.96388279
 O      1   2   3     2.008623385964    85.50402152    98.76181304
 H     10   1   2     0.975892585536   117.36530511    13.06977633
 O      1   2   3     2.008691081412    94.49130414   278.77265031
 H     12   1   2     0.975886334030   117.36953047   167.06704431
 H     10   1   2     0.974323981807   124.28045717   151.64103527
 H      4   1   2     0.975890861611   117.36256160    81.18273885
 H     12   1   2     0.974315594723   124.29807744    28.45241659
 H      2   1   3     0.974311822010   124.25903324   138.59308223
 H      6   1   2     0.975881211304   117.40260721    98.77790691
 H      8   1   6     0.974306625873   124.26848603    28.36184628

---------------------------
INTERNAL COORDINATES (A.U.)
---------------------------
 Fe     0   0   0     0.000000000000     0.00000000     0.00000000
 O      1   0   0     3.795736485866     0.00000000     0.00000000
 H      2   1   0     1.844136780030   117.37766494     0.00000000
 O      1   2   3     3.795578757770    94.49943795   192.95450358
 H      4   1   2     1.841186011751   124.28449280   302.59596573
 O      1   2   3     3.795452047094    85.46986981    12.95255418
 H      6   1   2     1.841181346290   124.30521217   237.46496978
 O      1   2   3     3.795750567338   179.98597657   277.05848035
 H      8   1   6     1.844144518453   117.37097903   166.96388279
 O      1   2   3     3.795748105662    85.50402152    98.76181304
 H     10   1   2     1.844169722787   117.36530511    13.06977633
 O      1   2   3     3.795876031518    94.49130414   278.77265031
 H     12   1   2     1.844157909152   117.36953047   167.06704431
 H     10   1   2     1.841205491327   124.28045717   151.64103527
 H      4   1   2     1.844166465042   117.36256160    81.18273885
 H     12   1   2     1.841189642034   124.29807744    28.45241659
 H      2   1   3     1.841182512641   124.25903324   138.59308223
 H      6   1   2     1.844148228604   117.40260721    98.77790691
 H      8   1   6     1.841172693364   124.26848603    28.36184628

---------------------
BASIS SET INFORMATION
---------------------
There are 3 groups of distinct atoms

 Group   1 Type Fe  : 14s9p5d1f contracted to 5s3p2d1f pattern {63311/531/41/1}
 Group   2 Type O   : 7s4p1d contracted to 3s2p1d pattern {511/31/1}
 Group   3 Type H   : 4s1p contracted to 2s1p pattern {31/1}

Atom   0Fe   basis set group =>   1
Atom   1O    basis set group =>   2
Atom   2H    basis set group =>   3
Atom   3O    basis set group =>   2
Atom   4H    basis set group =>   3
Atom   5O    basis set group =>   2
Atom   6H    basis set group =>   3
Atom   7O    basis set group =>   2
Atom   8H    basis set group =>   3
Atom   9O    basis set group =>   2
Atom  10H    basis set group =>   3
Atom  11O    basis set group =>   2
Atom  12H    basis set group =>   3
Atom  13H    basis set group =>   3
Atom  14H    basis set group =>   3
Atom  15H    basis set group =>   3
Atom  16H    basis set group =>   3
Atom  17H    basis set group =>   3
Atom  18H    basis set group =>   3
--------------------------------------------------------------------------
WARNING: There was an error initializing an OpenFabrics device.

  Local host:   cnode08
  Local device: mlx5_0
--------------------------------------------------------------------------


           ************************************************************
           *        Program running with 8 parallel MPI-processes     *
           *              working on a common directory               *
           ************************************************************
------------------------------------------------------------------------------
                           ORCA GTO INTEGRAL CALCULATION
------------------------------------------------------------------------------
------------------------------------------------------------------------------
                   ___                                                        
                  /   \      - P O W E R E D   B Y -                         
                 /     \                                                     
                 |  |  |   _    _      __       _____    __    __             
                 |  |  |  | |  | |    /  \     |  _  \  |  |  /  |          
                  \  \/   | |  | |   /    \    | | | |  |  | /  /          
                 / \  \   | |__| |  /  /\  \   | |_| |  |  |/  /          
                |  |  |   |  __  | /  /__\  \  |    /   |      \           
                |  |  |   | |  | | |   __   |  |    \   |  |\   \          
                \     /   | |  | | |  |  |  |  | |\  \  |  | \   \       
                 \___/    |_|  |_| |__|  |__|  |_| \__\ |__|  \__/        
                                                                              
                      - O R C A' S   B I G   F R I E N D -                    
                                      &                                       
                       - I N T E G R A L  F E E D E R -                       
                                                                              
 v1 FN, 2020, v2 2021                                                         
------------------------------------------------------------------------------


Reading SHARK input file FeH2O62+-cas65-mul5.SHARKINP.tmp ... ok
----------------------
SHARK INTEGRAL PACKAGE
----------------------

Number of atoms                             ...     19
Number of basis functions                   ...    175
Number of shells                            ...     83
Maximum angular momentum                    ...      3
Integral batch strategy                     ... SHARK/LIBINT Hybrid
RI-J (if used) integral strategy            ... SPLIT-RIJ (Revised 2003 algorithm where possible)
Printlevel                                  ...      1
Contraction scheme used                     ... SEGMENTED contraction
Coulomb Range Separation                    ... NOT USED
Exchange Range Separation                   ... NOT USED
Finite Nucleus Model                        ... NOT USED
Auxiliary Coulomb fitting basis             ... NOT available
Auxiliary J/K fitting basis                 ... NOT available
Auxiliary Correlation fitting basis         ... NOT available
Auxiliary 'external' fitting basis          ... NOT available
Integral threshold                          ...     1.000000e-10
Primitive cut-off                           ...     1.000000e-11
Primitive pair pre-selection threshold      ...     1.000000e-11

Calculating pre-screening integrals         ... done (  0.5 sec) Dimension = 83
Organizing shell pair data                  ... done (  0.0 sec)
Shell pair information
Total number of shell pairs                 ...      3486
Shell pairs after pre-screening             ...      3281
Total number of primitive shell pairs       ...     13195
Primitive shell pairs kept                  ...      8744
          la=0 lb=0:   1083 shell pairs
          la=1 lb=0:   1175 shell pairs
          la=1 lb=1:    351 shell pairs
          la=2 lb=0:    358 shell pairs
          la=2 lb=1:    198 shell pairs
          la=2 lb=2:     33 shell pairs
          la=3 lb=0:     47 shell pairs
          la=3 lb=1:     27 shell pairs
          la=3 lb=2:      8 shell pairs
          la=3 lb=3:      1 shell pairs

Calculating one electron integrals          ... done (  0.0 sec)
Calculating Nuclear repulsion               ... done (  0.0 sec) ENN=    695.793466821567 Eh

SHARK setup successfully completed in   0.6 seconds

Maximum memory used throughout the entire GTOINT-calculation: 12.5 MB
[cnode08:207502] 7 more processes have sent help message help-mpi-btl-openib.txt / error in device init
[cnode08:207502] Set MCA parameter "orte_base_help_aggregate" to 0 to see all help / error messages
--------------------------------------------------------------------------
WARNING: There was an error initializing an OpenFabrics device.

  Local host:   cnode08
  Local device: mlx5_0
--------------------------------------------------------------------------


           ************************************************************
           *        Program running with 8 parallel MPI-processes     *
           *              working on a common directory               *
           ************************************************************
-------------------------------------------------------------------------------
                                 ORCA SCF
-------------------------------------------------------------------------------

------------
SCF SETTINGS
------------
Hamiltonian:
 Ab initio Hamiltonian  Method          .... Hartree-Fock(GTOs)


General Settings:
 Integral files         IntName         .... FeH2O62+-cas65-mul5
 Hartree-Fock type      HFTyp           .... CASSCF
 Total Charge           Charge          ....    2
 Multiplicity           Mult            ....    5
 Number of Electrons    NEL             ....   84
 Basis Dimension        Dim             ....  175
 Nuclear Repulsion      ENuc            ....    695.7934668216 Eh


Diagonalization of the overlap matrix:
Smallest eigenvalue                        ... 1.374e-02
Time for diagonalization                   ...    0.003 sec
Threshold for overlap eigenvalues          ... 1.000e-08
Number of eigenvalues below threshold      ... 0
Time for construction of square roots      ...    0.004 sec
Total time needed                          ...    0.008 sec

---------------------
INITIAL GUESS: MOREAD
---------------------
Guess MOs are being read from file: FeH2O62+-rohf.gbw
Input Geometry matches current geometry (good)
Input basis set matches current basis set (good)
MOs were renormalized
Gram-Schmidt orthogonalization of all MOs with pivot on actives
                      ------------------
                      INITIAL GUESS DONE (   0.0 sec)
                      ------------------


 ... the calculation is a CASSCF calculation -I'm leaving here GOOD LUCK!!!

[cnode08:207573] 7 more processes have sent help message help-mpi-btl-openib.txt / error in device init
[cnode08:207573] Set MCA parameter "orte_base_help_aggregate" to 0 to see all help / error messages
--------------------------------------------------------------------------
WARNING: There was an error initializing an OpenFabrics device.

  Local host:   cnode08
  Local device: mlx5_0
--------------------------------------------------------------------------


           ************************************************************
           *        Program running with 8 parallel MPI-processes     *
           *              working on a common directory               *
           ************************************************************
-------------------------------------------------------------------------------
                              ORCA-CASSCF
-------------------------------------------------------------------------------

Setting up the integral package       ... done
Building the CAS space                ... done (5 configurations for Mult=5)

SYSTEM-SPECIFIC SETTINGS:
Number of active electrons          ...    6
Number of active orbitals           ...    5
Total number of electrons           ...   84
Total number of orbitals            ...  175

Determined orbital ranges:
   Internal       0 -   38 (  39 orbitals)
   Active        39 -   43 (   5 orbitals)
   External      44 -  174 ( 131 orbitals)
Number of rotation parameters      ...   5959

CI-STEP:
CI strategy                         ... General CI
Number of multiplicity blocks       ...    1
BLOCK  1 WEIGHT=   1.0000
  Multiplicity                      ...    5
  #(Configurations)                 ...    5
  #(CSFs)                           ...    5
  #(Roots)                          ...    1
    ROOT=0 WEIGHT=    1.000000

  PrintLevel                        ...    1
  N(GuessMat)                       ...       512
  MaxDim(CI)                        ...        10
  MaxIter(CI)                       ...        64
  Energy Tolerance CI               ...  1.00e-08
  Residual Tolerance CI             ...  1.00e-08
  Shift(CI)                         ...  1.00e-04

INTEGRAL-TRANSFORMATION-STEP:
  Algorithm                         ... EXACT

ORBITAL-IMPROVEMENT-STEP:
  Algorithm                         ... SuperCI(PT)
  Default Parametrization           ... CAYLEY
  Act-Act rotations                 ... depends on algorithm used

  Note: SuperCI(PT) will ignore FreezeIE, FreezeAct and FreezeGrad. In general Default settings are encouraged.
        In conjunction with ShiftUp, ShiftDn or GradScaling the performance of SuperCI(PT) is less optimal.  

  MaxRot                            ... 2.00e-01 
  Max. no of vectors (DIIS)         ... 15
  DThresh (cut-off) metric          ... 1.00e-06
  Switch step at gradient           ...  3.00e-02 
  Switch step at iteration          ...        50   
  Switch step to                    ... SuperCI(PT)    

SCF-SETTINGS:
  Incremental                       ... on
  RIJCOSX approximation             ... off
  RI-JK approximation               ... off
  AO integral handling              ... DIRECT
  Integral Neglect Thresh           ...  1.00e-10
  Primitive cutoff TCut             ...  1.00e-11
  Energy convergence tolerance      ...  1.00e-07
  Orbital gradient convergence      ...  1.00e-03
  Max. number of iterations         ...        75  


FINAL ORBITALS:
  Active   Orbitals                 ... natural 
  Internal Orbitals                 ... canonical 
  External Orbitals                 ... canonical 

------------------
CAS-SCF ITERATIONS
------------------


MACRO-ITERATION   1: 
[cnode08:207633] 7 more processes have sent help message help-mpi-btl-openib.txt / error in device init
[cnode08:207633] Set MCA parameter "orte_base_help_aggregate" to 0 to see all help / error messages
   --- Inactive Energy E0 = -1700.74754109 Eh
CI-ITERATION   0: 
 -1717.703726872   0.000000000000 (    0.04)
   CI-PROBLEM SOLVED
   DENSITIES MADE

                 <<<<<<<<<<<<<<<<<<INITIAL CI STATE CHECK>>>>>>>>>>>>>>>>>>

BLOCK  1 MULT= 5 NROOTS= 1 
ROOT   0:  E=   -1717.7037268720 Eh
      1.00000 [     4]: 21111

                 <<<<<<<<<<<<<<<<<<INITIAL CI STATE CHECK>>>>>>>>>>>>>>>>>>

   E(CAS)= -1717.703726872 Eh DE=    0.000000e+00
   --- Energy gap subspaces: Ext-Act = 0.153   Act-Int = 0.084
   N(occ)=  2.00000 1.00000 1.00000 1.00000 1.00000
   ||g|| =     1.777822e-04 Max(G)=    4.277999e-05 Rot=41,33
                     ---- THE CAS-SCF GRADIENT HAS CONVERGED ----
                            --- FINALIZING ORBITALS ---
                    ---- DOING ONE FINAL ITERATION FOR PRINTING ----
   --- Forming Natural Orbitals
   --- Canonicalize Internal Space
   --- Canonicalize External Space

MACRO-ITERATION   2: 
   --- Inactive Energy E0 = -1700.74754109 Eh
   --- All densities will be recomputed
CI-ITERATION   0: 
 -1717.703726872   0.000000000000 (    0.07)
   CI-PROBLEM SOLVED
   DENSITIES MADE
   E(CAS)= -1717.703726872 Eh DE=   -1.364242e-12
   --- Energy gap subspaces: Ext-Act = 0.153   Act-Int = 0.084
   N(occ)=  2.00000 1.00000 1.00000 1.00000 1.00000
   ||g|| =     1.777822e-04 Max(G)=   -3.601933e-05 Rot=43,33
--------------
CASSCF RESULTS
--------------

Final CASSCF energy       : -1717.703726872 Eh  -46741.0947 eV

----------------
ORBITAL ENERGIES
----------------

  NO   OCC          E(Eh)            E(eV) 
   0   2.0000    -261.568297     -7117.6352 
   1   2.0000     -32.138127      -874.5229 
   2   2.0000     -27.632994      -751.9320 
   3   2.0000     -27.632809      -751.9270 
   4   2.0000     -27.614828      -751.4377 
   5   2.0000     -20.906516      -568.8952 
   6   2.0000     -20.906491      -568.8946 
   7   2.0000     -20.906481      -568.8943 
   8   2.0000     -20.906449      -568.8934 
   9   2.0000     -20.906447      -568.8933 
  10   2.0000     -20.906412      -568.8924 
  11   2.0000      -4.396699      -119.6403 
  12   2.0000      -2.984175       -81.2035 
  13   2.0000      -2.984043       -81.1999 
  14   2.0000      -2.972309       -80.8806 
  15   2.0000      -1.689467       -45.9727 
  16   2.0000      -1.677815       -45.6557 
  17   2.0000      -1.673467       -45.5373 
  18   2.0000      -1.673423       -45.5362 
  19   2.0000      -1.671300       -45.4784 
  20   2.0000      -1.671258       -45.4772 
  21   2.0000      -1.072010       -29.1709 
  22   2.0000      -1.066183       -29.0123 
  23   2.0000      -1.059736       -28.8369 
  24   2.0000      -1.059676       -28.8353 
  25   2.0000      -1.059021       -28.8174 
  26   2.0000      -1.058959       -28.8157 
  27   2.0000      -1.012364       -27.5478 
  28   2.0000      -0.965237       -26.2654 
  29   2.0000      -0.959193       -26.1010 
  30   2.0000      -0.959141       -26.0996 
  31   2.0000      -0.953169       -25.9370 
  32   2.0000      -0.953131       -25.9360 
  33   2.0000      -0.873339       -23.7647 
  34   2.0000      -0.873235       -23.7619 
  35   2.0000      -0.873189       -23.7607 
  36   2.0000      -0.871026       -23.7018 
  37   2.0000      -0.870978       -23.7005 
  38   2.0000      -0.852864       -23.2076 
  39   2.0000      -0.769335       -20.9347 
  40   1.0000      -0.423128       -11.5139 
  41   1.0000      -0.352409        -9.5895 
  42   1.0000      -0.423108       -11.5134 
  43   1.0000      -0.352837        -9.6012 
  44   0.0000      -0.199792        -5.4366 
  45   0.0000      -0.118018        -3.2114 
  46   0.0000      -0.118001        -3.2110 
  47   0.0000      -0.104641        -2.8474 
  48   0.0000      -0.070661        -1.9228 
  49   0.0000      -0.070646        -1.9224 
  50   0.0000      -0.033426        -0.9096 
  51   0.0000      -0.032034        -0.8717 
  52   0.0000      -0.032010        -0.8710 
  53   0.0000      -0.030354        -0.8260 
  54   0.0000      -0.020369        -0.5543 
  55   0.0000      -0.020354        -0.5539 
  56   0.0000       0.048630         1.3233 
  57   0.0000       0.192079         5.2267 
  58   0.0000       0.197135         5.3643 
  59   0.0000       0.197228         5.3668 
  60   0.0000       0.264423         7.1953 
  61   0.0000       0.391884        10.6637 
  62   0.0000       0.453430        12.3385 
  63   0.0000       0.453468        12.3395 
  64   0.0000       0.498542        13.5660 
  65   0.0000       0.504602        13.7309 
  66   0.0000       0.504660        13.7325 
  67   0.0000       0.543671        14.7940 
  68   0.0000       0.543727        14.7956 
  69   0.0000       0.586211        15.9516 
  70   0.0000       0.591062        16.0836 
  71   0.0000       0.591093        16.0845 
  72   0.0000       0.623551        16.9677 
  73   0.0000       0.750306        20.4169 
  74   0.0000       0.776672        21.1343 
  75   0.0000       0.776685        21.1347 
  76   0.0000       0.845132        22.9972 
  77   0.0000       0.859286        23.3824 
  78   0.0000       0.859357        23.3843 
  79   0.0000       0.917520        24.9670 
  80   0.0000       0.917585        24.9688 
  81   0.0000       0.984243        26.7826 
  82   0.0000       0.986207        26.8361 
  83   0.0000       0.992895        27.0180 
  84   0.0000       0.992940        27.0193 
  85   0.0000       1.006452        27.3869 
  86   0.0000       1.006476        27.3876 
  87   0.0000       1.046541        28.4778 
  88   0.0000       1.068300        29.0699 
  89   0.0000       1.068334        29.0708 
  90   0.0000       1.074763        29.2458 
  91   0.0000       1.117121        30.3984 
  92   0.0000       1.117163        30.3996 
  93   0.0000       1.195141        32.5214 
  94   0.0000       1.195229        32.5238 
  95   0.0000       1.218267        33.1507 
  96   0.0000       1.225665        33.3520 
  97   0.0000       1.255152        34.1544 
  98   0.0000       1.255199        34.1557 
  99   0.0000       1.275780        34.7157 
 100   0.0000       1.275871        34.7182 
 101   0.0000       1.303945        35.4821 
 102   0.0000       1.310666        35.6650 
 103   0.0000       1.322686        35.9921 
 104   0.0000       1.322753        35.9939 
 105   0.0000       1.350922        36.7605 
 106   0.0000       1.351044        36.7638 
 107   0.0000       1.370176        37.2844 
 108   0.0000       1.503621        40.9156 
 109   0.0000       1.503685        40.9173 
 110   0.0000       1.525092        41.4999 
 111   0.0000       1.583259        43.0827 
 112   0.0000       1.618219        44.0340 
 113   0.0000       1.618256        44.0350 
 114   0.0000       1.711206        46.5643 
 115   0.0000       1.720919        46.8286 
 116   0.0000       1.720985        46.8304 
 117   0.0000       1.808141        49.2020 
 118   0.0000       1.813474        49.3471 
 119   0.0000       1.813546        49.3491 
 120   0.0000       1.947377        52.9908 
 121   0.0000       1.947402        52.9915 
 122   0.0000       2.003269        54.5117 
 123   0.0000       2.060570        56.0710 
 124   0.0000       2.143836        58.3368 
 125   0.0000       2.143980        58.3407 
 126   0.0000       2.192363        59.6572 
 127   0.0000       2.197963        59.8096 
 128   0.0000       2.197973        59.8099 
 129   0.0000       2.205607        60.0176 
 130   0.0000       2.205622        60.0180 
 131   0.0000       2.216176        60.3052 
 132   0.0000       2.254785        61.3558 
 133   0.0000       2.254842        61.3574 
 134   0.0000       2.258383        61.4537 
 135   0.0000       2.258611        61.4599 
 136   0.0000       2.258695        61.4622 
 137   0.0000       2.265041        61.6349 
 138   0.0000       2.915588        79.3372 
 139   0.0000       2.933042        79.8121 
 140   0.0000       2.933093        79.8135 
 141   0.0000       2.957116        80.4672 
 142   0.0000       3.014867        82.0387 
 143   0.0000       3.014893        82.0394 
 144   0.0000       3.023041        82.2611 
 145   0.0000       3.023051        82.2614 
 146   0.0000       3.023229        82.2662 
 147   0.0000       3.031411        82.4889 
 148   0.0000       3.099452        84.3404 
 149   0.0000       3.099560        84.3433 
 150   0.0000       3.172750        86.3349 
 151   0.0000       3.172847        86.3375 
 152   0.0000       3.176728        86.4432 
 153   0.0000       3.178355        86.4874 
 154   0.0000       3.269178        88.9588 
 155   0.0000       3.269383        88.9644 
 156   0.0000       3.550557        96.6156 
 157   0.0000       3.550607        96.6169 
 158   0.0000       3.558970        96.8445 
 159   0.0000       3.559033        96.8462 
 160   0.0000       3.565450        97.0208 
 161   0.0000       3.610789        98.2546 
 162   0.0000       3.848426       104.7210 
 163   0.0000       3.856454       104.9395 
 164   0.0000       3.902157       106.1831 
 165   0.0000       3.902230       106.1851 
 166   0.0000       3.933972       107.0488 
 167   0.0000       3.934033       107.0505 
 168   0.0000       4.210092       114.5624 
 169   0.0000       4.229502       115.0906 
 170   0.0000       4.267277       116.1185 
 171   0.0000       4.267404       116.1220 
 172   0.0000       4.335896       117.9857 
 173   0.0000       4.360717       118.6611 
 174   0.0000       4.360800       118.6634 


---------------------------------------------
CAS-SCF STATES FOR BLOCK  1 MULT= 5 NROOTS= 1
---------------------------------------------

ROOT   0:  E=   -1717.7037268720 Eh
      1.00000 [     4]: 21111


--------------
DENSITY MATRIX
--------------

                  0          1          2          3          4    
      0       2.000000  -0.000000  -0.000000  -0.000000   0.000000
      1      -0.000000   1.000000   0.000000   0.000000  -0.000000
      2      -0.000000   0.000000   1.000000   0.000000  -0.000000
      3      -0.000000   0.000000   0.000000   1.000000  -0.000000
      4       0.000000  -0.000000  -0.000000  -0.000000   1.000000
Trace of the electron density:  6.000000
Extracting Spin-Density from 2-RDM (MULT=5) ... done

-------------------
SPIN-DENSITY MATRIX
-------------------

                  0          1          2          3          4    
      0       0.000000   0.000000   0.000000   0.000000  -0.000000
      1       0.000000   1.000000  -0.000000  -0.000000   0.000000
      2       0.000000  -0.000000   1.000000  -0.000000   0.000000
      3       0.000000  -0.000000  -0.000000   1.000000   0.000000
      4      -0.000000   0.000000   0.000000   0.000000   1.000000
Trace of the spin density:  4.000000

-----------------
ENERGY COMPONENTS
-----------------

One electron energy          :  -3736.214051537 Eh     -101667.5530 eV
Two electron energy          :   1322.716857843 Eh       35992.9555 eV
Nuclear repulsion energy     :    695.793466822 Eh       18933.5028 eV
                               ----------------
                                -1717.703726872

Kinetic energy               :   1716.588510912 Eh       46710.7481 eV
Potential energy             :  -3434.292237784 Eh      -93451.8428 eV
Virial ratio                 :     -2.000649670 
                               ----------------
                                -1717.703726872

Core energy                  :  -1700.747541090 Eh   -46279.6934 eV


----------------------------
LOEWDIN ORBITAL-COMPOSITIONS
----------------------------

                      0         1         2         3         4         5   
                 -261.56830 -32.13813 -27.63299 -27.63281 -27.61483 -20.90652
                   2.00000   2.00000   2.00000   2.00000   2.00000   2.00000
                  --------  --------  --------  --------  --------  --------
 0 Fe s             100.0     100.0       0.0       0.0       0.0       0.0
 0 Fe pz              0.0       0.0      68.5      22.7       8.8       0.0
 0 Fe px              0.0       0.0      23.2      76.4       0.4       0.0
 0 Fe py              0.0       0.0       8.3       0.9      90.8       0.0
 1 O  s               0.0       0.0       0.0       0.0       0.0      15.8
 5 O  s               0.0       0.0       0.0       0.0       0.0       2.0
 7 O  s               0.0       0.0       0.0       0.0       0.0      81.2
 9 O  s               0.0       0.0       0.0       0.0       0.0       0.9

                      6         7         8         9        10        11   
                 -20.90649 -20.90648 -20.90645 -20.90645 -20.90641  -4.39670
                   2.00000   2.00000   2.00000   2.00000   2.00000   2.00000
                  --------  --------  --------  --------  --------  --------
 0 Fe s               0.0       0.0       0.0       0.0       0.0      99.2
 1 O  s              57.0      12.1      10.6       3.1       1.2       0.0
 3 O  s              27.3      38.7      19.6      10.9       3.2       0.0
 5 O  s               0.3      46.0      42.7       3.9       4.8       0.0
 7 O  s               9.6       0.2       8.0       0.1       0.6       0.0
 9 O  s               3.5       0.4      17.9      46.1      31.0       0.0
11 O  s               2.1       2.3       0.9      35.7      58.9       0.0

                     12        13        14        15        16        17   
                  -2.98417  -2.98404  -2.97231  -1.68947  -1.67781  -1.67347
                   2.00000   2.00000   2.00000   2.00000   2.00000   2.00000
                  --------  --------  --------  --------  --------  --------
 0 Fe s               0.0       0.0       0.0       6.7       0.0       0.0
 0 Fe pz             68.5      22.0       8.7       0.0       0.4       2.7
 0 Fe px             22.5      76.5       0.4       0.0       0.0       0.7
 0 Fe py              8.3       0.8      90.1       0.0       4.1       0.3
 1 O  s               0.0       0.0       0.0      10.2      10.4      20.2
 1 O  px              0.0       0.0       0.0       0.1       0.1       0.2
 1 O  py              0.1       0.0       0.1       0.0       0.0       0.0
 2 H  s               0.0       0.0       0.0       2.1       2.3       4.0
 2 H  pz              0.0       0.0       0.0       0.2       0.2       0.4
 2 H  px              0.0       0.0       0.0       0.2       0.2       0.4
 2 H  py              0.0       0.0       0.0       0.2       0.2       0.4
 3 O  s               0.0       0.0       0.0      10.1      10.3       7.8
 4 H  s               0.0       0.0       0.0       2.0       2.0       1.7
 4 H  pz              0.0       0.0       0.0       0.2       0.2       0.2
 4 H  px              0.0       0.0       0.0       0.3       0.3       0.2
 4 H  py              0.0       0.0       0.0       0.1       0.1       0.1
 5 O  s               0.0       0.0       0.0      10.1      10.3       7.6
 6 H  s               0.0       0.0       0.0       2.0       2.0       1.6
 6 H  pz              0.0       0.0       0.0       0.2       0.2       0.2
 6 H  px              0.0       0.0       0.0       0.3       0.3       0.2
 6 H  py              0.0       0.0       0.0       0.1       0.1       0.1
 7 O  s               0.0       0.0       0.0      10.2      10.5      20.4
 7 O  px              0.0       0.0       0.0       0.1       0.1       0.2
 7 O  py              0.1       0.0       0.1       0.0       0.0       0.0
 8 H  s               0.0       0.0       0.0       2.1       2.3       4.0
 8 H  pz              0.0       0.0       0.0       0.2       0.2       0.4
 8 H  px              0.0       0.0       0.0       0.2       0.2       0.4
 8 H  py              0.0       0.0       0.0       0.2       0.2       0.4
 9 O  s               0.0       0.0       0.0      10.1      10.1       3.2
10 H  s               0.0       0.0       0.0       2.1       2.2       0.5
10 H  pz              0.0       0.0       0.0       0.1       0.1       0.0
10 H  py              0.0       0.0       0.0       0.5       0.5       0.1
11 O  s               0.0       0.0       0.0      10.1      10.1       3.1
12 H  s               0.0       0.0       0.0       2.1       2.2       0.5
12 H  pz              0.0       0.0       0.0       0.1       0.1       0.0
12 H  py              0.0       0.0       0.0       0.5       0.5       0.1
13 H  s               0.0       0.0       0.0       2.0       2.0       0.7
13 H  px              0.0       0.0       0.0       0.5       0.5       0.2
14 H  s               0.0       0.0       0.0       2.1       2.3       1.7
14 H  pz              0.0       0.0       0.0       0.2       0.2       0.1
14 H  px              0.0       0.0       0.0       0.3       0.3       0.2
14 H  py              0.0       0.0       0.0       0.2       0.2       0.1
15 H  s               0.0       0.0       0.0       2.0       2.0       0.7
15 H  px              0.0       0.0       0.0       0.5       0.5       0.2
16 H  s               0.0       0.0       0.0       2.0       2.1       4.3
16 H  pz              0.0       0.0       0.0       0.5       0.6       1.1
16 H  px              0.0       0.0       0.0       0.1       0.1       0.1
17 H  s               0.0       0.0       0.0       2.1       2.3       1.7
17 H  pz              0.0       0.0       0.0       0.2       0.2       0.1
17 H  px              0.0       0.0       0.0       0.3       0.3       0.2
17 H  py              0.0       0.0       0.0       0.2       0.2       0.1
18 H  s               0.0       0.0       0.0       2.0       2.1       4.4
18 H  pz              0.0       0.0       0.0       0.5       0.6       1.1
18 H  px              0.0       0.0       0.0       0.1       0.1       0.1

                     18        19        20        21        22        23   
                  -1.67342  -1.67130  -1.67126  -1.07201  -1.06618  -1.05974
                   2.00000   2.00000   2.00000   2.00000   2.00000   2.00000
                  --------  --------  --------  --------  --------  --------
 0 Fe s               0.0       0.0       0.0       0.3       0.0       0.0
 0 Fe pz              0.7       0.0       0.0       0.0       0.2       0.0
 0 Fe px              3.0       0.0       0.0       0.0       0.0       0.0
 0 Fe py              0.0       0.0       0.0       0.0       1.6       0.0
 0 Fe dz2             0.0       0.2       0.6       0.4       0.0       0.1
 0 Fe dxz             0.0       0.2       0.2       0.0       0.0       0.1
 0 Fe dyz             0.0       0.9       0.0       0.6       0.0       0.0
 0 Fe dx2y2           0.0       0.2       0.1       1.6       0.0       0.0
 0 Fe dxy             0.0       0.3       0.8       0.0       0.0       0.2
 1 O  s               0.3      20.6       0.8       0.0       0.0       0.0
 1 O  pz              0.0       0.0       0.0       9.9      10.3      16.3
 1 O  px              0.0       0.2       0.0       0.0       0.0       1.0
 1 O  py              0.0       0.0       0.0       0.8       0.6       2.2
 2 H  s               0.1       4.1       0.2       1.9       1.9       5.0
 2 H  pz              0.0       0.4       0.0       0.0       0.0       0.0
 2 H  px              0.0       0.4       0.0       0.2       0.2       0.2
 2 H  py              0.0       0.4       0.0       0.1       0.1       0.2
 3 O  s              13.1       9.2      12.0       0.0       0.0       0.0
 3 O  pz              0.1       0.1       0.1       0.8       0.8       0.3
 3 O  px              0.0       0.0       0.0       5.9       6.5       7.6
 3 O  py              0.0       0.0       0.0       4.0       3.4       1.9
 4 H  s               2.8       1.9       2.5       3.1       3.2       1.9
 4 H  pz              0.3       0.2       0.3       0.2       0.2       0.2
 4 H  px              0.3       0.2       0.3       0.1       0.1       0.0
 4 H  py              0.2       0.1       0.1       0.0       0.0       0.0
 5 O  s              13.1       9.3      12.1       0.0       0.0       0.0
 5 O  pz              0.1       0.1       0.1       0.8       0.8       0.2
 5 O  px              0.0       0.0       0.0       5.9       6.5       7.6
 5 O  py              0.0       0.0       0.0       4.0       3.4       1.9
 6 H  s               2.8       1.9       2.5       3.1       3.2       1.9
 6 H  pz              0.3       0.2       0.3       0.2       0.2       0.2
 6 H  px              0.3       0.2       0.3       0.1       0.1       0.0
 6 H  py              0.2       0.1       0.1       0.0       0.0       0.0
 7 O  s               0.3      20.3       0.8       0.0       0.0       0.0
 7 O  pz              0.0       0.0       0.0       9.9      10.2      17.2
 7 O  px              0.0       0.2       0.0       0.0       0.0       1.1
 7 O  py              0.0       0.0       0.0       0.8       0.6       2.3
 8 H  s               0.1       4.0       0.2       1.9       1.9       5.4
 8 H  pz              0.0       0.4       0.0       0.0       0.0       0.0
 8 H  px              0.0       0.4       0.0       0.2       0.2       0.3
 8 H  py              0.0       0.4       0.0       0.1       0.1       0.2
 9 O  s              17.9       2.2      19.0       0.0       0.0       0.0
 9 O  pz              0.1       0.0       0.0       0.4       0.7       0.0
 9 O  px              0.1       0.0       0.1       5.2       5.4       1.1
 9 O  py              0.0       0.0       0.0       4.9       4.5       1.1
10 H  s               3.7       0.4       3.9       1.9       1.9       0.4
10 H  pz              0.3       0.0       0.3       0.1       0.0       0.0
10 H  px              0.0       0.0       0.0       0.1       0.1       0.0
10 H  py              0.8       0.1       0.9       0.1       0.1       0.0
11 O  s              17.7       2.2      19.2       0.0       0.0       0.0
11 O  pz              0.1       0.0       0.0       0.4       0.7       0.0
11 O  px              0.1       0.0       0.1       5.3       5.4       1.3
11 O  py              0.0       0.0       0.0       4.9       4.5       1.3
12 H  s               3.6       0.4       3.9       1.9       1.9       0.4
12 H  pz              0.3       0.0       0.3       0.1       0.0       0.0
12 H  px              0.0       0.0       0.0       0.1       0.1       0.0
12 H  py              0.8       0.1       0.9       0.1       0.1       0.0
13 H  s               3.8       0.5       4.0       3.0       3.2       0.7
13 H  px              0.9       0.1       1.0       0.2       0.2       0.0
13 H  py              0.2       0.0       0.2       0.0       0.0       0.0
14 H  s               2.5       1.9       2.3       1.9       1.9       2.7
14 H  pz              0.2       0.2       0.2       0.2       0.2       0.1
14 H  px              0.4       0.2       0.3       0.0       0.0       0.0
14 H  py              0.2       0.1       0.2       0.0       0.0       0.0
15 H  s               3.8       0.5       4.0       3.1       3.2       0.8
15 H  px              0.9       0.1       1.0       0.2       0.2       0.1
15 H  py              0.2       0.0       0.2       0.0       0.0       0.0
16 H  s               0.1       4.3       0.2       3.1       3.3       4.7
16 H  pz              0.0       1.1       0.0       0.1       0.2       0.2
16 H  px              0.0       0.1       0.0       0.1       0.1       0.2
17 H  s               2.5       2.0       2.3       1.9       1.9       2.7
17 H  pz              0.2       0.2       0.2       0.2       0.2       0.1
17 H  px              0.3       0.2       0.3       0.0       0.0       0.0
17 H  py              0.2       0.2       0.2       0.0       0.0       0.0
18 H  s               0.1       4.2       0.2       3.1       3.2       5.0
18 H  pz              0.0       1.1       0.0       0.1       0.2       0.2
18 H  px              0.0       0.1       0.0       0.1       0.1       0.2

                     24        25        26        27        28        29   
                  -1.05968  -1.05902  -1.05896  -1.01236  -0.96524  -0.95919
                   2.00000   2.00000   2.00000   2.00000   2.00000   2.00000
                  --------  --------  --------  --------  --------  --------
 0 Fe s               0.0       0.0       0.0       8.2       0.0       0.0
 0 Fe pz              0.0       0.5       0.2       0.0       0.5       0.0
 0 Fe px              0.0       0.3       0.6       0.0       0.0       0.0
 0 Fe py              0.0       0.0       0.0       0.0       5.7       0.0
 0 Fe dz2             0.0       0.0       0.0       0.0       0.0       0.5
 0 Fe dxz             0.2       0.0       0.0       0.0       0.0       1.0
 0 Fe dyz             0.2       0.0       0.0       0.0       0.0       4.5
 0 Fe dx2y2           0.1       0.0       0.0       0.0       0.0       1.2
 0 Fe dxy             0.0       0.0       0.0       0.0       0.0       1.2
 1 O  s               0.0       0.0       0.0       0.4       0.7       1.9
 1 O  pz              0.5      16.8       0.1       0.6       0.3       4.0
 1 O  px              0.8       1.4       0.2       4.4       7.6      11.4
 1 O  py              0.1       3.0       0.4       7.7       4.7       8.1
 2 H  s               0.3       5.7       0.2       1.4       1.6       1.3
 2 H  pz              0.0       0.0       0.0       0.2       0.2       0.3
 2 H  px              0.0       0.3       0.0       0.0       0.0       0.0
 2 H  py              0.0       0.2       0.0       0.0       0.0       0.0
 3 O  s               0.0       0.0       0.0       0.4       0.7       0.7
 3 O  pz              0.1       0.4       0.0      10.7      11.8       9.4
 3 O  px              7.2       4.8       9.5       0.0       0.3       0.0
 3 O  py              4.1       2.9       4.2       2.0       0.5       0.5
 4 H  s               3.0       1.4       3.4       0.3       0.2       0.5
 4 H  pz              0.2       0.2       0.3       0.1       0.1       0.1
 4 H  py              0.0       0.0       0.0       0.1       0.0       0.1
 5 O  s               0.0       0.0       0.0       0.4       0.7       0.7
 5 O  pz              0.1       0.4       0.0      10.7      11.8       9.4
 5 O  px              7.6       5.0       8.9       0.0       0.3       0.0
 5 O  py              4.3       2.9       3.9       2.0       0.6       0.5
 6 H  s               3.2       1.5       3.2       0.3       0.2       0.5
 6 H  pz              0.2       0.2       0.3       0.1       0.1       0.1
 6 H  py              0.0       0.0       0.0       0.1       0.0       0.1
 7 O  s               0.0       0.0       0.0       0.4       0.8       1.9
 7 O  pz              0.5      15.9       0.1       0.6       0.3       4.0
 7 O  px              0.8       1.3       0.2       4.4       7.7      11.3
 7 O  py              0.1       2.8       0.3       7.7       4.8       8.1
 8 H  s               0.3       5.4       0.2       1.4       1.6       1.3
 8 H  pz              0.0       0.0       0.0       0.2       0.2       0.3
 8 H  px              0.0       0.3       0.0       0.0       0.0       0.0
 8 H  py              0.0       0.2       0.0       0.0       0.0       0.0
 9 O  s               0.0       0.0       0.0       0.4       0.7       0.3
 9 O  pz              4.3       0.5       3.0       0.2       1.8       0.1
 9 O  px              4.0       1.6       2.9       6.7       6.4       2.9
 9 O  py             11.0       1.4      12.1       5.8       4.4       0.1
10 H  s               5.2       0.7       5.1       1.4       1.6       0.1
10 H  px              0.1       0.0       0.1       0.1       0.1       0.0
10 H  py              0.3       0.0       0.2       0.0       0.1       0.0
11 O  s               0.0       0.0       0.0       0.4       0.7       0.3
11 O  pz              4.2       0.4       3.1       0.2       1.8       0.1
11 O  px              4.0       1.5       3.0       6.7       6.3       2.9
11 O  py             10.8       1.3      12.3       5.8       4.4       0.1
12 H  s               5.1       0.6       5.2       1.4       1.6       0.1
12 H  px              0.1       0.0       0.1       0.1       0.1       0.0
12 H  py              0.2       0.0       0.2       0.0       0.1       0.0
13 H  s               4.3       1.0       3.7       0.3       0.2       0.5
13 H  px              0.4       0.1       0.3       0.0       0.0       0.0
13 H  py              0.0       0.0       0.0       0.2       0.2       0.0
14 H  s               2.7       2.4       3.4       1.4       1.6       0.8
14 H  pz              0.2       0.1       0.2       0.0       0.0       0.1
14 H  px              0.0       0.0       0.0       0.2       0.1       0.1
15 H  s               4.3       0.9       3.8       0.3       0.2       0.5
15 H  px              0.4       0.1       0.4       0.0       0.0       0.0
15 H  py              0.0       0.0       0.0       0.2       0.2       0.0
16 H  s               0.1       4.8       0.0       0.3       0.2       2.0
16 H  pz              0.0       0.2       0.0       0.0       0.0       0.1
16 H  px              0.0       0.2       0.0       0.0       0.1       0.1
16 H  py              0.0       0.1       0.0       0.1       0.1       0.2
17 H  s               2.9       2.6       3.2       1.4       1.6       0.8
17 H  pz              0.2       0.1       0.2       0.0       0.0       0.1
17 H  px              0.0       0.0       0.0       0.2       0.1       0.1
18 H  s               0.1       4.5       0.0       0.3       0.2       2.0
18 H  pz              0.0       0.2       0.0       0.0       0.0       0.1
18 H  px              0.0       0.2       0.0       0.0       0.1       0.1
18 H  py              0.0       0.1       0.0       0.1       0.1       0.2

                     30        31        32        33        34        35   
                  -0.95914  -0.95317  -0.95313  -0.87334  -0.87324  -0.87319
                   2.00000   2.00000   2.00000   2.00000   2.00000   2.00000
                  --------  --------  --------  --------  --------  --------
 0 Fe s               0.0       0.0       0.0       0.3       0.0       0.0
 0 Fe pz              0.0       5.0       0.8       0.0       0.0       0.0
 0 Fe px              0.0       0.8       5.5       0.0       0.0       0.0
 0 Fe py              0.0       0.6       0.0       0.0       0.0       0.0
 0 Fe dz2             2.3       0.0       0.0       0.5       0.8       2.0
 0 Fe dxz             1.4       0.0       0.0       0.0       0.7       0.2
 0 Fe dyz             0.1       0.0       0.0       2.5       0.0       0.1
 0 Fe dx2y2           0.6       0.0       0.0       6.1       0.4       0.2
 0 Fe dxy             3.8       0.0       0.0       0.1       0.8       0.4
 1 O  s               0.0       1.6       0.0       0.2       0.1       0.0
 1 O  pz              0.0       4.7       0.1       0.4       0.1       0.6
 1 O  px              0.3      10.1       0.6      11.2       8.0       2.9
 1 O  py              0.5       8.7       1.1       7.5      10.9       2.2
 2 H  s               0.2       1.0       0.1       0.1       0.1       0.2
 2 H  pz              0.0       0.3       0.0       0.0       0.0       0.0
 2 H  px              0.0       0.0       0.0       0.2       0.2       0.0
 2 H  py              0.0       0.0       0.0       0.3       0.3       0.1
 3 O  s               1.2       0.2       1.4       0.0       0.1       0.2
 3 O  pz             14.1       4.7      17.8       0.4       0.5       1.0
 3 O  px              0.3       0.4       0.3       1.3       7.6       6.3
 3 O  py              0.1       2.1       0.0       0.4      10.7      16.2
 4 H  s               1.5       0.2       2.1       0.1       0.0       0.1
 4 H  px              0.1       0.0       0.1       0.0       0.2       0.3
 4 H  py              0.1       0.1       0.1       0.0       0.3       0.3
 5 O  s               1.2       0.2       1.4       0.0       0.1       0.1
 5 O  pz             14.1       4.7      17.8       0.3       0.5       1.0
 5 O  px              0.3       0.4       0.3       1.3       7.7       6.3
 5 O  py              0.1       2.1       0.0       0.4      10.8      16.2
 6 H  s               1.5       0.2       2.1       0.1       0.0       0.1
 6 H  px              0.1       0.0       0.1       0.0       0.2       0.3
 6 H  py              0.1       0.1       0.1       0.0       0.3       0.3
 7 O  s               0.0       1.6       0.0       0.2       0.1       0.0
 7 O  pz              0.0       4.7       0.1       0.5       0.1       0.7
 7 O  px              0.3      10.1       0.6      11.6       7.8       3.1
 7 O  py              0.6       8.7       1.1       8.0      10.8       2.4
 8 H  s               0.2       1.0       0.1       0.1       0.1       0.2
 8 H  pz              0.0       0.3       0.0       0.0       0.0       0.0
 8 H  px              0.0       0.0       0.0       0.2       0.2       0.0
 8 H  py              0.0       0.0       0.0       0.3       0.2       0.1
 9 O  s               1.7       0.6       1.0       0.1       0.1       0.0
 9 O  pz              1.1       1.4       0.1      19.2       5.8      11.8
 9 O  px             15.2       5.9      12.9       0.0       0.1       0.0
 9 O  py              4.8       0.1       5.1       1.9       1.9       4.0
10 H  s               1.4       0.1       1.0       0.3       0.0       0.0
10 H  pz              0.0       0.0       0.0       0.3       0.2       0.3
10 H  px              0.3       0.1       0.3       0.0       0.0       0.0
10 H  py              0.0       0.0       0.0       0.2       0.0       0.1
11 O  s               1.7       0.6       1.0       0.1       0.1       0.0
11 O  pz              1.1       1.4       0.1      18.0       5.8      12.4
11 O  px             15.3       5.9      12.9       0.0       0.1       0.0
11 O  py              4.9       0.1       5.1       1.7       1.9       4.1
12 H  s               1.4       0.1       1.0       0.3       0.0       0.0
12 H  pz              0.0       0.0       0.0       0.3       0.2       0.4
12 H  px              0.3       0.1       0.3       0.0       0.0       0.0
12 H  py              0.0       0.0       0.0       0.2       0.0       0.1
13 H  s               1.5       1.0       1.2       0.0       0.1       0.0
13 H  pz              0.0       0.0       0.0       0.5       0.2       0.3
13 H  py              0.3       0.0       0.3       0.1       0.0       0.1
14 H  s               0.6       0.5       0.5       0.2       0.1       0.0
14 H  pz              0.1       0.0       0.2       0.0       0.0       0.0
14 H  px              0.1       0.1       0.1       0.0       0.1       0.2
14 H  py              0.0       0.0       0.0       0.0       0.4       0.4
15 H  s               1.5       1.0       1.2       0.0       0.1       0.0
15 H  pz              0.0       0.0       0.0       0.5       0.2       0.3
15 H  py              0.3       0.0       0.3       0.1       0.0       0.1
16 H  s               0.0       2.2       0.1       0.0       0.1       0.1
16 H  pz              0.0       0.1       0.0       0.0       0.0       0.0
16 H  px              0.0       0.1       0.0       0.3       0.2       0.1
16 H  py              0.0       0.2       0.0       0.2       0.3       0.1
17 H  s               0.6       0.5       0.5       0.2       0.1       0.0
17 H  pz              0.1       0.0       0.2       0.0       0.0       0.0
17 H  px              0.1       0.1       0.1       0.0       0.1       0.2
17 H  py              0.0       0.0       0.0       0.0       0.4       0.4
18 H  s               0.0       2.2       0.1       0.0       0.1       0.1
18 H  pz              0.0       0.1       0.0       0.0       0.0       0.0
18 H  px              0.0       0.1       0.0       0.3       0.2       0.1
18 H  py              0.0       0.2       0.0       0.2       0.3       0.1

                     36        37        38        39        40        41   
                  -0.87103  -0.87098  -0.85286  -0.76933  -0.42313  -0.35241
                   2.00000   2.00000   2.00000   2.00000   1.00000   1.00000
                  --------  --------  --------  --------  --------  --------
 0 Fe pz              0.6       0.5       0.0       0.0       0.0       0.0
 0 Fe px              0.5       0.7       0.0       0.0       0.0       0.0
 0 Fe dz2             0.0       0.0       0.0      11.6      52.5      21.3
 0 Fe dxz             0.0       0.0       0.0       0.1       3.8       9.9
 0 Fe dyz             0.0       0.0       0.0      20.7       8.7      10.3
 0 Fe dx2y2           0.0       0.0       0.0      53.3      22.1       1.4
 0 Fe dxy             0.0       0.0       0.0       0.8      11.4      52.1
 1 O  s               0.3       0.2       0.0       0.0       0.0       0.0
 1 O  pz              0.3       0.3       0.5       0.0       0.0       0.0
 1 O  px             15.6       0.0       6.3       1.2       0.1       0.0
 1 O  py             12.7       2.1       8.8       0.7       0.0       0.0
 2 H  s               0.1       0.1       0.1       0.0       0.1       0.0
 2 H  px              0.3       0.0       0.1       0.0       0.0       0.0
 2 H  py              0.4       0.0       0.3       0.0       0.0       0.0
 3 O  s               0.0       0.5       0.0       0.0       0.0       0.3
 3 O  pz              0.0       2.3       0.1       0.3       0.0       0.5
 3 O  px              4.6       5.1       5.7       0.3       0.1       0.0
 3 O  py              8.9       9.6       9.9       1.2       0.1       0.1
 4 H  s               0.0       0.1       0.0       0.2       0.0       0.0
 4 H  px              0.1       0.2       0.2       0.0       0.0       0.0
 4 H  py              0.2       0.2       0.3       0.0       0.0       0.0
 5 O  s               0.0       0.5       0.0       0.0       0.0       0.3
 5 O  pz              0.0       2.4       0.1       0.3       0.0       0.5
 5 O  px              4.3       5.3       5.7       0.3       0.1       0.0
 5 O  py              8.4      10.0      10.0       1.2       0.1       0.1
 6 H  s               0.0       0.1       0.0       0.2       0.0       0.0
 6 H  px              0.1       0.2       0.2       0.0       0.0       0.0
 6 H  py              0.2       0.2       0.3       0.0       0.0       0.0
 7 O  s               0.3       0.2       0.0       0.0       0.0       0.0
 7 O  pz              0.3       0.3       0.5       0.0       0.0       0.0
 7 O  px             15.1       0.0       6.3       1.2       0.1       0.0
 7 O  py             12.4       1.9       8.8       0.7       0.0       0.0
 8 H  s               0.1       0.1       0.1       0.0       0.1       0.0
 8 H  px              0.3       0.0       0.1       0.0       0.0       0.0
 8 H  py              0.4       0.0       0.3       0.0       0.0       0.0
 9 O  s               0.4       0.1       0.0       0.0       0.0       0.3
 9 O  pz              3.3      20.4      12.4       1.4       0.0       0.0
 9 O  px              1.0       0.1       0.1       0.1       0.0       0.5
 9 O  py              0.1       5.4       3.2       0.4       0.1       0.3
10 H  s               0.2       0.0       0.1       0.0       0.0       0.0
10 H  pz              0.1       0.5       0.3       0.0       0.0       0.0
10 H  py              0.0       0.2       0.1       0.0       0.0       0.0
11 O  s               0.4       0.1       0.0       0.0       0.0       0.3
11 O  pz              3.5      20.9      12.5       1.4       0.0       0.0
11 O  px              1.0       0.1       0.1       0.1       0.0       0.5
11 O  py              0.1       5.3       3.2       0.3       0.1       0.3
12 H  s               0.2       0.0       0.1       0.0       0.0       0.0
12 H  pz              0.1       0.5       0.3       0.0       0.0       0.0
12 H  py              0.0       0.2       0.1       0.0       0.0       0.0
13 H  s               0.2       0.0       0.0       0.2       0.0       0.1
13 H  pz              0.1       0.5       0.3       0.1       0.0       0.0
13 H  py              0.0       0.1       0.1       0.0       0.0       0.0
14 H  s               0.0       0.2       0.1       0.0       0.0       0.0
14 H  px              0.1       0.1       0.1       0.0       0.0       0.0
14 H  py              0.2       0.3       0.3       0.0       0.0       0.0
15 H  s               0.2       0.0       0.0       0.2       0.0       0.1
15 H  pz              0.1       0.5       0.3       0.1       0.0       0.0
15 H  py              0.0       0.1       0.1       0.0       0.0       0.0
16 H  s               0.1       0.1       0.0       0.2       0.0       0.0
16 H  px              0.3       0.0       0.2       0.0       0.0       0.0
16 H  py              0.3       0.0       0.2       0.0       0.0       0.0
17 H  s               0.0       0.2       0.1       0.0       0.0       0.0
17 H  px              0.1       0.1       0.1       0.0       0.0       0.0
17 H  py              0.2       0.3       0.3       0.0       0.0       0.0
18 H  s               0.1       0.1       0.0       0.2       0.0       0.0
18 H  px              0.3       0.0       0.2       0.0       0.0       0.0
18 H  py              0.3       0.0       0.2       0.0       0.0       0.0

                     42        43        44        45        46        47   
                  -0.42311  -0.35284  -0.19979  -0.11802  -0.11800  -0.10464
                   1.00000   1.00000   0.00000   0.00000   0.00000   0.00000
                  --------  --------  --------  --------  --------  --------
 0 Fe s               0.0       0.0      46.8       0.0       0.0       0.0
 0 Fe pz              0.0       0.0       0.0       0.6       0.3       0.1
 0 Fe px              0.0       0.0       0.0       0.3       0.7       0.0
 0 Fe py              0.0       0.0       0.0       0.1       0.0       0.5
 0 Fe dz2             0.4       9.6       0.0       0.0       0.0       0.0
 0 Fe dxz            82.9       1.1       0.0       0.0       0.0       0.0
 0 Fe dyz             6.2      48.0       0.0       0.0       0.0       0.0
 0 Fe dx2y2           1.7      11.9       0.0       0.0       0.0       0.0
 0 Fe dxy             7.4      24.3       0.0       0.0       0.0       0.0
 1 O  s               0.0       0.4       1.7       2.3       0.1       1.5
 1 O  pz              0.0       0.2       0.0       0.4       0.4       0.0
 1 O  px              0.0       0.1       0.1       1.0       0.2       0.1
 1 O  py              0.2       0.6       0.0       0.0       0.0       0.6
 2 H  s               0.0       0.0       2.5       7.1       0.2       9.7
 2 H  pz              0.0       0.0       0.3       0.5       0.0       0.6
 2 H  px              0.0       0.0       0.1       0.3       0.0       0.5
 2 H  py              0.0       0.0       0.1       0.4       0.0       0.3
 3 O  s               0.0       0.1       1.7       0.2       2.3       1.5
 3 O  pz              0.0       0.2       0.1       0.4       0.9       0.3
 3 O  px              0.0       0.1       0.0       0.4       0.2       0.0
 3 O  py              0.0       0.1       0.0       0.1       0.1       0.4
 4 H  s               0.0       0.0       3.5       0.4      17.2       2.6
 4 H  pz              0.0       0.0       0.1       0.0       0.6       0.1
 4 H  px              0.0       0.0       0.2       0.1       1.0       0.2
 4 H  py              0.0       0.0       0.2       0.0       0.6       0.2
 5 O  s               0.0       0.1       1.7       0.2       2.3       1.5
 5 O  pz              0.0       0.2       0.1       0.4       0.9       0.3
 5 O  px              0.0       0.1       0.0       0.4       0.2       0.0
 5 O  py              0.0       0.1       0.0       0.1       0.1       0.4
 6 H  s               0.0       0.0       3.5       0.4      17.2       2.6
 6 H  pz              0.0       0.0       0.1       0.0       0.6       0.1
 6 H  px              0.0       0.0       0.2       0.1       1.0       0.2
 6 H  py              0.0       0.0       0.2       0.0       0.6       0.2
 7 O  s               0.0       0.4       1.7       2.3       0.1       1.5
 7 O  pz              0.0       0.2       0.0       0.4       0.4       0.0
 7 O  px              0.0       0.1       0.1       1.0       0.2       0.1
 7 O  py              0.2       0.7       0.0       0.0       0.0       0.6
 8 H  s               0.0       0.0       2.5       7.1       0.2       9.7
 8 H  pz              0.0       0.0       0.3       0.5       0.0       0.6
 8 H  px              0.0       0.0       0.1       0.3       0.0       0.5
 8 H  py              0.0       0.0       0.1       0.4       0.0       0.3
 9 O  s               0.0       0.1       1.7       1.2       1.3       1.5
 9 O  pz              0.2       0.0       0.0       0.1       0.6       0.0
 9 O  px              0.0       0.1       0.1       0.7       0.6       0.1
 9 O  py              0.0       0.1       0.0       0.0       0.0       0.6
10 H  s               0.0       0.0       2.5       1.0       6.3       9.7
10 H  pz              0.0       0.0       0.1       0.1       0.2       0.4
10 H  py              0.0       0.0       0.3       0.2       0.7       1.0
11 O  s               0.0       0.1       1.7       1.2       1.3       1.5
11 O  pz              0.2       0.0       0.0       0.1       0.6       0.0
11 O  px              0.0       0.1       0.1       0.7       0.6       0.1
11 O  py              0.0       0.1       0.0       0.0       0.0       0.6
12 H  s               0.0       0.0       2.5       1.0       6.2       9.7
12 H  pz              0.0       0.0       0.1       0.1       0.2       0.4
12 H  py              0.0       0.0       0.3       0.2       0.7       1.0
13 H  s               0.0       0.0       3.5      10.7       6.9       2.6
13 H  px              0.0       0.0       0.3       1.1       0.7       0.4
13 H  py              0.0       0.0       0.2       0.3       0.2       0.1
14 H  s               0.0       0.0       2.5       2.8       4.5       9.7
14 H  pz              0.0       0.0       0.0       0.1       0.1       0.3
14 H  px              0.0       0.0       0.3       0.2       0.4       0.8
14 H  py              0.0       0.0       0.1       0.1       0.2       0.3
15 H  s               0.0       0.0       3.5      10.7       6.9       2.6
15 H  px              0.0       0.0       0.3       1.1       0.7       0.4
15 H  py              0.0       0.0       0.2       0.3       0.2       0.1
16 H  s               0.0       0.1       3.5      15.3       2.3       2.6
16 H  pz              0.0       0.0       0.5       2.0       0.2       0.5
16 H  px              0.0       0.0       0.0       0.1       0.0       0.0
17 H  s               0.0       0.0       2.5       2.8       4.5       9.7
17 H  pz              0.0       0.0       0.0       0.1       0.1       0.3
17 H  px              0.0       0.0       0.3       0.2       0.4       0.8
17 H  py              0.0       0.0       0.1       0.1       0.2       0.3
18 H  s               0.0       0.1       3.5      15.3       2.3       2.6
18 H  pz              0.0       0.0       0.5       2.0       0.2       0.5
18 H  px              0.0       0.0       0.0       0.1       0.0       0.0

                     48        49        50        51        52        53   
                  -0.07066  -0.07065  -0.03343  -0.03203  -0.03201  -0.03035
                   0.00000   0.00000   0.00000   0.00000   0.00000   0.00000
                  --------  --------  --------  --------  --------  --------
 0 Fe s               0.0       0.0       0.0       0.0       0.0       0.6
 0 Fe pz              0.0       0.0       0.1       0.0       0.0       0.0
 0 Fe py              0.0       0.0       1.1       0.0       0.0       0.0
 0 Fe dxz             0.0       0.1       0.0       0.0       0.1       0.0
 0 Fe dyz             0.2       0.0       0.0       0.0       0.0       0.1
 0 Fe dx2y2           0.0       0.0       0.0       0.0       0.0       0.4
 0 Fe dxy             0.0       0.1       0.0       0.1       0.0       0.0
 1 O  s               2.0       0.1       0.1       0.0       0.1       0.0
 1 O  pz              0.5       0.1       1.6       2.9       0.0       1.5
 1 O  px              1.2       0.1       0.0       0.4       0.2       0.0
 1 O  py              0.5       0.0       0.1       0.5       0.1       0.5
 1 O  dz2             0.1       0.0       0.1       0.1       0.0       0.0
 1 O  dxz             0.0       0.0       0.1       0.1       0.0       0.0
 2 H  s               9.3       0.1       3.1      15.1       0.0       5.9
[...]
      py      :     0.000032
 15 H s       :     0.001104  s :     0.001104
      pz      :     0.000058  p :     0.000145
      px      :    -0.000015
      py      :     0.000102
 16 H s       :     0.001106  s :     0.001106
      pz      :    -0.000016  p :     0.000145
      px      :     0.000047
      py      :     0.000115
 17 H s       :     0.001211  s :     0.001211
      pz      :     0.000026  p :     0.000110
      px      :     0.000053
      py      :     0.000032
 18 H s       :     0.001106  s :     0.001106
      pz      :    -0.000016  p :     0.000145
      px      :     0.000047
      py      :     0.000115


                     *******************************
                     * LOEWDIN POPULATION ANALYSIS *
                     *******************************

-----------------------------------------
LOEWDIN ATOMIC CHARGES AND SPIN DENSITIES
-----------------------------------------
   0 Fe:    0.639002    3.870405
   1 O :   -0.047658    0.018171
   2 H :    0.139468    0.001760
   3 O :   -0.047624    0.018164
   4 H :    0.135018    0.001682
   5 O :   -0.047612    0.018163
   6 H :    0.135013    0.001682
   7 O :   -0.047647    0.018165
   8 H :    0.139490    0.001761
   9 O :   -0.047663    0.018140
  10 H :    0.139464    0.001760
  11 O :   -0.047686    0.018140
  12 H :    0.139460    0.001759
  13 H :    0.135009    0.001682
  14 H :    0.139452    0.001756
  15 H :    0.134999    0.001682
  16 H :    0.135015    0.001686
  17 H :    0.139462    0.001757
  18 H :    0.135038    0.001686

--------------------------------------------------
LOEWDIN REDUCED ORBITAL CHARGES AND SPIN DENSITIES
--------------------------------------------------
CHARGE
  0 Fes       :     6.296172  s :     6.296172
      pz      :     4.227109  p :    12.688308
      px      :     4.226305
      py      :     4.234893
      dz2     :     1.215306  d :     6.374022
      dxz     :     1.059467
      dyz     :     1.326142
      dx2y2   :     1.649176
      dxy     :     1.123931
      f0      :     0.000351  f :     0.002497
      f+1     :     0.000346
      f-1     :     0.000370
      f+2     :     0.000197
      f-2     :     0.000473
      f+3     :     0.000291
      f-3     :     0.000471
  1 O s       :     3.363307  s :     3.363307
      pz      :     1.323465  p :     4.667823
      px      :     1.674934
      py      :     1.669424
      dz2     :     0.004910  d :     0.016528
      dxz     :     0.006012
      dyz     :     0.002062
      dx2y2   :     0.000479
      dxy     :     0.003064
  2 H s       :     0.682985  s :     0.682985
      pz      :     0.046990  p :     0.177547
      px      :     0.065268
      py      :     0.065288
  3 O s       :     3.363324  s :     3.363324
      pz      :     1.533376  p :     4.667764
      px      :     1.478638
      py      :     1.655751
      dz2     :     0.000554  d :     0.016536
      dxz     :     0.008168
      dyz     :     0.004513
      dx2y2   :     0.000440
      dxy     :     0.002861
  4 H s       :     0.687290  s :     0.687290
      pz      :     0.061907  p :     0.177692
      px      :     0.062089
      py      :     0.053696
  5 O s       :     3.363290  s :     3.363290
      pz      :     1.533508  p :     4.667788
      px      :     1.478573
      py      :     1.655707
      dz2     :     0.000554  d :     0.016534
      dxz     :     0.008170
      dyz     :     0.004510
      dx2y2   :     0.000439
      dxy     :     0.002861
  6 H s       :     0.687294  s :     0.687294
      pz      :     0.061894  p :     0.177693
      px      :     0.062165
      py      :     0.053635
  7 O s       :     3.363300  s :     3.363300
      pz      :     1.323288  p :     4.667820
      px      :     1.674784
      py      :     1.669749
      dz2     :     0.004927  d :     0.016526
      dxz     :     0.005998
      dyz     :     0.002058
      dx2y2   :     0.000479
      dxy     :     0.003064
  8 H s       :     0.682965  s :     0.682965
      pz      :     0.046957  p :     0.177545
      px      :     0.065346
      py      :     0.065243
  9 O s       :     3.363357  s :     3.363357
      pz      :     1.764889  p :     4.667772
      px      :     1.453116
      py      :     1.449767
      dz2     :     0.001918  d :     0.016533
      dxz     :     0.000275
      dyz     :     0.004168
      dx2y2   :     0.007059
      dxy     :     0.003114
 10 H s       :     0.682995  s :     0.682995
      pz      :     0.061361  p :     0.177540
      px      :     0.030688
      py      :     0.085492
 11 O s       :     3.363338  s :     3.363338
      pz      :     1.765709  p :     4.667816
      px      :     1.452950
      py      :     1.449157
      dz2     :     0.001918  d :     0.016532
      dxz     :     0.000271
      dyz     :     0.004155
      dx2y2   :     0.007082
      dxy     :     0.003105
 12 H s       :     0.682998  s :     0.682998
      pz      :     0.061280  p :     0.177543
      px      :     0.030673
      py      :     0.085590
 13 H s       :     0.687302  s :     0.687302
      pz      :     0.044042  p :     0.177689
      px      :     0.092828
      py      :     0.040820
 14 H s       :     0.683009  s :     0.683009
      pz      :     0.056026  p :     0.177539
      px      :     0.063860
      py      :     0.057653
 15 H s       :     0.687308  s :     0.687308
      pz      :     0.044062  p :     0.177693
      px      :     0.092852
      py      :     0.040779
 16 H s       :     0.687288  s :     0.687288
      pz      :     0.089773  p :     0.177696
      px      :     0.046961
      py      :     0.040962
 17 H s       :     0.682996  s :     0.682996
      pz      :     0.056041  p :     0.177542
      px      :     0.063786
      py      :     0.057715
 18 H s       :     0.687263  s :     0.687263
      pz      :     0.089827  p :     0.177700
      px      :     0.046895
      py      :     0.040978

SPIN
  0 Fes       :     0.000000  s :     0.000000
      pz      :     0.000000  p :     0.000000
      px      :     0.000000
      py      :     0.000000
      dz2     :     0.837735  d :     3.870405
      dxz     :     0.976671
      dyz     :     0.731908
      dx2y2   :     0.371413
      dxy     :     0.952679
      f0      :     0.000000  f :     0.000000
      f+1     :     0.000000
      f-1     :     0.000000
      f+2     :     0.000000
      f-2     :     0.000000
      f+3     :     0.000000
      f-3     :     0.000000
  1 O s       :     0.004700  s :     0.004700
      pz      :     0.001848  p :     0.012738
      px      :     0.002662
      py      :     0.008228
      dz2     :     0.000050  d :     0.000733
      dxz     :     0.000053
      dyz     :     0.000192
      dx2y2   :     0.000129
      dxy     :     0.000309
  2 H s       :     0.000934  s :     0.000934
      pz      :     0.000149  p :     0.000826
      px      :     0.000128
      py      :     0.000549
  3 O s       :     0.004700  s :     0.004700
      pz      :     0.007072  p :     0.012732
      px      :     0.002173
      py      :     0.003487
      dz2     :     0.000239  d :     0.000731
      dxz     :     0.000231
      dyz     :     0.000197
      dx2y2   :     0.000022
      dxy     :     0.000042
  4 H s       :     0.000781  s :     0.000781
      pz      :     0.000485  p :     0.000901
      px      :     0.000129
      py      :     0.000286
  5 O s       :     0.004704  s :     0.004704
      pz      :     0.007063  p :     0.012728
      px      :     0.002174
      py      :     0.003490
      dz2     :     0.000239  d :     0.000732
      dxz     :     0.000231
      dyz     :     0.000197
      dx2y2   :     0.000022
      dxy     :     0.000043
  6 H s       :     0.000782  s :     0.000782
      pz      :     0.000485  p :     0.000900
      px      :     0.000129
      py      :     0.000287
  7 O s       :     0.004698  s :     0.004698
      pz      :     0.001845  p :     0.012734
      px      :     0.002659
      py      :     0.008230
      dz2     :     0.000050  d :     0.000733
      dxz     :     0.000053
      dyz     :     0.000193
      dx2y2   :     0.000129
      dxy     :     0.000309
  8 H s       :     0.000935  s :     0.000935
      pz      :     0.000149  p :     0.000826
      px      :     0.000128
      py      :     0.000550
  9 O s       :     0.004698  s :     0.004698
      pz      :     0.002483  p :     0.012710
      px      :     0.006124
      py      :     0.004104
      dz2     :     0.000190  d :     0.000732
      dxz     :     0.000113
      dyz     :     0.000070
      dx2y2   :     0.000128
      dxy     :     0.000230
 10 H s       :     0.000935  s :     0.000935
      pz      :     0.000117  p :     0.000825
      px      :     0.000456
      py      :     0.000251
 11 O s       :     0.004699  s :     0.004699
      pz      :     0.002487  p :     0.012709
      px      :     0.006123
      py      :     0.004099
      dz2     :     0.000191  d :     0.000732
      dxz     :     0.000113
      dyz     :     0.000070
      dx2y2   :     0.000128
      dxy     :     0.000230
 12 H s       :     0.000934  s :     0.000934
      pz      :     0.000118  p :     0.000825
      px      :     0.000456
      py      :     0.000251
 13 H s       :     0.000783  s :     0.000783
      pz      :     0.000175  p :     0.000899
      px      :     0.000377
      py      :     0.000348
 14 H s       :     0.000930  s :     0.000930
      pz      :     0.000470  p :     0.000826
      px      :     0.000122
      py      :     0.000235
 15 H s       :     0.000783  s :     0.000783
      pz      :     0.000175  p :     0.000899
      px      :     0.000376
      py      :     0.000348
 16 H s       :     0.000786  s :     0.000786
      pz      :     0.000082  p :     0.000900
      px      :     0.000183
      py      :     0.000635
 17 H s       :     0.000930  s :     0.000930
      pz      :     0.000469  p :     0.000826
      px      :     0.000122
      py      :     0.000235
 18 H s       :     0.000786  s :     0.000786
      pz      :     0.000082  p :     0.000900
      px      :     0.000183
      py      :     0.000635


                      *****************************
                      * MAYER POPULATION ANALYSIS *
                      *****************************

  NA   - Mulliken gross atomic population
  ZA   - Total nuclear charge
  QA   - Mulliken gross atomic charge
  VA   - Mayer's total valence
  BVA  - Mayer's bonded valence
  FA   - Mayer's free valence

  ATOM       NA         ZA         QA         VA         BVA        FA
  0 Fe    24.6918    26.0000     1.3082     5.1521     1.3050     3.8471
  1 O      8.4195     8.0000    -0.4195     2.0802     2.0801     0.0001
  2 H      0.7275     1.0000     0.2725     0.9535     0.9535     0.0000
  3 O      8.4195     8.0000    -0.4195     2.0802     2.0802     0.0001
  4 H      0.7377     1.0000     0.2623     0.9566     0.9566     0.0000
  5 O      8.4195     8.0000    -0.4195     2.0802     2.0801     0.0001
  6 H      0.7377     1.0000     0.2623     0.9566     0.9566     0.0000
  7 O      8.4195     8.0000    -0.4195     2.0802     2.0801     0.0001
  8 H      0.7274     1.0000     0.2726     0.9535     0.9535     0.0000
  9 O      8.4195     8.0000    -0.4195     2.0802     2.0801     0.0001
 10 H      0.7275     1.0000     0.2725     0.9535     0.9535     0.0000
 11 O      8.4195     8.0000    -0.4195     2.0802     2.0801     0.0001
 12 H      0.7275     1.0000     0.2725     0.9535     0.9535     0.0000
 13 H      0.7378     1.0000     0.2622     0.9566     0.9566     0.0000
 14 H      0.7275     1.0000     0.2725     0.9535     0.9535     0.0000
 15 H      0.7378     1.0000     0.2622     0.9566     0.9566     0.0000
 16 H      0.7377     1.0000     0.2623     0.9566     0.9566     0.0000
 17 H      0.7275     1.0000     0.2725     0.9535     0.9535     0.0000
 18 H      0.7377     1.0000     0.2623     0.9566     0.9566     0.0000

  Mayer bond orders larger than 0.100000
B(  0-Fe,  1-O ) :   0.2069 B(  0-Fe,  3-O ) :   0.2069 B(  0-Fe,  5-O ) :   0.2068 
B(  0-Fe,  7-O ) :   0.2069 B(  0-Fe,  9-O ) :   0.2068 B(  0-Fe, 11-O ) :   0.2067 
B(  1-O ,  2-H ) :   0.9281 B(  1-O , 16-H ) :   0.9359 B(  3-O ,  4-H ) :   0.9359 
B(  3-O , 14-H ) :   0.9281 B(  5-O ,  6-H ) :   0.9359 B(  5-O , 17-H ) :   0.9281 
B(  7-O ,  8-H ) :   0.9281 B(  7-O , 18-H ) :   0.9359 B(  9-O , 10-H ) :   0.9281 
B(  9-O , 13-H ) :   0.9360 B( 11-O , 12-H ) :   0.9281 B( 11-O , 15-H ) :   0.9360 



-------------------------------------------------------------
 Forming the transition density       ... done in 0.001352 sec
-------------------------------------------------------------



==========================================
CASSCF UV, CD spectra and dipole moments
==========================================
-------------------
ABSORPTION SPECTRUM
-------------------

Center of mass           = ( -0.0000,  0.0000, -0.0000)
Nuclear contribution to the dipole moment =     0.002291,    0.001304,   -0.000077 au

Calculating the Dipole integrals                  ... done
Transforming integrals                            ... done
Calculating the Linear Momentum integrals         ... done
Transforming integrals                            ... done
Calculating the Angular Momentum integrals        ... done
Transforming integrals                            ... done

------------------------------------------------------------------------------
                                 DIPOLE MOMENTS
------------------------------------------------------------------------------
  Root  Block           TX        TY        TZ           |T|
                      (Debye)   (Debye)   (Debye)      (Debye)
------------------------------------------------------------------------------
    0    0            0.00172   0.00077   0.00159      0.00246

--------------
CASSCF TIMINGS
--------------

Total time                       ...       36.6 sec
Sum of individual times          ...       29.5 sec ( 80.6%)

Calculation of AO operators
   F(Core) operator              ...        1.1 sec (  2.9%)
   G(Act) operator               ...        1.0 sec (  2.7%)
   J(AO) operators               ...        0.0 sec (  0.0%)
Calculation of MO transformed quantities
   J(MO) operators               ...       26.3 sec ( 71.9%)
   (pq|rs) integrals             ...        0.0 sec (  0.0%)
   AO->MO one electron integrals ...        0.0 sec (  0.0%)
Configuration interaction steps
   CI-setup phase                ...        0.0 sec (  0.0%)
   CI-solution phase             ...        1.0 sec (  2.8%)
   Generation of densities       ...        0.0 sec (  0.1%)
Orbital improvement steps
   Orbital gradient              ...        0.0 sec (  0.1%)
Properties                       ...        0.0 sec (  0.0%)
   SOC integral calculation      ...        0.0 sec (  0.0%)
   SSC RMEs (incl. integrals)    ...        0.0 sec (  0.0%)
   SOC RMEs                      ...        0.0 sec (  0.0%)

Maximum memory used throughout the entire CASSCF-calculation: 79.9 MB

-------------------------   --------------------
FINAL SINGLE POINT ENERGY     -1717.703726871976
-------------------------   --------------------


                            ***************************************
                            *     ORCA property calculations      *
                            ***************************************

                                    ---------------------
                                    Active property flags
                                    ---------------------
   (+) Dipole Moment


------------------------------------------------------------------------------
                       ORCA ELECTRIC PROPERTIES CALCULATION
------------------------------------------------------------------------------

Dipole Moment Calculation                       ... on
Quadrupole Moment Calculation                   ... off
Polarizability Calculation                      ... off
GBWName                                         ... FeH2O62+-cas65-mul5.gbw
Electron density file                           ... FeH2O62+-cas65-mul5.scfp
The origin for moment calculation is the CENTER OF MASS  = (-0.000000,  0.000000  0.000000)

-------------
DIPOLE MOMENT
-------------
                                X             Y             Z
Electronic contribution:     -0.00162      -0.00100       0.00070
Nuclear contribution   :      0.00229       0.00130      -0.00008
                        -----------------------------------------
Total Dipole Moment    :      0.00067       0.00030       0.00063
                        -----------------------------------------
Magnitude (a.u.)       :      0.00097
Magnitude (Debye)      :      0.00246



--------------------
Rotational spectrum 
--------------------
 
Rotational constants in cm-1:     0.057213     0.051955     0.051945 
Rotational constants in MHz :  1715.201752  1557.579206  1557.273951 

 Dipole components along the rotational axes: 
x,y,z [a.u.] :     0.000435    -0.000444     0.000744 
x,y,z [Debye]:     0.001105    -0.001130     0.001891 

 
--------------------------------------------------------------------------
WARNING: There was an error initializing an OpenFabrics device.

  Local host:   cnode08
  Local device: mlx5_0
--------------------------------------------------------------------------
[cnode08:207783] 7 more processes have sent help message help-mpi-btl-openib.txt / error in device init
[cnode08:207783] Set MCA parameter "orte_base_help_aggregate" to 0 to see all help / error messages

Timings for individual modules:

Sum of individual times         ...       43.977 sec (=   0.733 min)
GTO integral calculation        ...        2.681 sec (=   0.045 min)   6.1 %
SCF iterations                  ...        0.691 sec (=   0.012 min)   1.6 %
CASSCF iterations               ...       40.605 sec (=   0.677 min)  92.3 %
                             ****ORCA TERMINATED NORMALLY****
TOTAL RUN TIME: 0 days 0 hours 0 minutes 49 seconds 660 msec

Sender: Unischeduler System <lcz@mgt01>
Subject: Job 125448: <#!/bin/bash
#BSUB -J intel
#BSUB -o FeH2O62+-cas65-mul5.out
#BSUB -n 8
#BSUB -q cqueue
#BSUB -R span[hosts=1]
export LD_LIBRARY_PATH=/apps/software/openmpi-4.1.1/lib:/apps/software/orca_5_0_0:$LD_LIBRARY_PATH
export PATH=/apps/software/openmpi-4.1.1/bin:/apps/software/orca_5_0_0:$PATH
/apps/software/orca_5_0_0/orca FeH2O62+-cas65-mul5.inp >& FeH2O62+-cas65-mul5.out> Done

Job <#!/bin/bash
#BSUB -J intel
#BSUB -o FeH2O62+-cas65-mul5.out
#BSUB -n 8
#BSUB -q cqueue
#BSUB -R span[hosts=1]
export LD_LIBRARY_PATH=/apps/software/openmpi-4.1.1/lib:/apps/software/orca_5_0_0:$LD_LIBRARY_PATH
export PATH=/apps/software/openmpi-4.1.1/bin:/apps/software/orca_5_0_0:$PATH
/apps/software/orca_5_0_0/orca FeH2O62+-cas65-mul5.inp >& FeH2O62+-cas65-mul5.out> was submitted from host <mgt01> by user <lcz>.
Job was executed on host(s) <8*cnode08>, in queue <cqueue>, as user <lcz>.
</apps/users/lcz> was used as the home directory.
</apps/users/lcz/exe9/task5/orca> was used as the working directory.
Started at 2022-04-26 18:09:28
Results reported at 2022-04-26 18:10:19

Your job looked like:

------------------------------------------------------------
# User input
#!/bin/bash
#BSUB -J intel
#BSUB -o FeH2O62+-cas65-mul5.out
#BSUB -n 8
#BSUB -q cqueue
#BSUB -R span[hosts=1]
export LD_LIBRARY_PATH=/apps/software/openmpi-4.1.1/lib:/apps/software/orca_5_0_0:$LD_LIBRARY_PATH
export PATH=/apps/software/openmpi-4.1.1/bin:/apps/software/orca_5_0_0:$PATH
/apps/software/orca_5_0_0/orca FeH2O62+-cas65-mul5.inp >& FeH2O62+-cas65-mul5.out
------------------------------------------------------------

Successfully completed.

Resource usage summary:

    CPU time   :          112.66 sec.
    Max Memory :              1350 MB
    Max Processes  :              14


The output (if any) follows:

