[Molden Format]
[N_ATOMS]
            8
[Atoms]  AU
C     1    6      -2.186061        2.809142        1.071215
H     2    1      -4.200693        2.816180        0.898813
C     3    6      -0.915475        5.017362        1.331738
H     4    1      -1.926912        6.767904        1.365027
H     5    1       1.099156        5.010323        1.504146
N     6    7      -0.796515        0.404192        1.025476
H     7    1      -0.633404       -0.262641        2.786099
H     8    1      -1.734985       -0.845428       -0.036970
[5D7F9G]
[GTO]
    1
    s    8
   0.823600000E+04   0.542430189E-03
   0.123500000E+04   0.419642790E-02
   0.280800000E+03   0.215409141E-01
   0.792700000E+02   0.836149496E-01
   0.255900000E+02   0.239871619E+00
   0.899700000E+01   0.443751820E+00
   0.331900000E+01   0.353579696E+00
   0.364300000E+00  -0.917636608E-02
    s    8
   0.823600000E+04  -0.196392234E-03
   0.123500000E+04  -0.152595027E-02
   0.280800000E+03  -0.789044903E-02
   0.792700000E+02  -0.315148705E-01
   0.255900000E+02  -0.969100083E-01
   0.899700000E+01  -0.220541526E+00
   0.331900000E+01  -0.296069113E+00
   0.364300000E+00   0.104050343E+01
    s    1
   0.905900000E+00   0.100000000E+01
    s    1
   0.128500000E+00   0.100000000E+01
    p    3
   0.187100000E+02   0.394263872E-01
   0.413300000E+01   0.244088985E+00
   0.120000000E+01   0.815492009E+00
    p    1
   0.382700000E+00   0.100000000E+01
    p    1
   0.120900000E+00   0.100000000E+01
    d    1
   0.109700000E+01   0.100000000E+01
    d    1
   0.318000000E+00   0.100000000E+01
    f    1
   0.761000000E+00   0.100000000E+01
 
    2
    s    3
   0.338700000E+02   0.254948632E-01
   0.509500000E+01   0.190362766E+00
   0.115900000E+01   0.852162022E+00
    s    1
   0.325800000E+00   0.100000000E+01
    s    1
   0.102700000E+00   0.100000000E+01
    p    1
   0.140700000E+01   0.100000000E+01
    p    1
   0.388000000E+00   0.100000000E+01
    d    1
   0.105700000E+01   0.100000000E+01
 
    3
    s    8
   0.823600000E+04   0.542430189E-03
   0.123500000E+04   0.419642790E-02
   0.280800000E+03   0.215409141E-01
   0.792700000E+02   0.836149496E-01
   0.255900000E+02   0.239871619E+00
   0.899700000E+01   0.443751820E+00
   0.331900000E+01   0.353579696E+00
   0.364300000E+00  -0.917636608E-02
    s    8
   0.823600000E+04  -0.196392234E-03
   0.123500000E+04  -0.152595027E-02
   0.280800000E+03  -0.789044903E-02
   0.792700000E+02  -0.315148705E-01
   0.255900000E+02  -0.969100083E-01
   0.899700000E+01  -0.220541526E+00
   0.331900000E+01  -0.296069113E+00
   0.364300000E+00   0.104050343E+01
    s    1
   0.905900000E+00   0.100000000E+01
    s    1
   0.128500000E+00   0.100000000E+01
    p    3
   0.187100000E+02   0.394263872E-01
   0.413300000E+01   0.244088985E+00
   0.120000000E+01   0.815492009E+00
    p    1
   0.382700000E+00   0.100000000E+01
    p    1
   0.120900000E+00   0.100000000E+01
    d    1
   0.109700000E+01   0.100000000E+01
    d    1
   0.318000000E+00   0.100000000E+01
    f    1
   0.761000000E+00   0.100000000E+01
 
    4
    s    3
   0.338700000E+02   0.254948632E-01
   0.509500000E+01   0.190362766E+00
   0.115900000E+01   0.852162022E+00
    s    1
   0.325800000E+00   0.100000000E+01
    s    1
   0.102700000E+00   0.100000000E+01
    p    1
   0.140700000E+01   0.100000000E+01
    p    1
   0.388000000E+00   0.100000000E+01
    d    1
   0.105700000E+01   0.100000000E+01
 
    5
    s    3
   0.338700000E+02   0.254948632E-01
   0.509500000E+01   0.190362766E+00
   0.115900000E+01   0.852162022E+00
    s    1
   0.325800000E+00   0.100000000E+01
    s    1
   0.102700000E+00   0.100000000E+01
    p    1
   0.140700000E+01   0.100000000E+01
    p    1
   0.388000000E+00   0.100000000E+01
    d    1
   0.105700000E+01   0.100000000E+01
 
    6
    s    8
   0.114200000E+05   0.534980914E-03
   0.171200000E+04   0.413766310E-02
   0.389300000E+03   0.212509149E-01
   0.110000000E+03   0.825762988E-01
   0.355700000E+02   0.238413273E+00
   0.125400000E+02   0.443431666E+00
   0.464400000E+01   0.355431909E+00
   0.511800000E+00  -0.870290176E-02
    s    8
   0.114200000E+05  -0.198776985E-03
   0.171200000E+04  -0.154700349E-02
   0.389300000E+03  -0.799256330E-02
   0.110000000E+03  -0.320255651E-01
   0.355700000E+02  -0.991102048E-01
   0.125400000E+02  -0.228292775E+00
   0.464400000E+01  -0.298182763E+00
   0.511800000E+00   0.103700052E+01
    s    1
   0.129300000E+01   0.100000000E+01
    s    1
   0.178700000E+00   0.100000000E+01
    p    3
   0.266300000E+02   0.398072123E-01
   0.594800000E+01   0.249002660E+00
   0.174200000E+01   0.810479727E+00
    p    1
   0.555000000E+00   0.100000000E+01
    p    1
   0.172500000E+00   0.100000000E+01
    d    1
   0.165400000E+01   0.100000000E+01
    d    1
   0.469000000E+00   0.100000000E+01
    f    1
   0.109300000E+01   0.100000000E+01
 
    7
    s    3
   0.338700000E+02   0.254948632E-01
   0.509500000E+01   0.190362766E+00
   0.115900000E+01   0.852162022E+00
    s    1
   0.325800000E+00   0.100000000E+01
    s    1
   0.102700000E+00   0.100000000E+01
    p    1
   0.140700000E+01   0.100000000E+01
    p    1
   0.388000000E+00   0.100000000E+01
    d    1
   0.105700000E+01   0.100000000E+01
 
    8
    s    3
   0.338700000E+02   0.254948632E-01
   0.509500000E+01   0.190362766E+00
   0.115900000E+01   0.852162022E+00
    s    1
   0.325800000E+00   0.100000000E+01
    s    1
   0.102700000E+00   0.100000000E+01
    p    1
   0.140700000E+01   0.100000000E+01
    p    1
   0.388000000E+00   0.100000000E+01
    d    1
   0.105700000E+01   0.100000000E+01
 
[MO]
 Sym= A   
 Ene=       -11.160531
 Spin= Alpha
 Occup=       2.000000
   1        0.001026533
   2        0.011124731
   3        0.002061466
   4        0.001843900
   5        0.003480748
   6        0.006242118
   7        0.001269822
   8        0.004968361
   9        0.008380248
  10        0.001783175
  11        0.001585073
  12        0.001681121
  13        0.000880175
  14       -0.000548772
  15        0.000125767
  16        0.000196317
  17       -0.000368103
  18        0.000784972
  19        0.000122537
  20        0.000100357
  21        0.000296053
  22       -0.000990349
  23        0.002061726
  24       -0.000081424
  25       -0.000102749
  26       -0.000213127
  27       -0.000075714
  28        0.000096886
  29       -0.000606602
  30       -0.000063801
  31       -0.000395016
  32       -0.000373526
  33       -0.000316432
  34       -0.000064020
  35        0.000139197
  36        0.000013421
  37        0.000097552
  38        0.000580590
  39        0.000100210
  40        0.000014621
  41        0.000004781
  42        0.000017602
  43       -0.000085087
  44        0.000151360
  45       -0.976881990
  46        0.031691888
  47       -0.034695665
  48        0.011138359
  49       -0.000293320
  50       -0.000929007
  51        0.000351127
  52        0.001575160
  53        0.002831999
  54        0.001176544
  55        0.000241140
  56        0.001107324
  57        0.000781670
  58       -0.000256094
  59        0.000017440
  60        0.000011657
  61       -0.000035702
  62        0.000060476
  63       -0.001589639
  64        0.000202030
  65       -0.000125097
  66        0.000766334
  67       -0.001408877
  68       -0.000018919
  69        0.000020704
  70        0.000016899
  71       -0.000019387
  72        0.000016312
  73       -0.000100104
  74        0.000007178
  75        0.006396914
  76        0.004732411
  77        0.001212291
  78        0.000458649
  79       -0.000820600
  80       -0.000004888
  81       -0.000104720
  82        0.000769120
  83        0.000111793
  84       -0.000090475
  85       -0.000009794
  86       -0.000009996
  87       -0.000128890
  88       -0.000234285
  89        0.006540426
  90        0.005249204
  91        0.001496054
  92       -0.000964332
  93       -0.000016627
  94       -0.000071860
  95        0.000592680
  96        0.000354326
  97        0.000118845
  98       -0.000080383
  99        0.000032669
 100       -0.000012397
 101        0.000280124
 102       -0.000004682
 103        0.000624214
 104       -0.000800602
 105       -0.000195426
 106       -0.002158572
 107        0.000726317
 108       -0.000599165
 109       -0.000268166
 110        0.001152611
 111       -0.000195461
 112       -0.000728233
 113        0.000610635
 114       -0.000999294
 115       -0.000740155
 116       -0.000034677
 117       -0.000008099
 118        0.000034307
 119       -0.000063078
 120        0.000052117
 121       -0.000103562
 122        0.000013924
 123        0.000118725
 124       -0.000244739
 125        0.000294910
 126       -0.000045180
 127       -0.000034501
 128        0.000042946
 129       -0.000017516
 130        0.000006135
 131       -0.000099125
 132       -0.000077243
 133       -0.000241953
 134        0.000844325
 135        0.000167001
 136        0.000019922
 137       -0.000035906
 138       -0.000033776
 139       -0.000040639
 140        0.000279166
 141       -0.000470024
 142        0.000063968
 143        0.000009309
 144       -0.000052966
 145       -0.000029865
 146       -0.000016080
 147        0.000153593
 148        0.000567863
 149        0.000484523
 150        0.000056665
 151       -0.000012309
 152        0.000012076
 153        0.000096655
 154       -0.000039151
 155        0.000064026
 156        0.000020660
 157        0.000045912
 158        0.000009973
 159        0.000033502
 160        0.000041990
 Sym= A   
 Ene=        -0.703683
 Spin= Alpha
 Occup=       2.000000
   1        0.001265570
   2        0.031447013
   3        0.006498424
   4        0.055247443
   5        0.013107033
   6        0.008685423
   7        0.001919874
   8        0.018304988
   9        0.017012383
  10        0.002657028
  11       -0.000098237
  12        0.041879270
  13        0.003123408
  14        0.000000617
  15        0.000829832
  16       -0.000054372
  17        0.005975526
  18        0.004503969
  19       -0.002270736
  20        0.001867680
  21        0.000573302
  22        0.009553041
  23        0.005777371
  24       -0.000277757
  25       -0.000620924
  26       -0.000890965
  27        0.000206962
  28        0.000614878
  29       -0.000708636
  30        0.002941502
  31        0.007007975
  32        0.010296152
  33        0.010645299
  34        0.000080784
  35       -0.000493931
  36       -0.000016754
  37        0.000298466
  38       -0.001793656
  39       -0.000067398
  40        0.000168942
  41       -0.000055589
  42       -0.000122316
  43        0.000133640
  44       -0.000880064
  45       -0.030817457
  46       -0.259365929
  47       -0.054370782
  48       -0.165583690
  49        0.097231257
  50       -0.172496090
  51       -0.004156426
  52        0.117583414
  53       -0.213924496
  54       -0.005856525
  55        0.071365269
  56       -0.077734118
  57       -0.000246164
  58        0.007654452
  59        0.000382908
  60       -0.000496986
  61        0.006889230
  62        0.012542865
  63        0.015127697
  64        0.000166453
  65       -0.001355391
  66        0.008189680
  67        0.017922615
  68        0.000110460
  69       -0.001443795
  70        0.002522459
  71        0.000098150
  72        0.000272053
  73       -0.004196671
  74        0.001192378
  75       -0.193047810
  76       -0.259165485
  77       -0.089448323
  78       -0.008335239
  79        0.014989927
  80        0.000298180
  81       -0.005943345
  82        0.007151862
  83       -0.000187670
  84        0.001684798
  85        0.000068665
  86       -0.000077696
  87        0.001629686
  88        0.002688398
  89        0.015044730
  90        0.050224751
  91        0.025977748
  92       -0.000649062
  93       -0.003361660
  94       -0.000325970
  95       -0.006053165
  96       -0.007600259
  97       -0.000877869
  98       -0.000506666
  99        0.000286718
 100        0.000133838
 101        0.000881179
 102        0.001843502
 103       -0.000042722
 104       -0.014776763
 105       -0.004126151
 106       -0.004129892
 107        0.006217952
 108       -0.009532019
 109       -0.000331362
 110        0.008953155
 111       -0.014731681
 112       -0.000410615
 113       -0.001944291
 114       -0.015526485
 115        0.002801710
 116       -0.000020447
 117        0.000108793
 118        0.000005692
 119       -0.000458039
 120        0.000545425
 121       -0.000313520
 122        0.000505071
 123        0.000892828
 124       -0.003256319
 125        0.002091149
 126        0.000039084
 127       -0.000075014
 128       -0.000270737
 129       -0.000003638
 130       -0.000177306
 131        0.000015027
 132       -0.000582432
 133        0.000639856
 134       -0.004141890
 135        0.002691961
 136        0.000140720
 137       -0.000294197
 138        0.000165482
 139        0.001277109
 140       -0.001840597
 141        0.001531564
 142       -0.000108466
 143       -0.000150707
 144        0.000175337
 145        0.000127511
 146       -0.000009869
 147        0.001946533
 148       -0.001372468
 149        0.009746877
 150        0.000013210
 151       -0.000505428
 152       -0.000068666
 153       -0.000685907
 154       -0.001870785
 155       -0.001922571
 156       -0.000081527
 157       -0.000083927
 158       -0.000167840
 159        0.000051958
 160       -0.000155228
 Sym= A   
 Ene=        -0.839010
 Spin= Alpha
 Occup=       2.000000
   1        0.032062863
   2        0.283839641
   3        0.060273712
   4        0.094596752
   5        0.101828042
   6        0.161223624
   7        0.061071171
   8        0.110430076
   9        0.184190805
  10        0.080034653
  11        0.045062158
  12        0.055872385
  13        0.053344041
  14       -0.007495080
  15        0.002978971
  16        0.004974223
  17       -0.007951737
  18        0.014961217
  19       -0.003586877
  20        0.005473001
  21        0.006509537
  22       -0.002916063
  23        0.016173224
  24       -0.002109222
  25       -0.000964444
  26       -0.002730311
  27       -0.001451094
  28        0.001775279
  29       -0.008092399
  30       -0.000828957
  31       -0.017366471
  32       -0.058160443
  33       -0.031080321
  34       -0.001765521
  35        0.002964938
  36        0.001029904
  37       -0.009514397
  38        0.005851088
  39        0.002669295
  40        0.000485591
  41        0.000320319
  42        0.000310458
  43       -0.001762095
  44        0.001866546
  45        0.033265728
  46        0.263582720
  47        0.053927366
  48        0.079142460
  49       -0.096385138
  50       -0.172142005
  51        0.018060207
  52       -0.103333687
  53       -0.186617693
  54        0.030548490
  55       -0.039566891
  56       -0.060764413
  57        0.034341031
  58       -0.009250136
  59        0.000193851
  60        0.000562207
  61       -0.008850405
  62        0.014563199
  63       -0.009114060
  64       -0.000875109
  65       -0.002951812
  66       -0.003069470
  67        0.011341967
  68       -0.000324214
  69        0.001648295
  70        0.002881968
  71        0.000597455
  72       -0.000489162
  73        0.008996043
  74        0.000595148
  75       -0.016859235
  76       -0.055627263
  77       -0.032442207
  78       -0.003639178
  79        0.000084419
  80        0.000662649
  81       -0.008869627
  82        0.005540986
  83        0.002463746
  84        0.000515003
  85        0.000174470
  86       -0.000273788
  87       -0.000456097
  88        0.002286947
  89       -0.013843263
  90       -0.055729562
  91       -0.031453021
  92        0.001387548
  93       -0.003433481
  94        0.000887403
  95        0.011076697
  96       -0.005779394
  97        0.002829458
  98        0.000388027
  99       -0.000478934
 100        0.000164750
 101       -0.001675265
 102        0.002014762
 103        0.001279514
 104       -0.018019348
 105       -0.003955864
 106       -0.050598801
 107        0.002435022
 108       -0.013374409
 109        0.001383843
 110        0.006126172
 111       -0.017580865
 112       -0.001189775
 113       -0.007782168
 114       -0.033230925
 115       -0.007166401
 116       -0.000440701
 117       -0.000392484
 118        0.001324882
 119       -0.002444523
 120        0.001399472
 121       -0.000096786
 122       -0.000488603
 123        0.003813803
 124       -0.002784994
 125        0.005306197
 126       -0.000538037
 127       -0.000580567
 128        0.000490206
 129       -0.000491054
 130       -0.000496898
 131       -0.000874079
 132       -0.001351977
 133       -0.001769936
 134        0.006111521
 135       -0.003778769
 136       -0.000160435
 137       -0.000356070
 138       -0.000170392
 139       -0.000457042
 140        0.001403911
 141       -0.003971884
 142        0.000379030
 143        0.000147622
 144       -0.000128872
 145       -0.000401257
 146       -0.000249694
 147        0.007793513
 148        0.015669431
 149        0.019945963
 150        0.000802063
 151       -0.000740429
 152        0.000410618
 153        0.001189086
 154       -0.002564288
 155        0.000642588
 156        0.000314858
 157        0.000721977
 158       -0.000058839
 159        0.000496058
 160        0.000416872
 Sym= A   
 Ene=        -0.815648
 Spin= Alpha
 Occup=       2.000000
   1       -0.000314649
   2        0.022511451
   3        0.003989681
   4        0.052083291
   5        0.007989914
   6       -0.013355084
   7        0.001986851
   8        0.015042289
   9       -0.021287186
  10        0.003534872
  11        0.014876275
  12       -0.010722341
  13       -0.010141683
  14        0.000362203
  15        0.001082886
  16       -0.003753198
  17        0.005533925
  18       -0.003237533
  19       -0.001750504
  20        0.002433120
  21       -0.006524035
  22        0.004092080
  23       -0.009030850
  24       -0.000859661
  25       -0.000809236
  26       -0.000053669
  27       -0.000569253
  28       -0.000934031
  29       -0.001015458
  30       -0.002681704
  31        0.007138313
  32        0.017897224
  33        0.013436689
  34        0.000307150
  35        0.000290858
  36       -0.000106383
  37        0.001939924
  38       -0.002246114
  39        0.000494551
  40        0.000024191
  41        0.000016563
  42       -0.000076289
  43        0.000144566
  44        0.000185777
  45        0.000094183
  46       -0.014782462
  47       -0.003124182
  48       -0.044922310
  49        0.005106303
  50        0.009159437
  51       -0.007394967
  52        0.006051264
  53        0.012936721
  54       -0.010153838
  55        0.001902206
  56        0.017173019
  57       -0.009829132
  58        0.000006156
  59        0.000077333
  60        0.000156833
  61       -0.000914154
  62       -0.001280097
  63        0.000709299
  64       -0.000688079
  65        0.000454207
  66       -0.005239055
  67       -0.002047517
  68        0.000171761
  69       -0.000153588
  70        0.000272464
  71        0.000135824
  72       -0.000029816
  73       -0.000392117
  74        0.001175699
  75        0.003491722
  76        0.008176599
  77        0.009108917
  78        0.000421478
  79        0.000142658
  80       -0.000224218
  81       -0.000276494
  82       -0.000411482
  83       -0.000811391
  84       -0.000109856
  85       -0.000011988
  86        0.000108551
  87        0.000184318
  88       -0.000098791
  89       -0.000702205
  90        0.003713305
  91        0.006891701
  92        0.000099346
  93       -0.000105074
  94       -0.000243467
  95       -0.001639885
  96        0.000339867
  97       -0.000516992
  98        0.000109254
  99        0.000070736
 100        0.000004487
 101        0.000176646
 102        0.000050450
 103       -0.029490788
 104       -0.227265666
 105       -0.055439213
 106       -0.086156774
 107        0.116892881
 108        0.144156444
 109        0.122981227
 110        0.146944066
 111        0.179289266
 112        0.140659709
 113        0.092473771
 114        0.085378301
 115        0.056270823
 116        0.002005880
 117       -0.005734140
 118       -0.006231855
 119        0.000119450
 120       -0.008834827
 121        0.002358240
 122       -0.009583135
 123       -0.002617728
 124       -0.003635226
 125       -0.011927746
 126       -0.001769178
 127        0.001074459
 128        0.001773082
 129        0.000223183
 130        0.001197196
 131       -0.001166935
 132       -0.001559648
 133        0.014274248
 134        0.060954122
 135        0.028486550
 136        0.002485884
 137        0.004334199
 138       -0.000400039
 139        0.006552023
 140        0.013988532
 141       -0.007638430
 142        0.001315994
 143       -0.000734706
 144       -0.002698403
 145       -0.000908310
 146       -0.000037551
 147       -0.192743784
 148       -0.279443874
 149       -0.080857776
 150       -0.010074414
 151       -0.013933818
 152       -0.011857459
 153       -0.011064156
 154       -0.017893961
 155       -0.019580234
 156       -0.000260362
 157       -0.003667310
 158       -0.004510713
 159        0.001255046
 160       -0.003682597
 Sym= A   
 Ene=        -0.515635
 Spin= Alpha
 Occup=       2.000000
   1        0.003979954
   2        0.031612724
   3        0.009220795
   4       -0.038112372
   5       -0.002475613
   6       -0.016162404
   7        0.014724437
   8       -0.010685056
   9       -0.018906540
  10        0.017567948
  11       -0.020720578
  12       -0.015948418
  13        0.003563588
  14       -0.000020549
  15        0.001759771
  16       -0.004343336
  17       -0.008754933
  18        0.007710006
  19        0.004304533
  20        0.003192315
  21       -0.008932493
  22       -0.007568370
  23        0.007933000
  24       -0.001103399
  25        0.001773532
  26        0.000746484
  27       -0.000517755
  28       -0.001644273
  29        0.000269305
  30        0.005385966
  31       -0.010413156
  32       -0.040603250
  33       -0.041148062
  34       -0.000172179
  35       -0.001581430
  36        0.000259657
  37       -0.002714653
  38       -0.002795779
  39       -0.000888284
  40       -0.000150345
  41       -0.000046659
  42       -0.000289705
  43       -0.000250683
  44       -0.001502443
  45       -0.000411422
  46        0.022680614
  47        0.004946190
  48        0.097193513
  49        0.000452768
  50       -0.010579333
  51       -0.018228532
  52       -0.005112548
  53       -0.019381651
  54       -0.025445804
  55        0.012314042
  56       -0.010297376
  57       -0.037118363
  58        0.000054921
  59        0.000115015
  60       -0.000516526
  61        0.000002771
  62        0.001985881
  63       -0.000545084
  64        0.000180973
  65        0.002301021
  66       -0.000923661
  67       -0.001386013
  68        0.000246488
  69        0.000143340
  70       -0.000541313
  71       -0.000367392
  72       -0.000366054
  73        0.000266219
  74       -0.001177708
  75       -0.004324832
  76       -0.017702842
  77       -0.013287955
  78       -0.000109208
  79        0.000091379
  80       -0.000631853
  81       -0.001523815
  82        0.002811214
  83       -0.002298976
  84        0.000133682
  85       -0.000274302
  86        0.000356932
  87       -0.000050634
  88        0.000058497
  89        0.000516164
  90       -0.000525679
  91       -0.040963116
  92       -0.000810409
  93        0.000214122
  94       -0.000655962
  95        0.001121144
  96        0.003277492
  97       -0.000331318
  98       -0.000071300
  99        0.000143519
 100       -0.000115803
 101        0.000164460
 102       -0.000424417
 103        0.000383613
 104       -0.299605107
 105       -0.077037714
 106       -0.233964621
 107       -0.252037777
 108       -0.044014515
 109        0.104351947
 110       -0.325039448
 111       -0.059066117
 112        0.134913249
 113       -0.325775047
 114       -0.028057864
 115        0.127905213
 116       -0.001510973
 117       -0.003109052
 118       -0.000363878
 119        0.003107494
 120        0.001473302
 121       -0.004523459
 122       -0.009687251
 123        0.001720014
 124        0.013833680
 125       -0.001467290
 126        0.000800450
 127       -0.000394870
 128        0.000534910
 129       -0.002373873
 130       -0.000997132
 131        0.001532595
 132        0.002104382
 133        0.005012807
 134        0.021257935
 135        0.019146531
 136       -0.008101635
 137       -0.000532624
 138        0.002435570
 139       -0.019623537
 140       -0.007818269
 141        0.004443871
 142       -0.000681646
 143        0.003572598
 144        0.001150186
 145        0.000123054
 146       -0.001024400
 147        0.008340516
 148        0.023444155
 149        0.016926556
 150       -0.007261983
 151        0.000024551
 152        0.003848847
 153       -0.016090778
 154       -0.007100496
 155        0.012794661
 156        0.002711853
 157       -0.000217480
 158        0.000974298
 159       -0.001440522
 160       -0.002187448
 Sym= A   
 Ene=        -0.819447
 Spin= Alpha
 Occup=       2.000000
   1        0.026721448
   2        0.218182443
   3        0.045639723
   4        0.075765267
   5        0.086811592
   6       -0.159504370
   7       -0.002520331
   8        0.112594512
   9       -0.204026423
  10       -0.003088368
  11        0.026837247
  12       -0.062896684
  13        0.001749221
  14       -0.008726906
  15       -0.000452025
  16        0.000096336
  17       -0.009466193
  18       -0.014196810
  19       -0.013549600
  20       -0.000288934
  21       -0.000828518
  22       -0.019243370
  23       -0.024448694
  24        0.000201341
  25       -0.002161724
  26        0.004149727
  27        0.000269286
  28        0.000141932
  29       -0.007581614
  30        0.001265672
  31       -0.021295918
  32       -0.046626154
  33       -0.035304102
  34       -0.002012721
  35       -0.002604868
  36       -0.000274190
  37       -0.000406030
  38       -0.008580785
  39       -0.001000073
  40       -0.000083252
  41       -0.000227293
  42       -0.000163829
  43       -0.000781166
  44       -0.002090142
  45       -0.002843430
  46       -0.032029086
  47       -0.005933733
  48       -0.012533695
  49        0.011079485
  50        0.016422082
  51       -0.000479947
  52        0.010152728
  53        0.022857143
  54       -0.000920155
  55       -0.000246217
  56        0.022965958
  57       -0.004362829
  58        0.000635851
  59       -0.000788255
  60       -0.000244014
  61       -0.004202561
  62       -0.004410787
  63        0.003301659
  64       -0.001717113
  65        0.000001249
  66       -0.011338397
  67       -0.007989182
  68       -0.000094458
  69       -0.000142511
  70       -0.000282466
  71        0.000039271
  72        0.000616220
  73       -0.002164300
  74        0.003087183
  75        0.009220027
  76        0.010949415
  77        0.017885204
  78        0.001030793
  79        0.000172838
  80        0.000013031
  81        0.000118251
  82        0.004462494
  83        0.000107797
  84        0.000307956
  85        0.000002463
  86       -0.000144649
  87        0.001217598
  88       -0.000611588
  89       -0.006847847
  90       -0.004483589
  91       -0.017009487
  92       -0.000440191
  93       -0.000415525
  94       -0.000184269
  95       -0.001818505
  96        0.002252835
  97       -0.000153369
  98       -0.000058236
  99        0.000126753
 100       -0.000004357
 101        0.000364304
 102        0.000350893
 103        0.029831663
 104        0.222203121
 105        0.049691534
 106        0.089572138
 107       -0.107202697
 108        0.181276285
 109        0.003805233
 110       -0.145003422
 111        0.234554976
 112        0.007256510
 113       -0.091119072
 114        0.124575505
 115        0.009345183
 116       -0.006067554
 117       -0.001186037
 118        0.001229996
 119       -0.002422423
 120       -0.010396259
 121       -0.012209670
 122       -0.002998008
 123        0.002770204
 124       -0.002626632
 125       -0.021928131
 126        0.000773384
 127        0.001492941
 128       -0.003571041
 129       -0.000892697
 130       -0.000155138
 131        0.006002653
 132       -0.000547212
 133       -0.014806909
 134       -0.041272957
 135       -0.027128143
 136       -0.002817743
 137        0.004105602
 138        0.002710596
 139       -0.006980002
 140        0.008322988
 141        0.006141832
 142       -0.002649180
 143        0.000890172
 144       -0.000783200
 145       -0.000333756
 146       -0.000633211
 147       -0.014913320
 148       -0.041497779
 149       -0.029664054
 150       -0.004378132
 151        0.003278362
 152       -0.001370259
 153       -0.009589776
 154        0.006114533
 155       -0.002579071
 156       -0.000416654
 157       -0.002004452
 158       -0.000224182
 159       -0.001638977
 160       -0.001131695
 Sym= A   
 Ene=        -0.812150
 Spin= Alpha
 Occup=       2.000000
   1        0.001146446
   2       -0.021411305
   3       -0.003923927
   4       -0.043044172
   5       -0.009065258
   6        0.011919971
   7        0.007891184
   8       -0.017669949
   9        0.021225557
  10        0.010329062
  11       -0.020390103
  12        0.009818038
  13       -0.015632410
  14       -0.000464758
  15        0.002379992
  16       -0.006668864
  17       -0.001485932
  18        0.000205937
  19        0.000640407
  20        0.003668111
  21       -0.014042870
  22        0.004697219
  23        0.005285773
  24       -0.001478407
  25        0.000566444
  26       -0.000219763
  27       -0.001140914
  28       -0.002125331
  29        0.000636360
  30        0.000555114
  31        0.000922589
  32       -0.006828143
  33       -0.001982620
  34       -0.000129443