
                                        *****************
                                        * O   R   C   A *
                                        *****************

                                            #,                                       
                                            ###                                      
                                            ####                                     
                                            #####                                    
                                            ######                                   
                                           ########,                                 
                                     ,,################,,,,,                         
                               ,,#################################,,                 
                          ,,##########################################,,             
                       ,#########################################, ''#####,          
                    ,#############################################,,   '####,        
                  ,##################################################,,,,####,       
                ,###########''''           ''''###############################       
              ,#####''   ,,,,##########,,,,          '''####'''          '####       
            ,##' ,,,,###########################,,,                        '##       
           ' ,,###''''                  '''############,,,                           
         ,,##''                                '''############,,,,        ,,,,,,###''
      ,#''                                            '''#######################'''  
     '                                                          ''''####''''         
             ,#######,   #######,   ,#######,      ##                                
            ,#'     '#,  ##    ##  ,#'     '#,    #''#        ######   ,####,        
            ##       ##  ##   ,#'  ##            #'  '#       #        #'  '#        
            ##       ##  #######   ##           ,######,      #####,   #    #        
            '#,     ,#'  ##    ##  '#,     ,#' ,#      #,         ##   #,  ,#        
             '#######'   ##     ##  '#######'  #'      '#     #####' # '####'        



                  #######################################################
                  #                        -***-                        #
                  #          Department of theory and spectroscopy      #
                  #    Directorship and core code : Frank Neese         #
                  #        Max Planck Institute fuer Kohlenforschung    #
                  #                Kaiser Wilhelm Platz 1               #
                  #                 D-45470 Muelheim/Ruhr               #
                  #                      Germany                        #
                  #                                                     #
                  #                  All rights reserved                #
                  #                        -***-                        #
                  #######################################################


                         Program Version 5.0.0 -  RELEASE  -
                                (SVN: $Rev: 19529$)
                ($Date: 2021-06-28 11:36:33 +0200 (Mo, 28 Jun 2021) $)


 With contributions from (in alphabetic order):
   Daniel Aravena         : Magnetic Suceptibility
   Michael Atanasov       : Ab Initio Ligand Field Theory (pilot matlab implementation)
   Alexander A. Auer      : GIAO ZORA, VPT2 properties, NMR spectrum
   Ute Becker             : Parallelization
   Giovanni Bistoni       : ED, misc. LED, open-shell LED, HFLD
   Martin Brehm           : Molecular dynamics
   Dmytro Bykov           : SCF Hessian
   Vijay G. Chilkuri      : MRCI spin determinant printing, contributions to CSF-ICE
   Dipayan Datta          : RHF DLPNO-CCSD density
   Achintya Kumar Dutta   : EOM-CC, STEOM-CC
   Dmitry Ganyushin       : Spin-Orbit,Spin-Spin,Magnetic field MRCI
   Miquel Garcia          : C-PCM Hessian, Gaussian charge scheme
   Yang Guo               : DLPNO-NEVPT2, F12-NEVPT2, CIM, IAO-localization
   Andreas Hansen         : Spin unrestricted coupled pair/coupled cluster methods
   Benjamin Helmich-Paris : MC-RPA, TRAH-SCF, COSX integrals
   Lee Huntington         : MR-EOM, pCC
   Robert Izsak           : Overlap fitted RIJCOSX, COSX-SCS-MP3, EOM
   Marcus Kettner         : VPT2
   Christian Kollmar      : KDIIS, OOCD, Brueckner-CCSD(T), CCSD density, CASPT2, CASPT2-K
   Simone Kossmann        : Meta GGA functionals, TD-DFT gradient, OOMP2, MP2 Hessian
   Martin Krupicka        : Initial AUTO-CI
   Lucas Lang             : DCDCAS
   Marvin Lechner         : AUTO-CI (C++ implementation), FIC-MRCC
   Dagmar Lenk            : GEPOL surface, SMD
   Dimitrios Liakos       : Extrapolation schemes; Compound Job, initial MDCI parallelization
   Dimitrios Manganas     : Further ROCIS development; embedding schemes
   Dimitrios Pantazis     : SARC Basis sets
   Anastasios Papadopoulos: AUTO-CI, single reference methods and gradients
   Taras Petrenko         : DFT Hessian,TD-DFT gradient, ASA, ECA, R-Raman, ABS, FL, XAS/XES, NRVS
   Peter Pinski           : DLPNO-MP2, DLPNO-MP2 Gradient
   Christoph Reimann      : Effective Core Potentials
   Marius Retegan         : Local ZFS, SOC
   Christoph Riplinger    : Optimizer, TS searches, QM/MM, DLPNO-CCSD(T), (RO)-DLPNO pert. Triples
   Tobias Risthaus        : Range-separated hybrids, TD-DFT gradient, RPA, STAB
   Michael Roemelt        : Original ROCIS implementation
   Masaaki Saitow         : Open-shell DLPNO-CCSD energy and density
   Barbara Sandhoefer     : DKH picture change effects
   Avijit Sen             : IP-ROCIS
   Kantharuban Sivalingam : CASSCF convergence, NEVPT2, FIC-MRCI
   Bernardo de Souza      : ESD, SOC TD-DFT
   Georgi Stoychev        : AutoAux, RI-MP2 NMR
   Willem Van den Heuvel  : Paramagnetic NMR
   Boris Wezisla          : Elementary symmetry handling
   Frank Wennmohs         : Technical directorship


 We gratefully acknowledge several colleagues who have allowed us to
 interface, adapt or use parts of their codes:
   Stefan Grimme, W. Hujo, H. Kruse, P. Pracht,  : VdW corrections, initial TS optimization,
                  C. Bannwarth, S. Ehlert          DFT functionals, gCP, sTDA/sTD-DF
   Ed Valeev, F. Pavosevic, A. Kumar             : LibInt (2-el integral package), F12 methods
   Garnet Chan, S. Sharma, J. Yang, R. Olivares  : DMRG
   Ulf Ekstrom                                   : XCFun DFT Library
   Mihaly Kallay                                 : mrcc  (arbitrary order and MRCC methods)
   Jiri Pittner, Ondrej Demel                    : Mk-CCSD
   Frank Weinhold                                : gennbo (NPA and NBO analysis)
   Christopher J. Cramer and Donald G. Truhlar   : smd solvation model
   Lars Goerigk                                  : TD-DFT with DH, B97 family of functionals
   V. Asgeirsson, H. Jonsson                     : NEB implementation
   FAccTs GmbH                                   : IRC, NEB, NEB-TS, DLPNO-Multilevel, CI-OPT
                                                   MM, QMMM, 2- and 3-layer-ONIOM, Crystal-QMMM,
                                                   LR-CPCM, SF, NACMEs, symmetry and pop. for TD-DFT,
                                                   nearIR, NL-DFT gradient (VV10), updates on ESD,
                                                   ML-optimized integration grids
   S Lehtola, MJT Oliveira, MAL Marques          : LibXC Library
   Liviu Ungur et al                             : ANISO software


 Your calculation uses the libint2 library for the computation of 2-el integrals
 For citations please refer to: http://libint.valeyev.net

 Your ORCA version has been built with support for libXC version: 5.1.0
 For citations please refer to: https://tddft.org/programs/libxc/

 This ORCA versions uses:
   CBLAS   interface :  Fast vector & matrix operations
   LAPACKE interface :  Fast linear algebra routines
   SCALAPACK package :  Parallel linear algebra routines
   Shared memory     :  Shared parallel matrices
   BLAS/LAPACK       :  OpenBLAS 0.3.15  USE64BITINT DYNAMIC_ARCH NO_AFFINITY SkylakeX SINGLE_THREADED
        Core in use  :  SkylakeX
   Copyright (c) 2011-2014, The OpenBLAS Project


================================================================================

----- Orbital basis set information -----
Your calculation utilizes the basis: aug-cc-pVQZ 
    H, B-Ne : Obtained from the ccRepo (grant-hill.group.shef.ac.uk/ccrepo) Feb. 2017
              R. A. Kendall, T. H. Dunning, Jr., R. J. Harrison, J. Chem. Phys. 96, 6796 (1992)
         He : Obtained from the ccRepo (grant-hill.group.shef.ac.uk/ccrepo) Feb. 2017
              D. E. Woon, T. H. Dunning, Jr., J. Chem. Phys. 100, 2975 (1994)
  Li-Be, Na : Obtained from the ccRepo (grant-hill.group.shef.ac.uk/ccrepo) Feb. 2017
              B. P. Prascher, D. E. Woon, K. A. Peterson, T. H. Dunning, Jr., A. K. Wilson, Theor. Chem. Acc. 128, 69 (2011)
         Mg : Obtained from the Peterson Research Group Website (tyr0.chem.wsu.edu/~kipeters) Feb. 2017
              B. P. Prascher, D. E. Woon, K. A. Peterson, T. H. Dunning, Jr., A. K. Wilson, Theor. Chem. Acc. 128, 69 (2011)
      Al-Ar : Obtained from the ccRepo (grant-hill.group.shef.ac.uk/ccrepo) Feb. 2017
              D. E. Woon, T. H. Dunning, Jr., J. Chem. Phys. 98, 1358 (1993)
      Sc-Zn : Obtained from the ccRepo (grant-hill.group.shef.ac.uk/ccrepo) Feb. 2017
              N. B. Balabanov, K. A. Peterson, J. Chem. Phys. 123, 064107 (2005)
              N. B. Balabanov, K. A. Peterson, J. Chem. Phys. 125, 074110 (2006)
      Ga-Kr : Obtained from the ccRepo (grant-hill.group.shef.ac.uk/ccrepo) Feb. 2017
              A. K. Wilson, D. E. Woon, K. A. Peterson, T. H. Dunning, Jr., J. Chem. Phys. 110, 7667 (1999)

================================================================================
                                        WARNINGS
                       Please study these warnings very carefully!
================================================================================


INFO   : the flag for use of the SHARK integral package has been found!

================================================================================
                                       INPUT FILE
================================================================================
NAME = /scratch/BH-1.8-O_632/BH-1.8-O.inp
|  1> ! UHF aug-cc-pVQZ pal8 TightSCF
|  2> 
|  3> %scf
|  4> 	STABPerform	True
|  5> 	STABRestartUHFifUnstable	True
|  6> end
|  7> 
|  8> *xyz 0 1
|  9>  B	0.0	0.0	0.0
| 10>  H	1.8	0.0	0.0
| 11> *
| 12> 
| 13>                          ****END OF INPUT****
================================================================================

                       ****************************
                       * Single Point Calculation *
                       ****************************

---------------------------------
CARTESIAN COORDINATES (ANGSTROEM)
---------------------------------
  B      0.000000    0.000000    0.000000
  H      1.800000    0.000000    0.000000

----------------------------
CARTESIAN COORDINATES (A.U.)
----------------------------
  NO LB      ZA    FRAG     MASS         X           Y           Z
   0 B     5.0000    0    10.810    0.000000    0.000000    0.000000
   1 H     1.0000    0     1.008    3.401507    0.000000    0.000000

--------------------------------
INTERNAL COORDINATES (ANGSTROEM)
--------------------------------
 B      0   0   0     0.000000000000     0.00000000     0.00000000
 H      1   0   0     1.800000000000     0.00000000     0.00000000

---------------------------
INTERNAL COORDINATES (A.U.)
---------------------------
 B      0   0   0     0.000000000000     0.00000000     0.00000000
 H      1   0   0     3.401507041058     0.00000000     0.00000000

---------------------
BASIS SET INFORMATION
---------------------
There are 2 groups of distinct atoms

 Group   1 Type B   : 22s7p4d3f2g contracted to 6s5p4d3f2g pattern {991111/31111/1111/111/11}
 Group   2 Type H   : 7s4p3d2f contracted to 5s4p3d2f pattern {31111/1111/111/11}

Atom   0B    basis set group =>   1
Atom   1H    basis set group =>   2
--------------------------------------------------------------------------
WARNING: There was an error initializing an OpenFabrics device.

  Local host:   cnode06
  Local device: mlx5_0
--------------------------------------------------------------------------


           ************************************************************
           *        Program running with 8 parallel MPI-processes     *
           *              working on a common directory               *
           ************************************************************
------------------------------------------------------------------------------
                           ORCA GTO INTEGRAL CALCULATION
------------------------------------------------------------------------------
------------------------------------------------------------------------------
                   ___                                                        
                  /   \      - P O W E R E D   B Y -                         
                 /     \                                                     
                 |  |  |   _    _      __       _____    __    __             
                 |  |  |  | |  | |    /  \     |  _  \  |  |  /  |          
                  \  \/   | |  | |   /    \    | | | |  |  | /  /          
                 / \  \   | |__| |  /  /\  \   | |_| |  |  |/  /          
                |  |  |   |  __  | /  /__\  \  |    /   |      \           
                |  |  |   | |  | | |   __   |  |    \   |  |\   \          
                \     /   | |  | | |  |  |  |  | |\  \  |  | \   \       
                 \___/    |_|  |_| |__|  |__|  |_| \__\ |__|  \__/        
                                                                              
                      - O R C A' S   B I G   F R I E N D -                    
                                      &                                       
                       - I N T E G R A L  F E E D E R -                       
                                                                              
 v1 FN, 2020, v2 2021                                                         
------------------------------------------------------------------------------


Reading SHARK input file /scratch/BH-1.8-O_632/BH-1.8-O.SHARKINP.tmp ... ok
----------------------
SHARK INTEGRAL PACKAGE
----------------------

Number of atoms                             ...      2
Number of basis functions                   ...    126
Number of shells                            ...     34
Maximum angular momentum                    ...      4
Integral batch strategy                     ... SHARK/LIBINT Hybrid
RI-J (if used) integral strategy            ... SPLIT-RIJ (Revised 2003 algorithm where possible)
Printlevel                                  ...      1
Contraction scheme used                     ... SEGMENTED contraction
Coulomb Range Separation                    ... NOT USED
Exchange Range Separation                   ... NOT USED
Finite Nucleus Model                        ... NOT USED
Auxiliary Coulomb fitting basis             ... NOT available
Auxiliary J/K fitting basis                 ... NOT available
Auxiliary Correlation fitting basis         ... NOT available
Auxiliary 'external' fitting basis          ... NOT available
Integral threshold                          ...     2.500000e-11
Primitive cut-off                           ...     2.500000e-12
Primitive pair pre-selection threshold      ...     2.500000e-12

Calculating pre-screening integrals         ... done (  0.1 sec) Dimension = 34
Organizing shell pair data                  ... done (  0.0 sec)
Shell pair information
Total number of shell pairs                 ...       595
Shell pairs after pre-screening             ...       595
Total number of primitive shell pairs       ...      1563
Primitive shell pairs kept                  ...      1516
          la=0 lb=0:     66 shell pairs
          la=1 lb=0:     99 shell pairs
          la=1 lb=1:     45 shell pairs
          la=2 lb=0:     77 shell pairs
          la=2 lb=1:     63 shell pairs
          la=2 lb=2:     28 shell pairs
          la=3 lb=0:     55 shell pairs
          la=3 lb=1:     45 shell pairs
          la=3 lb=2:     35 shell pairs
          la=3 lb=3:     15 shell pairs
          la=4 lb=0:     22 shell pairs
          la=4 lb=1:     18 shell pairs
          la=4 lb=2:     14 shell pairs
          la=4 lb=3:     10 shell pairs
          la=4 lb=4:      3 shell pairs

Calculating one electron integrals          ... done (  0.0 sec)
Calculating Nuclear repulsion               ... done (  0.0 sec) ENN=      1.469936689722 Eh

SHARK setup successfully completed in   0.1 seconds

Maximum memory used throughout the entire GTOINT-calculation: 28.9 MB
[cnode06:285912] 7 more processes have sent help message help-mpi-btl-openib.txt / error in device init
[cnode06:285912] Set MCA parameter "orte_base_help_aggregate" to 0 to see all help / error messages
--------------------------------------------------------------------------
WARNING: There was an error initializing an OpenFabrics device.

  Local host:   cnode06
  Local device: mlx5_0
--------------------------------------------------------------------------


           ************************************************************
           *        Program running with 8 parallel MPI-processes     *
           *              working on a common directory               *
           ************************************************************
-------------------------------------------------------------------------------
                                 ORCA SCF
-------------------------------------------------------------------------------

------------
SCF SETTINGS
------------
Hamiltonian:
 Ab initio Hamiltonian  Method          .... Hartree-Fock(GTOs)


General Settings:
 Integral files         IntName         .... /scratch/BH-1.8-O_632/BH-1.8-O
 Hartree-Fock type      HFTyp           .... UHF
 Total Charge           Charge          ....    0
 Multiplicity           Mult            ....    1
 Number of Electrons    NEL             ....    6
 Basis Dimension        Dim             ....  126
 Nuclear Repulsion      ENuc            ....      1.4699366897 Eh

Convergence Acceleration:
 DIIS                   CNVDIIS         .... on
   Start iteration      DIISMaxIt       ....    12
   Startup error        DIISStart       ....  0.200000
   # of expansion vecs  DIISMaxEq       ....     5
   Bias factor          DIISBfac        ....   1.050
   Max. coefficient     DIISMaxC        ....  10.000
 Trust-Rad. Augm. Hess. CNVTRAH         .... auto
   Auto Start mean grad. ratio tolernc. ....  1.125000
   Auto Start start iteration           ....    20
   Auto Start num. interpolation iter.  ....    10
   Max. Number of Micro iterations      ....    16
   Max. Number of Macro iterations      .... Maxiter - #DIIS iter
   Number of Davidson start vectors     ....     2
   Converg. threshold I  (grad. norm)   ....   1.000e-05
   Converg. threshold II (energy diff.) ....   1.000e-08
   Grad. Scal. Fac. for Micro threshold ....   0.100
   Minimum threshold for Micro iter.    ....   0.010
   NR start threshold (gradient norm)   ....   0.001
   Initial trust radius                 ....   0.400
   Minimum AH scaling param. (alpha)    ....   1.000
   Maximum AH scaling param. (alpha)    .... 1000.000
   Orbital update algorithm             .... Taylor
   White noise on init. David. guess    .... on
   Maximum white noise                  ....   0.010
   Quad. conv. algorithm                .... NR
 SOSCF                  CNVSOSCF        .... off
 Level Shifting         CNVShift        .... on
   Level shift para.    LevelShift      ....    0.2500
   Turn off err/grad.   ShiftErr        ....    0.0010
 Zerner damping         CNVZerner       .... off
 Static damping         CNVDamp         .... on
   Fraction old density DampFac         ....    0.7000
   Max. Damping (<1)    DampMax         ....    0.9800
   Min. Damping (>=0)   DampMin         ....    0.0000
   Turn off err/grad.   DampErr         ....    0.1000
 Fernandez-Rico         CNVRico         .... off

SCF Procedure:
 Maximum # iterations   MaxIter         ....   125
 SCF integral mode      SCFMode         .... Direct
   Integral package                     .... SHARK and LIBINT hybrid scheme
 Reset frequency        DirectResetFreq ....    20
 Integral Threshold     Thresh          ....  2.500e-11 Eh
 Primitive CutOff       TCut            ....  2.500e-12 Eh

Convergence Tolerance:
 Convergence Check Mode ConvCheckMode   .... Total+1el-Energy
 Convergence forced     ConvForced      .... 0
 Energy Change          TolE            ....  1.000e-08 Eh
 1-El. energy change                    ....  1.000e-05 Eh
 DIIS Error             TolErr          ....  5.000e-07


Diagonalization of the overlap matrix:
Smallest eigenvalue                        ... 3.749e-04
Time for diagonalization                   ...    0.002 sec
Threshold for overlap eigenvalues          ... 1.000e-08
Number of eigenvalues below threshold      ... 0
Time for construction of square roots      ...    0.002 sec
Total time needed                          ...    0.004 sec

Time for model grid setup =    0.007 sec

------------------------------
INITIAL GUESS: MODEL POTENTIAL
------------------------------
Loading Hartree-Fock densities                     ... done
Calculating cut-offs                               ... done
Initializing the effective Hamiltonian             ... done
Setting up the integral package (SHARK)            ... done
Starting the Coulomb interaction                   ... done (   0.0 sec)
Reading the grid                                   ... done
Mapping shells                                     ... done
Starting the XC term evaluation                    ... done (   0.0 sec)
Transforming the Hamiltonian                       ... done (   0.0 sec)
Diagonalizing the Hamiltonian                      ... done (   0.0 sec)
Back transforming the eigenvectors                 ... done (   0.0 sec)
Now organizing SCF variables                       ... done
                      ------------------
                      INITIAL GUESS DONE (   0.0 sec)
                      ------------------
--------------
SCF ITERATIONS
--------------
ITER       Energy         Delta-E        Max-DP      RMS-DP      [F,P]     Damp
               ***  Starting incremental Fock matrix formation  ***
  0    -25.0634178278   0.000000000000 0.02006151  0.00026876  0.1071905 0.7000
  1    -25.0663252998  -0.002907472013 0.01432712  0.00020413  0.0775700 0.7000
                               ***Turning on DIIS***
  2    -25.0685424977  -0.002217197977 0.03363898  0.00049820  0.0555924 0.0000
  3    -25.0722108392  -0.003668341504 0.00219426  0.00005698  0.0083200 0.0000
  4    -25.0764402096  -0.004229370327 0.00111803  0.00003266  0.0026865 0.0000
  5    -25.0748562959   0.001583913696 0.00054136  0.00001658  0.0010737 0.0000
  6    -25.0744388232   0.000417472679 0.00032398  0.00001023  0.0003688 0.0000
  7    -25.0743809994   0.000057823791 0.00005465  0.00000137  0.0000367 0.0000
  8    -25.0743791480   0.000001851368 0.00001245  0.00000031  0.0000076 0.0000
                            ***DIIS convergence achieved***

               *****************************************************
               *                     SUCCESS                       *
               *           SCF CONVERGED AFTER   9 CYCLES          *
               *****************************************************


------------------------------------------------------------------------------
                          SCF STABILITY ANALYSIS                              
------------------------------------------------------------------------------


                       ****Iteration    0****

   Memory handling for direct AO based CIS:
   Memory per vector needed      ...     1 MB
   Memory needed                 ...     4 MB
   Memory available              ...  1024 MB
   Number of vectors per batch   ...  1024
   Number of batches             ...     1
   Time for densities:     0.001
   Using LibInt in JK Direct
   Time for J+K (Direct):     1.767
   Time for Sigma-Completion:     0.001
   Lowest Energy          :     0.124556916801
   Maximum Energy change  :     0.170633594606 (vector 2)
   Maximum residual norm  :     0.022800107731

                       ****Iteration    1****
   Time for densities:     0.000
   Using LibInt in JK Direct
   Time for J+K (Direct):     0.901
   Time for Sigma-Completion:     0.002
   Lowest Energy          :    -0.002933134083
   Maximum Energy change  :     0.127490050884 (vector 1)
   Maximum residual norm  :     0.006495823063

                       ****Iteration    2****
   Time for densities:     0.000
[cnode06:285972] 7 more processes have sent help message help-mpi-btl-openib.txt / error in device init
[cnode06:285972] Set MCA parameter "orte_base_help_aggregate" to 0 to see all help / error messages
   Using LibInt in JK Direct
   Time for J+K (Direct):     0.900
   Time for Sigma-Completion:     0.004
   Lowest Energy          :    -0.025361687606
   Maximum Energy change  :     0.022428553523 (vector 0)
   Maximum residual norm  :     0.001888926934

                       ****Iteration    3****
   Time for densities:     0.000
   Using LibInt in JK Direct
   Time for J+K (Direct):     0.904
   Time for Sigma-Completion:     0.001
   Lowest Energy          :    -0.030425750884
   Maximum Energy change  :     0.005064063279 (vector 0)
   Maximum residual norm  :     0.000104119387

                       ****Iteration    4****
   Time for densities:     0.000
   Using LibInt in JK Direct
   Time for J+K (Direct):     0.898
   Time for Sigma-Completion:     0.002
   Lowest Energy          :    -0.030527087423
   Maximum Energy change  :     0.000101336539 (vector 1)
   Maximum residual norm  :     0.000001836885

      *** CONVERGENCE OF RESIDUAL NORM REACHED ***

----------------------------- 
SCF STABILITY ANALYSIS RESULT 
----------------------------- 

UHF/UKS->UHF/UKS - singlet - internal

   Root    Eigenvalue (au) 
     0      -0.030527 
     1      -0.030527 
     2       0.118829 

Stability Analysis indicates an UNSTABLE HF/KS wave function with SEVERAL negative eigenvalues.

Since this is UHF/UKS, we will restart the SCF using a new guess based on the eigenvector 
associated with the lowest eigenvalue. Because there is no guarantee that the restart     
will result in a stable solution, the user should check the stability of the resulting    
wave function in a separate calculation using the MOREAD guess feature.

Obtain new guess               ... done 

Total time for performing the stability analysis:     5.394sec

--------------------------
SCF ITERATIONS (restarted)
--------------------------
ITER       Energy         Delta-E        Max-DP      RMS-DP      [F,P]     Damp
               ***  Starting incremental Fock matrix formation  ***
  0    -25.0766838003   0.000000000000 0.00144143  0.00002192  0.0121146 0.7000
  1    -25.0767764976  -0.000092697302 0.00136984  0.00002127  0.0096666 0.7000
                               ***Turning on DIIS***
  2    -25.0768571766  -0.000080679017 0.00372048  0.00005909  0.0074858 0.0000
  3    -25.0772541830  -0.000397006394 0.00117741  0.00002213  0.0021469 0.0000
  4    -25.0770305929   0.000223590120 0.00039865  0.00001089  0.0010205 0.0000
  5    -25.0770600874  -0.000029494558 0.00029051  0.00001033  0.0004999 0.0000
  6    -25.0770957441  -0.000035656680 0.00015426  0.00000453  0.0001730 0.0000
  7    -25.0771300155  -0.000034271450 0.00009766  0.00000260  0.0000840 0.0000
  8    -25.0771474324  -0.000017416855 0.00003752  0.00000100  0.0000256 0.0000
  9    -25.0771547969  -0.000007364526 0.00000990  0.00000024  0.0000050 0.0000
 10    -25.0771556604  -0.000000863502 0.00000581  0.00000014  0.0000014 0.0000
 11    -25.0771558191  -0.000000158701 0.00000480  0.00000012  0.0000011 0.0000
                            ***DIIS convergence achieved***

               *****************************************************
               *                     SUCCESS                       *
               *           SCF CONVERGED AFTER  12 CYCLES          *
               *****************************************************


----------------
TOTAL SCF ENERGY
----------------

Total Energy       :          -25.07715592 Eh            -682.38410 eV

Components:
Nuclear Repulsion  :            1.46993669 Eh              39.99901 eV
Electronic Energy  :          -26.54709261 Eh            -722.38312 eV
One Electron Energy:          -35.76022394 Eh            -973.08516 eV
Two Electron Energy:            9.21313132 Eh             250.70205 eV

Virial components:
Potential Energy   :          -49.91474687 Eh           -1358.24931 eV
Kinetic Energy     :           24.83759094 Eh             675.86521 eV
Virial Ratio       :            2.00964526


---------------
SCF CONVERGENCE
---------------

  Last Energy change         ...   -1.0585e-07  Tolerance :   1.0000e-08
  Last MAX-Density change    ...    5.7619e-06  Tolerance :   1.0000e-07
  Last RMS-Density change    ...    1.5518e-07  Tolerance :   5.0000e-09
  Last DIIS Error            ...    8.2554e-07  Tolerance :   5.0000e-07

             **** THE GBW FILE WAS UPDATED (/scratch/BH-1.8-O_632/BH-1.8-O.gbw) ****
             **** DENSITY /scratch/BH-1.8-O_632/BH-1.8-O.scfp WAS UPDATED ****
             **** ENERGY FILE WAS UPDATED (/scratch/BH-1.8-O_632/BH-1.8-O.en.tmp) ****

     --------------------------------------------------------------------
                                      WARNING
     A stability analysis of the first UHF/UKS SCF solution was performed
     and an instability detected. The result was used as a guess for
     a second SCF, which has converged. There is no guarantee that the
     current solution is stable - it is up to you to rerun the stability
     analysis using the now stored solution as a guess and verify.
     --------------------------------------------------------------------

----------------------
UHF SPIN CONTAMINATION
----------------------

Expectation value of <S**2>     :     0.331763
Ideal value S*(S+1) for S=0.0   :     0.000000
Deviation                       :     0.331763

             **** THE GBW FILE WAS UPDATED (/scratch/BH-1.8-O_632/BH-1.8-O.gbw) ****
             **** DENSITY /scratch/BH-1.8-O_632/BH-1.8-O.scfp WAS UPDATED ****
----------------
ORBITAL ENERGIES
----------------
                 SPIN UP ORBITALS
  NO   OCC          E(Eh)            E(eV) 
   0   1.0000      -7.747938      -210.8321 
   1   1.0000      -0.562212       -15.2986 
   2   1.0000      -0.356830        -9.7098 
   3   0.0000       0.018574         0.5054 
   4   0.0000       0.022927         0.6239 
   5   0.0000       0.032033         0.8717 
   6   0.0000       0.050257         1.3676 
   7   0.0000       0.071540         1.9467 
   8   0.0000       0.074393         2.0243 
   9   0.0000       0.099924         2.7191 
  10   0.0000       0.121845         3.3156 
  11   0.0000       0.139410         3.7935 
  12   0.0000       0.140583         3.8255 
  13   0.0000       0.144158         3.9227 
  14   0.0000       0.144220         3.9244 
  15   0.0000       0.204280         5.5588 
  16   0.0000       0.234066         6.3693 
  17   0.0000       0.272153         7.4057 
  18   0.0000       0.272816         7.4237 
  19   0.0000       0.299362         8.1461 
  20   0.0000       0.301682         8.2092 
  21   0.0000       0.332779         9.0554 
  22   0.0000       0.377641        10.2761 
  23   0.0000       0.457979        12.4622 
  24   0.0000       0.457980        12.4623 
  25   0.0000       0.462619        12.5885 
  26   0.0000       0.462630        12.5888 
  27   0.0000       0.480711        13.0808 
  28   0.0000       0.482697        13.1349 
  29   0.0000       0.493215        13.4211 
  30   0.0000       0.493622        13.4321 
  31   0.0000       0.514919        14.0117 
  32   0.0000       0.550543        14.9810 
  33   0.0000       0.552420        15.0321 
  34   0.0000       0.584738        15.9115 
  35   0.0000       0.671639        18.2762 
  36   0.0000       0.785686        21.3796 
  37   0.0000       0.785693        21.3798 
  38   0.0000       0.798636        21.7320 
  39   0.0000       0.799366        21.7519 
  40   0.0000       0.805482        21.9183 
  41   0.0000       0.968452        26.3529 
  42   0.0000       0.969383        26.3783 
  43   0.0000       1.129443        30.7337 
  44   0.0000       1.170114        31.8404 
  45   0.0000       1.172018        31.8922 
  46   0.0000       1.285947        34.9924 
  47   0.0000       1.345489        36.6126 
  48   0.0000       1.345489        36.6126 
  49   0.0000       1.359057        36.9818 
  50   0.0000       1.361781        37.0559 
  51   0.0000       1.362345        37.0713 
  52   0.0000       1.362355        37.0716 
  53   0.0000       1.383494        37.6468 
  54   0.0000       1.383594        37.6495 
  55   0.0000       1.399161        38.0731 
  56   0.0000       1.421891        38.6916 
  57   0.0000       1.421920        38.6924 
  58   0.0000       1.433748        39.0143 
  59   0.0000       1.433752        39.0144 
  60   0.0000       1.489593        40.5339 
  61   0.0000       1.497991        40.7624 
  62   0.0000       1.502673        40.8898 
  63   0.0000       1.528161        41.5834 
  64   0.0000       1.528178        41.5838 
  65   0.0000       1.602228        43.5988 
  66   0.0000       1.746386        47.5216 
  67   0.0000       1.746387        47.5216 
  68   0.0000       1.815919        49.4137 
  69   0.0000       1.819110        49.5005 
  70   0.0000       1.954438        53.1830 
  71   0.0000       2.028046        55.1859 
  72   0.0000       2.104173        57.2575 
  73   0.0000       2.105793        57.3015 
  74   0.0000       2.130465        57.9729 
  75   0.0000       2.130485        57.9735 
  76   0.0000       2.232330        60.7448 
  77   0.0000       2.603810        70.8533 
  78   0.0000       2.603811        70.8533 
  79   0.0000       2.814388        76.5834 
  80   0.0000       2.815813        76.6222 
  81   0.0000       3.170891        86.2843 
  82   0.0000       3.177702        86.4697 
  83   0.0000       3.179542        86.5197 
  84   0.0000       3.345838        91.0449 
  85   0.0000       3.740577       101.7863 
  86   0.0000       3.745466       101.9193 
  87   0.0000       3.901079       106.1538 
  88   0.0000       3.901079       106.1538 
  89   0.0000       3.931031       106.9688 
  90   0.0000       3.931037       106.9690 
  91   0.0000       3.934504       107.0633 
  92   0.0000       3.934506       107.0634 
  93   0.0000       3.994394       108.6930 
  94   0.0000       3.998306       108.7994 
  95   0.0000       4.000819       108.8678 
  96   0.0000       4.002558       108.9152 
  97   0.0000       4.044413       110.0541 
  98   0.0000       4.064262       110.5942 
  99   0.0000       4.064265       110.5943 
 100   0.0000       4.097306       111.4934 
 101   0.0000       4.123834       112.2152 
 102   0.0000       4.124078       112.2219 
 103   0.0000       4.234644       115.2305 
 104   0.0000       4.240146       115.3802 
 105   0.0000       4.442246       120.8797 
 106   0.0000       4.447393       121.0197 
 107   0.0000       4.606160       125.3400 
 108   0.0000       4.988396       135.7412 
 109   0.0000       6.648616       180.9180 
 110   0.0000       6.648616       180.9180 
 111   0.0000       6.765925       184.1102 
 112   0.0000       6.765925       184.1102 
 113   0.0000       6.850636       186.4153 
 114   0.0000       6.851292       186.4331 
 115   0.0000       7.123104       193.8295 
 116   0.0000       7.824054       212.9033 
 117   0.0000       8.316691       226.3087 
 118   0.0000       8.317024       226.3177 
 119   0.0000       8.529308       232.0943 
 120   0.0000       8.529308       232.0943 
 121   0.0000       8.830480       240.2896 
 122   0.0000       8.874531       241.4883 
 123   0.0000       8.874993       241.5008 
 124   0.0000       9.460579       257.4354 
 125   0.0000      13.705418       372.9434 

                 SPIN DOWN ORBITALS
  NO   OCC          E(Eh)            E(eV) 
   0   1.0000      -7.747938      -210.8321 
   1   1.0000      -0.562212       -15.2986 
   2   1.0000      -0.356830        -9.7098 
   3   0.0000       0.018574         0.5054 
   4   0.0000       0.022927         0.6239 
   5   0.0000       0.032033         0.8717 
   6   0.0000       0.050257         1.3676 
   7   0.0000       0.071540         1.9467 
   8   0.0000       0.074393         2.0243 
   9   0.0000       0.099924         2.7191 
  10   0.0000       0.121845         3.3156 
  11   0.0000       0.139410         3.7935 
  12   0.0000       0.140583         3.8255 
  13   0.0000       0.144158         3.9227 
  14   0.0000       0.144220         3.9244 
  15   0.0000       0.204280         5.5588 
  16   0.0000       0.234066         6.3693 
  17   0.0000       0.272153         7.4057 
  18   0.0000       0.272816         7.4237 
  19   0.0000       0.299362         8.1461 
  20   0.0000       0.301682         8.2092 
  21   0.0000       0.332779         9.0554 
  22   0.0000       0.377641        10.2761 
  23   0.0000       0.457979        12.4622 
  24   0.0000       0.457980        12.4623 
  25   0.0000       0.462619        12.5885 
  26   0.0000       0.462630        12.5888 
  27   0.0000       0.480711        13.0808 
  28   0.0000       0.482697        13.1349 
  29   0.0000       0.493215        13.4211 
  30   0.0000       0.493622        13.4321 
  31   0.0000       0.514919        14.0117 
  32   0.0000       0.550543        14.9810 
  33   0.0000       0.552420        15.0321 
  34   0.0000       0.584738        15.9115 
  35   0.0000       0.671639        18.2762 
  36   0.0000       0.785686        21.3796 
  37   0.0000       0.785693        21.3798 
  38   0.0000       0.798636        21.7320 
  39   0.0000       0.799366        21.7519 
  40   0.0000       0.805482        21.9183 
  41   0.0000       0.968452        26.3529 
  42   0.0000       0.969383        26.3783 
  43   0.0000       1.129443        30.7337 
  44   0.0000       1.170114        31.8404 
  45   0.0000       1.172018        31.8922 
  46   0.0000       1.285947        34.9924 
  47   0.0000       1.345489        36.6126 
  48   0.0000       1.345489        36.6126 
  49   0.0000       1.359057        36.9818 
  50   0.0000       1.361781        37.0559 
  51   0.0000       1.362345        37.0713 
  52   0.0000       1.362355        37.0716 
  53   0.0000       1.383494        37.6468 
  54   0.0000       1.383594        37.6495 
  55   0.0000       1.399161        38.0731 
  56   0.0000       1.421891        38.6916 
  57   0.0000       1.421920        38.6924 
  58   0.0000       1.433748        39.0143 
  59   0.0000       1.433752        39.0144 
  60   0.0000       1.489593        40.5339 
  61   0.0000       1.497991        40.7624 
  62   0.0000       1.502673        40.8898 
  63   0.0000       1.528161        41.5834 
  64   0.0000       1.528178        41.5838 
  65   0.0000       1.602228        43.5988 
  66   0.0000       1.746386        47.5216 
  67   0.0000       1.746387        47.5216 
  68   0.0000       1.815919        49.4137 
  69   0.0000       1.819110        49.5005 
  70   0.0000       1.954438        53.1830 
  71   0.0000       2.028046        55.1859 
  72   0.0000       2.104173        57.2575 
  73   0.0000       2.105793        57.3015 
  74   0.0000       2.130465        57.9729 
  75   0.0000       2.130485        57.9735 
  76   0.0000       2.232330        60.7448 
  77   0.0000       2.603810        70.8533 
  78   0.0000       2.603811        70.8533 
  79   0.0000       2.814388        76.5834 
  80   0.0000       2.815813        76.6222 
  81   0.0000       3.170891        86.2843 
  82   0.0000       3.177702        86.4697 
  83   0.0000       3.179542        86.5197 
  84   0.0000       3.345838        91.0449 
  85   0.0000       3.740577       101.7863 
  86   0.0000       3.745466       101.9193 
  87   0.0000       3.901079       106.1538 
  88   0.0000       3.901079       106.1538 
  89   0.0000       3.931031       106.9688 
  90   0.0000       3.931037       106.9690 
  91   0.0000       3.934504       107.0633 
  92   0.0000       3.934506       107.0634 
  93   0.0000       3.994394       108.6930 
  94   0.0000       3.998306       108.7994 
  95   0.0000       4.000819       108.8678 
  96   0.0000       4.002558       108.9152 
  97   0.0000       4.044413       110.0541 
  98   0.0000       4.064262       110.5942 
  99   0.0000       4.064265       110.5943 
 100   0.0000       4.097306       111.4934 
 101   0.0000       4.123834       112.2152 
 102   0.0000       4.124078       112.2219 
 103   0.0000       4.234644       115.2305 
 104   0.0000       4.240146       115.3802 
 105   0.0000       4.442246       120.8797 
 106   0.0000       4.447393       121.0197 
 107   0.0000       4.606160       125.3400 
 108   0.0000       4.988396       135.7412 
 109   0.0000       6.648616       180.9180 
 110   0.0000       6.648616       180.9180 
 111   0.0000       6.765925       184.1102 
 112   0.0000       6.765925       184.1102 
 113   0.0000       6.850636       186.4153 
 114   0.0000       6.851292       186.4331 
 115   0.0000       7.123104       193.8295 
 116   0.0000       7.824054       212.9033 
 117   0.0000       8.316691       226.3087 
 118   0.0000       8.317024       226.3177 
 119   0.0000       8.529308       232.0943 
 120   0.0000       8.529308       232.0943 
 121   0.0000       8.830480       240.2896 
 122   0.0000       8.874531       241.4883 
 123   0.0000       8.874993       241.5008 
 124   0.0000       9.460579       257.4354 
 125   0.0000      13.705418       372.9434 

                    ********************************
                    * MULLIKEN POPULATION ANALYSIS *
                    ********************************

--------------------------------------------
MULLIKEN ATOMIC CHARGES AND SPIN POPULATIONS
--------------------------------------------
   0 B :    0.161249    0.000000
   1 H :   -0.161249   -0.000000
Sum of atomic charges         :   -0.0000000
Sum of atomic spin populations:    0.0000000

-----------------------------------------------------
MULLIKEN REDUCED ORBITAL CHARGES AND SPIN POPULATIONS
-----------------------------------------------------
CHARGE
  0 B s       :     3.754683  s :     3.754683
      pz      :     0.076879  p :     1.040409
      px      :     0.861365
      py      :     0.102164
      dz2     :     0.009504  d :     0.041189
      dxz     :     0.000832
      dyz     :     0.000180
      dx2y2   :     0.029568
      dxy     :     0.001105
      f0      :     0.000009  f :     0.002319
      f+1     :     0.000845
      f-1     :     0.000003
      f+2     :     0.000019
      f-2     :     0.000004
      f+3     :     0.001406
      f-3     :     0.000034
      g0      :     0.000020  g :     0.000151
      g+1     :     0.000001
      g-1     :     0.000000
      g+2     :     0.000045
      g-2     :     0.000000
      g+3     :     0.000001
      g-3     :     0.000000
      g+4     :     0.000081
      g-4     :     0.000003
  1 H s       :     1.136198  s :     1.136198
      pz      :     0.000537  p :     0.022477
      px      :     0.021226
      py      :     0.000714
      dz2     :     0.000583  d :     0.002305
      dxz     :    -0.000017
      dyz     :     0.000000
      dx2y2   :     0.001761
      dxy     :    -0.000023
      f0      :    -0.000005  f :     0.000270
      f+1     :     0.000111
      f-1     :    -0.000001
      f+2     :    -0.000007
      f-2     :     0.000000
      f+3     :     0.000186
      f-3     :    -0.000015

SPIN
  0 B s       :     0.000000  s :     0.000000
      pz      :     0.000000  p :     0.000000
      px      :     0.000000
      py      :     0.000000
      dz2     :    -0.000000  d :    -0.000000
      dxz     :     0.000000
      dyz     :     0.000000
      dx2y2   :    -0.000000
      dxy     :     0.000000
      f0      :    -0.000000  f :    -0.000000
      f+1     :    -0.000000
      f-1     :    -0.000000
      f+2     :    -0.000000
      f-2     :    -0.000000
      f+3     :    -0.000000
      f-3     :    -0.000000
      g0      :    -0.000000  g :    -0.000000
      g+1     :    -0.000000
      g-1     :    -0.000000
      g+2     :    -0.000000
      g-2     :    -0.000000
      g+3     :    -0.000000
      g-3     :    -0.000000
      g+4     :    -0.000000
      g-4     :    -0.000000
  1 H s       :    -0.000000  s :    -0.000000
      pz      :    -0.000000  p :    -0.000000
      px      :    -0.000000
      py      :    -0.000000
      dz2     :    -0.000000  d :    -0.000000
      dxz     :     0.000000
      dyz     :    -0.000000
      dx2y2   :    -0.000000
      dxy     :     0.000000
      f0      :     0.000000  f :    -0.000000
      f+1     :    -0.000000
      f-1     :     0.000000
      f+2     :     0.000000
      f-2     :    -0.000000
      f+3     :    -0.000000
      f-3     :     0.000000


                     *******************************
                     * LOEWDIN POPULATION ANALYSIS *
                     *******************************

-------------------------------------------
LOEWDIN ATOMIC CHARGES AND SPIN POPULATIONS
-------------------------------------------
   0 B :    0.301215    0.000000
   1 H :   -0.301215   -0.000000

----------------------------------------------------
LOEWDIN REDUCED ORBITAL CHARGES AND SPIN POPULATIONS
----------------------------------------------------
CHARGE
  0 B s       :     3.408500  s :     3.408500
      pz      :     0.069240  p :     1.173128
      px      :     1.011876
      py      :     0.092012
      dz2     :     0.021078  d :     0.089735
      dxz     :     0.001785
      dyz     :     0.000174
      dx2y2   :     0.064324
      dxy     :     0.002373
      f0      :     0.000017  f :     0.021974
      f+1     :     0.008203
      f-1     :     0.000003
      f+2     :     0.000027
      f-2     :     0.000005
      f+3     :     0.013662
      f-3     :     0.000055
      g0      :     0.000765  g :     0.005448
      g+1     :     0.000002
      g-1     :     0.000000
      g+2     :     0.001701
      g-2     :     0.000000
      g+3     :     0.000001
      g-3     :     0.000000
      g+4     :     0.002975
      g-4     :     0.000003
  1 H s       :     0.988642  s :     0.988642
      pz      :     0.003166  p :     0.215519
      px      :     0.208147
      py      :     0.004207
      dz2     :     0.019024  d :     0.082825
      dxz     :     0.002945
      dyz     :     0.000003
      dx2y2   :     0.056939
      dxy     :     0.003914
      f0      :     0.000399  f :     0.014230
      f+1     :     0.004414
      f-1     :     0.000089
      f+2     :     0.000667
      f-2     :     0.000002
      f+3     :     0.007330
      f-3     :     0.001328

SPIN
  0 B s       :    -0.000000  s :    -0.000000
      pz      :     0.000000  p :     0.000000
      px      :     0.000000
      py      :     0.000000
      dz2     :    -0.000000  d :    -0.000000
      dxz     :     0.000000
      dyz     :     0.000000
      dx2y2   :    -0.000000
      dxy     :     0.000000
      f0      :    -0.000000  f :    -0.000000
      f+1     :    -0.000000
      f-1     :    -0.000000
      f+2     :    -0.000000
      f-2     :     0.000000
      f+3     :    -0.000000
      f-3     :    -0.000000
      g0      :    -0.000000  g :    -0.000000
      g+1     :    -0.000000
      g-1     :     0.000000
      g+2     :    -0.000000
      g-2     :    -0.000000
      g+3     :    -0.000000
      g-3     :     0.000000
      g+4     :    -0.000000
      g-4     :    -0.000000
  1 H s       :    -0.000000  s :    -0.000000
      pz      :     0.000000  p :     0.000000
      px      :     0.000000
      py      :     0.000000
      dz2     :     0.000000  d :     0.000000
      dxz     :     0.000000
      dyz     :     0.000000
      dx2y2   :     0.000000
      dxy     :     0.000000
      f0      :     0.000000  f :     0.000000
      f+1     :     0.000000
      f-1     :     0.000000
      f+2     :     0.000000
      f-2     :     0.000000
      f+3     :     0.000000
      f-3     :     0.000000


                      *****************************
                      * MAYER POPULATION ANALYSIS *
                      *****************************

  NA   - Mulliken gross atomic population
  ZA   - Total nuclear charge
  QA   - Mulliken gross atomic charge
  VA   - Mayer's total valence
  BVA  - Mayer's bonded valence
  FA   - Mayer's free valence

  ATOM       NA         ZA         QA         VA         BVA        FA
  0 B      4.8388     5.0000     0.1612     1.5678     0.9758     0.5920
  1 H      1.1612     1.0000    -0.1612     0.9796     0.9758     0.0038

  Mayer bond orders larger than 0.100000
B(  0-B ,  1-H ) :   0.9758 

-------
TIMINGS
-------

Total SCF time: 0 days 0 hours 0 min 10 sec 

Total time                  ....      10.122 sec
Sum of individual times     ....       9.948 sec  ( 98.3%)

Fock matrix formation       ....       4.333 sec  ( 42.8%)
Diagonalization             ....       0.117 sec  (  1.2%)
Density matrix formation    ....       0.005 sec  (  0.0%)
Population analysis         ....       0.006 sec  (  0.1%)
Initial guess               ....       0.009 sec  (  0.1%)
Orbital Transformation      ....       0.000 sec  (  0.0%)
Orbital Orthonormalization  ....       0.000 sec  (  0.0%)
DIIS solution               ....       0.078 sec  (  0.8%)
SCF Stability Analysis      ....       5.394 sec  ( 53.3%)

Maximum memory used throughout the entire SCF-calculation: 228.7 MB

-------------------------   --------------------
FINAL SINGLE POINT ENERGY       -25.077155924974
-------------------------   --------------------


                            ***************************************
                            *     ORCA property calculations      *
                            ***************************************

                                    ---------------------
                                    Active property flags
                                    ---------------------
   (+) Dipole Moment


------------------------------------------------------------------------------
                       ORCA ELECTRIC PROPERTIES CALCULATION
------------------------------------------------------------------------------

Dipole Moment Calculation                       ... on
Quadrupole Moment Calculation                   ... off
Polarizability Calculation                      ... off
GBWName                                         ... /scratch/BH-1.8-O_632/BH-1.8-O.gbw
Electron density file                           ... /scratch/BH-1.8-O_632/BH-1.8-O.scfp
The origin for moment calculation is the CENTER OF MASS  = ( 0.290127,  0.000000  0.000000)

-------------
DIPOLE MOMENT
-------------
                                X             Y             Z
Electronic contribution:     -1.88361      -0.00000      -0.00000
Nuclear contribution   :      1.66075       0.00000       0.00000
                        -----------------------------------------
Total Dipole Moment    :     -0.22286      -0.00000      -0.00000
                        -----------------------------------------
Magnitude (a.u.)       :      0.22286
Magnitude (Debye)      :      0.56648



--------------------
Rotational spectrum 
--------------------
 
Rotational constants in cm-1:     0.000000     5.642995     5.642995 
Rotational constants in MHz :     0.000000 169172.728284 169172.728284 

 Dipole components along the rotational axes: 
x,y,z [a.u.] :    -0.222865    -0.000000    -0.000000 
x,y,z [Debye]:    -0.566478    -0.000000    -0.000000 

 
--------------------------------------------------------------------------
WARNING: There was an error initializing an OpenFabrics device.

  Local host:   cnode06
  Local device: mlx5_0
--------------------------------------------------------------------------
[cnode06:286049] 7 more processes have sent help message help-mpi-btl-openib.txt / error in device init
[cnode06:286049] Set MCA parameter "orte_base_help_aggregate" to 0 to see all help / error messages

Timings for individual modules:

Sum of individual times         ...       10.988 sec (=   0.183 min)
GTO integral calculation        ...        0.501 sec (=   0.008 min)   4.6 %
SCF iterations                  ...       10.487 sec (=   0.175 min)  95.4 %
                             ****ORCA TERMINATED NORMALLY****
TOTAL RUN TIME: 0 days 0 hours 0 minutes 11 seconds 425 msec

Sender: Unischeduler System <lcz@mgt01>
Subject: Job 133796: <#!/bin/bash
#BSUB -J intel
#BSUB -o BH-1.8-O.out
#BSUB -n 8
#BSUB -q cqueue
export LD_LIBRARY_PATH=/apps/software/openmpi-4.1.1/lib:/apps/software/orca_5_0_0:$LD_LIBRARY_PATH
export PATH=/apps/software/openmpi-4.1.1/bin:/apps/software/orca_5_0_0:$PATH
mkdir /scratch/BH-1.8-O_632
scp $USER@mgt01:/apps/users/lcz/exe13/UHF/BH-1.8-O.inp /scratch/BH-1.8-O_632
/apps/software/orca_5_0_0/orca /scratch/BH-1.8-O_632/BH-1.8-O.inp >& BH-1.8-O.out
scp /scratch/BH-1.8-O_632/*.gbw $USER@mgt01:/apps/users/lcz/exe13/UHF
scp /scratch/BH-1.8-O_632/*.xyz $USER@mgt01:/apps/users/lcz/exe13/UHF
scp /scratch/BH-1.8-O_632/*.trj $USER@mgt01:/apps/users/lcz/exe13/UHF> Exited

Job <#!/bin/bash
#BSUB -J intel
#BSUB -o BH-1.8-O.out
#BSUB -n 8
#BSUB -q cqueue
export LD_LIBRARY_PATH=/apps/software/openmpi-4.1.1/lib:/apps/software/orca_5_0_0:$LD_LIBRARY_PATH
export PATH=/apps/software/openmpi-4.1.1/bin:/apps/software/orca_5_0_0:$PATH
mkdir /scratch/BH-1.8-O_632
scp $USER@mgt01:/apps/users/lcz/exe13/UHF/BH-1.8-O.inp /scratch/BH-1.8-O_632
/apps/software/orca_5_0_0/orca /scratch/BH-1.8-O_632/BH-1.8-O.inp >& BH-1.8-O.out
scp /scratch/BH-1.8-O_632/*.gbw $USER@mgt01:/apps/users/lcz/exe13/UHF
scp /scratch/BH-1.8-O_632/*.xyz $USER@mgt01:/apps/users/lcz/exe13/UHF
scp /scratch/BH-1.8-O_632/*.trj $USER@mgt01:/apps/users/lcz/exe13/UHF> was submitted from host <mgt01> by user <lcz>.
Job was executed on host(s) <8*cnode06>, in queue <cqueue>, as user <lcz>.
</apps/users/lcz> was used as the home directory.
</apps/users/lcz/exe13/UHF> was used as the working directory.
Started at 2022-05-22 09:43:59
Results reported at 2022-05-22 09:44:12

Your job looked like:

------------------------------------------------------------
# User input
#!/bin/bash
#BSUB -J intel
#BSUB -o BH-1.8-O.out
#BSUB -n 8
#BSUB -q cqueue
export LD_LIBRARY_PATH=/apps/software/openmpi-4.1.1/lib:/apps/software/orca_5_0_0:$LD_LIBRARY_PATH
export PATH=/apps/software/openmpi-4.1.1/bin:/apps/software/orca_5_0_0:$PATH
mkdir /scratch/BH-1.8-O_632
scp $USER@mgt01:/apps/users/lcz/exe13/UHF/BH-1.8-O.inp /scratch/BH-1.8-O_632
/apps/software/orca_5_0_0/orca /scratch/BH-1.8-O_632/BH-1.8-O.inp >& BH-1.8-O.out
scp /scratch/BH-1.8-O_632/*.gbw $USER@mgt01:/apps/users/lcz/exe13/UHF
scp /scratch/BH-1.8-O_632/*.xyz $USER@mgt01:/apps/users/lcz/exe13/UHF
scp /scratch/BH-1.8-O_632/*.trj $USER@mgt01:/apps/users/lcz/exe13/UHF
------------------------------------------------------------

Exited with exit code 1.

Resource usage summary:

    CPU time   :           43.16 sec.
    Max Memory :              1149 MB
    Max Processes  :              13


The output (if any) follows:

/scratch/BH-1.8-O_632/*.xyz: No such file or directory
/scratch/BH-1.8-O_632/*.trj: No such file or directory
