 Entering Gaussian System, Link 0=/apps/software/g16/g16
 Initial command:
 /apps/software/g16/l1.exe "/scratch/Gau-347628.inp" -scrdir="/scratch/"
 Entering Link 1 = /apps/software/g16/l1.exe PID=    347629.
  
 Copyright (c) 1988,1990,1992,1993,1995,1998,2003,2009,2016,
            Gaussian, Inc.  All Rights Reserved.
  
 This is part of the Gaussian(R) 16 program.  It is based on
 the Gaussian(R) 09 system (copyright 2009, Gaussian, Inc.),
 the Gaussian(R) 03 system (copyright 2003, Gaussian, Inc.),
 the Gaussian(R) 98 system (copyright 1998, Gaussian, Inc.),
 the Gaussian(R) 94 system (copyright 1995, Gaussian, Inc.),
 the Gaussian 92(TM) system (copyright 1992, Gaussian, Inc.),
 the Gaussian 90(TM) system (copyright 1990, Gaussian, Inc.),
 the Gaussian 88(TM) system (copyright 1988, Gaussian, Inc.),
 the Gaussian 86(TM) system (copyright 1986, Carnegie Mellon
 University), and the Gaussian 82(TM) system (copyright 1983,
 Carnegie Mellon University). Gaussian is a federally registered
 trademark of Gaussian, Inc.
  
 This software contains proprietary and confidential information,
 including trade secrets, belonging to Gaussian, Inc.
  
 This software is provided under written license and may be
 used, copied, transmitted, or stored only in accord with that
 written license.
  
 The following legend is applicable only to US Government
 contracts under FAR:
  
                    RESTRICTED RIGHTS LEGEND
  
 Use, reproduction and disclosure by the US Government is
 subject to restrictions as set forth in subparagraphs (a)
 and (c) of the Commercial Computer Software - Restricted
 Rights clause in FAR 52.227-19.
  
 Gaussian, Inc.
 340 Quinnipiac St., Bldg. 40, Wallingford CT 06492
  
  
 ---------------------------------------------------------------
 Warning -- This program may not be used in any manner that
 competes with the business of Gaussian, Inc. or will provide
 assistance to any competitor of Gaussian, Inc.  The licensee
 of this program is prohibited from giving any competitor of
 Gaussian, Inc. access to this program.  By using this program,
 the user acknowledges that Gaussian, Inc. is engaged in the
 business of creating and licensing software in the field of
 computational chemistry and represents and warrants to the
 licensee that it is not a competitor of Gaussian, Inc. and that
 it will not use this program in any manner prohibited above.
 ---------------------------------------------------------------
  

 Cite this work as:
 Gaussian 16, Revision A.03,
 M. J. Frisch, G. W. Trucks, H. B. Schlegel, G. E. Scuseria, 
 M. A. Robb, J. R. Cheeseman, G. Scalmani, V. Barone, 
 G. A. Petersson, H. Nakatsuji, X. Li, M. Caricato, A. V. Marenich, 
 J. Bloino, B. G. Janesko, R. Gomperts, B. Mennucci, H. P. Hratchian, 
 J. V. Ortiz, A. F. Izmaylov, J. L. Sonnenberg, D. Williams-Young, 
 F. Ding, F. Lipparini, F. Egidi, J. Goings, B. Peng, A. Petrone, 
 T. Henderson, D. Ranasinghe, V. G. Zakrzewski, J. Gao, N. Rega, 
 G. Zheng, W. Liang, M. Hada, M. Ehara, K. Toyota, R. Fukuda, 
 J. Hasegawa, M. Ishida, T. Nakajima, Y. Honda, O. Kitao, H. Nakai, 
 T. Vreven, K. Throssell, J. A. Montgomery, Jr., J. E. Peralta, 
 F. Ogliaro, M. J. Bearpark, J. J. Heyd, E. N. Brothers, K. N. Kudin, 
 V. N. Staroverov, T. A. Keith, R. Kobayashi, J. Normand, 
 K. Raghavachari, A. P. Rendell, J. C. Burant, S. S. Iyengar, 
 J. Tomasi, M. Cossi, J. M. Millam, M. Klene, C. Adamo, R. Cammi, 
 J. W. Ochterski, R. L. Martin, K. Morokuma, O. Farkas, 
 J. B. Foresman, and D. J. Fox, Gaussian, Inc., Wallingford CT, 2016.
 
 ******************************************
 Gaussian 16:  ES64L-G16RevA.03 25-Dec-2016
                21-May-2022 
 ******************************************
 %chk=BH-2.0-G.chk
 ---------------------------------------
 #p UHF/aug-cc-pVQZ guess=mix stable=opt
 ---------------------------------------
 1/38=1,172=1/1;
 2/12=2,17=6,18=5,40=1/2;
 3/5=16,6=2,7=10,11=2,25=1,30=1,116=2/1,2,3;
 4/13=-1/1;
 5/5=2,38=5/2;
 6/7=2,8=2,9=2,10=2,28=1/1;
 8/6=1,10=90,11=11/1;
 9/8=-3,42=1,46=1/14;
 5/5=2,8=3,17=40,38=5/8(-2);
 6/7=2,8=2,9=2,10=2,28=1/1;
 99/5=1,9=1/99;
 Leave Link    1 at Sat May 21 19:09:51 2022, MaxMem=           0 cpu:               0.0 elap:               0.0
 (Enter /apps/software/g16/l101.exe)
 ----------------------
 BH UHF at 2.0 Angstrom
 ----------------------
 Symbolic Z-matrix:
 Charge =  0 Multiplicity = 1
 B                     0.        0.        0. 
 H                     2.        0.        0. 
 
 ITRead=  0  0
 MicOpt= -1 -1
 NAtoms=      2 NQM=        2 NQMF=       0 NMMI=      0 NMMIF=      0
                NMic=       0 NMicF=      0.
                    Isotopes and Nuclear Properties:
 (Nuclear quadrupole moments (NQMom) in fm**2, nuclear magnetic moments (NMagM)
  in nuclear magnetons)

  Atom         1           2
 IAtWgt=          11           1
 AtmWgt=  11.0093053   1.0078250
 NucSpn=           3           1
 AtZEff=  -0.0000000  -0.0000000
 NQMom=    4.0590000   0.0000000
 NMagM=    2.6886370   2.7928460
 AtZNuc=   5.0000000   1.0000000
 Leave Link  101 at Sat May 21 19:09:51 2022, MaxMem=   104857600 cpu:               0.1 elap:               0.1
 (Enter /apps/software/g16/l202.exe)
                          Input orientation:                          
 ---------------------------------------------------------------------
 Center     Atomic      Atomic             Coordinates (Angstroms)
 Number     Number       Type             X           Y           Z
 ---------------------------------------------------------------------
      1          5           0        0.000000    0.000000    0.000000
      2          1           0        2.000000    0.000000    0.000000
 ---------------------------------------------------------------------
 Stoichiometry    BH
 Framework group  C*V[C*(HB)]
 Deg. of freedom     1
 Full point group                 C*V     NOp   4
 Largest Abelian subgroup         C2V     NOp   4
 Largest concise Abelian subgroup C1      NOp   1
                         Standard orientation:                         
 ---------------------------------------------------------------------
 Center     Atomic      Atomic             Coordinates (Angstroms)
 Number     Number       Type             X           Y           Z
 ---------------------------------------------------------------------
      1          5           0        0.000000    0.000000    0.333333
      2          1           0        0.000000    0.000000   -1.666667
 ---------------------------------------------------------------------
 Rotational constants (GHZ):           0.0000000         136.8399546         136.8399546
 Leave Link  202 at Sat May 21 19:09:51 2022, MaxMem=   104857600 cpu:               0.0 elap:               0.0
 (Enter /apps/software/g16/l301.exe)
 Standard basis: Aug-CC-pVQZ (5D, 7F)
 Ernie: Thresh=  0.10000D-02 Tol=  0.10000D-05 Strict=F.
 Ernie:  4 primitive shells out of 54 were deleted.
 There are    68 symmetry adapted cartesian basis functions of A1  symmetry.
 There are    18 symmetry adapted cartesian basis functions of A2  symmetry.
 There are    37 symmetry adapted cartesian basis functions of B1  symmetry.
 There are    37 symmetry adapted cartesian basis functions of B2  symmetry.
 There are    50 symmetry adapted basis functions of A1  symmetry.
 There are    16 symmetry adapted basis functions of A2  symmetry.
 There are    30 symmetry adapted basis functions of B1  symmetry.
 There are    30 symmetry adapted basis functions of B2  symmetry.
   126 basis functions,   180 primitive gaussians,   160 cartesian basis functions
     3 alpha electrons        3 beta electrons
       nuclear repulsion energy         1.3229430273 Hartrees.
 IExCor=    0 DFT=F Ex=HF Corr=None ExCW=0 ScaHFX=  1.000000
 ScaDFX=  1.000000  1.000000  1.000000  1.000000 ScalE2=  1.000000  1.000000
 IRadAn=      5 IRanWt=     -1 IRanGd=            0 ICorTp=0 IEmpDi=  4
 NAtoms=    2 NActive=    2 NUniq=    2 SFac= 1.00D+00 NAtFMM=   60 NAOKFM=F Big=F
 Integral buffers will be    131072 words long.
 Raffenetti 2 integral format.
 Two-electron integral symmetry is turned on.
 Leave Link  301 at Sat May 21 19:09:52 2022, MaxMem=   104857600 cpu:               0.1 elap:               0.1
 (Enter /apps/software/g16/l302.exe)
 NPDir=0 NMtPBC=     1 NCelOv=     1 NCel=       1 NClECP=     1 NCelD=      1
         NCelK=      1 NCelE2=     1 NClLst=     1 CellRange=     0.0.
 One-electron integrals computed using PRISM.
 One-electron integral symmetry used in STVInt
 NBasis=   126 RedAO= T EigKep=  5.32D-04  NBF=    50    16    30    30
 NBsUse=   126 1.00D-06 EigRej= -1.00D+00 NBFU=    50    16    30    30
 Leave Link  302 at Sat May 21 19:09:52 2022, MaxMem=   104857600 cpu:               0.1 elap:               0.1
 (Enter /apps/software/g16/l303.exe)
 DipDrv:  MaxL=1.
 Leave Link  303 at Sat May 21 19:09:52 2022, MaxMem=   104857600 cpu:               0.0 elap:               0.0
 (Enter /apps/software/g16/l401.exe)
 ExpMin= 1.88D-02 ExpMax= 2.39D+04 ExpMxC= 2.30D+02 IAcc=3 IRadAn=         5 AccDes= 0.00D+00
 Harris functional with IExCor=  205 and IRadAn=       5 diagonalized for initial guess.
 HarFok:  IExCor=  205 AccDes= 0.00D+00 IRadAn=         5 IDoV= 1 UseB2=F ITyADJ=14
 ICtDFT=  3500011 ScaDFX=  1.000000  1.000000  1.000000  1.000000
 FoFCou: FMM=F IPFlag=           0 FMFlag=      100000 FMFlg1=           0
         NFxFlg=           0 DoJE=T BraDBF=F KetDBF=T FulRan=T
         wScrn=  0.000000 ICntrl=       500 IOpCl=  0 I1Cent=   200000004 NGrid=           0
         NMat0=    1 NMatS0=      1 NMatT0=    0 NMatD0=    1 NMtDS0=    0 NMtDT0=    0
 Petite list used in FoFCou.
 Harris En= -25.0396782545397    
 JPrj=0 DoOrth=F DoCkMO=T.
 Mixing orbitals, IMix= 1 IMixAn=  0 NRI=1 NE=    3 Coef=  7.07106781D-01  7.07106781D-01
 Mixing orbitals, IMix= 1 IMixAn=  0 NRI=1 NE=    3 Coef= -7.07106781D-01  7.07106781D-01
 Initial guess orbital symmetries:
 Alpha Orbitals:
       Occupied  (SG) (SG) (?A)
       Virtual   (?A) (?A) (SG) (SG) (SG) (PI) (PI) (SG) (PI) (PI)
                 (DLTA) (DLTA) (SG) (SG) (PI) (PI) (PI) (PI) (SG)
                 (SG) (PI) (PI) (DLTA) (DLTA) (DLTA) (DLTA) (PHI)
                 (PHI) (SG) (PI) (PI) (SG) (SG) (DLTA) (DLTA) (PI)
                 (PI) (SG) (PI) (PI) (SG) (PI) (PI) (SG) (PI) (PI)
                 (PHI) (PHI) (DLTA) (DLTA) (SG) (?B) (?B) (DLTA)
                 (DLTA) (PHI) (PHI) (SG) (PI) (PI) (DLTA) (DLTA)
                 (SG) (PHI) (PHI) (PI) (PI) (SG) (SG) (SG) (DLTA)
                 (DLTA) (PI) (PI) (DLTA) (DLTA) (PI) (PI) (SG)
                 (PI) (PI) (SG) (PI) (PI) (DLTA) (DLTA) (SG) (PI)
                 (PI) (?B) (?B) (PHI) (PHI) (DLTA) (DLTA) (SG)
                 (PHI) (PHI) (DLTA) (DLTA) (PI) (PI) (PI) (PI)
                 (SG) (SG) (PHI) (PHI) (DLTA) (DLTA) (PI) (PI)
                 (SG) (SG) (PI) (PI) (DLTA) (DLTA) (SG) (PI) (PI)
                 (SG) (SG)
 Beta  Orbitals:
       Occupied  (SG) (SG) (?A)
       Virtual   (?A) (?A) (SG) (SG) (SG) (PI) (PI) (SG) (PI) (PI)
                 (DLTA) (DLTA) (SG) (SG) (PI) (PI) (PI) (PI) (SG)
                 (SG) (PI) (PI) (DLTA) (DLTA) (DLTA) (DLTA) (PHI)
                 (PHI) (SG) (PI) (PI) (SG) (SG) (DLTA) (DLTA) (PI)
                 (PI) (SG) (PI) (PI) (SG) (PI) (PI) (SG) (PI) (PI)
                 (PHI) (PHI) (DLTA) (DLTA) (SG) (?B) (?B) (DLTA)
                 (DLTA) (PHI) (PHI) (SG) (PI) (PI) (DLTA) (DLTA)
                 (SG) (PHI) (PHI) (PI) (PI) (SG) (SG) (SG) (DLTA)
                 (DLTA) (PI) (PI) (DLTA) (DLTA) (PI) (PI) (SG)
                 (PI) (PI) (SG) (PI) (PI) (DLTA) (DLTA) (SG) (PI)
                 (PI) (?B) (?B) (PHI) (PHI) (DLTA) (DLTA) (SG)
                 (PHI) (PHI) (DLTA) (DLTA) (PI) (PI) (PI) (PI)
                 (SG) (SG) (PHI) (PHI) (DLTA) (DLTA) (PI) (PI)
                 (SG) (SG) (PI) (PI) (DLTA) (DLTA) (SG) (PI) (PI)
                 (SG) (SG)
 Initial guess <Sx>= 0.0000 <Sy>= 0.0000 <Sz>= 0.0000 <S**2>= 1.0000 S= 0.6180
 Leave Link  401 at Sat May 21 19:09:52 2022, MaxMem=   104857600 cpu:               0.2 elap:               0.2
 (Enter /apps/software/g16/l502.exe)
 Keep R1 and R2 ints in memory in symmetry-blocked form, NReq=40143665.
 FoFCou: FMM=F IPFlag=           0 FMFlag=           0 FMFlg1=           0
         NFxFlg=           0 DoJE=F BraDBF=F KetDBF=F FulRan=T
         wScrn=  0.000000 ICntrl=       600 IOpCl=  0 I1Cent=           0 NGrid=           0
         NMat0=    1 NMatS0=   8001 NMatT0=    0 NMatD0=    1 NMtDS0=    0 NMtDT0=    0
 Petite list used in FoFCou.
 UHF open shell SCF:
 Using DIIS extrapolation, IDIIS=  1040.
 NGot=   104857600 LenX=    88563632 LenY=    88537591
 Requested convergence on RMS density matrix=1.00D-08 within 128 cycles.
 Requested convergence on MAX density matrix=1.00D-06.
 Requested convergence on             energy=1.00D-06.
 No special actions if energy rises.
 An orbital has undefined symmetry, so N**3 symmetry is turned off.

 Cycle   1  Pass 1  IDiag  1:
 Density matrix breaks symmetry, PCut= 1.00D-07
 Density matrix has no symmetry -- integrals replicated.
 E= -24.9612823970088    
 DIIS: error= 3.23D-02 at cycle   1 NSaved=   1.
 NSaved= 1 IEnMin= 1 EnMin= -24.9612823970088     IErMin= 1 ErrMin= 3.23D-02
 ErrMax= 3.23D-02  0.00D+00 EMaxC= 1.00D-01 BMatC= 1.69D-01 BMatP= 1.69D-01
 IDIUse=3 WtCom= 6.77D-01 WtEn= 3.23D-01
 Coeff-Com:  0.100D+01
 Coeff-En:   0.100D+01
 Coeff:      0.100D+01
 Gap=     0.338 Goal=   None    Shift=    0.000
 Gap=     0.338 Goal=   None    Shift=    0.000
 GapD=    0.338 DampG=1.000 DampE=0.500 DampFc=0.5000 IDamp=-1.
 Damping current iteration by 5.00D-01
 RMSDP=1.11D-03 MaxDP=3.32D-02              OVMax= 2.00D-01

 Cycle   2  Pass 1  IDiag  1:
 Density matrix breaks symmetry, PCut= 1.00D-07
 Density matrix has no symmetry -- integrals replicated.
 E= -24.9867513724082     Delta-E=       -0.025468975399 Rises=F Damp=T
 DIIS: error= 1.87D-02 at cycle   2 NSaved=   2.
 NSaved= 2 IEnMin= 2 EnMin= -24.9867513724082     IErMin= 2 ErrMin= 1.87D-02
 ErrMax= 1.87D-02  0.00D+00 EMaxC= 1.00D-01 BMatC= 5.88D-02 BMatP= 1.69D-01
 IDIUse=3 WtCom= 8.13D-01 WtEn= 1.87D-01
 Coeff-Com: -0.121D+01 0.221D+01
 Coeff-En:   0.000D+00 0.100D+01
 Coeff:     -0.985D+00 0.198D+01
 Gap=     0.355 Goal=   None    Shift=    0.000
 Gap=     0.355 Goal=   None    Shift=    0.000
 RMSDP=1.11D-03 MaxDP=3.72D-02 DE=-2.55D-02 OVMax= 1.04D-01

 Cycle   3  Pass 1  IDiag  1:
 Density matrix breaks symmetry, PCut= 1.00D-07
 Density matrix has no symmetry -- integrals replicated.
 E= -25.0387338372783     Delta-E=       -0.051982464870 Rises=F Damp=F
 DIIS: error= 5.77D-03 at cycle   3 NSaved=   3.
 NSaved= 3 IEnMin= 3 EnMin= -25.0387338372783     IErMin= 3 ErrMin= 5.77D-03
 ErrMax= 5.77D-03  0.00D+00 EMaxC= 1.00D-01 BMatC= 3.84D-03 BMatP= 5.88D-02
 IDIUse=3 WtCom= 9.42D-01 WtEn= 5.77D-02
 Coeff-Com:  0.655D+00-0.127D+01 0.162D+01
 Coeff-En:   0.000D+00 0.000D+00 0.100D+01
 Coeff:      0.617D+00-0.120D+01 0.158D+01
 Gap=     0.369 Goal=   None    Shift=    0.000
 Gap=     0.369 Goal=   None    Shift=    0.000
 RMSDP=5.01D-04 MaxDP=1.35D-02 DE=-5.20D-02 OVMax= 1.00D-01

 Cycle   4  Pass 1  IDiag  1:
 Density matrix breaks symmetry, PCut= 1.00D-07
 Density matrix has no symmetry -- integrals replicated.
 E= -25.0472793591569     Delta-E=       -0.008545521879 Rises=F Damp=F
 DIIS: error= 3.97D-03 at cycle   4 NSaved=   4.
 NSaved= 4 IEnMin= 4 EnMin= -25.0472793591569     IErMin= 4 ErrMin= 3.97D-03
 ErrMax= 3.97D-03  0.00D+00 EMaxC= 1.00D-01 BMatC= 9.22D-04 BMatP= 3.84D-03
 IDIUse=3 WtCom= 9.60D-01 WtEn= 3.97D-02
 Coeff-Com: -0.187D+00 0.364D+00-0.784D+00 0.161D+01
 Coeff-En:   0.000D+00 0.000D+00 0.000D+00 0.100D+01
 Coeff:     -0.180D+00 0.349D+00-0.753D+00 0.158D+01
 Gap=     0.364 Goal=   None    Shift=    0.000
 Gap=     0.364 Goal=   None    Shift=    0.000
 RMSDP=2.65D-04 MaxDP=7.69D-03 DE=-8.55D-03 OVMax= 6.12D-02

 Cycle   5  Pass 1  IDiag  1:
 Density matrix breaks symmetry, PCut= 1.00D-07
 Density matrix has no symmetry -- integrals replicated.
 E= -25.0498492086984     Delta-E=       -0.002569849542 Rises=F Damp=F
 DIIS: error= 2.34D-03 at cycle   5 NSaved=   5.
 NSaved= 5 IEnMin= 5 EnMin= -25.0498492086984     IErMin= 5 ErrMin= 2.34D-03
 ErrMax= 2.34D-03  0.00D+00 EMaxC= 1.00D-01 BMatC= 3.08D-04 BMatP= 9.22D-04
 IDIUse=3 WtCom= 9.77D-01 WtEn= 2.34D-02
 Coeff-Com:  0.690D-01-0.132D+00 0.571D+00-0.200D+01 0.249D+01
 Coeff-En:   0.000D+00 0.000D+00 0.000D+00 0.000D+00 0.100D+01
 Coeff:      0.674D-01-0.129D+00 0.557D+00-0.195D+01 0.246D+01
 Gap=     0.360 Goal=   None    Shift=    0.000
 Gap=     0.360 Goal=   None    Shift=    0.000
 RMSDP=2.44D-04 MaxDP=6.88D-03 DE=-2.57D-03 OVMax= 5.30D-02

 Cycle   6  Pass 1  IDiag  1:
 Density matrix breaks symmetry, PCut= 1.00D-07
 Density matrix has no symmetry -- integrals replicated.
 E= -25.0509613578302     Delta-E=       -0.001112149132 Rises=F Damp=F
 DIIS: error= 8.50D-04 at cycle   6 NSaved=   6.
 NSaved= 6 IEnMin= 6 EnMin= -25.0509613578302     IErMin= 6 ErrMin= 8.50D-04
 ErrMax= 8.50D-04  0.00D+00 EMaxC= 1.00D-01 BMatC= 5.75D-05 BMatP= 3.08D-04
 IDIUse=3 WtCom= 9.91D-01 WtEn= 8.50D-03
 Coeff-Com:  0.817D-01-0.157D+00 0.324D-01 0.438D+00-0.103D+01 0.163D+01
 Coeff-En:   0.000D+00 0.000D+00 0.000D+00 0.000D+00 0.000D+00 0.100D+01
 Coeff:      0.810D-01-0.156D+00 0.321D-01 0.435D+00-0.102D+01 0.163D+01
 Gap=     0.360 Goal=   None    Shift=    0.000
 Gap=     0.360 Goal=   None    Shift=    0.000
 RMSDP=1.10D-04 MaxDP=3.21D-03 DE=-1.11D-03 OVMax= 2.06D-02

 Cycle   7  Pass 1  IDiag  1:
 Density matrix breaks symmetry, PCut= 1.00D-07
 Density matrix has no symmetry -- integrals replicated.
 E= -25.0511656701388     Delta-E=       -0.000204312309 Rises=F Damp=F
 DIIS: error= 6.02D-04 at cycle   7 NSaved=   7.
 NSaved= 7 IEnMin= 7 EnMin= -25.0511656701388     IErMin= 7 ErrMin= 6.02D-04
 ErrMax= 6.02D-04  0.00D+00 EMaxC= 1.00D-01 BMatC= 2.64D-05 BMatP= 5.75D-05
 IDIUse=3 WtCom= 9.94D-01 WtEn= 6.02D-03
 Coeff-Com: -0.588D-01 0.112D+00-0.110D+00 0.190D+00-0.574D-01-0.102D+01
 Coeff-Com:  0.194D+01
 Coeff-En:   0.000D+00 0.000D+00 0.000D+00 0.000D+00 0.000D+00 0.000D+00
 Coeff-En:   0.100D+01
 Coeff:     -0.585D-01 0.112D+00-0.110D+00 0.189D+00-0.571D-01-0.101D+01
 Coeff:      0.194D+01
 Gap=     0.358 Goal=   None    Shift=    0.000
 Gap=     0.358 Goal=   None    Shift=    0.000
 RMSDP=8.05D-05 MaxDP=3.08D-03 DE=-2.04D-04 OVMax= 1.05D-02

 Cycle   8  Pass 1  IDiag  1:
 Density matrix breaks symmetry, PCut= 1.00D-07
 Density matrix has no symmetry -- integrals replicated.
 E= -25.0512600732421     Delta-E=       -0.000094403103 Rises=F Damp=F
 DIIS: error= 3.56D-04 at cycle   8 NSaved=   8.
 NSaved= 8 IEnMin= 8 EnMin= -25.0512600732421     IErMin= 8 ErrMin= 3.56D-04
 ErrMax= 3.56D-04  0.00D+00 EMaxC= 1.00D-01 BMatC= 1.09D-05 BMatP= 2.64D-05
 IDIUse=3 WtCom= 9.96D-01 WtEn= 3.56D-03
 Coeff-Com:  0.132D-01-0.232D-01 0.113D+00-0.521D+00 0.869D+00-0.754D+00
 Coeff-Com: -0.773D+00 0.208D+01
 Coeff-En:   0.000D+00 0.000D+00 0.000D+00 0.000D+00 0.000D+00 0.000D+00
 Coeff-En:   0.000D+00 0.100D+01
 Coeff:      0.131D-01-0.231D-01 0.112D+00-0.519D+00 0.866D+00-0.752D+00
 Coeff:     -0.771D+00 0.207D+01
 Gap=     0.357 Goal=   None    Shift=    0.000
 Gap=     0.357 Goal=   None    Shift=    0.000
 RMSDP=8.28D-05 MaxDP=3.43D-03 DE=-9.44D-05 OVMax= 1.06D-02

 Cycle   9  Pass 1  IDiag  1:
 Density matrix breaks symmetry, PCut= 1.00D-07
 Density matrix has no symmetry -- integrals replicated.
 E= -25.0513111378859     Delta-E=       -0.000051064644 Rises=F Damp=F
 DIIS: error= 1.36D-04 at cycle   9 NSaved=   9.
 NSaved= 9 IEnMin= 9 EnMin= -25.0513111378859     IErMin= 9 ErrMin= 1.36D-04
 ErrMax= 1.36D-04  0.00D+00 EMaxC= 1.00D-01 BMatC= 1.68D-06 BMatP= 1.09D-05
 IDIUse=3 WtCom= 9.99D-01 WtEn= 1.36D-03
 Coeff-Com: -0.529D-02 0.905D-02-0.386D-01 0.174D+00-0.351D+00 0.575D+00
 Coeff-Com: -0.872D-01-0.116D+01 0.189D+01
 Coeff-En:   0.000D+00 0.000D+00 0.000D+00 0.000D+00 0.000D+00 0.000D+00
 Coeff-En:   0.000D+00 0.000D+00 0.100D+01
 Coeff:     -0.528D-02 0.904D-02-0.386D-01 0.174D+00-0.350D+00 0.574D+00
 Coeff:     -0.871D-01-0.116D+01 0.189D+01
 Gap=     0.357 Goal=   None    Shift=    0.000
 Gap=     0.357 Goal=   None    Shift=    0.000
 RMSDP=4.03D-05 MaxDP=1.73D-03 DE=-5.11D-05 OVMax= 5.24D-03

 Cycle  10  Pass 1  IDiag  1:
 Density matrix breaks symmetry, PCut= 1.00D-07
 Density matrix has no symmetry -- integrals replicated.
 E= -25.0513183160269     Delta-E=       -0.000007178141 Rises=F Damp=F
 DIIS: error= 1.21D-05 at cycle  10 NSaved=  10.
 NSaved=10 IEnMin=10 EnMin= -25.0513183160269     IErMin=10 ErrMin= 1.21D-05
 ErrMax= 1.21D-05  0.00D+00 EMaxC= 1.00D-01 BMatC= 4.17D-08 BMatP= 1.68D-06
 IDIUse=1 WtCom= 1.00D+00 WtEn= 0.00D+00
 Coeff-Com:  0.123D-02-0.214D-02 0.776D-02-0.385D-01 0.791D-01-0.131D+00
 Coeff-Com: -0.217D-01 0.399D+00-0.683D+00 0.139D+01
 Coeff:      0.123D-02-0.214D-02 0.776D-02-0.385D-01 0.791D-01-0.131D+00
 Coeff:     -0.217D-01 0.399D+00-0.683D+00 0.139D+01
 Gap=     0.357 Goal=   None    Shift=    0.000
 Gap=     0.357 Goal=   None    Shift=    0.000
 RMSDP=3.51D-06 MaxDP=1.13D-04 DE=-7.18D-06 OVMax= 4.36D-04

 Cycle  11  Pass 1  IDiag  1:
 Density matrix breaks symmetry, PCut= 1.00D-07
 Density matrix has no symmetry -- integrals replicated.
 E= -25.0513183871467     Delta-E=       -0.000000071120 Rises=F Damp=F
 DIIS: error= 2.15D-06 at cycle  11 NSaved=  11.
 NSaved=11 IEnMin=11 EnMin= -25.0513183871467     IErMin=11 ErrMin= 2.15D-06
 ErrMax= 2.15D-06  0.00D+00 EMaxC= 1.00D-01 BMatC= 9.06D-10 BMatP= 4.17D-08
 IDIUse=1 WtCom= 1.00D+00 WtEn= 0.00D+00
 Coeff-Com: -0.239D-03 0.407D-03-0.215D-02 0.112D-01-0.212D-01 0.288D-01
 Coeff-Com:  0.119D-01-0.105D+00 0.169D+00-0.434D+00 0.134D+01
 Coeff:     -0.239D-03 0.407D-03-0.215D-02 0.112D-01-0.212D-01 0.288D-01
 Coeff:      0.119D-01-0.105D+00 0.169D+00-0.434D+00 0.134D+01
 Gap=     0.357 Goal=   None    Shift=    0.000
 Gap=     0.357 Goal=   None    Shift=    0.000
 RMSDP=8.27D-07 MaxDP=3.09D-05 DE=-7.11D-08 OVMax= 1.05D-04

 Cycle  12  Pass 1  IDiag  1:
 Density matrix breaks symmetry, PCut= 1.00D-07
 Density matrix has no symmetry -- integrals replicated.
 E= -25.0513183895934     Delta-E=       -0.000000002447 Rises=F Damp=F
 DIIS: error= 4.10D-07 at cycle  12 NSaved=  12.
 NSaved=12 IEnMin=12 EnMin= -25.0513183895934     IErMin=12 ErrMin= 4.10D-07
 ErrMax= 4.10D-07  0.00D+00 EMaxC= 1.00D-01 BMatC= 2.02D-11 BMatP= 9.06D-10
 IDIUse=1 WtCom= 1.00D+00 WtEn= 0.00D+00
 Coeff-Com: -0.141D-04 0.306D-04 0.153D-03-0.112D-02 0.201D-02-0.209D-02
 Coeff-Com: -0.157D-02 0.109D-01-0.185D-01 0.592D-01-0.296D+00 0.125D+01
 Coeff:     -0.141D-04 0.306D-04 0.153D-03-0.112D-02 0.201D-02-0.209D-02
 Coeff:     -0.157D-02 0.109D-01-0.185D-01 0.592D-01-0.296D+00 0.125D+01
 Gap=     0.357 Goal=   None    Shift=    0.000
 Gap=     0.357 Goal=   None    Shift=    0.000
 RMSDP=5.32D-08 MaxDP=2.06D-06 DE=-2.45D-09 OVMax= 5.31D-06

 Cycle  13  Pass 1  IDiag  1:
 Density matrix breaks symmetry, PCut= 1.00D-07
 Density matrix has no symmetry -- integrals replicated.
 E= -25.0513183896193     Delta-E=       -0.000000000026 Rises=F Damp=F
 DIIS: error= 1.07D-07 at cycle  13 NSaved=  13.
 NSaved=13 IEnMin=13 EnMin= -25.0513183896193     IErMin=13 ErrMin= 1.07D-07
 ErrMax= 1.07D-07  0.00D+00 EMaxC= 1.00D-01 BMatC= 9.14D-13 BMatP= 2.02D-11
 IDIUse=1 WtCom= 1.00D+00 WtEn= 0.00D+00
 Coeff-Com: -0.490D-07-0.866D-06-0.257D-04 0.148D-03-0.228D-03 0.111D-03
 Coeff-Com:  0.161D-03-0.862D-03 0.184D-02-0.634D-02 0.392D-01-0.341D+00
 Coeff-Com:  0.131D+01
 Coeff:     -0.490D-07-0.866D-06-0.257D-04 0.148D-03-0.228D-03 0.111D-03
 Coeff:      0.161D-03-0.862D-03 0.184D-02-0.634D-02 0.392D-01-0.341D+00
 Coeff:      0.131D+01
 Gap=     0.357 Goal=   None    Shift=    0.000
 Gap=     0.357 Goal=   None    Shift=    0.000
 RMSDP=1.35D-08 MaxDP=4.43D-07 DE=-2.59D-11 OVMax= 1.92D-06

 Cycle  14  Pass 1  IDiag  1:
 Density matrix breaks symmetry, PCut= 1.00D-07
 Density matrix has no symmetry -- integrals replicated.
 E= -25.0513183896205     Delta-E=       -0.000000000001 Rises=F Damp=F
 DIIS: error= 1.68D-08 at cycle  14 NSaved=  14.
 NSaved=14 IEnMin=14 EnMin= -25.0513183896205     IErMin=14 ErrMin= 1.68D-08
 ErrMax= 1.68D-08  0.00D+00 EMaxC= 1.00D-01 BMatC= 3.74D-14 BMatP= 9.14D-13
 IDIUse=1 WtCom= 1.00D+00 WtEn= 0.00D+00
 Coeff-Com:  0.126D-05-0.209D-05 0.755D-05-0.405D-04 0.647D-04-0.382D-04
 Coeff-Com: -0.105D-03 0.446D-03-0.923D-03 0.301D-02-0.146D-01 0.108D+00
 Coeff-Com: -0.470D+00 0.137D+01
 Coeff:      0.126D-05-0.209D-05 0.755D-05-0.405D-04 0.647D-04-0.382D-04
 Coeff:     -0.105D-03 0.446D-03-0.923D-03 0.301D-02-0.146D-01 0.108D+00
 Coeff:     -0.470D+00 0.137D+01
 Gap=     0.357 Goal=   None    Shift=    0.000
 Gap=     0.357 Goal=   None    Shift=    0.000
 RMSDP=3.92D-09 MaxDP=1.31D-07 DE=-1.19D-12 OVMax= 5.48D-07

 Density matrix breaks symmetry, PCut= 1.00D-07
 Density matrix has no symmetry -- integrals replicated.
 SCF Done:  E(UHF) =  -25.0513183896     A.U. after   14 cycles
            NFock= 14  Conv=0.39D-08     -V/T= 2.0101
 <Sx>= 0.0000 <Sy>= 0.0000 <Sz>= 0.0000 <S**2>= 0.2823 S= 0.2296
 <L.S>=  0.00000000000    
 KE= 2.480194118004D+01 PE=-6.020551431364D+01 EE= 9.029311716679D+00
 Annihilation of the first spin contaminant:
 S**2 before annihilation     0.2823,   after     0.0037
 Leave Link  502 at Sat May 21 19:09:56 2022, MaxMem=   104857600 cpu:               3.8 elap:               3.8
 (Enter /apps/software/g16/l601.exe)
 Copying SCF densities to generalized density rwf, IOpCl= 1 IROHF=0.
 SCF density gives NOpUse=  1 NOpAll=  4.
 Marking SCF density as not fully symmetric.

 **********************************************************************

            Population analysis using the SCF density.

 **********************************************************************

 Orbital symmetries:
 Alpha Orbitals:
       Occupied  (SG) (?A) (?A)
       Virtual   (?A) (?A) (?A) (?A) (?A) (?A) (?A) (?A) (?A) (?A)
                 (?A) (?A) (SG) (?B) (?B) (?B) (?B) (?B) (?B) (?B)
                 (?C) (?C) (?C) (?C) (?C) (?C) (?C) (?C) (SG) (PI)
                 (PI) (SG) (SG) (DLTA) (DLTA) (?D) (?D) (?D) (PI)
                 (PI) (SG) (PI) (PI) (SG) (PHI) (PHI) (?E) (?E)
                 (?E) (?E) (?E) (?E) (?E) (?E) (?E) (?E) (?E) (?F)
                 (?F) (?F) (?F) (?F) (SG) (PHI) (PHI) (PI) (PI)
                 (SG) (SG) (DLTA) (DLTA) (SG) (PI) (PI) (DLTA)
                 (DLTA) (PI) (PI) (PI) (PI) (SG) (SG) (PI) (PI)
                 (?G) (?G) (?H) (?H) (?H) (?H) (?H) (?H) (?H) (?H)
                 (?H) (?H) (?I) (?I) (?I) (?I) (?I) (?I) (PI) (PI)
                 (SG) (SG) (PHI) (PHI) (DLTA) (DLTA) (PI) (PI)
                 (SG) (SG) (PI) (PI) (DLTA) (DLTA) (SG) (PI) (PI)
                 (SG) (SG)
 Beta  Orbitals:
       Occupied  (SG) (?A) (?A)
       Virtual   (?A) (?A) (?A) (?A) (?A) (?A) (?A) (?A) (?A) (?A)
                 (?A) (?A) (SG) (?B) (?B) (?B) (?B) (?B) (?B) (?B)
                 (?C) (?C) (?C) (?C) (?C) (?C) (?C) (?C) (SG) (PI)
                 (PI) (SG) (SG) (DLTA) (DLTA) (?D) (?D) (?D) (PI)
                 (PI) (SG) (PI) (PI) (SG) (PHI) (PHI) (?E) (?E)
                 (?E) (?E) (?E) (?E) (?E) (?E) (?E) (?E) (?E) (?F)
                 (?F) (?F) (?F) (?F) (SG) (PHI) (PHI) (PI) (PI)
                 (SG) (SG) (DLTA) (DLTA) (SG) (PI) (PI) (DLTA)
                 (DLTA) (PI) (PI) (PI) (PI) (SG) (SG) (PI) (PI)
                 (?G) (?G) (?H) (?H) (?H) (?H) (?H) (?H) (?H) (?H)
                 (?H) (?H) (?I) (?I) (?I) (?I) (?I) (?I) (PI) (PI)
                 (SG) (SG) (PHI) (PHI) (DLTA) (DLTA) (PI) (PI)
                 (SG) (SG) (PI) (PI) (DLTA) (DLTA) (SG) (PI) (PI)
                 (SG) (SG)
 Unable to determine electronic state:  an orbital has unidentified symmetry.
 Alpha  occ. eigenvalues --   -7.77072  -0.55836  -0.34340
 Alpha virt. eigenvalues --    0.01376   0.01768   0.02957   0.05276   0.06724
 Alpha virt. eigenvalues --    0.06910   0.09535   0.10109   0.13989   0.14070
 Alpha virt. eigenvalues --    0.14270   0.14281   0.19522   0.24163   0.27237
 Alpha virt. eigenvalues --    0.27275   0.29609   0.29794   0.32500   0.36922
 Alpha virt. eigenvalues --    0.45495   0.45495   0.46060   0.46061   0.47803
 Alpha virt. eigenvalues --    0.47957   0.48786   0.48827   0.50610   0.54347
 Alpha virt. eigenvalues --    0.54507   0.58880   0.65513   0.76949   0.76949
 Alpha virt. eigenvalues --    0.81777   0.81821   0.82910   0.94891   0.94984
 Alpha virt. eigenvalues --    1.04232   1.12353   1.12508   1.30074   1.33953
 Alpha virt. eigenvalues --    1.33953   1.35585   1.35603   1.35604   1.35826
 Alpha virt. eigenvalues --    1.37722   1.37732   1.40083   1.40823   1.40829
 Alpha virt. eigenvalues --    1.42231   1.42231   1.47081   1.47199   1.47669
 Alpha virt. eigenvalues --    1.48994   1.49005   1.60420   1.70993   1.70993
 Alpha virt. eigenvalues --    1.77464   1.77751   1.83019   2.03100   2.05975
 Alpha virt. eigenvalues --    2.05977   2.10797   2.12509   2.12625   2.57916
 Alpha virt. eigenvalues --    2.57916   2.76191   2.76277   3.04426   3.04543
 Alpha virt. eigenvalues --    3.05914   3.40123   3.72526   3.72935   3.88899
 Alpha virt. eigenvalues --    3.88899   3.91251   3.91251   3.91746   3.91746
 Alpha virt. eigenvalues --    3.96111   3.96589   3.97450   3.98379   3.98382
 Alpha virt. eigenvalues --    4.01889   4.04878   4.04878   4.09870   4.09881
 Alpha virt. eigenvalues --    4.15648   4.16131   4.32164   4.32614   4.53450
 Alpha virt. eigenvalues --    4.74692   6.64548   6.64548   6.74269   6.74269
 Alpha virt. eigenvalues --    6.79298   6.79325   6.93343   7.77930   8.25725
 Alpha virt. eigenvalues --    8.25744   8.51256   8.51256   8.61827   8.70990
 Alpha virt. eigenvalues --    8.71015   9.29129  13.57328
  Beta  occ. eigenvalues --   -7.77072  -0.55836  -0.34340
  Beta virt. eigenvalues --    0.01376   0.01768   0.02957   0.05276   0.06724
  Beta virt. eigenvalues --    0.06910   0.09535   0.10109   0.13989   0.14070
  Beta virt. eigenvalues --    0.14270   0.14281   0.19522   0.24163   0.27237
  Beta virt. eigenvalues --    0.27275   0.29609   0.29794   0.32500   0.36922
  Beta virt. eigenvalues --    0.45495   0.45495   0.46060   0.46061   0.47803
  Beta virt. eigenvalues --    0.47957   0.48786   0.48827   0.50610   0.54347
  Beta virt. eigenvalues --    0.54507   0.58880   0.65513   0.76949   0.76949
  Beta virt. eigenvalues --    0.81777   0.81821   0.82910   0.94891   0.94984
  Beta virt. eigenvalues --    1.04232   1.12353   1.12508   1.30074   1.33953
  Beta virt. eigenvalues --    1.33953   1.35585   1.35603   1.35604   1.35826
  Beta virt. eigenvalues --    1.37722   1.37732   1.40083   1.40823   1.40829
  Beta virt. eigenvalues --    1.42231   1.42231   1.47081   1.47199   1.47669
  Beta virt. eigenvalues --    1.48994   1.49005   1.60420   1.70993   1.70993
  Beta virt. eigenvalues --    1.77464   1.77751   1.83019   2.03100   2.05975
  Beta virt. eigenvalues --    2.05977   2.10797   2.12509   2.12625   2.57916
  Beta virt. eigenvalues --    2.57916   2.76191   2.76277   3.04426   3.04543
  Beta virt. eigenvalues --    3.05914   3.40123   3.72526   3.72935   3.88899
  Beta virt. eigenvalues --    3.88899   3.91251   3.91251   3.91746   3.91746
  Beta virt. eigenvalues --    3.96111   3.96589   3.97450   3.98379   3.98382
  Beta virt. eigenvalues --    4.01889   4.04878   4.04878   4.09870   4.09881
  Beta virt. eigenvalues --    4.15648   4.16131   4.32164   4.32614   4.53450
  Beta virt. eigenvalues --    4.74692   6.64548   6.64548   6.74269   6.74269
  Beta virt. eigenvalues --    6.79298   6.79325   6.93343   7.77930   8.25725
  Beta virt. eigenvalues --    8.25744   8.51256   8.51256   8.61827   8.70990
  Beta virt. eigenvalues --    8.71015   9.29129  13.57328
          Condensed to atoms (all electrons):
               1          2
     1  B    4.538903   0.291632
     2  H    0.291632   0.877834
          Atomic-Atomic Spin Densities.
               1          2
     1  B    0.000000   0.000000
     2  H    0.000000   0.000000
 Mulliken charges and spin densities:
               1          2
     1  B    0.169466   0.000000
     2  H   -0.169466   0.000000
 Sum of Mulliken charges =  -0.00000   0.00000
 Mulliken charges and spin densities with hydrogens summed into heavy atoms:
               1          2
     1  B   -0.000000   0.000000
 Electronic spatial extent (au):  <R**2>=             32.3134
 Charge=             -0.0000 electrons
 Dipole moment (field-independent basis, Debye):
    X=              0.0000    Y=              0.0000    Z=              1.3497  Tot=              1.3497
 Quadrupole moment (field-independent basis, Debye-Ang):
   XX=             -7.3851   YY=             -7.8962   ZZ=            -12.1706
   XY=             -0.0000   XZ=              0.0000   YZ=              0.0000
 Traceless Quadrupole moment (field-independent basis, Debye-Ang):
   XX=              1.7655   YY=              1.2544   ZZ=             -3.0200
   XY=             -0.0000   XZ=              0.0000   YZ=              0.0000
 Octapole moment (field-independent basis, Debye-Ang**2):
  XXX=              0.0000  YYY=              0.0000  ZZZ=              3.6449  XYY=              0.0000
  XXY=              0.0000  XXZ=              1.4330  XZZ=              0.0000  YZZ=              0.0000
  YYZ=              1.1631  XYZ=             -0.0000
 Hexadecapole moment (field-independent basis, Debye-Ang**3):
 XXXX=            -10.8813 YYYY=            -12.2302 ZZZZ=            -56.7799 XXXY=             -0.0000
 XXXZ=              0.0000 YYYX=             -0.0000 YYYZ=              0.0000 ZZZX=              0.0000
 ZZZY=              0.0000 XXYY=             -3.8520 XXZZ=            -11.4021 YYZZ=            -11.7535
 XXYZ=              0.0000 YYXZ=              0.0000 ZZXY=             -0.0000
 N-N= 1.322943027300D+00 E-N=-6.020551422157D+01  KE= 2.480194118004D+01
 Symmetry A1   KE= 2.467524800452D+01
 Symmetry A2   KE= 9.493885055155D-30
 Symmetry B1   KE= 9.904718255393D-30
 Symmetry B2   KE= 1.266931755179D-01
 Symmetry A1   SP= 0.000000000000D+00
 Symmetry A2   SP= 0.000000000000D+00
 Symmetry B1   SP= 0.000000000000D+00
 Symmetry B2   SP= 0.000000000000D+00
                          Isotropic Fermi Contact Couplings
        Atom                 a.u.       MegaHertz       Gauss      10(-4) cm-1
     1  B(11)              0.00000       0.00000       0.00000       0.00000
     2  H(1)               0.00000       0.00000       0.00000       0.00000
 --------------------------------------------------------
       Center         ----  Spin Dipole Couplings  ----
                      3XX-RR        3YY-RR        3ZZ-RR
 --------------------------------------------------------
     1   Atom        0.000000      0.000000      0.000000
     2   Atom        0.000000      0.000000      0.000000
 --------------------------------------------------------
                        XY            XZ            YZ
 --------------------------------------------------------
     1   Atom        0.000000     -0.000000     -0.245304
     2   Atom        0.000000     -0.000000      0.002017
 --------------------------------------------------------


 ---------------------------------------------------------------------------------
              Anisotropic Spin Dipole Couplings in Principal Axis System
 ---------------------------------------------------------------------------------

       Atom             a.u.   MegaHertz   Gauss  10(-4) cm-1        Axes

              Baa    -0.2453   -42.000   -14.987   -14.010  0.0000  0.7071  0.7071
     1 B(11)  Bbb     0.0000     0.000     0.000     0.000  1.0000 -0.0000  0.0000
              Bcc     0.2453    42.000    14.987    14.010  0.0000  0.7071 -0.7071
 
              Baa    -0.0020    -1.076    -0.384    -0.359 -0.0000  0.7071 -0.7071
     2 H(1)   Bbb     0.0000     0.000     0.000     0.000  1.0000  0.0000  0.0000
              Bcc     0.0020     1.076     0.384     0.359 -0.0000  0.7071  0.7071
 

 ---------------------------------------------------------------------------------

 No NMR shielding tensors so no spin-rotation constants.
 Leave Link  601 at Sat May 21 19:09:56 2022, MaxMem=   104857600 cpu:               0.2 elap:               0.2
 (Enter /apps/software/g16/l801.exe)
 Range of M.O.s used for correlation:     1   126
 NBasis=   126 NAE=     3 NBE=     3 NFC=     0 NFV=     0
 NROrb=    126 NOA=     3 NOB=     3 NVA=   123 NVB=   123

 **** Warning!!: The largest alpha MO coefficient is  0.15676243D+02


 **** Warning!!: The largest beta MO coefficient is  0.15676243D+02

 Leave Link  801 at Sat May 21 19:09:56 2022, MaxMem=   104857600 cpu:               0.0 elap:               0.0
 (Enter /apps/software/g16/l914.exe)
 UHF ground state
 Doing stability rather than CIS.
 Keep R1 and R2 ints in memory in symmetry-blocked form, NReq=40144005.
 FoFCou: FMM=F IPFlag=           0 FMFlag=           0 FMFlg1=           0
         NFxFlg=           0 DoJE=F BraDBF=F KetDBF=F FulRan=T
         wScrn=  0.000000 ICntrl=       600 IOpCl=  0 I1Cent=           0 NGrid=           0
         NMat0=    1 NMatS0=   8001 NMatT0=    0 NMatD0=    1 NMtDS0=    0 NMtDT0=    0
 Petite list used in FoFCou.
 MDV=   104857600 DFT=F DoStab=T Mixed=F DoRPA=F DoScal=F NonHer=F
 Making orbital integer symmetry assigments:
 Orbital symmetries:
 Alpha Orbitals:
       Occupied  (SG) (?A) (?A)
       Virtual   (?A) (?A) (?A) (?A) (?A) (?A) (?A) (?A) (?A) (?A)
                 (?A) (?A) (SG) (?B) (?B) (?B) (?B) (?B) (?B) (?B)
                 (?C) (?C) (?C) (?C) (?C) (?C) (?C) (?C) (SG) (PI)
                 (PI) (SG) (SG) (DLTA) (DLTA) (?D) (?D) (?D) (PI)
                 (PI) (SG) (PI) (PI) (SG) (PHI) (PHI) (?E) (?E)
                 (?E) (?E) (?E) (?E) (?E) (?E) (?E) (?E) (?E) (?F)
                 (?F) (?F) (?F) (?F) (SG) (PHI) (PHI) (PI) (PI)
                 (SG) (SG) (DLTA) (DLTA) (SG) (PI) (PI) (DLTA)
                 (DLTA) (PI) (PI) (PI) (PI) (SG) (SG) (PI) (PI)
                 (?G) (?G) (?H) (?H) (?H) (?H) (?H) (?H) (?H) (?H)
                 (?H) (?H) (?I) (?I) (?I) (?I) (?I) (?I) (PI) (PI)
                 (SG) (SG) (PHI) (PHI) (DLTA) (DLTA) (PI) (PI)
                 (SG) (SG) (PI) (PI) (DLTA) (DLTA) (SG) (PI) (PI)
                 (SG) (SG)
 Beta  Orbitals:
       Occupied  (SG) (?A) (?A)
       Virtual   (?A) (?A) (?A) (?A) (?A) (?A) (?A) (?A) (?A) (?A)
                 (?A) (?A) (SG) (?B) (?B) (?B) (?B) (?B) (?B) (?B)
                 (?C) (?C) (?C) (?C) (?C) (?C) (?C) (?C) (SG) (PI)
                 (PI) (SG) (SG) (DLTA) (DLTA) (?D) (?D) (?D) (PI)
                 (PI) (SG) (PI) (PI) (SG) (PHI) (PHI) (?E) (?E)
                 (?E) (?E) (?E) (?E) (?E) (?E) (?E) (?E) (?E) (?F)
                 (?F) (?F) (?F) (?F) (SG) (PHI) (PHI) (PI) (PI)
                 (SG) (SG) (DLTA) (DLTA) (SG) (PI) (PI) (DLTA)
                 (DLTA) (PI) (PI) (PI) (PI) (SG) (SG) (PI) (PI)
                 (?G) (?G) (?H) (?H) (?H) (?H) (?H) (?H) (?H) (?H)
                 (?H) (?H) (?I) (?I) (?I) (?I) (?I) (?I) (PI) (PI)
                 (SG) (SG) (PHI) (PHI) (DLTA) (DLTA) (PI) (PI)
                 (SG) (SG) (PI) (PI) (DLTA) (DLTA) (SG) (PI) (PI)
                 (SG) (SG)
    12 initial guesses have been made.
 Convergence on wavefunction:    0.001000000000000
 Davidson Disk Diagonalization:  ConvIn= 1.00D-03 SkipCon=T Conv= 1.00D-03.
 Max sub-space:  1476 roots to seek:    12 dimension of matrix:          738
 Iteration     1 Dimension    12 NMult     0 NNew     12
 CISAX will form    12 AO SS matrices at one time.
 NMat=    12 NSing=    12 JSym2X= 2.
 New state      1 was old state      6
 Excitation Energies [eV] at current iteration:
 Root      1 :     0.227652353689432
 Root      2 :     0.487936412750848
 Root      3 :     1.807092530480594
 Root      4 :     3.539501404488063
 Root      5 :     3.598848014522102
 Root      6 :     4.393888288355718
 Root      7 :     4.948679540710784
 Root      8 :     6.602058840870523
 Root      9 :     6.707694226565195
 Root     10 :    11.504972744060543
 Root     11 :    11.543659530386776
 Root     12 :    11.938406017756513
 Iteration     2 Dimension    24 NMult    12 NNew     12
 CISAX will form    12 AO SS matrices at one time.
 NMat=    12 NSing=    12 JSym2X= 2.
 Root      1 not converged, maximum delta is    0.067417207551050
 Excitation Energies [eV] at current iteration:
 Root      1 :    -1.031355569785787   Change is   -1.259007923475219
 Root      2 :     0.010371879122980   Change is   -0.477564533627868
 Root      3 :     1.256063499975666   Change is   -0.551029030504928
 Root      4 :     2.752889715979269   Change is   -0.786611688508793
 Root      5 :     2.999713813725367   Change is   -0.599134200796735
 Root      6 :     3.533105129289926   Change is   -0.860783159065791
 Root      7 :     4.093589320893960   Change is   -0.855090219816824
 Root      8 :     6.216495863871307   Change is   -0.385562976999216
 Root      9 :     6.331321745373537   Change is   -0.376372481191659
 Root     10 :     8.441888776144754   Change is   -3.063083967915788
 Root     11 :     9.168440892406721   Change is   -2.769965125349791
 Root     12 :     9.282765668476221   Change is   -2.260893861910555
 Iteration     3 Dimension    27 NMult    24 NNew      3
 CISAX will form     3 AO SS matrices at one time.
 NMat=     3 NSing=     3 JSym2X= 2.
 Root      1 not converged, maximum delta is    0.033217758922035
 Excitation Energies [eV] at current iteration:
 Root      1 :    -1.130222466939352   Change is   -0.098866897153566
 Root      2 :     0.000200836779599   Change is   -0.010171042343381
 Root      3 :     1.236603788357818   Change is   -0.019459711617848
 Iteration     4 Dimension    30 NMult    27 NNew      3
 CISAX will form     3 AO SS matrices at one time.
 NMat=     3 NSing=     3 JSym2X= 2.
 Root      1 not converged, maximum delta is    0.008796588805929
 Excitation Energies [eV] at current iteration:
 Root      1 :    -1.139480182281543   Change is   -0.009257715342191
 Root      2 :     0.000007407140749   Change is   -0.000193429638849
 Root      3 :     1.235879298999358   Change is   -0.000724489358460
 Cease iterating as an instability has been found.
 ***********************************************************************
 Stability analysis using <AA,BB:AA,BB> singles matrix:
 ***********************************************************************
 1PDM for each excited state written to RWF  633
 Ground to excited state transition densities written to RWF  633

 Eigenvectors of the stability matrix:
 
 Excited state symmetry could not be determined.
 Eigenvector   1:  2.994-?Sym  Eigenvalue=-0.0418751  <S**2>=1.991
      2A -> 11A       -0.10242
      3A ->  5A        0.12929
      3A ->  6A       -0.20370
      3A ->  7A        0.12822
      3A ->  9A       -0.14324
      3A -> 11A       -0.51161
      3A -> 16A        0.24797
      3A -> 22A       -0.15138
      2B -> 11B        0.10242
      3B ->  5B        0.12929
      3B ->  6B        0.20370
      3B ->  7B       -0.12822
      3B ->  9B       -0.14324
      3B -> 11B        0.51161
      3B -> 16B       -0.24797
      3B -> 22B        0.15138
 
 Excited state symmetry could not be determined.
 Eigenvector   2:  2.898-?Sym  Eigenvalue= 0.0000003  <S**2>=1.850
      2A ->  4A        0.29246
      2A ->  8A       -0.23453
      2A -> 21A       -0.14050
      3A ->  4A       -0.44858
      3A ->  8A        0.31496
      3A -> 21A        0.13973
      2B ->  4B       -0.29246
      2B ->  8B        0.23453
      2B -> 21B        0.14050
      3B ->  4B        0.44858
      3B ->  8B       -0.31496
      3B -> 21B       -0.13973
 
 Excited state symmetry could not be determined.
 Eigenvector   3:  2.604-?Sym  Eigenvalue= 0.0454177  <S**2>=1.446
      2A ->  5A        0.24143
      2A ->  9A       -0.20466
      2A -> 20A       -0.10997
      3A ->  5A       -0.46598
      3A ->  9A        0.33231
      3A -> 20A        0.12612
      2B ->  5B       -0.24143
      2B ->  9B        0.20466
      2B -> 20B        0.10997
      3B ->  5B        0.46598
      3B ->  9B       -0.33231
      3B -> 20B       -0.12612
 The wavefunction has an internal instability.
 Leave Link  914 at Sat May 21 19:10:00 2022, MaxMem=   104857600 cpu:               4.3 elap:               4.3
 (Enter /apps/software/g16/l508.exe)
 Keep R1 and R2 ints in memory in symmetry-blocked form, NReq=40144065.
 FoFCou: FMM=F IPFlag=           0 FMFlag=           0 FMFlg1=           0
         NFxFlg=           0 DoJE=F BraDBF=F KetDBF=F FulRan=T
         wScrn=  0.000000 ICntrl=       600 IOpCl=  0 I1Cent=           0 NGrid=           0
         NMat0=    1 NMatS0=   8001 NMatT0=    0 NMatD0=    1 NMtDS0=    0 NMtDT0=    0
 Petite list used in FoFCou.
 Tight linear equation convergence will be used.
 UHF wavefunction.
 Quadratic Convergence SCF Method.
 Line search only if initial step raises energy.
 Perform preliminary linear searches along instability eigenvector.
     ILin= 1 X=0.000D+00 Y=-2.505131838962D+01 DE= 0.00D+00
     ILin= 2 X=1.000D-01 Y=-2.505172317242D+01 DE=-4.05D-04
     ILin= 3 X=1.414D-01 Y=-2.505210020933D+01 DE=-7.82D-04
     ILin= 4 X=2.000D-01 Y=-2.505277209155D+01 DE=-1.45D-03
     ILin= 5 X=2.828D-01 Y=-2.505379430245D+01 DE=-2.48D-03
     ILin= 6 X=4.000D-01 Y=-2.505460895057D+01 DE=-3.29D-03
     ILin= 7 X=5.657D-01 Y=-2.505175094044D+01 DE=-4.33D-04
     An  expanding polynomial of degree  7 produced  0.4017
 Iteration F X= 4.017D-01 EE=-2.505460917483706D+01
     ILin= 1 X=0.000D+00 Y=-2.505131838962D+01 DE= 0.00D+00
     ILin= 2 X=1.000D-01 Y=-2.505172317558D+01 DE=-4.05D-04
     ILin= 3 X=1.414D-01 Y=-2.505210021826D+01 DE=-7.82D-04
 The two search directions are symmetric.
 Iteration B X= 4.017D-01 EE=-2.505460917483706D+01
 Take forward step, X= 4.017D-01 Step= 4.017D-01
 Iteration   1 EE= -25.0546091773483                                    Grad=2.257D-02 Max rot=    0.4264 deg.
 Gradient too large for Newton-Raphson -- use scaled steepest descent instead.
 Alpha Gap=     0.404 HL deriv= 6.96D-17
  Beta Gap=     0.353 HL deriv= 9.47D-18
     ILin= 1 X=0.000D+00 Y=-2.505460917735D+01 DE= 0.00D+00 F= -9.63D-04
     ILin= 2 X=3.000D-01 Y=-2.505486962241D+01 DE=-2.60D-04 F= -7.73D-04
     ILin= 3 X=6.000D-01 Y=-2.505507310257D+01 DE=-4.64D-04 F= -5.83D-04
     ILin= 4 X=1.200D+00 Y=-2.505530909505D+01 DE=-7.00D-04 F= -2.03D-04
     ILin= 5 X=2.400D+00 Y=-2.505509702500D+01 DE=-4.88D-04 F=  5.57D-04
     An  expanding polynomial of degree  5 produced  1.5210
 Iteration   2 EE= -25.0553417247551     Delta-E=       -0.000732547407 Grad=6.727D-03 Max rot=    0.1146 deg.
 QCNR:  CnvC1=2.72D-09 CnvC2=2.72D-08
 LinEq1:  Iter=  0 NonCon=     1 RMS=3.18D-04 Max=4.03D-03 NDo=     1
 AX will form     1 AO Fock derivatives at one time.
 LinEq1:  Iter=  1 NonCon=     1 RMS=9.47D-05 Max=6.40D-04 NDo=     1
 LinEq1:  Iter=  2 NonCon=     1 RMS=1.75D-05 Max=1.49D-04 NDo=     1
 LinEq1:  Iter=  3 NonCon=     1 RMS=3.69D-06 Max=4.73D-05 NDo=     1
 LinEq1:  Iter=  4 NonCon=     1 RMS=1.30D-06 Max=1.56D-05 NDo=     1
 LinEq1:  Iter=  5 NonCon=     1 RMS=1.85D-07 Max=1.37D-06 NDo=     1
 LinEq1:  Iter=  6 NonCon=     1 RMS=3.65D-08 Max=3.53D-07 NDo=     1
 LinEq1:  Iter=  7 NonCon=     1 RMS=8.76D-09 Max=6.38D-08 NDo=     1
 LinEq1:  Iter=  8 NonCon=     0 RMS=1.75D-09 Max=1.42D-08 NDo=     1
 Linear equations converged to 2.717D-09 2.717D-08 after     8 iterations.
 Angle between quadratic step and gradient=  53.71 degrees.
     ILin= 1 X=0.000D+00 Y=-2.505534172476D+01 DE= 0.00D+00 F= -7.76D-04
     ILin= 2 X=1.000D+00 Y=-2.505569824499D+01 DE=-3.57D-04 F=  9.91D-05
     Accept linear search using points  1 and  2.
     An  expanding polynomial of degree  2 produced  0.8983
 Iteration   3 EE= -25.0557032368762     Delta-E=       -0.000361512121 Grad=1.246D-03 Max rot=    0.0238 deg.
 QCNR:  CnvC1=2.72D-09 CnvC2=2.72D-08
 LinEq1:  Iter=  0 NonCon=     1 RMS=6.45D-05 Max=6.66D-04 NDo=     1
 LinEq1:  Iter=  1 NonCon=     1 RMS=1.47D-05 Max=1.19D-04 NDo=     1
 LinEq1:  Iter=  2 NonCon=     1 RMS=2.73D-06 Max=2.66D-05 NDo=     1
 LinEq1:  Iter=  3 NonCon=     1 RMS=9.60D-07 Max=1.26D-05 NDo=     1
 LinEq1:  Iter=  4 NonCon=     1 RMS=2.11D-07 Max=1.70D-06 NDo=     1
 LinEq1:  Iter=  5 NonCon=     1 RMS=2.82D-08 Max=2.02D-07 NDo=     1
 LinEq1:  Iter=  6 NonCon=     1 RMS=4.59D-09 Max=3.42D-08 NDo=     1
 LinEq1:  Iter=  7 NonCon=     0 RMS=8.75D-10 Max=8.20D-09 NDo=     1
 Linear equations converged to 2.717D-09 2.717D-08 after     7 iterations.
 Angle between quadratic step and gradient=  56.10 degrees.
     ILin= 1 X=0.000D+00 Y=-2.505570323688D+01 DE= 0.00D+00 F= -2.99D-05
     ILin= 2 X=1.000D+00 Y=-2.505571881762D+01 DE=-1.56D-05 F= -1.83D-06
     Reject lnstep minimum 1.070D+00 FVal=-2.505571888121D+01 Lims=  0.00D+00  1.00D+00
     ILin= 3 X=2.000D+00 Y=-2.505570801815D+01 DE=-4.78D-06 F=  2.29D-05
     An  expanding polynomial of degree  3 produced  1.0906
     Minimum is close to point  2 DX=  9.06D-02 DF= -1.08D-07 DXR=  8.31D-02 DFR=  6.95D-03 which will be used.
 Iteration   4 EE= -25.0557188176194     Delta-E=       -0.000015580743 Grad=9.348D-05 Max rot=    0.0012 deg.
 QCNR:  CnvC1=9.35D-10 CnvC2=9.35D-09
 LinEq1:  Iter=  0 NonCon=     1 RMS=4.17D-06 Max=5.30D-05 NDo=     1
 LinEq1:  Iter=  1 NonCon=     1 RMS=8.92D-07 Max=6.34D-06 NDo=     1
 LinEq1:  Iter=  2 NonCon=     1 RMS=2.19D-07 Max=2.06D-06 NDo=     1
 LinEq1:  Iter=  3 NonCon=     1 RMS=6.20D-08 Max=6.98D-07 NDo=     1
 LinEq1:  Iter=  4 NonCon=     1 RMS=1.30D-08 Max=1.10D-07 NDo=     1
 LinEq1:  Iter=  5 NonCon=     1 RMS=2.66D-09 Max=1.90D-08 NDo=     1
 LinEq1:  Iter=  6 NonCon=     0 RMS=5.36D-10 Max=3.88D-09 NDo=     1
 Linear equations converged to 9.348D-10 9.348D-09 after     6 iterations.
 Angle between quadratic step and gradient=  59.47 degrees.
     ILin= 1 X=0.000D+00 Y=-2.505571881762D+01 DE= 0.00D+00 F= -2.04D-07
     ILin= 2 X=1.000D+00 Y=-2.505571891962D+01 DE=-1.02D-07
 Iteration   5 EE= -25.0557189196230     Delta-E=       -0.000000102004 Grad=3.121D-05 Max rot=    0.0004 deg.
 QCNR:  CnvC1=3.12D-10 CnvC2=3.12D-09
 LinEq1:  Iter=  0 NonCon=     1 RMS=6.09D-07 Max=4.51D-06 NDo=     1
 LinEq1:  Iter=  1 NonCon=     1 RMS=1.75D-07 Max=1.57D-06 NDo=     1
 LinEq1:  Iter=  2 NonCon=     1 RMS=3.85D-08 Max=4.31D-07 NDo=     1
 LinEq1:  Iter=  3 NonCon=     1 RMS=9.63D-09 Max=9.75D-08 NDo=     1
 LinEq1:  Iter=  4 NonCon=     1 RMS=2.07D-09 Max=1.86D-08 NDo=     1
 LinEq1:  Iter=  5 NonCon=     1 RMS=4.95D-10 Max=4.45D-09 NDo=     1
 LinEq1:  Iter=  6 NonCon=     0 RMS=1.27D-10 Max=1.13D-09 NDo=     1
 Linear equations converged to 3.121D-10 3.121D-09 after     6 iterations.
 Angle between quadratic step and gradient=  68.42 degrees.
     ILin= 1 X=0.000D+00 Y=-2.505571891962D+01 DE= 0.00D+00 F= -1.05D-09
     ILin= 2 X=1.000D+00 Y=-2.505571892014D+01 DE=-5.20D-10
 Iteration   6 EE= -25.0557189201433     Delta-E=       -0.000000000520 Grad=7.767D-07 Max rot=    0.0000 deg.
 QCNR:  CnvC1=7.77D-12 CnvC2=7.77D-11
 LinEq1:  Iter=  0 NonCon=     1 RMS=1.54D-08 Max=1.37D-07 NDo=     1
 LinEq1:  Iter=  1 NonCon=     1 RMS=4.86D-09 Max=4.37D-08 NDo=     1
 LinEq1:  Iter=  2 NonCon=     1 RMS=1.09D-09 Max=1.00D-08 NDo=     1
 LinEq1:  Iter=  3 NonCon=     1 RMS=2.77D-10 Max=2.80D-09 NDo=     1
 LinEq1:  Iter=  4 NonCon=     1 RMS=6.80D-11 Max=6.06D-10 NDo=     1
 LinEq1:  Iter=  5 NonCon=     1 RMS=1.61D-11 Max=1.25D-10 NDo=     1
 LinEq1:  Iter=  6 NonCon=     0 RMS=3.84D-12 Max=3.96D-11 NDo=     1
 Linear equations converged to 7.767D-12 7.767D-11 after     6 iterations.
 Angle between quadratic step and gradient=  77.61 degrees.
     ILin= 1 X=0.000D+00 Y=-2.505571892014D+01 DE= 0.00D+00 F= -2.56D-12
     ILin= 2 X=1.000D+00 Y=-2.505571892014D+01 DE=-1.27D-12
 Iteration   7 EE= -25.0557189201446     Delta-E=       -0.000000000001 Grad=1.621D-07 Max rot=    0.0000 deg.
 Rotation gradient small -- convergence achieved.
 Density matrix breaks symmetry, PCut= 1.00D-04
 Density matrix has no symmetry -- integrals replicated.
 Density matrix is not symmetric, so final MOs not symmetrized.
 SCF Done:  E(UHF) =  -25.0557189201     a.u. after    7 cycles
            Convg  =    0.1621D-06                    54 Fock formations.
              S**2 =  0.5247                  -V/T =  2.0060
 <Sx>= 0.0000 <Sy>= 0.0000 <Sz>= 0.0000 <S**2>= 0.5247 S= 0.3802
 <L.S>=  0.00000000000    
 Annihilation of the first spin contaminant:
 S**2 before annihilation     0.5247,   after     0.1780
 Leave Link  508 at Sat May 21 19:10:05 2022, MaxMem=   104857600 cpu:               4.3 elap:               4.4
 (Enter /apps/software/g16/l801.exe)
 Range of M.O.s used for correlation:     1   126
 NBasis=   126 NAE=     3 NBE=     3 NFC=     0 NFV=     0
 NROrb=    126 NOA=     3 NOB=     3 NVA=   123 NVB=   123

 **** Warning!!: The largest alpha MO coefficient is  0.14856893D+02


 **** Warning!!: The largest beta MO coefficient is  0.15938040D+02

 Leave Link  801 at Sat May 21 19:10:05 2022, MaxMem=   104857600 cpu:               0.0 elap:               0.0
 (Enter /apps/software/g16/l914.exe)
 UHF ground state
 Doing stability rather than CIS.
 Keep R1 and R2 ints in memory in symmetry-blocked form, NReq=40144005.
 FoFCou: FMM=F IPFlag=           0 FMFlag=           0 FMFlg1=           0
         NFxFlg=           0 DoJE=F BraDBF=F KetDBF=F FulRan=T
         wScrn=  0.000000 ICntrl=       600 IOpCl=  0 I1Cent=           0 NGrid=           0
         NMat0=    1 NMatS0=   8001 NMatT0=    0 NMatD0=    1 NMtDS0=    0 NMtDT0=    0
 Petite list used in FoFCou.
 MDV=   104857600 DFT=F DoStab=T Mixed=F DoRPA=F DoScal=F NonHer=F
 Making orbital integer symmetry assigments:
 Orbital symmetries:
 Alpha Orbitals:
       Occupied  (SG) (?A) (?A)
       Virtual   (?A) (?A) (?A) (?A) (?A) (?A) (?A) (?A) (?A) (?A)
                 (?A) (?A) (SG) (SG) (PI) (PI) (?B) (?B) (?B) (?B)
                 (?C) (?C) (?C) (?C) (?D) (?D) (?D) (?D) (SG) (PI)
                 (PI) (SG) (SG) (DLTA) (DLTA) (PI) (PI) (SG) (PI)
                 (PI) (SG) (PI) (PI) (SG) (?E) (?E) (?E) (?E) (?F)
                 (?F) (?F) (?F) (?F) (?F) (?F) (?F) (?F) (?G) (?G)
                 (?G) (?G) (?G) (SG) (PHI) (PHI) (PI) (PI) (SG)
                 (SG) (DLTA) (DLTA) (SG) (PI) (PI) (DLTA) (DLTA)
                 (PI) (PI) (PI) (PI) (SG) (SG) (PI) (PI) (?H) (?H)
                 (?H) (?H) (?H) (?H) (?H) (?H) (?H) (?H) (?H) (?H)
                 (?I) (?I) (?I) (?I) (?I) (?I) (PI) (PI) (SG) (SG)
                 (PHI) (PHI) (DLTA) (DLTA) (PI) (PI) (SG) (SG)
                 (PI) (PI) (DLTA) (DLTA) (SG) (PI) (PI) (SG) (SG)
 Beta  Orbitals:
       Occupied  (SG) (?A) (?A)
       Virtual   (?A) (?A) (?A) (?A) (?A) (?A) (?A) (SG) (?B) (?B)
                 (?B) (?B) (SG) (?A) (PI) (PI) (?A) (?A) (?A) (?A)
                 (?C) (?C) (?C) (?C) (?C) (?C) (?C) (?C) (SG) (PI)
                 (PI) (SG) (SG) (DLTA) (DLTA) (?D) (?D) (?D) (PI)
                 (PI) (SG) (PI) (PI) (SG) (?E) (?E) (?F) (?F) (?E)
                 (?E) (?F) (?F) (?F) (?F) (?F) (?F) (?F) (?G) (?G)
                 (?G) (?G) (?G) (SG) (PHI) (PHI) (PI) (PI) (SG)
                 (SG) (DLTA) (DLTA) (SG) (PI) (PI) (DLTA) (DLTA)
                 (PI) (PI) (PI) (PI) (SG) (SG) (PI) (PI) (?H) (?H)
                 (?H) (?H) (?H) (?H) (?I) (?I) (?I) (?I) (?I) (?I)
                 (PHI) (PHI) (DLTA) (DLTA) (PI) (PI) (PI) (PI)
                 (SG) (SG) (PHI) (PHI) (DLTA) (DLTA) (PI) (PI)
                 (SG) (SG) (PI) (PI) (DLTA) (DLTA) (SG) (PI) (PI)
                 (SG) (SG)
    12 initial guesses have been made.
 Convergence on wavefunction:    0.001000000000000
 Davidson Disk Diagonalization:  ConvIn= 1.00D-03 SkipCon=T Conv= 1.00D-03.
 Max sub-space:  1476 roots to seek:    12 dimension of matrix:          738
 Iteration     1 Dimension    12 NMult     0 NNew     12
 CISAX will form    12 AO SS matrices at one time.
 NMat=    12 NSing=    12 JSym2X= 2.
 Excitation Energies [eV] at current iteration:
 Root      1 :     0.498429041309447
 Root      2 :     1.064989490653891
 Root      3 :     2.249038497519566
 Root      4 :     2.530244693713934
 Root      5 :     3.353293561925524
 Root      6 :     6.259240445309121
 Root      7 :     6.918909034921365
 Root      8 :     6.991856355479944
 Root      9 :     7.165561176655650
 Root     10 :     9.985051094526202
 Root     11 :    11.828867016105326
 Root     12 :    12.016841484445264
 Iteration     2 Dimension    24 NMult    12 NNew     12
 CISAX will form    12 AO SS matrices at one time.
 NMat=    12 NSing=    12 JSym2X= 2.
 Root      1 not converged, maximum delta is    0.047108184572951
 Excitation Energies [eV] at current iteration:
 Root      1 :     0.007894945890086   Change is   -0.490534095419361
 Root      2 :     0.488941763523392   Change is   -0.576047727130499
 Root      3 :     1.802498167789512   Change is   -0.446540329730054
 Root      4 :     1.930389708927025   Change is   -0.599854984786908
 Root      5 :     2.410915059180278   Change is   -0.942378502745247
 Root      6 :     5.601315654268419   Change is   -0.657924791040702
 Root      7 :     5.846425480562000   Change is   -1.072483554359364
 Root      8 :     5.986671404681918   Change is   -1.005184950798026
 Root      9 :     7.043830596140399   Change is   -0.121730580515250
 Root     10 :     7.153454003360734   Change is   -2.831597091165469
 Root     11 :     8.698301733084149   Change is   -3.130565283021177
 Root     12 :     9.174246517972941   Change is   -2.842594966472324
 Iteration     3 Dimension    27 NMult    24 NNew      3
 CISAX will form     3 AO SS matrices at one time.
 NMat=     3 NSing=     3 JSym2X= 2.
 Root      1 not converged, maximum delta is    0.006540109049652
 Excitation Energies [eV] at current iteration:
 Root      1 :     0.000079343525982   Change is   -0.007815602364103
 Root      2 :     0.473075790732891   Change is   -0.015865972790501
 Root      3 :     1.787316519410425   Change is   -0.015181648379086
 Iteration     4 Dimension    30 NMult    27 NNew      3
 CISAX will form     3 AO SS matrices at one time.
 NMat=     3 NSing=     3 JSym2X= 2.
 Root      1 has converged.
 Excitation Energies [eV] at current iteration:
 Root      1 :     0.000000976045707   Change is   -0.000078367480275
 Root      2 :     0.472133849120161   Change is   -0.000941941612730
 Root      3 :     1.786649934609015   Change is   -0.000666584801411
 Convergence achieved on expansion vectors.
 ***********************************************************************
 Stability analysis using <AA,BB:AA,BB> singles matrix:
 ***********************************************************************
 1PDM for each excited state written to RWF  633
 Ground to excited state transition densities written to RWF  633

 Eigenvectors of the stability matrix:
 
 Excited state symmetry could not be determined.
 Eigenvector   1:  2.917-?Sym  Eigenvalue= 0.0000000  <S**2>=1.878
      2A ->  4A       -0.22338
      2A ->  8A        0.21678
      2A -> 21A        0.12825
      3A ->  4A        0.32930
      3A ->  8A       -0.29089
      3A -> 21A       -0.14003
      2B ->  4B        0.25129
      2B ->  8B       -0.22007
      2B -> 21B       -0.13201
      3B ->  4B        0.54405
      3B ->  8B       -0.42017
      3B -> 21B       -0.18431
 The wavefunction is stable under the perturbations considered.
 Leave Link  914 at Sat May 21 19:10:09 2022, MaxMem=   104857600 cpu:               4.0 elap:               4.0
 (Enter /apps/software/g16/l508.exe)
 The wavefunction is already stable.
 Leave Link  508 at Sat May 21 19:10:09 2022, MaxMem=   104857600 cpu:               0.0 elap:               0.0
 (Enter /apps/software/g16/l601.exe)
 Copying SCF densities to generalized density rwf, IOpCl= 1 IROHF=0.
 SCF density gives NOpUse=  1 NOpAll=  4.
 Marking SCF density as not fully symmetric.

 **********************************************************************

            Population analysis using the SCF density.

 **********************************************************************

 Orbital symmetries:
 Alpha Orbitals:
       Occupied  (SG) (?A) (?A)
       Virtual   (?A) (?A) (?A) (?A) (?A) (?A) (?A) (?A) (?A) (?A)
                 (?A) (?A) (SG) (SG) (PI) (PI) (?B) (?B) (?B) (?B)
                 (?C) (?C) (?C) (?C) (?D) (?D) (?D) (?D) (SG) (PI)
                 (PI) (SG) (SG) (DLTA) (DLTA) (PI) (PI) (SG) (PI)
                 (PI) (SG) (PI) (PI) (SG) (?E) (?E) (?E) (?E) (?F)
                 (?F) (?F) (?F) (?F) (?F) (?F) (?F) (?F) (?G) (?G)
                 (?G) (?G) (?G) (SG) (PHI) (PHI) (PI) (PI) (SG)
                 (SG) (DLTA) (DLTA) (SG) (PI) (PI) (DLTA) (DLTA)
                 (PI) (PI) (PI) (PI) (SG) (SG) (PI) (PI) (?H) (?H)
                 (?H) (?H) (?H) (?H) (?H) (?H) (?H) (?H) (?H) (?H)
                 (?I) (?I) (?I) (?I) (?I) (?I) (PI) (PI) (SG) (SG)
                 (PHI) (PHI) (DLTA) (DLTA) (PI) (PI) (SG) (SG)
                 (PI) (PI) (DLTA) (DLTA) (SG) (PI) (PI) (SG) (SG)
 Beta  Orbitals:
       Occupied  (SG) (?A) (?A)
       Virtual   (?A) (?A) (?A) (?A) (?A) (?A) (?A) (SG) (?B) (?B)
                 (?B) (?B) (SG) (?A) (PI) (PI) (?A) (?A) (?A) (?A)
                 (?C) (?C) (?C) (?C) (?C) (?C) (?C) (?C) (SG) (PI)
                 (PI) (SG) (SG) (DLTA) (DLTA) (?D) (?D) (?D) (PI)
                 (PI) (SG) (PI) (PI) (SG) (?E) (?E) (?F) (?F) (?E)
                 (?E) (?F) (?F) (?F) (?F) (?F) (?F) (?F) (?G) (?G)
                 (?G) (?G) (?G) (SG) (PHI) (PHI) (PI) (PI) (SG)
                 (SG) (DLTA) (DLTA) (SG) (PI) (PI) (DLTA) (DLTA)
                 (PI) (PI) (PI) (PI) (SG) (SG) (PI) (PI) (?H) (?H)
                 (?H) (?H) (?H) (?H) (?I) (?I) (?I) (?I) (?I) (?I)
                 (PHI) (PHI) (DLTA) (DLTA) (PI) (PI) (PI) (PI)
                 (SG) (SG) (PHI) (PHI) (DLTA) (DLTA) (PI) (PI)
                 (SG) (SG) (PI) (PI) (DLTA) (DLTA) (SG) (PI) (PI)
                 (SG) (SG)
 Unable to determine electronic state:  an orbital has unidentified symmetry.
 Alpha  occ. eigenvalues --   -7.73748  -0.53362  -0.38374
 Alpha virt. eigenvalues --    0.01942   0.02204   0.03236   0.05354   0.07286
 Alpha virt. eigenvalues --    0.07427   0.09631   0.11557   0.14089   0.14147
 Alpha virt. eigenvalues --    0.14388   0.14404   0.19941   0.23601   0.26622
 Alpha virt. eigenvalues --    0.26666   0.30522   0.30578   0.33930   0.37530
 Alpha virt. eigenvalues --    0.45667   0.45667   0.46294   0.46294   0.48732
 Alpha virt. eigenvalues --    0.48798   0.49524   0.49618   0.51129   0.54523
 Alpha virt. eigenvalues --    0.54635   0.57225   0.65340   0.76141   0.76142
 Alpha virt. eigenvalues --    0.80206   0.80243   0.83494   0.95180   0.95308
 Alpha virt. eigenvalues --    1.04713   1.12615   1.12773   1.31042   1.34206
 Alpha virt. eigenvalues --    1.34206   1.36125   1.36125   1.37617   1.37796
 Alpha virt. eigenvalues --    1.39096   1.39137   1.41634   1.41636   1.41715
 Alpha virt. eigenvalues --    1.43047   1.43048   1.48486   1.48551   1.49114
 Alpha virt. eigenvalues --    1.49698   1.49720   1.60511   1.70131   1.70131
 Alpha virt. eigenvalues --    1.77786   1.77989   1.81587   2.03092   2.05504
 Alpha virt. eigenvalues --    2.05504   2.10145   2.11722   2.11809   2.55878
 Alpha virt. eigenvalues --    2.55878   2.74475   2.74532   3.02836   3.02921
 Alpha virt. eigenvalues --    3.04980   3.39562   3.74831   3.75145   3.89999
 Alpha virt. eigenvalues --    3.89999   3.93193   3.93194   3.93459   3.93460
 Alpha virt. eigenvalues --    3.98681   3.99001   4.00247   4.00291   4.00372
 Alpha virt. eigenvalues --    4.04126   4.06339   4.06339   4.12193   4.12199
 Alpha virt. eigenvalues --    4.17949   4.18286   4.34724   4.35035   4.56423
 Alpha virt. eigenvalues --    4.76690   6.62655   6.62655   6.72535   6.72535
 Alpha virt. eigenvalues --    6.77680   6.77697   6.91873   7.75041   8.23247
 Alpha virt. eigenvalues --    8.23259   8.49107   8.49107   8.59560   8.69070
 Alpha virt. eigenvalues --    8.69087   9.27545  13.60089
  Beta  occ. eigenvalues --   -7.74487  -0.56484  -0.33833
  Beta virt. eigenvalues --    0.01693   0.01876   0.03162   0.04927   0.06990
  Beta virt. eigenvalues --    0.07091   0.09468   0.11598   0.14116   0.14167
  Beta virt. eigenvalues --    0.14328   0.14328   0.19697   0.25291   0.27533
  Beta virt. eigenvalues --    0.27544   0.29927   0.30214   0.31887   0.36836
  Beta virt. eigenvalues --    0.45692   0.45692   0.46114   0.46114   0.47717
  Beta virt. eigenvalues --    0.47804   0.49045   0.49049   0.50979   0.54522
  Beta virt. eigenvalues --    0.54615   0.60142   0.66126   0.76831   0.76831
  Beta virt. eigenvalues --    0.82376   0.82386   0.82766   0.95792   0.95805
  Beta virt. eigenvalues --    1.04028   1.13019   1.13067   1.30571   1.34025
  Beta virt. eigenvalues --    1.34025   1.35220   1.35321   1.36068   1.36068
  Beta virt. eigenvalues --    1.38212   1.38215   1.39830   1.41280   1.41281
  Beta virt. eigenvalues --    1.42737   1.42737   1.47477   1.47578   1.47801
  Beta virt. eigenvalues --    1.49277   1.49281   1.61220   1.70682   1.70682
  Beta virt. eigenvalues --    1.77789   1.77953   1.84421   2.03011   2.05871
  Beta virt. eigenvalues --    2.05872   2.11509   2.12754   2.12819   2.58150
  Beta virt. eigenvalues --    2.58150   2.76532   2.76584   3.05437   3.05499
  Beta virt. eigenvalues --    3.06473   3.41044   3.74532   3.74732   3.90011
  Beta virt. eigenvalues --    3.90011   3.92698   3.92698   3.92905   3.92906
  Beta virt. eigenvalues --    3.96925   3.97190   3.98456   3.99135   3.99137
  Beta virt. eigenvalues --    4.02473   4.06314   4.06314   4.10904   4.10908
  Beta virt. eigenvalues --    4.16452   4.16729   4.33172   4.33432   4.54174
  Beta virt. eigenvalues --    4.75481   6.64392   6.64392   6.74138   6.74138
  Beta virt. eigenvalues --    6.79199   6.79215   6.93217   7.79648   8.26599
  Beta virt. eigenvalues --    8.26611   8.51679   8.51679   8.62561   8.71511
  Beta virt. eigenvalues --    8.71526   9.29811  13.59716
          Condensed to atoms (all electrons):
               1          2
     1  B    4.712097   0.154950
     2  H    0.154950   0.978003
          Atomic-Atomic Spin Densities.
               1          2
     1  B   -0.550675  -0.100998
     2  H   -0.100998   0.752670
 Mulliken charges and spin densities:
               1          2
     1  B    0.132953  -0.651673
     2  H   -0.132953   0.651673
 Sum of Mulliken charges =   0.00000   0.00000
 Mulliken charges and spin densities with hydrogens summed into heavy atoms:
               1          2
     1  B    0.000000   0.000000
 Electronic spatial extent (au):  <R**2>=             31.7452
 Charge=              0.0000 electrons
 Dipole moment (field-independent basis, Debye):
    X=             -0.0000    Y=              0.0429    Z=              0.7937  Tot=              0.7949
 Quadrupole moment (field-independent basis, Debye-Ang):
   XX=             -7.2362   YY=             -7.5742   ZZ=            -11.8774
   XY=             -0.0000   XZ=              0.0000   YZ=             -0.3739
 Traceless Quadrupole moment (field-independent basis, Debye-Ang):
   XX=              1.6597   YY=              1.3217   ZZ=             -2.9815
   XY=             -0.0000   XZ=              0.0000   YZ=             -0.3739
 Octapole moment (field-independent basis, Debye-Ang**2):
  XXX=             -0.0000  YYY=              0.0769  ZZZ=              1.8866  XYY=             -0.0000
  XXY=              0.0320  XXZ=              0.7936  XZZ=             -0.0000  YZZ=             -0.4489
  YYZ=              0.6078  XYZ=             -0.0000
 Hexadecapole moment (field-independent basis, Debye-Ang**3):
 XXXX=            -10.3897 YYYY=            -11.3053 ZZZZ=            -55.7575 XXXY=             -0.0000
 XXXZ=              0.0000 YYYX=             -0.0000 YYYZ=             -0.5876 ZZZX=              0.0000
 ZZZY=             -0.6438 XXYY=             -3.6158 XXZZ=            -10.6414 YYZZ=            -10.8848
 XXYZ=             -0.1932 YYXZ=              0.0000 ZZXY=             -0.0000
 N-N= 1.322943027300D+00 E-N=-6.036043209550D+01  KE= 2.490599204073D+01
 Symmetry A1   KE= 2.482436511741D+01
 Symmetry A2   KE= 1.005238909016D-29
 Symmetry B1   KE= 1.444606542527D-29
 Symmetry B2   KE= 8.162692331237D-02
 Symmetry A1   SP= 3.191264434284D-02
 Symmetry A2   SP=-1.390331980966D-33
 Symmetry B1   SP=-9.532618694208D-33
 Symmetry B2   SP=-3.191264433724D-02
                          Isotropic Fermi Contact Couplings
        Atom                 a.u.       MegaHertz       Gauss      10(-4) cm-1
     1  B(11)              0.07495      53.75048      19.17951      17.92923
     2  H(1)               0.18508     413.64705     147.59955     137.97780
 --------------------------------------------------------
       Center         ----  Spin Dipole Couplings  ----
                      3XX-RR        3YY-RR        3ZZ-RR
 --------------------------------------------------------
     1   Atom        0.198631      0.167053     -0.365684
     2   Atom        0.022969      0.022806     -0.045774
 --------------------------------------------------------
                        XY            XZ            YZ
 --------------------------------------------------------
     1   Atom        0.000000     -0.000000     -0.219237
     2   Atom        0.000000     -0.000000      0.000880
 --------------------------------------------------------


 ---------------------------------------------------------------------------------
              Anisotropic Spin Dipole Couplings in Principal Axis System
 ---------------------------------------------------------------------------------

       Atom             a.u.   MegaHertz   Gauss  10(-4) cm-1        Axes

              Baa    -0.4443   -76.071   -27.144   -25.375  0.0000  0.3376  0.9413
     1 B(11)  Bbb     0.1986    34.009    12.135    11.344  1.0000 -0.0000  0.0000
              Bcc     0.2457    42.063    15.009    14.031  0.0000  0.9413 -0.3376
 
              Baa    -0.0458   -24.429    -8.717    -8.149  0.0000 -0.0128  0.9999
     2 H(1)   Bbb     0.0228    12.174     4.344     4.061 -0.0000  0.9999  0.0128
              Bcc     0.0230    12.255     4.373     4.088  1.0000  0.0000  0.0000
 

 ---------------------------------------------------------------------------------

 No NMR shielding tensors so no spin-rotation constants.
 Leave Link  601 at Sat May 21 19:10:09 2022, MaxMem=   104857600 cpu:               0.2 elap:               0.2
 (Enter /apps/software/g16/l9999.exe)
 1\1\GINC-CNODE03\Stability\UHF\Aug-CC-pVQZ\B1H1\LCZ\21-May-2022\0\\#p 
 UHF/aug-cc-pVQZ guess=mix stable=opt\\BH UHF at 2.0 Angstrom\\0,1\B,0,
 0.,0.,0.\H,0,2.,0.,0.\\Version=ES64L-G16RevA.03\HF=-25.0557189\S2=0.52
 4695\S2-1=0.\S2A=0.177999\RMSD=5.968e-09\Dipole=-0.3122819,0.0168964,0
 .\Quadrupole=-2.2166535,0.9826793,1.2339741,0.2780134,0.,0.\PG=C*V [C*
 (H1B1)]\\@


 TIME IS NATURE'S WAY OF MAKING SURE EVERYTHING
 DOESN'T HAPPEN AT ONCE.
                     - WOODY ALLEN
 Job cpu time:       0 days  0 hours  0 minutes 17.8 seconds.
 Elapsed time:       0 days  0 hours  0 minutes 17.6 seconds.
 File lengths (MBytes):  RWF=     33 Int=      0 D2E=      0 Chk=      4 Scr=      1
 Normal termination of Gaussian 16 at Sat May 21 19:10:09 2022.

Sender: Unischeduler System <lcz@mgt01>
Subject: Job 133625: <#!/bin/bash
#BSUB -J intel
#BSUB -o BH-2.0-G.out
#BSUB -n 8
#BSUB -q cqueue
#BSUB -R span[hosts=1]
export g16root=/apps/software
source /apps/software/g16/bsd/g16.profile
export GAUSS_SCRDIR=/scratch
/apps/software/g16/g16 < BH-2.0-G.inp > BH-2.0-G.out> Done

Job <#!/bin/bash
#BSUB -J intel
#BSUB -o BH-2.0-G.out
#BSUB -n 8
#BSUB -q cqueue
#BSUB -R span[hosts=1]
export g16root=/apps/software
source /apps/software/g16/bsd/g16.profile
export GAUSS_SCRDIR=/scratch
/apps/software/g16/g16 < BH-2.0-G.inp > BH-2.0-G.out> was submitted from host <mgt01> by user <lcz>.
Job was executed on host(s) <8*cnode03>, in queue <cqueue>, as user <lcz>.
</apps/users/lcz> was used as the home directory.
</apps/users/lcz/exe13/UHF> was used as the working directory.
Started at 2022-05-21 19:09:51
Results reported at 2022-05-21 19:10:09

Your job looked like:

------------------------------------------------------------
# User input
#!/bin/bash
#BSUB -J intel
#BSUB -o BH-2.0-G.out
#BSUB -n 8
#BSUB -q cqueue
#BSUB -R span[hosts=1]
export g16root=/apps/software
source /apps/software/g16/bsd/g16.profile
export GAUSS_SCRDIR=/scratch
/apps/software/g16/g16 < BH-2.0-G.inp > BH-2.0-G.out
------------------------------------------------------------

Successfully completed.

Resource usage summary:

    CPU time   :           16.83 sec.
    Max Memory :               479 MB
    Max Processes  :               5


The output (if any) follows:

