 Entering Gaussian System, Link 0=/apps/software/g16/g16
 Initial command:
 /apps/software/g16/l1.exe "/scratch/Gau-440915.inp" -scrdir="/scratch/"
 Entering Link 1 = /apps/software/g16/l1.exe PID=    440916.
  
 Copyright (c) 1988,1990,1992,1993,1995,1998,2003,2009,2016,
            Gaussian, Inc.  All Rights Reserved.
  
 This is part of the Gaussian(R) 16 program.  It is based on
 the Gaussian(R) 09 system (copyright 2009, Gaussian, Inc.),
 the Gaussian(R) 03 system (copyright 2003, Gaussian, Inc.),
 the Gaussian(R) 98 system (copyright 1998, Gaussian, Inc.),
 the Gaussian(R) 94 system (copyright 1995, Gaussian, Inc.),
 the Gaussian 92(TM) system (copyright 1992, Gaussian, Inc.),
 the Gaussian 90(TM) system (copyright 1990, Gaussian, Inc.),
 the Gaussian 88(TM) system (copyright 1988, Gaussian, Inc.),
 the Gaussian 86(TM) system (copyright 1986, Carnegie Mellon
 University), and the Gaussian 82(TM) system (copyright 1983,
 Carnegie Mellon University). Gaussian is a federally registered
 trademark of Gaussian, Inc.
  
 This software contains proprietary and confidential information,
 including trade secrets, belonging to Gaussian, Inc.
  
 This software is provided under written license and may be
 used, copied, transmitted, or stored only in accord with that
 written license.
  
 The following legend is applicable only to US Government
 contracts under FAR:
  
                    RESTRICTED RIGHTS LEGEND
  
 Use, reproduction and disclosure by the US Government is
 subject to restrictions as set forth in subparagraphs (a)
 and (c) of the Commercial Computer Software - Restricted
 Rights clause in FAR 52.227-19.
  
 Gaussian, Inc.
 340 Quinnipiac St., Bldg. 40, Wallingford CT 06492
  
  
 ---------------------------------------------------------------
 Warning -- This program may not be used in any manner that
 competes with the business of Gaussian, Inc. or will provide
 assistance to any competitor of Gaussian, Inc.  The licensee
 of this program is prohibited from giving any competitor of
 Gaussian, Inc. access to this program.  By using this program,
 the user acknowledges that Gaussian, Inc. is engaged in the
 business of creating and licensing software in the field of
 computational chemistry and represents and warrants to the
 licensee that it is not a competitor of Gaussian, Inc. and that
 it will not use this program in any manner prohibited above.
 ---------------------------------------------------------------
  

 Cite this work as:
 Gaussian 16, Revision A.03,
 M. J. Frisch, G. W. Trucks, H. B. Schlegel, G. E. Scuseria, 
 M. A. Robb, J. R. Cheeseman, G. Scalmani, V. Barone, 
 G. A. Petersson, H. Nakatsuji, X. Li, M. Caricato, A. V. Marenich, 
 J. Bloino, B. G. Janesko, R. Gomperts, B. Mennucci, H. P. Hratchian, 
 J. V. Ortiz, A. F. Izmaylov, J. L. Sonnenberg, D. Williams-Young, 
 F. Ding, F. Lipparini, F. Egidi, J. Goings, B. Peng, A. Petrone, 
 T. Henderson, D. Ranasinghe, V. G. Zakrzewski, J. Gao, N. Rega, 
 G. Zheng, W. Liang, M. Hada, M. Ehara, K. Toyota, R. Fukuda, 
 J. Hasegawa, M. Ishida, T. Nakajima, Y. Honda, O. Kitao, H. Nakai, 
 T. Vreven, K. Throssell, J. A. Montgomery, Jr., J. E. Peralta, 
 F. Ogliaro, M. J. Bearpark, J. J. Heyd, E. N. Brothers, K. N. Kudin, 
 V. N. Staroverov, T. A. Keith, R. Kobayashi, J. Normand, 
 K. Raghavachari, A. P. Rendell, J. C. Burant, S. S. Iyengar, 
 J. Tomasi, M. Cossi, J. M. Millam, M. Klene, C. Adamo, R. Cammi, 
 J. W. Ochterski, R. L. Martin, K. Morokuma, O. Farkas, 
 J. B. Foresman, and D. J. Fox, Gaussian, Inc., Wallingford CT, 2016.
 
 ******************************************
 Gaussian 16:  ES64L-G16RevA.03 25-Dec-2016
                21-May-2022 
 ******************************************
 %chk=BH-2.8-G.chk
 ---------------------------------------
 #p UHF/aug-cc-pVQZ guess=mix stable=opt
 ---------------------------------------
 1/38=1,172=1/1;
 2/12=2,17=6,18=5,40=1/2;
 3/5=16,6=2,7=10,11=2,25=1,30=1,116=2/1,2,3;
 4/13=-1/1;
 5/5=2,38=5/2;
 6/7=2,8=2,9=2,10=2,28=1/1;
 8/6=1,10=90,11=11/1;
 9/8=-3,42=1,46=1/14;
 5/5=2,8=3,17=40,38=5/8(-2);
 6/7=2,8=2,9=2,10=2,28=1/1;
 99/5=1,9=1/99;
 Leave Link    1 at Sat May 21 18:59:51 2022, MaxMem=           0 cpu:               0.0 elap:               0.0
 (Enter /apps/software/g16/l101.exe)
 ----------------------
 BH UHF at 2.8 Angstrom
 ----------------------
 Symbolic Z-matrix:
 Charge =  0 Multiplicity = 1
 B                     0.        0.        0. 
 H                     2.8       0.        0. 
 
 ITRead=  0  0
 MicOpt= -1 -1
 NAtoms=      2 NQM=        2 NQMF=       0 NMMI=      0 NMMIF=      0
                NMic=       0 NMicF=      0.
                    Isotopes and Nuclear Properties:
 (Nuclear quadrupole moments (NQMom) in fm**2, nuclear magnetic moments (NMagM)
  in nuclear magnetons)

  Atom         1           2
 IAtWgt=          11           1
 AtmWgt=  11.0093053   1.0078250
 NucSpn=           3           1
 AtZEff=  -0.0000000  -0.0000000
 NQMom=    4.0590000   0.0000000
 NMagM=    2.6886370   2.7928460
 AtZNuc=   5.0000000   1.0000000
 Leave Link  101 at Sat May 21 18:59:52 2022, MaxMem=   104857600 cpu:               0.1 elap:               0.1
 (Enter /apps/software/g16/l202.exe)
                          Input orientation:                          
 ---------------------------------------------------------------------
 Center     Atomic      Atomic             Coordinates (Angstroms)
 Number     Number       Type             X           Y           Z
 ---------------------------------------------------------------------
      1          5           0        0.000000    0.000000    0.000000
      2          1           0        2.800000    0.000000    0.000000
 ---------------------------------------------------------------------
 Stoichiometry    BH
 Framework group  C*V[C*(HB)]
 Deg. of freedom     1
 Full point group                 C*V     NOp   4
 Largest Abelian subgroup         C2V     NOp   4
 Largest concise Abelian subgroup C1      NOp   1
                         Standard orientation:                         
 ---------------------------------------------------------------------
 Center     Atomic      Atomic             Coordinates (Angstroms)
 Number     Number       Type             X           Y           Z
 ---------------------------------------------------------------------
      1          5           0        0.000000    0.000000    0.466667
      2          1           0        0.000000    0.000000   -2.333333
 ---------------------------------------------------------------------
 Rotational constants (GHZ):           0.0000000          69.8163034          69.8163034
 Leave Link  202 at Sat May 21 18:59:52 2022, MaxMem=   104857600 cpu:               0.0 elap:               0.0
 (Enter /apps/software/g16/l301.exe)
 Standard basis: Aug-CC-pVQZ (5D, 7F)
 Ernie: Thresh=  0.10000D-02 Tol=  0.10000D-05 Strict=F.
 Ernie:  4 primitive shells out of 54 were deleted.
 There are    68 symmetry adapted cartesian basis functions of A1  symmetry.
 There are    18 symmetry adapted cartesian basis functions of A2  symmetry.
 There are    37 symmetry adapted cartesian basis functions of B1  symmetry.
 There are    37 symmetry adapted cartesian basis functions of B2  symmetry.
 There are    50 symmetry adapted basis functions of A1  symmetry.
 There are    16 symmetry adapted basis functions of A2  symmetry.
 There are    30 symmetry adapted basis functions of B1  symmetry.
 There are    30 symmetry adapted basis functions of B2  symmetry.
   126 basis functions,   180 primitive gaussians,   160 cartesian basis functions
     3 alpha electrons        3 beta electrons
       nuclear repulsion energy         0.9449593052 Hartrees.
 IExCor=    0 DFT=F Ex=HF Corr=None ExCW=0 ScaHFX=  1.000000
 ScaDFX=  1.000000  1.000000  1.000000  1.000000 ScalE2=  1.000000  1.000000
 IRadAn=      5 IRanWt=     -1 IRanGd=            0 ICorTp=0 IEmpDi=  4
 NAtoms=    2 NActive=    2 NUniq=    2 SFac= 1.00D+00 NAtFMM=   60 NAOKFM=F Big=F
 Integral buffers will be    131072 words long.
 Raffenetti 2 integral format.
 Two-electron integral symmetry is turned on.
 Leave Link  301 at Sat May 21 18:59:52 2022, MaxMem=   104857600 cpu:               0.1 elap:               0.1
 (Enter /apps/software/g16/l302.exe)
 NPDir=0 NMtPBC=     1 NCelOv=     1 NCel=       1 NClECP=     1 NCelD=      1
         NCelK=      1 NCelE2=     1 NClLst=     1 CellRange=     0.0.
 One-electron integrals computed using PRISM.
 One-electron integral symmetry used in STVInt
 NBasis=   126 RedAO= T EigKep=  1.64D-03  NBF=    50    16    30    30
 NBsUse=   126 1.00D-06 EigRej= -1.00D+00 NBFU=    50    16    30    30
 Leave Link  302 at Sat May 21 18:59:52 2022, MaxMem=   104857600 cpu:               0.1 elap:               0.1
 (Enter /apps/software/g16/l303.exe)
 DipDrv:  MaxL=1.
 Leave Link  303 at Sat May 21 18:59:52 2022, MaxMem=   104857600 cpu:               0.0 elap:               0.0
 (Enter /apps/software/g16/l401.exe)
 ExpMin= 1.88D-02 ExpMax= 2.39D+04 ExpMxC= 2.30D+02 IAcc=3 IRadAn=         5 AccDes= 0.00D+00
 Harris functional with IExCor=  205 and IRadAn=       5 diagonalized for initial guess.
 HarFok:  IExCor=  205 AccDes= 0.00D+00 IRadAn=         5 IDoV= 1 UseB2=F ITyADJ=14
 ICtDFT=  3500011 ScaDFX=  1.000000  1.000000  1.000000  1.000000
 FoFCou: FMM=F IPFlag=           0 FMFlag=      100000 FMFlg1=           0
         NFxFlg=           0 DoJE=T BraDBF=F KetDBF=T FulRan=T
         wScrn=  0.000000 ICntrl=       500 IOpCl=  0 I1Cent=   200000004 NGrid=           0
         NMat0=    1 NMatS0=      1 NMatT0=    0 NMatD0=    1 NMtDS0=    0 NMtDT0=    0
 Petite list used in FoFCou.
 Harris En= -25.0023152189934    
 JPrj=0 DoOrth=F DoCkMO=T.
 Mixing orbitals, IMix= 1 IMixAn=  0 NRI=1 NE=    3 Coef=  7.07106781D-01  7.07106781D-01
 Mixing orbitals, IMix= 1 IMixAn=  0 NRI=1 NE=    3 Coef= -7.07106781D-01  7.07106781D-01
 Initial guess orbital symmetries:
 Alpha Orbitals:
       Occupied  (SG) (SG) (?A)
       Virtual   (?A) (?A) (SG) (SG) (PI) (PI) (SG) (SG) (PI) (PI)
                 (DLTA) (DLTA) (SG) (PI) (PI) (SG) (PI) (PI) (SG)
                 (SG) (PI) (PI) (DLTA) (DLTA) (SG) (DLTA) (DLTA)
                 (PHI) (PHI) (PI) (PI) (SG) (SG) (DLTA) (DLTA)
                 (PI) (PI) (SG) (PI) (PI) (SG) (PI) (PI) (SG) (DLTA)
                 (DLTA) (SG) (PI) (PI) (DLTA) (DLTA) (SG) (PHI)
                 (PHI) (?B) (?B) (PI) (PI) (PHI) (PHI) (DLTA) (DLTA)
                 (SG) (PI) (PI) (PHI) (PHI) (SG) (DLTA) (DLTA)
                 (SG) (SG) (PI) (PI) (DLTA) (DLTA) (PI) (PI) (PI)
                 (PI) (SG) (SG) (PI) (PI) (SG) (DLTA) (DLTA) (PI)
                 (PI) (?B) (?B) (PHI) (PHI) (SG) (DLTA) (DLTA)
                 (PHI) (PHI) (DLTA) (DLTA) (PI) (PI) (PI) (PI)
                 (SG) (SG) (PHI) (PHI) (DLTA) (DLTA) (PI) (PI)
                 (SG) (SG) (PI) (PI) (SG) (DLTA) (DLTA) (PI) (PI)
                 (SG) (SG)
 Beta  Orbitals:
       Occupied  (SG) (SG) (?A)
       Virtual   (?A) (?A) (SG) (SG) (PI) (PI) (SG) (SG) (PI) (PI)
                 (DLTA) (DLTA) (SG) (PI) (PI) (SG) (PI) (PI) (SG)
                 (SG) (PI) (PI) (DLTA) (DLTA) (SG) (DLTA) (DLTA)
                 (PHI) (PHI) (PI) (PI) (SG) (SG) (DLTA) (DLTA)
                 (PI) (PI) (SG) (PI) (PI) (SG) (PI) (PI) (SG) (DLTA)
                 (DLTA) (SG) (PI) (PI) (DLTA) (DLTA) (SG) (PHI)
                 (PHI) (?B) (?B) (PI) (PI) (PHI) (PHI) (DLTA) (DLTA)
                 (SG) (PI) (PI) (PHI) (PHI) (SG) (DLTA) (DLTA)
                 (SG) (SG) (PI) (PI) (DLTA) (DLTA) (PI) (PI) (PI)
                 (PI) (SG) (SG) (PI) (PI) (SG) (DLTA) (DLTA) (PI)
                 (PI) (?B) (?B) (PHI) (PHI) (SG) (DLTA) (DLTA)
                 (PHI) (PHI) (DLTA) (DLTA) (PI) (PI) (PI) (PI)
                 (SG) (SG) (PHI) (PHI) (DLTA) (DLTA) (PI) (PI)
                 (SG) (SG) (PI) (PI) (SG) (DLTA) (DLTA) (PI) (PI)
                 (SG) (SG)
 Initial guess <Sx>= 0.0000 <Sy>= 0.0000 <Sz>= 0.0000 <S**2>= 1.0000 S= 0.6180
 Leave Link  401 at Sat May 21 18:59:52 2022, MaxMem=   104857600 cpu:               0.2 elap:               0.2
 (Enter /apps/software/g16/l502.exe)
 Keep R1 and R2 ints in memory in symmetry-blocked form, NReq=40143665.
 FoFCou: FMM=F IPFlag=           0 FMFlag=           0 FMFlg1=           0
         NFxFlg=           0 DoJE=F BraDBF=F KetDBF=F FulRan=T
         wScrn=  0.000000 ICntrl=       600 IOpCl=  0 I1Cent=           0 NGrid=           0
         NMat0=    1 NMatS0=   8001 NMatT0=    0 NMatD0=    1 NMtDS0=    0 NMtDT0=    0
 Petite list used in FoFCou.
 UHF open shell SCF:
 Using DIIS extrapolation, IDIIS=  1040.
 NGot=   104857600 LenX=    88563632 LenY=    88537591
 Requested convergence on RMS density matrix=1.00D-08 within 128 cycles.
 Requested convergence on MAX density matrix=1.00D-06.
 Requested convergence on             energy=1.00D-06.
 No special actions if energy rises.
 An orbital has undefined symmetry, so N**3 symmetry is turned off.

 Cycle   1  Pass 1  IDiag  1:
 Density matrix breaks symmetry, PCut= 1.00D-07
 Density matrix has no symmetry -- integrals replicated.
 E= -24.8777525274685    
 DIIS: error= 3.01D-02 at cycle   1 NSaved=   1.
 NSaved= 1 IEnMin= 1 EnMin= -24.8777525274685     IErMin= 1 ErrMin= 3.01D-02
 ErrMax= 3.01D-02  0.00D+00 EMaxC= 1.00D-01 BMatC= 1.57D-01 BMatP= 1.57D-01
 IDIUse=3 WtCom= 6.99D-01 WtEn= 3.01D-01
 Coeff-Com:  0.100D+01
 Coeff-En:   0.100D+01
 Coeff:      0.100D+01
 Gap=     0.212 Goal=   None    Shift=    0.000
 Gap=     0.212 Goal=   None    Shift=    0.000
 GapD=    0.212 DampG=1.000 DampE=0.500 DampFc=0.5000 IDamp=-1.
 Damping current iteration by 5.00D-01
 RMSDP=1.39D-03 MaxDP=4.98D-02              OVMax= 2.94D-01

 Cycle   2  Pass 1  IDiag  1:
 Density matrix breaks symmetry, PCut= 1.00D-07
 Density matrix has no symmetry -- integrals replicated.
 E= -24.9040362815486     Delta-E=       -0.026283754080 Rises=F Damp=T
 DIIS: error= 1.82D-02 at cycle   2 NSaved=   2.
 NSaved= 2 IEnMin= 2 EnMin= -24.9040362815486     IErMin= 2 ErrMin= 1.82D-02
 ErrMax= 1.82D-02  0.00D+00 EMaxC= 1.00D-01 BMatC= 5.18D-02 BMatP= 1.57D-01
 IDIUse=3 WtCom= 8.18D-01 WtEn= 1.82D-01
 Coeff-Com: -0.904D+00 0.190D+01
 Coeff-En:   0.000D+00 0.100D+01
 Coeff:     -0.739D+00 0.174D+01
 Gap=     0.214 Goal=   None    Shift=    0.000
 Gap=     0.214 Goal=   None    Shift=    0.000
 RMSDP=1.23D-03 MaxDP=4.94D-02 DE=-2.63D-02 OVMax= 1.27D-01

 Cycle   3  Pass 1  IDiag  1:
 Density matrix breaks symmetry, PCut= 1.00D-07
 Density matrix has no symmetry -- integrals replicated.
 E= -24.9515355721854     Delta-E=       -0.047499290637 Rises=F Damp=F
 DIIS: error= 9.47D-03 at cycle   3 NSaved=   3.
 NSaved= 3 IEnMin= 3 EnMin= -24.9515355721854     IErMin= 3 ErrMin= 9.47D-03
 ErrMax= 9.47D-03  0.00D+00 EMaxC= 1.00D-01 BMatC= 4.17D-03 BMatP= 5.18D-02
 IDIUse=3 WtCom= 9.05D-01 WtEn= 9.47D-02
 Coeff-Com: -0.100D+00 0.123D+00 0.978D+00
 Coeff-En:   0.000D+00 0.000D+00 0.100D+01
 Coeff:     -0.906D-01 0.111D+00 0.980D+00
 Gap=     0.248 Goal=   None    Shift=    0.000
 Gap=     0.248 Goal=   None    Shift=    0.000
 RMSDP=4.48D-04 MaxDP=1.11D-02 DE=-4.75D-02 OVMax= 9.23D-02

 Cycle   4  Pass 1  IDiag  1:
 Density matrix breaks symmetry, PCut= 1.00D-07
 Density matrix has no symmetry -- integrals replicated.
 E= -24.9608470741768     Delta-E=       -0.009311501991 Rises=F Damp=F
 DIIS: error= 5.30D-03 at cycle   4 NSaved=   4.
 NSaved= 4 IEnMin= 4 EnMin= -24.9608470741768     IErMin= 4 ErrMin= 5.30D-03
 ErrMax= 5.30D-03  0.00D+00 EMaxC= 1.00D-01 BMatC= 1.87D-03 BMatP= 4.17D-03
 IDIUse=3 WtCom= 9.47D-01 WtEn= 5.30D-02
 Coeff-Com:  0.949D-01-0.168D+00-0.120D+01 0.227D+01
 Coeff-En:   0.000D+00 0.000D+00 0.000D+00 0.100D+01
 Coeff:      0.899D-01-0.159D+00-0.113D+01 0.220D+01
 Gap=     0.260 Goal=   None    Shift=    0.000
 Gap=     0.260 Goal=   None    Shift=    0.000
 RMSDP=6.49D-04 MaxDP=1.64D-02 DE=-9.31D-03 OVMax= 1.37D-01

 Cycle   5  Pass 1  IDiag  1:
 Density matrix breaks symmetry, PCut= 1.00D-07
 Density matrix has no symmetry -- integrals replicated.
 E= -24.9682013191282     Delta-E=       -0.007354244951 Rises=F Damp=F
 DIIS: error= 3.23D-03 at cycle   5 NSaved=   5.
 NSaved= 5 IEnMin= 5 EnMin= -24.9682013191282     IErMin= 5 ErrMin= 3.23D-03
 ErrMax= 3.23D-03  0.00D+00 EMaxC= 1.00D-01 BMatC= 5.93D-04 BMatP= 1.87D-03
 IDIUse=3 WtCom= 9.68D-01 WtEn= 3.23D-02
 Coeff-Com: -0.156D+00 0.294D+00-0.831D-01-0.151D+00 0.110D+01
 Coeff-En:   0.000D+00 0.000D+00 0.000D+00 0.000D+00 0.100D+01
 Coeff:     -0.151D+00 0.285D+00-0.804D-01-0.146D+00 0.109D+01
 Gap=     0.266 Goal=   None    Shift=    0.000
 Gap=     0.266 Goal=   None    Shift=    0.000
 RMSDP=1.68D-04 MaxDP=5.09D-03 DE=-7.35D-03 OVMax= 3.29D-02

 Cycle   6  Pass 1  IDiag  1:
 Density matrix breaks symmetry, PCut= 1.00D-07
 Density matrix has no symmetry -- integrals replicated.
 E= -24.9692440503452     Delta-E=       -0.001042731217 Rises=F Damp=F
 DIIS: error= 2.20D-03 at cycle   6 NSaved=   6.
 NSaved= 6 IEnMin= 6 EnMin= -24.9692440503452     IErMin= 6 ErrMin= 2.20D-03
 ErrMax= 2.20D-03  0.00D+00 EMaxC= 1.00D-01 BMatC= 1.80D-04 BMatP= 5.93D-04
 IDIUse=3 WtCom= 9.78D-01 WtEn= 2.20D-02
 Coeff-Com:  0.381D-01-0.846D-01 0.326D+00-0.712D+00-0.533D+00 0.197D+01
 Coeff-En:   0.000D+00 0.000D+00 0.000D+00 0.000D+00 0.000D+00 0.100D+01
 Coeff:      0.373D-01-0.828D-01 0.319D+00-0.697D+00-0.521D+00 0.194D+01
 Gap=     0.272 Goal=   None    Shift=    0.000
 Gap=     0.272 Goal=   None    Shift=    0.000
 RMSDP=2.61D-04 MaxDP=8.03D-03 DE=-1.04D-03 OVMax= 6.38D-02

 Cycle   7  Pass 1  IDiag  1:
 Density matrix breaks symmetry, PCut= 1.00D-07
 Density matrix has no symmetry -- integrals replicated.
 E= -24.9701953199997     Delta-E=       -0.000951269655 Rises=F Damp=F
 DIIS: error= 9.05D-04 at cycle   7 NSaved=   7.
 NSaved= 7 IEnMin= 7 EnMin= -24.9701953199997     IErMin= 7 ErrMin= 9.05D-04
 ErrMax= 9.05D-04  0.00D+00 EMaxC= 1.00D-01 BMatC= 4.39D-05 BMatP= 1.80D-04
 IDIUse=3 WtCom= 9.91D-01 WtEn= 9.05D-03
 Coeff-Com:  0.263D-01-0.476D-01-0.286D+00 0.770D+00-0.190D+00-0.121D+01
 Coeff-Com:  0.194D+01
 Coeff-En:   0.000D+00 0.000D+00 0.000D+00 0.000D+00 0.000D+00 0.000D+00
 Coeff-En:   0.100D+01
 Coeff:      0.261D-01-0.472D-01-0.284D+00 0.764D+00-0.188D+00-0.120D+01
 Coeff:      0.193D+01
 Gap=     0.272 Goal=   None    Shift=    0.000
 Gap=     0.272 Goal=   None    Shift=    0.000
 RMSDP=1.04D-04 MaxDP=2.72D-03 DE=-9.51D-04 OVMax= 2.41D-02

 Cycle   8  Pass 1  IDiag  1:
 Density matrix breaks symmetry, PCut= 1.00D-07
 Density matrix has no symmetry -- integrals replicated.
 E= -24.9703472023633     Delta-E=       -0.000151882364 Rises=F Damp=F
 DIIS: error= 3.36D-04 at cycle   8 NSaved=   8.
 NSaved= 8 IEnMin= 8 EnMin= -24.9703472023633     IErMin= 8 ErrMin= 3.36D-04
 ErrMax= 3.36D-04  0.00D+00 EMaxC= 1.00D-01 BMatC= 8.24D-06 BMatP= 4.39D-05
 IDIUse=3 WtCom= 9.97D-01 WtEn= 3.36D-03
 Coeff-Com: -0.153D-01 0.286D-01 0.573D-01-0.186D+00 0.217D+00 0.675D-01
 Coeff-Com: -0.605D+00 0.144D+01
 Coeff-En:   0.000D+00 0.000D+00 0.000D+00 0.000D+00 0.000D+00 0.000D+00
 Coeff-En:   0.000D+00 0.100D+01
 Coeff:     -0.153D-01 0.285D-01 0.571D-01-0.186D+00 0.216D+00 0.673D-01
 Coeff:     -0.603D+00 0.143D+01
 Gap=     0.271 Goal=   None    Shift=    0.000
 Gap=     0.271 Goal=   None    Shift=    0.000
 RMSDP=3.29D-05 MaxDP=1.18D-03 DE=-1.52D-04 OVMax= 5.83D-03

 Cycle   9  Pass 1  IDiag  1:
 Density matrix breaks symmetry, PCut= 1.00D-07
 Density matrix has no symmetry -- integrals replicated.
 E= -24.9703689099832     Delta-E=       -0.000021707620 Rises=F Damp=F
 DIIS: error= 3.20D-04 at cycle   9 NSaved=   9.
 NSaved= 9 IEnMin= 9 EnMin= -24.9703689099832     IErMin= 9 ErrMin= 3.20D-04
 ErrMax= 3.20D-04  0.00D+00 EMaxC= 1.00D-01 BMatC= 4.20D-06 BMatP= 8.24D-06
 IDIUse=3 WtCom= 9.97D-01 WtEn= 3.20D-03
 Coeff-Com:  0.619D-02-0.123D-01-0.260D-01 0.828D-01-0.175D+00 0.891D-01
 Coeff-Com:  0.280D+00-0.126D+01 0.201D+01
 Coeff-En:   0.000D+00 0.000D+00 0.000D+00 0.000D+00 0.000D+00 0.000D+00
 Coeff-En:   0.000D+00 0.000D+00 0.100D+01
 Coeff:      0.617D-02-0.123D-01-0.260D-01 0.825D-01-0.174D+00 0.888D-01
 Coeff:      0.279D+00-0.125D+01 0.201D+01
 Gap=     0.271 Goal=   None    Shift=    0.000
 Gap=     0.271 Goal=   None    Shift=    0.000
 RMSDP=2.66D-05 MaxDP=1.01D-03 DE=-2.17D-05 OVMax= 3.96D-03

 Cycle  10  Pass 1  IDiag  1:
 Density matrix breaks symmetry, PCut= 1.00D-07
 Density matrix has no symmetry -- integrals replicated.
 E= -24.9703849220552     Delta-E=       -0.000016012072 Rises=F Damp=F
 DIIS: error= 2.70D-04 at cycle  10 NSaved=  10.
 NSaved=10 IEnMin=10 EnMin= -24.9703849220552     IErMin=10 ErrMin= 2.70D-04
 ErrMax= 2.70D-04  0.00D+00 EMaxC= 1.00D-01 BMatC= 3.06D-06 BMatP= 4.20D-06
 IDIUse=3 WtCom= 9.97D-01 WtEn= 2.70D-03
 Coeff-Com: -0.758D-02 0.149D-01 0.245D-01-0.105D+00 0.320D+00-0.176D+00
 Coeff-Com: -0.539D+00 0.251D+01-0.711D+01 0.607D+01
 Coeff-En:   0.000D+00 0.000D+00 0.000D+00 0.000D+00 0.000D+00 0.000D+00
 Coeff-En:   0.000D+00 0.000D+00 0.000D+00 0.100D+01
 Coeff:     -0.756D-02 0.148D-01 0.245D-01-0.105D+00 0.319D+00-0.176D+00
 Coeff:     -0.538D+00 0.250D+01-0.709D+01 0.606D+01
 Gap=     0.271 Goal=   None    Shift=    0.000
 Gap=     0.271 Goal=   None    Shift=    0.000
 RMSDP=9.85D-05 MaxDP=3.98D-03 DE=-1.60D-05 OVMax= 1.31D-02

 Cycle  11  Pass 1  IDiag  1:
 Density matrix breaks symmetry, PCut= 1.00D-07
 Density matrix has no symmetry -- integrals replicated.
 E= -24.9704203592789     Delta-E=       -0.000035437224 Rises=F Damp=F
 DIIS: error= 9.42D-05 at cycle  11 NSaved=  11.
 NSaved=11 IEnMin=11 EnMin= -24.9704203592789     IErMin=11 ErrMin= 9.42D-05
 ErrMax= 9.42D-05  0.00D+00 EMaxC= 1.00D-01 BMatC= 5.25D-07 BMatP= 3.06D-06
 IDIUse=1 WtCom= 1.00D+00 WtEn= 0.00D+00
 Coeff-Com:  0.175D-02-0.324D-02-0.199D-02 0.215D-01-0.505D-01 0.696D-02
 Coeff-Com:  0.149D+00-0.371D+00 0.176D+01-0.243D+01 0.192D+01
 Coeff:      0.175D-02-0.324D-02-0.199D-02 0.215D-01-0.505D-01 0.696D-02
 Coeff:      0.149D+00-0.371D+00 0.176D+01-0.243D+01 0.192D+01
 Gap=     0.271 Goal=   None    Shift=    0.000
 Gap=     0.271 Goal=   None    Shift=    0.000
 RMSDP=5.23D-05 MaxDP=2.29D-03 DE=-3.54D-05 OVMax= 7.31D-03

 Cycle  12  Pass 1  IDiag  1:
 Density matrix breaks symmetry, PCut= 1.00D-07
 Density matrix has no symmetry -- integrals replicated.
 E= -24.9704254975724     Delta-E=       -0.000005138294 Rises=F Damp=F
 DIIS: error= 2.00D-05 at cycle  12 NSaved=  12.
 NSaved=12 IEnMin=12 EnMin= -24.9704254975724     IErMin=12 ErrMin= 2.00D-05
 ErrMax= 2.00D-05  0.00D+00 EMaxC= 1.00D-01 BMatC= 5.74D-08 BMatP= 5.25D-07
 IDIUse=1 WtCom= 1.00D+00 WtEn= 0.00D+00
 Coeff-Com: -0.793D-04 0.145D-03-0.229D-02 0.618D-02 0.959D-03-0.154D-01
 Coeff-Com:  0.361D-01-0.100D+00 0.741D-01 0.751D-01-0.260D+00 0.119D+01
 Coeff:     -0.793D-04 0.145D-03-0.229D-02 0.618D-02 0.959D-03-0.154D-01
 Coeff:      0.361D-01-0.100D+00 0.741D-01 0.751D-01-0.260D+00 0.119D+01
 Gap=     0.271 Goal=   None    Shift=    0.000
 Gap=     0.271 Goal=   None    Shift=    0.000
 RMSDP=3.64D-06 MaxDP=1.68D-04 DE=-5.14D-06 OVMax= 5.57D-04

 Cycle  13  Pass 1  IDiag  1:
 Density matrix breaks symmetry, PCut= 1.00D-07
 Density matrix has no symmetry -- integrals replicated.
 E= -24.9704255709797     Delta-E=       -0.000000073407 Rises=F Damp=F
 DIIS: error= 3.06D-06 at cycle  13 NSaved=  13.
 NSaved=13 IEnMin=13 EnMin= -24.9704255709797     IErMin=13 ErrMin= 3.06D-06
 ErrMax= 3.06D-06  0.00D+00 EMaxC= 1.00D-01 BMatC= 1.17D-09 BMatP= 5.74D-08
 IDIUse=1 WtCom= 1.00D+00 WtEn= 0.00D+00
 Coeff-Com: -0.127D-03 0.242D-03 0.418D-03-0.163D-02 0.270D-02-0.496D-03
 Coeff-Com: -0.871D-02 0.396D-01-0.831D-01 0.680D-01 0.591D-02-0.331D+00
 Coeff-Com:  0.131D+01
 Coeff:     -0.127D-03 0.242D-03 0.418D-03-0.163D-02 0.270D-02-0.496D-03
 Coeff:     -0.871D-02 0.396D-01-0.831D-01 0.680D-01 0.591D-02-0.331D+00
 Coeff:      0.131D+01
 Gap=     0.271 Goal=   None    Shift=    0.000
 Gap=     0.271 Goal=   None    Shift=    0.000
 RMSDP=1.05D-06 MaxDP=3.72D-05 DE=-7.34D-08 OVMax= 1.66D-04

 Cycle  14  Pass 1  IDiag  1:
 Density matrix breaks symmetry, PCut= 1.00D-07
 Density matrix has no symmetry -- integrals replicated.
 E= -24.9704255738538     Delta-E=       -0.000000002874 Rises=F Damp=F
 DIIS: error= 9.12D-07 at cycle  14 NSaved=  14.
 NSaved=14 IEnMin=14 EnMin= -24.9704255738538     IErMin=14 ErrMin= 9.12D-07
 ErrMax= 9.12D-07  0.00D+00 EMaxC= 1.00D-01 BMatC= 7.87D-11 BMatP= 1.17D-09
 IDIUse=1 WtCom= 1.00D+00 WtEn= 0.00D+00
 Coeff-Com:  0.395D-04-0.792D-04-0.484D-04 0.211D-03-0.126D-02 0.163D-02
 Coeff-Com:  0.875D-03-0.134D-01 0.346D-01-0.305D-01-0.786D-03 0.140D+00
 Coeff-Com: -0.730D+00 0.160D+01
 Coeff:      0.395D-04-0.792D-04-0.484D-04 0.211D-03-0.126D-02 0.163D-02
 Coeff:      0.875D-03-0.134D-01 0.346D-01-0.305D-01-0.786D-03 0.140D+00
 Coeff:     -0.730D+00 0.160D+01
 Gap=     0.271 Goal=   None    Shift=    0.000
 Gap=     0.271 Goal=   None    Shift=    0.000
 RMSDP=1.50D-07 MaxDP=6.91D-06 DE=-2.87D-09 OVMax= 2.31D-05

 Cycle  15  Pass 1  IDiag  1:
 Density matrix breaks symmetry, PCut= 1.00D-07
 Density matrix has no symmetry -- integrals replicated.
 E= -24.9704255739326     Delta-E=       -0.000000000079 Rises=F Damp=F
 DIIS: error= 3.56D-07 at cycle  15 NSaved=  15.
 NSaved=15 IEnMin=15 EnMin= -24.9704255739326     IErMin=15 ErrMin= 3.56D-07
 ErrMax= 3.56D-07  0.00D+00 EMaxC= 1.00D-01 BMatC= 7.26D-12 BMatP= 7.87D-11
 IDIUse=1 WtCom= 1.00D+00 WtEn= 0.00D+00
 Coeff-Com: -0.549D-05 0.105D-04 0.224D-04-0.840D-04 0.197D-03-0.193D-03
 Coeff-Com: -0.483D-03 0.418D-02-0.995D-02 0.746D-02 0.266D-02-0.656D-01
 Coeff-Com:  0.306D+00-0.811D+00 0.157D+01
 Coeff:     -0.549D-05 0.105D-04 0.224D-04-0.840D-04 0.197D-03-0.193D-03
 Coeff:     -0.483D-03 0.418D-02-0.995D-02 0.746D-02 0.266D-02-0.656D-01
 Coeff:      0.306D+00-0.811D+00 0.157D+01
 Gap=     0.271 Goal=   None    Shift=    0.000
 Gap=     0.271 Goal=   None    Shift=    0.000
 RMSDP=1.60D-07 MaxDP=6.17D-06 DE=-7.88D-11 OVMax= 2.37D-05

 Cycle  16  Pass 1  IDiag  1:
 Density matrix breaks symmetry, PCut= 1.00D-07
 Density matrix has no symmetry -- integrals replicated.
 E= -24.9704255739887     Delta-E=       -0.000000000056 Rises=F Damp=F
 DIIS: error= 6.92D-08 at cycle  16 NSaved=  16.
 NSaved=16 IEnMin=16 EnMin= -24.9704255739887     IErMin=16 ErrMin= 6.92D-08
 ErrMax= 6.92D-08  0.00D+00 EMaxC= 1.00D-01 BMatC= 6.30D-13 BMatP= 7.26D-12
 IDIUse=1 WtCom= 1.00D+00 WtEn= 0.00D+00
 Coeff-Com: -0.409D-06 0.590D-06 0.836D-05-0.315D-04-0.176D-05 0.110D-03
 Coeff-Com: -0.133D-03-0.463D-03 0.901D-03-0.124D-03-0.168D-02 0.168D-01
 Coeff-Com: -0.729D-01 0.195D+00-0.498D+00 0.136D+01
 Coeff:     -0.409D-06 0.590D-06 0.836D-05-0.315D-04-0.176D-05 0.110D-03
 Coeff:     -0.133D-03-0.463D-03 0.901D-03-0.124D-03-0.168D-02 0.168D-01
 Coeff:     -0.729D-01 0.195D+00-0.498D+00 0.136D+01
 Gap=     0.271 Goal=   None    Shift=    0.000
 Gap=     0.271 Goal=   None    Shift=    0.000
 RMSDP=1.93D-08 MaxDP=6.29D-07 DE=-5.60D-11 OVMax= 3.32D-06

 Cycle  17  Pass 1  IDiag  1:
 Density matrix breaks symmetry, PCut= 1.00D-07
 Density matrix has no symmetry -- integrals replicated.
 E= -24.9704255739901     Delta-E=       -0.000000000001 Rises=F Damp=F
 DIIS: error= 1.13D-08 at cycle  17 NSaved=  17.
 NSaved=17 IEnMin=17 EnMin= -24.9704255739901     IErMin=17 ErrMin= 1.13D-08
 ErrMax= 1.13D-08  0.00D+00 EMaxC= 1.00D-01 BMatC= 1.53D-14 BMatP= 6.30D-13
 IDIUse=1 WtCom= 1.00D+00 WtEn= 0.00D+00
 Large coefficients: NSaved= 17 BigCof=    0.00 CofMax=   10.00 Det=-7.01D-15
 Inversion failed.  Reducing to 16 matrices.
 Large coefficients: NSaved= 16 BigCof=    0.00 CofMax=   10.00 Det=-7.04D-15
 Inversion failed.  Reducing to 15 matrices.
 Coeff-Com: -0.570D-06 0.247D-05 0.684D-05-0.209D-04 0.632D-05 0.131D-03
 Coeff-Com: -0.383D-03 0.312D-03 0.741D-04-0.316D-02 0.148D-01-0.401D-01
 Coeff-Com:  0.116D+00-0.463D+00 0.137D+01
 Coeff:     -0.570D-06 0.247D-05 0.684D-05-0.209D-04 0.632D-05 0.131D-03
 Coeff:     -0.383D-03 0.312D-03 0.741D-04-0.316D-02 0.148D-01-0.401D-01
 Coeff:      0.116D+00-0.463D+00 0.137D+01
 Gap=     0.271 Goal=   None    Shift=    0.000
 Gap=     0.271 Goal=   None    Shift=    0.000
 RMSDP=2.75D-09 MaxDP=9.73D-08 DE=-1.38D-12 OVMax= 4.04D-07

 Density matrix breaks symmetry, PCut= 1.00D-07
 Density matrix has no symmetry -- integrals replicated.
 SCF Done:  E(UHF) =  -24.9704255740     A.U. after   17 cycles
            NFock= 17  Conv=0.28D-08     -V/T= 2.0089
 <Sx>= 0.0000 <Sy>= 0.0000 <Sz>= 0.0000 <S**2>= 0.1533 S= 0.1351
 <L.S>=  0.00000000000    
 KE= 2.474970344117D+01 PE=-5.915904199811D+01 EE= 8.493953677731D+00
 Annihilation of the first spin contaminant:
 S**2 before annihilation     0.1533,   after     0.0017
 Leave Link  502 at Sat May 21 18:59:56 2022, MaxMem=   104857600 cpu:               3.8 elap:               3.8
 (Enter /apps/software/g16/l601.exe)
 Copying SCF densities to generalized density rwf, IOpCl= 1 IROHF=0.
 SCF density gives NOpUse=  1 NOpAll=  4.
 Marking SCF density as not fully symmetric.

 **********************************************************************

            Population analysis using the SCF density.

 **********************************************************************

 Orbital symmetries:
 Alpha Orbitals:
       Occupied  (SG) (?A) (?A)
       Virtual   (?A) (?A) (?A) (?A) (?A) (?A) (SG) (?A) (?B) (?B)
                 (?B) (?B) (SG) (?C) (?C) (?C) (?C) (?C) (?C) (?C)
                 (?D) (?D) (?D) (?D) (?B) (?B) (?B) (?B) (SG) (PI)
                 (PI) (SG) (SG) (DLTA) (DLTA) (PI) (PI) (SG) (PI)
                 (PI) (?E) (?E) (?E) (SG) (?F) (?F) (?F) (?F) (?F)
                 (?F) (?F) (?F) (?F) (?F) (?F) (?F) (?F) (?F) (?F)
                 (?F) (?F) (?F) (SG) (PI) (PI) (PHI) (PHI) (SG)
                 (DLTA) (DLTA) (SG) (?G) (?G) (?G) (DLTA) (DLTA)
                 (PI) (PI) (PI) (PI) (SG) (SG) (PI) (PI) (SG) (?H)
                 (?H) (?H) (?H) (?H) (?H) (?H) (?H) (?I) (?I) (?I)
                 (?J) (?J) (?J) (?J) (?J) (?J) (?K) (?K) (?K) (SG)
                 (PHI) (PHI) (DLTA) (DLTA) (PI) (PI) (SG) (SG)
                 (PI) (PI) (SG) (DLTA) (DLTA) (PI) (PI) (SG) (SG)
 Beta  Orbitals:
       Occupied  (SG) (?A) (?A)
       Virtual   (?A) (?A) (?A) (?A) (?A) (?A) (SG) (?A) (?B) (?B)
                 (?B) (?B) (SG) (?C) (?C) (?C) (?C) (?C) (?C) (?C)
                 (?D) (?D) (?D) (?D) (?B) (?B) (?B) (?B) (SG) (PI)
                 (PI) (SG) (SG) (DLTA) (DLTA) (PI) (PI) (SG) (PI)
                 (PI) (?E) (?E) (?E) (SG) (?F) (?F) (?F) (?F) (?F)
                 (?F) (?F) (?F) (?F) (?F) (?F) (?F) (?F) (?F) (?F)
                 (?F) (?F) (?F) (SG) (PI) (PI) (PHI) (PHI) (SG)
                 (DLTA) (DLTA) (SG) (?G) (?G) (?G) (DLTA) (DLTA)
                 (PI) (PI) (PI) (PI) (SG) (SG) (PI) (PI) (SG) (?H)
                 (?H) (?H) (?H) (?H) (?H) (?H) (?H) (?I) (?I) (?I)
                 (?J) (?J) (?J) (?J) (?J) (?J) (?K) (?K) (?K) (SG)
                 (PHI) (PHI) (DLTA) (DLTA) (PI) (PI) (SG) (SG)
                 (PI) (PI) (SG) (DLTA) (DLTA) (PI) (PI) (SG) (SG)
 Unable to determine electronic state:  an orbital has unidentified symmetry.
 Alpha  occ. eigenvalues --   -7.83976  -0.58363  -0.28733
 Alpha virt. eigenvalues --   -0.01665  -0.01259  -0.00138   0.03742   0.05405
 Alpha virt. eigenvalues --    0.05538   0.07016   0.08575   0.13404   0.13405
 Alpha virt. eigenvalues --    0.13780   0.13820   0.17121   0.25604   0.25703
 Alpha virt. eigenvalues --    0.28010   0.28645   0.28993   0.29820   0.34059
 Alpha virt. eigenvalues --    0.43950   0.43950   0.44611   0.44611   0.46108
 Alpha virt. eigenvalues --    0.46152   0.46584   0.46628   0.47883   0.51175
 Alpha virt. eigenvalues --    0.51253   0.55176   0.61247   0.71741   0.71741
 Alpha virt. eigenvalues --    0.85589   0.85622   0.86946   0.88649   0.88669
 Alpha virt. eigenvalues --    0.92584   0.98222   0.98312   1.20001   1.32835
 Alpha virt. eigenvalues --    1.32835   1.33138   1.33139   1.33457   1.33457
 Alpha virt. eigenvalues --    1.34121   1.34131   1.34704   1.34864   1.34986
 Alpha virt. eigenvalues --    1.36892   1.38512   1.38545   1.38622   1.38769
 Alpha virt. eigenvalues --    1.40773   1.40778   1.48122   1.53293   1.53448
 Alpha virt. eigenvalues --    1.64041   1.64041   1.67851   1.77401   1.77401
 Alpha virt. eigenvalues --    1.88116   2.03339   2.03341   2.03450   2.56788
 Alpha virt. eigenvalues --    2.56788   2.68015   2.68021   2.72753   2.72768
 Alpha virt. eigenvalues --    2.80313   3.00180   3.63557   3.63754   3.82318
 Alpha virt. eigenvalues --    3.84419   3.84419   3.85492   3.85494   3.85833
 Alpha virt. eigenvalues --    3.85833   3.87116   3.87342   3.90066   3.90074
 Alpha virt. eigenvalues --    3.91507   3.99712   3.99712   4.01288   4.01420
 Alpha virt. eigenvalues --    4.01668   4.01807   4.08105   4.08316   4.13235
 Alpha virt. eigenvalues --    4.30551   6.64441   6.64441   6.67798   6.67798
 Alpha virt. eigenvalues --    6.76953   6.76957   6.79536   7.62759   8.07059
 Alpha virt. eigenvalues --    8.07062   8.37065   8.49710   8.49710   8.57000
 Alpha virt. eigenvalues --    8.57003   8.66845  13.03722
  Beta  occ. eigenvalues --   -7.83976  -0.58363  -0.28733
  Beta virt. eigenvalues --   -0.01665  -0.01259  -0.00138   0.03742   0.05405
  Beta virt. eigenvalues --    0.05538   0.07016   0.08575   0.13404   0.13405
  Beta virt. eigenvalues --    0.13780   0.13820   0.17121   0.25604   0.25703
  Beta virt. eigenvalues --    0.28010   0.28645   0.28993   0.29820   0.34059
  Beta virt. eigenvalues --    0.43950   0.43950   0.44611   0.44611   0.46108
  Beta virt. eigenvalues --    0.46152   0.46584   0.46628   0.47883   0.51175
  Beta virt. eigenvalues --    0.51253   0.55176   0.61247   0.71741   0.71741
  Beta virt. eigenvalues --    0.85589   0.85622   0.86946   0.88649   0.88669
  Beta virt. eigenvalues --    0.92584   0.98222   0.98312   1.20001   1.32835
  Beta virt. eigenvalues --    1.32835   1.33138   1.33139   1.33457   1.33457
  Beta virt. eigenvalues --    1.34121   1.34131   1.34704   1.34864   1.34986
  Beta virt. eigenvalues --    1.36892   1.38512   1.38545   1.38622   1.38769
  Beta virt. eigenvalues --    1.40773   1.40778   1.48122   1.53293   1.53448
  Beta virt. eigenvalues --    1.64041   1.64041   1.67851   1.77401   1.77401
  Beta virt. eigenvalues --    1.88116   2.03339   2.03341   2.03450   2.56788
  Beta virt. eigenvalues --    2.56788   2.68015   2.68021   2.72753   2.72768
  Beta virt. eigenvalues --    2.80313   3.00180   3.63557   3.63754   3.82318
  Beta virt. eigenvalues --    3.84419   3.84419   3.85492   3.85494   3.85833
  Beta virt. eigenvalues --    3.85833   3.87116   3.87342   3.90066   3.90074
  Beta virt. eigenvalues --    3.91507   3.99712   3.99712   4.01288   4.01420
  Beta virt. eigenvalues --    4.01668   4.01807   4.08105   4.08316   4.13235
  Beta virt. eigenvalues --    4.30551   6.64441   6.64441   6.67798   6.67798
  Beta virt. eigenvalues --    6.76953   6.76957   6.79536   7.62759   8.07059
  Beta virt. eigenvalues --    8.07062   8.37065   8.49710   8.49710   8.57000
  Beta virt. eigenvalues --    8.57003   8.66845  13.03722
          Condensed to atoms (all electrons):
               1          2
     1  B    4.499160   0.234671
     2  H    0.234671   1.031498
          Atomic-Atomic Spin Densities.
               1          2
     1  B    0.000000   0.000000
     2  H    0.000000   0.000000
 Mulliken charges and spin densities:
               1          2
     1  B    0.266169   0.000000
     2  H   -0.266169   0.000000
 Sum of Mulliken charges =  -0.00000   0.00000
 Mulliken charges and spin densities with hydrogens summed into heavy atoms:
               1          2
     1  B   -0.000000   0.000000
 Electronic spatial extent (au):  <R**2>=             48.6236
 Charge=             -0.0000 electrons
 Dipole moment (field-independent basis, Debye):
    X=              0.0000    Y=              0.0000    Z=              4.4261  Tot=              4.4261
 Quadrupole moment (field-independent basis, Debye-Ang):
   XX=             -8.5987   YY=             -8.3328   ZZ=            -17.0880
   XY=              0.0000   XZ=              0.0000   YZ=              0.0000
 Traceless Quadrupole moment (field-independent basis, Debye-Ang):
   XX=              2.7411   YY=              3.0070   ZZ=             -5.7482
   XY=              0.0000   XZ=              0.0000   YZ=              0.0000
 Octapole moment (field-independent basis, Debye-Ang**2):
  XXX=              0.0000  YYY=             -0.0000  ZZZ=             22.8041  XYY=              0.0000
  XXY=              0.0000  XXZ=              4.6066  XZZ=              0.0000  YZZ=             -0.0000
  YYZ=              4.7730  XYZ=              0.0000
 Hexadecapole moment (field-independent basis, Debye-Ang**3):
 XXXX=            -15.6619 YYYY=            -14.9180 ZZZZ=           -138.1876 XXXY=              0.0000
 XXXZ=              0.0000 YYYX=              0.0000 YYYZ=              0.0000 ZZZX=              0.0000
 ZZZY=              0.0000 XXYY=             -5.0967 XXZZ=            -22.6077 YYZZ=            -22.3831
 XXYZ=              0.0000 YYXZ=              0.0000 ZZXY=              0.0000
 N-N= 9.449593052143D-01 E-N=-5.915904167526D+01  KE= 2.474970344117D+01
 Symmetry A1   KE= 2.468362054316D+01
 Symmetry A2   KE= 2.459367006045D-29
 Symmetry B1   KE= 6.608289801664D-02
 Symmetry B2   KE= 5.467772722350D-30
 Symmetry A1   SP= 0.000000000000D+00
 Symmetry A2   SP= 0.000000000000D+00
 Symmetry B1   SP= 0.000000000000D+00
 Symmetry B2   SP= 0.000000000000D+00
                          Isotropic Fermi Contact Couplings
        Atom                 a.u.       MegaHertz       Gauss      10(-4) cm-1
     1  B(11)              0.00000       0.00000       0.00000       0.00000
     2  H(1)               0.00000       0.00000       0.00000       0.00000
 --------------------------------------------------------
       Center         ----  Spin Dipole Couplings  ----
                      3XX-RR        3YY-RR        3ZZ-RR
 --------------------------------------------------------
     1   Atom        0.000000      0.000000      0.000000
     2   Atom        0.000000      0.000000      0.000000
 --------------------------------------------------------
                        XY            XZ            YZ
 --------------------------------------------------------
     1   Atom       -0.000000     -0.146382      0.000000
     2   Atom       -0.000000      0.001374      0.000000
 --------------------------------------------------------


 ---------------------------------------------------------------------------------
              Anisotropic Spin Dipole Couplings in Principal Axis System
 ---------------------------------------------------------------------------------

       Atom             a.u.   MegaHertz   Gauss  10(-4) cm-1        Axes

              Baa    -0.1464   -25.063    -8.943    -8.360  0.7071  0.0000  0.7071
     1 B(11)  Bbb    -0.0000    -0.000    -0.000    -0.000  0.0000  1.0000 -0.0000
              Bcc     0.1464    25.063     8.943     8.360  0.7071 -0.0000 -0.7071
 
              Baa    -0.0014    -0.733    -0.262    -0.244  0.7071  0.0000 -0.7071
     2 H(1)   Bbb    -0.0000    -0.000    -0.000    -0.000  0.0000  1.0000  0.0000
              Bcc     0.0014     0.733     0.262     0.244  0.7071 -0.0000  0.7071
 

 ---------------------------------------------------------------------------------

 No NMR shielding tensors so no spin-rotation constants.
 Leave Link  601 at Sat May 21 18:59:56 2022, MaxMem=   104857600 cpu:               0.2 elap:               0.2
 (Enter /apps/software/g16/l801.exe)
 Range of M.O.s used for correlation:     1   126
 NBasis=   126 NAE=     3 NBE=     3 NFC=     0 NFV=     0
 NROrb=    126 NOA=     3 NOB=     3 NVA=   123 NVB=   123
 Leave Link  801 at Sat May 21 18:59:56 2022, MaxMem=   104857600 cpu:               0.0 elap:               0.0
 (Enter /apps/software/g16/l914.exe)
 UHF ground state
 Doing stability rather than CIS.
 Keep R1 and R2 ints in memory in symmetry-blocked form, NReq=40144005.
 FoFCou: FMM=F IPFlag=           0 FMFlag=           0 FMFlg1=           0
         NFxFlg=           0 DoJE=F BraDBF=F KetDBF=F FulRan=T
         wScrn=  0.000000 ICntrl=       600 IOpCl=  0 I1Cent=           0 NGrid=           0
         NMat0=    1 NMatS0=   8001 NMatT0=    0 NMatD0=    1 NMtDS0=    0 NMtDT0=    0
 Petite list used in FoFCou.
 MDV=   104857600 DFT=F DoStab=T Mixed=F DoRPA=F DoScal=F NonHer=F
 Making orbital integer symmetry assigments:
 Orbital symmetries:
 Alpha Orbitals:
       Occupied  (SG) (?A) (?A)
       Virtual   (?A) (?A) (?A) (?A) (?A) (?A) (SG) (?A) (?B) (?B)
                 (?B) (?B) (SG) (?C) (?C) (?C) (?C) (?C) (?C) (?C)
                 (?D) (?D) (?D) (?D) (?B) (?B) (?B) (?B) (SG) (PI)
                 (PI) (SG) (SG) (DLTA) (DLTA) (PI) (PI) (SG) (PI)
                 (PI) (?E) (?E) (?E) (SG) (?F) (?F) (?F) (?F) (?F)
                 (?F) (?F) (?F) (?F) (?F) (?F) (?F) (?F) (?F) (?F)
                 (?F) (?F) (?F) (SG) (PI) (PI) (PHI) (PHI) (SG)
                 (DLTA) (DLTA) (SG) (?G) (?G) (?G) (DLTA) (DLTA)
                 (PI) (PI) (PI) (PI) (SG) (SG) (PI) (PI) (SG) (?H)
                 (?H) (?H) (?H) (?H) (?H) (?H) (?H) (?I) (?I) (?I)
                 (?J) (?J) (?J) (?J) (?J) (?J) (?K) (?K) (?K) (SG)
                 (PHI) (PHI) (DLTA) (DLTA) (PI) (PI) (SG) (SG)
                 (PI) (PI) (SG) (DLTA) (DLTA) (PI) (PI) (SG) (SG)
 Beta  Orbitals:
       Occupied  (SG) (?A) (?A)
       Virtual   (?A) (?A) (?A) (?A) (?A) (?A) (SG) (?A) (?B) (?B)
                 (?B) (?B) (SG) (?C) (?C) (?C) (?C) (?C) (?C) (?C)
                 (?D) (?D) (?D) (?D) (?B) (?B) (?B) (?B) (SG) (PI)
                 (PI) (SG) (SG) (DLTA) (DLTA) (PI) (PI) (SG) (PI)
                 (PI) (?E) (?E) (?E) (SG) (?F) (?F) (?F) (?F) (?F)
                 (?F) (?F) (?F) (?F) (?F) (?F) (?F) (?F) (?F) (?F)
                 (?F) (?F) (?F) (SG) (PI) (PI) (PHI) (PHI) (SG)
                 (DLTA) (DLTA) (SG) (?G) (?G) (?G) (DLTA) (DLTA)
                 (PI) (PI) (PI) (PI) (SG) (SG) (PI) (PI) (SG) (?H)
                 (?H) (?H) (?H) (?H) (?H) (?H) (?H) (?I) (?I) (?I)
                 (?J) (?J) (?J) (?J) (?J) (?J) (?K) (?K) (?K) (SG)
                 (PHI) (PHI) (DLTA) (DLTA) (PI) (PI) (SG) (SG)
                 (PI) (PI) (SG) (DLTA) (DLTA) (PI) (PI) (SG) (SG)
    12 initial guesses have been made.
 Convergence on wavefunction:    0.001000000000000
 Davidson Disk Diagonalization:  ConvIn= 1.00D-03 SkipCon=T Conv= 1.00D-03.
 Max sub-space:  1476 roots to seek:    12 dimension of matrix:          738
 Iteration     1 Dimension    12 NMult     0 NNew     12
 CISAX will form    12 AO SS matrices at one time.
 NMat=    12 NSing=    12 JSym2X= 2.
 New state      1 was old state      5
 Excitation Energies [eV] at current iteration:
 Root      1 :    -2.783050863614944
 Root      2 :     0.451006401524457
 Root      3 :     1.109047891324646
 Root      4 :     2.393729664766503
 Root      5 :     2.439418778340519
 Root      6 :     2.524997009434258
 Root      7 :     2.810882263765499
 Root      8 :     5.501200933246926
 Root      9 :     5.508984294558706
 Root     10 :     9.297269270669627
 Root     11 :    11.452863835491838
 Root     12 :    11.704374132617254
 Iteration     2 Dimension    24 NMult    12 NNew     12
 CISAX will form    12 AO SS matrices at one time.
 NMat=    12 NSing=    12 JSym2X= 2.
 Root      1 not converged, maximum delta is    0.093055492897024
 Excitation Energies [eV] at current iteration:
 Root      1 :    -4.368813327127106   Change is   -1.585762463512162
 Root      2 :     0.013154791561702   Change is   -0.437851609962755
 Root      3 :     0.616890802838272   Change is   -0.492157088486374
 Root      4 :     1.696290782093545   Change is   -0.743127996246974
 Root      5 :     1.725572925367258   Change is   -0.668156739399245
 Root      6 :     1.839305107265383   Change is   -0.685691902168875
 Root      7 :     2.144097403862053   Change is   -0.666784859903445
 Root      8 :     5.086797755548212   Change is   -0.422186539010494
 Root      9 :     5.124894366775540   Change is   -0.376306566471386
 Root     10 :     6.253678293377284   Change is   -3.043590977292342
 Root     11 :     7.512890115033325   Change is   -3.939973720458513
 Root     12 :     7.708531225950383   Change is   -3.995842906666871
 Iteration     3 Dimension    27 NMult    24 NNew      3
 CISAX will form     3 AO SS matrices at one time.
 NMat=     3 NSing=     3 JSym2X= 2.
 Root      1 not converged, maximum delta is    0.020801981015054
 Excitation Energies [eV] at current iteration:
 Root      1 :    -4.431484400067021   Change is   -0.062671072939915
 Root      2 :     0.000748899220253   Change is   -0.012405892341448
 Root      3 :     0.598920364912778   Change is   -0.017970437925494
 Iteration     4 Dimension    30 NMult    27 NNew      3
 CISAX will form     3 AO SS matrices at one time.
 NMat=     3 NSing=     3 JSym2X= 2.
 Root      1 not converged, maximum delta is    0.001862001051995
 Excitation Energies [eV] at current iteration:
 Root      1 :    -4.432953928815560   Change is   -0.001469528748539
 Root      2 :     0.000048960883269   Change is   -0.000699938336984
 Root      3 :     0.597453679676554   Change is   -0.001466685236224
 Cease iterating as an instability has been found.
 ***********************************************************************
 Stability analysis using <AA,BB:AA,BB> singles matrix:
 ***********************************************************************
 1PDM for each excited state written to RWF  633
 Ground to excited state transition densities written to RWF  633

 Eigenvectors of the stability matrix:
 
 Excited state symmetry could not be determined.
 Eigenvector   1:  2.972-?Sym  Eigenvalue=-0.1629081  <S**2>=1.959
      3A ->  4A        0.47206
      3A ->  6A        0.38391
      3A ->  7A       -0.25393
      3A -> 10A        0.12889
      3A -> 16A       -0.13494
      3B ->  4B       -0.47206
      3B ->  6B       -0.38391
      3B ->  7B        0.25393
      3B -> 10B       -0.12889
      3B -> 16B        0.13494
 
 Excited state symmetry could not be determined.
 Eigenvector   2:  2.950-?Sym  Eigenvalue= 0.0000018  <S**2>=1.925
      2A ->  5A       -0.40109
      2A ->  8A        0.18725
      2A -> 18A        0.12390
      2A -> 20A        0.10618
      3A ->  5A        0.48541
      3A ->  8A       -0.16828
      2B ->  5B        0.40109
      2B ->  8B       -0.18725
      2B -> 18B       -0.12390
      2B -> 20B       -0.10618
      3B ->  5B       -0.48541
      3B ->  8B        0.16828
 
 Excited state symmetry could not be determined.
 Eigenvector   3:  2.788-?Sym  Eigenvalue= 0.0219560  <S**2>=1.693
      2A ->  4A       -0.31616
      2A ->  6A        0.17269
      2A ->  9A       -0.17150
      2A -> 17A       -0.11073
      3A ->  4A        0.39981
      3A ->  6A       -0.32578
      3A ->  9A        0.19151
      2B ->  4B       -0.31616
      2B ->  6B        0.17269
      2B ->  9B        0.17150
      2B -> 17B        0.11073
      3B ->  4B        0.39981
      3B ->  6B       -0.32578
      3B ->  9B       -0.19151
 The wavefunction has an internal instability.
 Leave Link  914 at Sat May 21 19:00:00 2022, MaxMem=   104857600 cpu:               4.2 elap:               4.2
 (Enter /apps/software/g16/l508.exe)
 Keep R1 and R2 ints in memory in symmetry-blocked form, NReq=40144065.
 FoFCou: FMM=F IPFlag=           0 FMFlag=           0 FMFlg1=           0
         NFxFlg=           0 DoJE=F BraDBF=F KetDBF=F FulRan=T
         wScrn=  0.000000 ICntrl=       600 IOpCl=  0 I1Cent=           0 NGrid=           0
         NMat0=    1 NMatS0=   8001 NMatT0=    0 NMatD0=    1 NMtDS0=    0 NMtDT0=    0
 Petite list used in FoFCou.
 Tight linear equation convergence will be used.
 UHF wavefunction.
 Quadratic Convergence SCF Method.
 Line search only if initial step raises energy.
 Perform preliminary linear searches along instability eigenvector.
     ILin= 1 X=0.000D+00 Y=-2.497042557399D+01 DE= 0.00D+00
     ILin= 2 X=1.000D-01 Y=-2.497203742258D+01 DE=-1.61D-03
     ILin= 3 X=1.414D-01 Y=-2.497361502342D+01 DE=-3.19D-03
     ILin= 4 X=2.000D-01 Y=-2.497666866361D+01 DE=-6.24D-03
     ILin= 5 X=2.828D-01 Y=-2.498237786588D+01 DE=-1.20D-02
     ILin= 6 X=4.000D-01 Y=-2.499226791241D+01 DE=-2.18D-02
     ILin= 7 X=5.657D-01 Y=-2.500642427175D+01 DE=-3.60D-02
     ILin= 8 X=8.000D-01 Y=-2.501582713866D+01 DE=-4.54D-02
     ILin= 9 X=1.131D+00 Y=-2.498291648362D+01 DE=-1.25D-02
     An  expanding polynomial of degree  9 produced  0.7862
 Iteration F X= 7.862D-01 EE=-2.501587244827641D+01
     ILin= 1 X=0.000D+00 Y=-2.497042557399D+01 DE= 0.00D+00
     ILin= 2 X=1.000D-01 Y=-2.497203742097D+01 DE=-1.61D-03
     ILin= 3 X=1.414D-01 Y=-2.497361501888D+01 DE=-3.19D-03
 The two search directions are symmetric.
 Iteration B X= 7.862D-01 EE=-2.501587244827641D+01
 Take forward step, X= 7.862D-01 Step= 7.862D-01
 Iteration   1 EE= -25.0158725338128                                    Grad=7.988D-02 Max rot=    1.4332 deg.
 Gradient too large for Newton-Raphson -- use scaled steepest descent instead.
 Alpha Gap=     0.330 HL deriv= 5.94D-02
  Beta Gap=     0.472 HL deriv= 2.84D-02
     ILin= 1 X=0.000D+00 Y=-2.501587253381D+01 DE= 0.00D+00 F= -1.73D-02
     ILin= 2 X=3.000D-01 Y=-2.502063673182D+01 DE=-4.76D-03 F= -1.44D-02
     ILin= 3 X=5.000D-01 Y=-2.502332894980D+01 DE=-7.46D-03 F= -1.25D-02
     ILin= 4 X=9.000D-01 Y=-2.502750278233D+01 DE=-1.16D-02 F= -8.37D-03
     ILin= 5 X=1.500D+00 Y=-2.503059324452D+01 DE=-1.47D-02 F= -1.88D-03
     ILin= 6 X=2.700D+00 Y=-2.502466759882D+01 DE=-8.80D-03 F=  1.19D-02
     An  expanding polynomial of degree  6 produced  1.6680
 Iteration   2 EE= -25.0307510957775     Delta-E=       -0.014878561965 Grad=3.614D-02 Max rot=    0.5580 deg.
 Gradient too large for Newton-Raphson -- use scaled steepest descent instead.
 Alpha Gap=     0.354 HL deriv= 2.65D-02
  Beta Gap=     0.510 HL deriv= 1.53D-02
     ILin= 1 X=0.000D+00 Y=-2.503075109578D+01 DE= 0.00D+00 F= -3.43D-03
     ILin= 2 X=7.000D-01 Y=-2.503264567313D+01 DE=-1.89D-03 F= -1.97D-03
     ILin= 3 X=1.400D+00 Y=-2.503349435532D+01 DE=-2.74D-03 F= -4.39D-04
     Reject lnstep minimum 1.941D+00 FVal=-2.503375618199D+01 Lims=  7.00D-01  1.40D+00
     ILin= 4 X=2.800D+00 Y=-2.503185225887D+01 DE=-1.10D-03 F=  2.82D-03
     An  expanding polynomial of degree  4 produced  1.5960
 Iteration   3 EE= -25.0335372386397     Delta-E=       -0.002786142862 Grad=1.961D-02 Max rot=    0.3923 deg.
 Gradient too large for Newton-Raphson -- use scaled steepest descent instead.
 Alpha Gap=     0.364 HL deriv= 8.75D-03
  Beta Gap=     0.525 HL deriv= 1.48D-03
     ILin= 1 X=0.000D+00 Y=-2.503353723864D+01 DE= 0.00D+00 F= -7.87D-04
     ILin= 2 X=1.600D+00 Y=-2.503417157041D+01 DE=-6.34D-04 F= -3.60D-06
     ILin= 3 X=3.300D+00 Y=-2.503345918170D+01 DE= 7.81D-05 F=  8.44D-04
     An  expanding polynomial of degree  3 produced  1.6021
     Minimum is close to point  2 DX=  2.14D-03 DF= -1.13D-09 DXR=  1.34D-03 DFR=  1.79D-06 which will be used.
 Iteration   4 EE= -25.0341715704145     Delta-E=       -0.000634331775 Grad=1.024D-02 Max rot=    0.2020 deg.
 Gradient too large for Newton-Raphson -- use scaled steepest descent instead.
 Alpha Gap=     0.367 HL deriv= 4.26D-03
  Beta Gap=     0.530 HL deriv= 3.27D-03
     ILin= 1 X=0.000D+00 Y=-2.503417157041D+01 DE= 0.00D+00 F= -2.28D-04
     ILin= 2 X=1.600D+00 Y=-2.503437104761D+01 DE=-1.99D-04 F= -2.08D-05
     ILin= 3 X=3.200D+00 Y=-2.503423682439D+01 DE=-6.53D-05 F=  1.89D-04
     An  expanding polynomial of degree  3 produced  1.7564
     Minimum is close to point  2 DX=  1.56D-01 DF= -1.60D-06 DXR=  8.91D-02 DFR=  8.00D-03 which will be used.
 Iteration   5 EE= -25.0343710476124     Delta-E=       -0.000199477198 Grad=6.483D-03 Max rot=    0.1360 deg.
 QCNR:  CnvC1=2.72D-09 CnvC2=2.72D-08
 LinEq1:  Iter=  0 NonCon=     1 RMS=2.98D-04 Max=2.93D-03 NDo=     1
 AX will form     1 AO Fock derivatives at one time.
 LinEq1:  Iter=  1 NonCon=     1 RMS=9.05D-05 Max=1.01D-03 NDo=     1
 LinEq1:  Iter=  2 NonCon=     1 RMS=1.55D-05 Max=1.83D-04 NDo=     1
 LinEq1:  Iter=  3 NonCon=     1 RMS=2.95D-06 Max=2.81D-05 NDo=     1
 LinEq1:  Iter=  4 NonCon=     1 RMS=8.60D-07 Max=1.14D-05 NDo=     1
 LinEq1:  Iter=  5 NonCon=     1 RMS=1.94D-07 Max=2.22D-06 NDo=     1
 LinEq1:  Iter=  6 NonCon=     1 RMS=2.73D-08 Max=3.57D-07 NDo=     1
 LinEq1:  Iter=  7 NonCon=     1 RMS=6.98D-09 Max=7.71D-08 NDo=     1
 LinEq1:  Iter=  8 NonCon=     0 RMS=9.64D-10 Max=9.71D-09 NDo=     1
 Linear equations converged to 2.717D-09 2.717D-08 after     8 iterations.
 Angle between quadratic step and gradient=  68.84 degrees.
     ILin= 1 X=0.000D+00 Y=-2.503437104761D+01 DE= 0.00D+00 F= -1.09D-03
     ILin= 2 X=1.000D+00 Y=-2.503490350139D+01 DE=-5.32D-04 F=  1.33D-04
     Accept linear search using points  1 and  2.
     An  expanding polynomial of degree  2 produced  0.9129
     Minimum is close to point  2 DX= -8.71D-02 DF= -5.76D-06 DXR=  9.54D-02 DFR=  1.08D-02 which will be used.
 Iteration   6 EE= -25.0349035013873     Delta-E=       -0.000532453775 Grad=7.078D-03 Max rot=    0.1132 deg.
 QCNR:  CnvC1=2.72D-09 CnvC2=2.72D-08
 LinEq1:  Iter=  0 NonCon=     1 RMS=2.48D-04 Max=3.35D-03 NDo=     1
 LinEq1:  Iter=  1 NonCon=     1 RMS=4.92D-05 Max=3.74D-04 NDo=     1
 LinEq1:  Iter=  2 NonCon=     1 RMS=1.20D-05 Max=9.91D-05 NDo=     1
 LinEq1:  Iter=  3 NonCon=     1 RMS=3.59D-06 Max=3.45D-05 NDo=     1
 LinEq1:  Iter=  4 NonCon=     1 RMS=7.80D-07 Max=7.07D-06 NDo=     1
 LinEq1:  Iter=  5 NonCon=     1 RMS=1.30D-07 Max=1.28D-06 NDo=     1
 LinEq1:  Iter=  6 NonCon=     1 RMS=2.79D-08 Max=3.25D-07 NDo=     1
 LinEq1:  Iter=  7 NonCon=     1 RMS=8.96D-09 Max=1.12D-07 NDo=     1
 LinEq1:  Iter=  8 NonCon=     0 RMS=2.12D-09 Max=2.07D-08 NDo=     1
 Linear equations converged to 2.717D-09 2.717D-08 after     8 iterations.
 Angle between quadratic step and gradient=  65.47 degrees.
     ILin= 1 X=0.000D+00 Y=-2.503490350139D+01 DE= 0.00D+00 F= -2.06D-04
     ILin= 2 X=1.000D+00 Y=-2.503500739989D+01 DE=-1.04D-04 F= -3.72D-06
     Reject lnstep minimum 1.019D+00 FVal=-2.503500743499D+01 Lims=  0.00D+00  1.00D+00
     ILin= 3 X=2.000D+00 Y=-2.503491356937D+01 DE=-1.01D-05 F=  1.90D-04
     An  expanding polynomial of degree  3 produced  1.0255
     Minimum is close to point  2 DX=  2.55D-02 DF= -6.41D-08 DXR=  2.48D-02 DFR=  6.17D-04 which will be used.
 Iteration   7 EE= -25.0350073998861     Delta-E=       -0.000103898499 Grad=1.764D-03 Max rot=    0.0324 deg.
 QCNR:  CnvC1=2.72D-09 CnvC2=2.72D-08
 LinEq1:  Iter=  0 NonCon=     1 RMS=2.08D-05 Max=2.17D-04 NDo=     1
 LinEq1:  Iter=  1 NonCon=     1 RMS=7.72D-06 Max=1.05D-04 NDo=     1
 LinEq1:  Iter=  2 NonCon=     1 RMS=1.94D-06 Max=1.81D-05 NDo=     1
 LinEq1:  Iter=  3 NonCon=     1 RMS=3.97D-07 Max=3.37D-06 NDo=     1
 LinEq1:  Iter=  4 NonCon=     1 RMS=7.82D-08 Max=6.73D-07 NDo=     1
 LinEq1:  Iter=  5 NonCon=     1 RMS=1.38D-08 Max=1.24D-07 NDo=     1
 LinEq1:  Iter=  6 NonCon=     1 RMS=3.79D-09 Max=3.26D-08 NDo=     1
 LinEq1:  Iter=  7 NonCon=     0 RMS=9.91D-10 Max=1.01D-08 NDo=     1
 Linear equations converged to 2.717D-09 2.717D-08 after     7 iterations.
 Angle between quadratic step and gradient=  85.53 degrees.
     ILin= 1 X=0.000D+00 Y=-2.503500739989D+01 DE= 0.00D+00 F= -1.03D-05
     ILin= 2 X=1.000D+00 Y=-2.503501253305D+01 DE=-5.13D-06 F=  4.80D-08
     Accept linear search using points  1 and  2.
     An  expanding polynomial of degree  2 produced  0.9954
     Minimum is close to point  2 DX= -4.59D-03 DF= -1.10D-10 DXR=  4.61D-03 DFR=  2.15D-05 which will be used.
 Iteration   8 EE= -25.0350125330522     Delta-E=       -0.000005133166 Grad=2.840D-04 Max rot=    0.0045 deg.
 QCNR:  CnvC1=2.72D-09 CnvC2=2.72D-08
 LinEq1:  Iter=  0 NonCon=     1 RMS=5.95D-06 Max=4.87D-05 NDo=     1
 LinEq1:  Iter=  1 NonCon=     1 RMS=1.82D-06 Max=1.66D-05 NDo=     1
 LinEq1:  Iter=  2 NonCon=     1 RMS=4.65D-07 Max=5.19D-06 NDo=     1
 LinEq1:  Iter=  3 NonCon=     1 RMS=1.07D-07 Max=9.09D-07 NDo=     1
 LinEq1:  Iter=  4 NonCon=     1 RMS=2.02D-08 Max=1.56D-07 NDo=     1
 LinEq1:  Iter=  5 NonCon=     1 RMS=3.52D-09 Max=3.34D-08 NDo=     1
 LinEq1:  Iter=  6 NonCon=     0 RMS=1.05D-09 Max=1.40D-08 NDo=     1
 Linear equations converged to 2.717D-09 2.717D-08 after     6 iterations.
 Angle between quadratic step and gradient=  75.30 degrees.
     ILin= 1 X=0.000D+00 Y=-2.503501253305D+01 DE= 0.00D+00 F= -2.56D-07
     ILin= 2 X=1.000D+00 Y=-2.503501266124D+01 DE=-1.28D-07 F= -4.51D-10
     Reject lnstep minimum 1.002D+00 FVal=-2.503501266125D+01 Lims=  0.00D+00  1.00D+00
     ILin= 3 X=2.000D+00 Y=-2.503501253394D+01 DE=-8.85D-10 F=  2.55D-07
     An  expanding polynomial of degree  3 produced  1.0017
     Minimum is close to point  2 DX=  1.73D-03 DF= -3.87D-13 DXR=  1.73D-03 DFR=  3.02D-06 which will be used.
 Iteration   9 EE= -25.0350126612449     Delta-E=       -0.000000128193 Grad=4.556D-05 Max rot=    0.0011 deg.
 DSYEVD-2 returned Info=         247 IAlg= 4 N=   123 NDim=   123 NE2=      718571 trying  DSYEV.
 QCNR:  CnvC1=4.56D-10 CnvC2=4.56D-09
 LinEq1:  Iter=  0 NonCon=     1 RMS=4.11D-07 Max=5.54D-06 NDo=     1
 LinEq1:  Iter=  1 NonCon=     1 RMS=1.74D-07 Max=2.26D-06 NDo=     1
 LinEq1:  Iter=  2 NonCon=     1 RMS=3.26D-08 Max=2.44D-07 NDo=     1
 LinEq1:  Iter=  3 NonCon=     1 RMS=4.31D-09 Max=4.14D-08 NDo=     1
 LinEq1:  Iter=  4 NonCon=     1 RMS=8.92D-10 Max=1.12D-08 NDo=     1
 LinEq1:  Iter=  5 NonCon=     0 RMS=2.37D-10 Max=2.15D-09 NDo=     1
 Linear equations converged to 4.556D-10 4.556D-09 after     5 iterations.
 Angle between quadratic step and gradient=  85.67 degrees.
     ILin= 1 X=0.000D+00 Y=-2.503501266124D+01 DE= 0.00D+00 F= -6.60D-09
     ILin= 2 X=1.000D+00 Y=-2.503501266455D+01 DE=-3.31D-09
 Iteration  10 EE= -25.0350126645502     Delta-E=       -0.000000003305 Grad=1.356D-05 Max rot=    0.0002 deg.
 QCNR:  CnvC1=1.36D-10 CnvC2=1.36D-09
 LinEq1:  Iter=  0 NonCon=     1 RMS=1.60D-07 Max=1.46D-06 NDo=     1
 LinEq1:  Iter=  1 NonCon=     1 RMS=6.12D-08 Max=5.21D-07 NDo=     1
 LinEq1:  Iter=  2 NonCon=     1 RMS=1.34D-08 Max=1.41D-07 NDo=     1
 LinEq1:  Iter=  3 NonCon=     1 RMS=2.46D-09 Max=2.57D-08 NDo=     1
 LinEq1:  Iter=  4 NonCon=     1 RMS=5.46D-10 Max=4.34D-09 NDo=     1
 LinEq1:  Iter=  5 NonCon=     0 RMS=1.20D-10 Max=1.32D-09 NDo=     1
 Linear equations converged to 1.356D-10 1.356D-09 after     5 iterations.
 Angle between quadratic step and gradient=  80.65 degrees.
     ILin= 1 X=0.000D+00 Y=-2.503501266455D+01 DE= 0.00D+00 F= -2.42D-10
     ILin= 2 X=1.000D+00 Y=-2.503501266467D+01 DE=-1.20D-10
 Iteration  11 EE= -25.0350126646701     Delta-E=       -0.000000000120 Grad=2.779D-06 Max rot=    0.0001 deg.
 DSYEVD-2 returned Info=         247 IAlg= 4 N=   123 NDim=   123 NE2=      718571 trying  DSYEV.
 QCNR:  CnvC1=2.78D-11 CnvC2=2.78D-10
 LinEq1:  Iter=  0 NonCon=     1 RMS=2.02D-08 Max=2.22D-07 NDo=     1
 LinEq1:  Iter=  1 NonCon=     1 RMS=8.30D-09 Max=1.21D-07 NDo=     1
 LinEq1:  Iter=  2 NonCon=     1 RMS=1.79D-09 Max=1.72D-08 NDo=     1
 LinEq1:  Iter=  3 NonCon=     1 RMS=2.51D-10 Max=2.01D-09 NDo=     1
 LinEq1:  Iter=  4 NonCon=     1 RMS=4.34D-11 Max=3.32D-10 NDo=     1
 LinEq1:  Iter=  5 NonCon=     0 RMS=1.35D-11 Max=1.47D-10 NDo=     1
 Linear equations converged to 2.779D-11 2.779D-10 after     5 iterations.
 Angle between quadratic step and gradient=  86.84 degrees.
     ILin= 1 X=0.000D+00 Y=-2.503501266467D+01 DE= 0.00D+00 F= -1.16D-11
     ILin= 2 X=1.000D+00 Y=-2.503501266468D+01 DE=-5.87D-12
 Iteration  12 EE= -25.0350126646760     Delta-E=       -0.000000000006 Grad=4.861D-07 Max rot=    0.0000 deg.
 QCNR:  CnvC1=4.86D-12 CnvC2=4.86D-11
 LinEq1:  Iter=  0 NonCon=     1 RMS=7.16D-09 Max=7.82D-08 NDo=     1
 LinEq1:  Iter=  1 NonCon=     1 RMS=2.58D-09 Max=1.99D-08 NDo=     1
 LinEq1:  Iter=  2 NonCon=     1 RMS=4.77D-10 Max=3.41D-09 NDo=     1
 LinEq1:  Iter=  3 NonCon=     1 RMS=8.13D-11 Max=7.66D-10 NDo=     1
 LinEq1:  Iter=  4 NonCon=     1 RMS=1.77D-11 Max=2.11D-10 NDo=     1
 LinEq1:  Iter=  5 NonCon=     1 RMS=6.01D-12 Max=6.98D-11 NDo=     1
 LinEq1:  Iter=  6 NonCon=     0 RMS=1.49D-12 Max=1.14D-11 NDo=     1
 Linear equations converged to 4.861D-12 4.861D-11 after     6 iterations.
 Angle between quadratic step and gradient=  78.11 degrees.
     ILin= 1 X=0.000D+00 Y=-2.503501266468D+01 DE= 0.00D+00 F= -6.29D-13
     ILin= 2 X=1.000D+00 Y=-2.503501266468D+01 DE=-3.45D-13
 Iteration  13 EE= -25.0350126646763     Delta-E=       -0.000000000000 Grad=1.571D-07 Max rot=    0.0000 deg.
 Rotation gradient small -- convergence achieved.
 Orbital symmetries in SymMO:
    1=1    2=1    3=1    4=3    5=4    6=1    7=1    8=3    9=4   10=1
   11=1   12=2   13=1   14=4   15=3   16=1   17=4   18=3   19=1   20=1
   21=4   22=3   23=1   24=2   25=1   26=4   27=3   28=4   29=3   30=2
   31=1   32=1   33=4   34=3   35=1   36=1   37=2   38=1   39=4   40=3
   41=1   42=4   43=3   44=1   45=4   46=3   47=1   48=2   49=1   50=1
   51=2   52=4   53=3   54=4   55=3   56=1   57=1   58=1   59=2   60=4
   61=3   62=3   63=4   64=1   65=2   66=1   67=4   68=3   69=3   70=4
   71=1   72=2   73=1   74=1   75=4   76=3   77=1   78=1   79=2   80=4
   81=3   82=4   83=3   84=1   85=1   86=4   87=3   88=1   89=2   90=1
   91=4   92=3   93=1   94=2   95=4   96=3   97=1   98=2   99=1  100=3
  101=4  102=4  103=3  104=1  105=2  106=4  107=3  108=1  109=1  110=3
  111=4  112=1  113=2  114=4  115=3  116=1  117=1  118=4  119=3  120=1
  121=1  122=2  123=4  124=3  125=1  126=1
 Orbital symmetries in SymMO:
    1=1    2=1    3=1    4=3    5=4    6=1    7=1    8=4    9=3   10=1
   11=1   12=1   13=2   14=4   15=3   16=1   17=4   18=3   19=1   20=4
   21=3   22=1   23=1   24=4   25=3   26=1   27=2   28=1   29=2   30=1
   31=4   32=3   33=4   34=3   35=1   36=1   37=1   38=2   39=3   40=4
   41=4   42=3   43=1   44=1   45=4   46=3   47=1   48=2   49=1   50=2
   51=1   52=4   53=3   54=4   55=3   56=1   57=2   58=1   59=3   60=4
   61=1   62=4   63=3   64=2   65=1   66=1   67=4   68=3   69=4   70=3
   71=1   72=2   73=1   74=1   75=4   76=3   77=1   78=2   79=1   80=4
   81=3   82=4   83=3   84=1   85=1   86=4   87=3   88=1   89=2   90=1
   91=4   92=3   93=2   94=1   95=2   96=1   97=4   98=3   99=1  100=4
  101=3  102=4  103=3  104=2  105=1  106=4  107=3  108=1  109=1  110=4
  111=3  112=1  113=2  114=4  115=3  116=1  117=1  118=4  119=3  120=1
  121=1  122=2  123=4  124=3  125=1  126=1
 SCF Done:  E(UHF) =  -25.0350126647     a.u. after   13 cycles
            Convg  =    0.1571D-06                    85 Fock formations.
              S**2 =  0.9345                  -V/T =  2.0007
 <Sx>= 0.0000 <Sy>= 0.0000 <Sz>= 0.0000 <S**2>= 0.9345 S= 0.5883
 <L.S>=  0.00000000000    
 Annihilation of the first spin contaminant:
 S**2 before annihilation     0.9345,   after     0.0718
 Leave Link  508 at Sat May 21 19:00:05 2022, MaxMem=   104857600 cpu:               5.0 elap:               5.0
 (Enter /apps/software/g16/l801.exe)
 Range of M.O.s used for correlation:     1   126
 NBasis=   126 NAE=     3 NBE=     3 NFC=     0 NFV=     0
 NROrb=    126 NOA=     3 NOB=     3 NVA=   123 NVB=   123
 Leave Link  801 at Sat May 21 19:00:05 2022, MaxMem=   104857600 cpu:               0.0 elap:               0.0
 (Enter /apps/software/g16/l914.exe)
 UHF ground state
 Doing stability rather than CIS.
 Keep R1 and R2 ints in memory in symmetry-blocked form, NReq=40144005.
 FoFCou: FMM=F IPFlag=           0 FMFlag=           0 FMFlg1=           0
         NFxFlg=           0 DoJE=F BraDBF=F KetDBF=F FulRan=T
         wScrn=  0.000000 ICntrl=       600 IOpCl=  0 I1Cent=           0 NGrid=           0
         NMat0=    1 NMatS0=   8001 NMatT0=    0 NMatD0=    1 NMtDS0=    0 NMtDT0=    0
 Petite list used in FoFCou.
 MDV=   104857600 DFT=F DoStab=T Mixed=F DoRPA=F DoScal=F NonHer=F
 Making orbital integer symmetry assigments:
 Orbital symmetries:
 Alpha Orbitals:
       Occupied  (SG) (SG) (SG)
       Virtual   (PI) (PI) (SG) (SG) (PI) (PI) (SG) (SG) (DLTA)
                 (DLTA) (PI) (PI) (SG) (PI) (PI) (SG) (SG) (PI)
                 (PI) (SG) (DLTA) (DLTA) (PHI) (PHI) (PI) (PI)
                 (DLTA) (DLTA) (SG) (PI) (PI) (SG) (SG) (DLTA)
                 (DLTA) (PI) (PI) (SG) (PI) (PI) (SG) (PI) (PI)
                 (SG) (DLTA) (DLTA) (?A) (?A) (PHI) (PHI) (PI)
                 (PI) (SG) (SG) (DLTA) (DLTA) (PI) (PI) (PHI) (PHI)
                 (DLTA) (DLTA) (SG) (PI) (PI) (PHI) (PHI) (SG)
                 (DLTA) (DLTA) (SG) (PI) (PI) (SG) (DLTA) (DLTA)
                 (PI) (PI) (PI) (PI) (SG) (SG) (PI) (PI) (SG) (?A)
                 (?A) (PHI) (PHI) (DLTA) (DLTA) (PI) (PI) (DLTA)
                 (DLTA) (SG) (PHI) (PHI) (PI) (PI) (DLTA) (DLTA)
                 (PI) (PI) (SG) (SG) (PHI) (PHI) (DLTA) (DLTA)
                 (PI) (PI) (SG) (SG) (PI) (PI) (SG) (DLTA) (DLTA)
                 (PI) (PI) (SG) (SG)
 Beta  Orbitals:
       Occupied  (SG) (SG) (SG)
       Virtual   (PI) (PI) (SG) (SG) (PI) (PI) (SG) (SG) (DLTA)
                 (DLTA) (PI) (PI) (SG) (PI) (PI) (SG) (PI) (PI)
                 (SG) (SG) (PHI) (PHI) (DLTA) (DLTA) (SG) (DLTA)
                 (DLTA) (PI) (PI) (PI) (PI) (SG) (SG) (DLTA) (DLTA)
                 (PI) (PI) (PI) (PI) (SG) (SG) (PI) (PI) (SG) (DLTA)
                 (DLTA) (?A) (?A) (PHI) (PHI) (PI) (PI) (SG) (DLTA)
                 (DLTA) (PHI) (PHI) (SG) (PI) (PI) (DLTA) (DLTA)
                 (SG) (PI) (PI) (PHI) (PHI) (SG) (DLTA) (DLTA)
                 (SG) (PI) (PI) (SG) (DLTA) (DLTA) (PI) (PI) (PI)
                 (PI) (SG) (SG) (PI) (PI) (?A) (?A) (SG) (PHI)
                 (PHI) (DLTA) (DLTA) (DLTA) (DLTA) (PI) (PI) (SG)
                 (PHI) (PHI) (PI) (PI) (DLTA) (DLTA) (PI) (PI)
                 (SG) (SG) (PHI) (PHI) (DLTA) (DLTA) (PI) (PI)
                 (SG) (SG) (PI) (PI) (SG) (DLTA) (DLTA) (PI) (PI)
                 (SG) (SG)
    12 initial guesses have been made.
 Convergence on wavefunction:    0.001000000000000
 Davidson Disk Diagonalization:  ConvIn= 1.00D-03 SkipCon=T Conv= 1.00D-03.
 Max sub-space:  1476 roots to seek:    12 dimension of matrix:          738
 Iteration     1 Dimension    12 NMult     0 NNew     12
 CISAX will form    12 AO SS matrices at one time.
 NMat=    12 NSing=    12 JSym2X= 2.
 New state      1 was old state      2
 Excitation Energies [eV] at current iteration:
 Root      1 :     0.577377412578725
 Root      2 :     0.626088436500857
 Root      3 :     1.231305413775770
 Root      4 :     1.233040965584125
 Root      5 :     5.097608488496602
 Root      6 :     6.094453310885103
 Root      7 :     6.641093444381144
 Root      8 :     7.869027471521554
 Root      9 :    10.517641963360877
 Root     10 :    10.517644548460343
 Root     11 :    11.756335538808710
 Root     12 :    11.756381420084786
 Iteration     2 Dimension    24 NMult    12 NNew     12
 CISAX will form    12 AO SS matrices at one time.
 NMat=    12 NSing=    12 JSym2X= 2.
 Root      1 not converged, maximum delta is    0.067814479072448
 Excitation Energies [eV] at current iteration:
 Root      1 :     0.092400338871434   Change is   -0.484977073707291
 Root      2 :     0.095358295937691   Change is   -0.530730140563166
 Root      3 :     0.808315498552607   Change is   -0.422989915223164
 Root      4 :     0.808483363326329   Change is   -0.424557602257796
 Root      5 :     4.545212577197858   Change is   -0.552395911298744
 Root      6 :     5.103204881649773   Change is   -0.991248429235331
 Root      7 :     6.177911529256846   Change is   -1.691115942264708
 Root      8 :     6.558036236606693   Change is   -0.083057207774451
 Root      9 :     8.418110467729337   Change is   -3.338225071079372
 Root     10 :     8.418498455141547   Change is   -3.337882964943240
 Root     11 :     9.338530676424694   Change is   -1.179113872035648
 Root     12 :     9.349097380490356   Change is   -1.168544582870520
 Iteration     3 Dimension    27 NMult    24 NNew      3
 CISAX will form     3 AO SS matrices at one time.
 NMat=     3 NSing=     3 JSym2X= 2.
 Root      1 not converged, maximum delta is    0.005776732096442
 Excitation Energies [eV] at current iteration:
 Root      1 :     0.086191261547996   Change is   -0.006209077323437
 Root      2 :     0.086256593576645   Change is   -0.009101702361046
 Root      3 :     0.796435751160006   Change is   -0.011879747392601
 Iteration     4 Dimension    30 NMult    27 NNew      3
 CISAX will form     3 AO SS matrices at one time.
 NMat=     3 NSing=     3 JSym2X= 2.
 Root      1 has converged.
 Excitation Energies [eV] at current iteration:
 Root      1 :     0.086125712311409   Change is   -0.000065549236587
 Root      2 :     0.086127209343802   Change is   -0.000129384232843
 Root      3 :     0.796253581900723   Change is   -0.000182169259282
 Convergence achieved on expansion vectors.
 ***********************************************************************
 Stability analysis using <AA,BB:AA,BB> singles matrix:
 ***********************************************************************
 1PDM for each excited state written to RWF  633
 Ground to excited state transition densities written to RWF  633

 Eigenvectors of the stability matrix:
 
 Excited state symmetry could not be determined.
 Eigenvector   1:  2.316-?Sym  Eigenvalue= 0.0031651  <S**2>=1.092
      3A ->  5A        0.70026
      3A ->  9A       -0.62591
      3A -> 21A       -0.26335
 The wavefunction is stable under the perturbations considered.
 Leave Link  914 at Sat May 21 19:00:09 2022, MaxMem=   104857600 cpu:               3.9 elap:               3.9
 (Enter /apps/software/g16/l508.exe)
 The wavefunction is already stable.
 Leave Link  508 at Sat May 21 19:00:09 2022, MaxMem=   104857600 cpu:               0.0 elap:               0.0
 (Enter /apps/software/g16/l601.exe)
 Copying SCF densities to generalized density rwf, IOpCl= 1 IROHF=0.

 **********************************************************************

            Population analysis using the SCF density.

 **********************************************************************

 Orbital symmetries:
 Alpha Orbitals:
       Occupied  (SG) (SG) (SG)
       Virtual   (PI) (PI) (SG) (SG) (PI) (PI) (SG) (SG) (DLTA)
                 (DLTA) (PI) (PI) (SG) (PI) (PI) (SG) (SG) (PI)
                 (PI) (SG) (DLTA) (DLTA) (PHI) (PHI) (PI) (PI)
                 (DLTA) (DLTA) (SG) (PI) (PI) (SG) (SG) (DLTA)
                 (DLTA) (PI) (PI) (SG) (PI) (PI) (SG) (PI) (PI)
                 (SG) (DLTA) (DLTA) (?A) (?A) (PHI) (PHI) (PI)
                 (PI) (SG) (SG) (DLTA) (DLTA) (PI) (PI) (PHI) (PHI)
                 (DLTA) (DLTA) (SG) (PI) (PI) (PHI) (PHI) (SG)
                 (DLTA) (DLTA) (SG) (PI) (PI) (SG) (DLTA) (DLTA)
                 (PI) (PI) (PI) (PI) (SG) (SG) (PI) (PI) (SG) (?A)
                 (?A) (PHI) (PHI) (DLTA) (DLTA) (PI) (PI) (DLTA)
                 (DLTA) (SG) (PHI) (PHI) (PI) (PI) (DLTA) (DLTA)
                 (PI) (PI) (SG) (SG) (PHI) (PHI) (DLTA) (DLTA)
                 (PI) (PI) (SG) (SG) (PI) (PI) (SG) (DLTA) (DLTA)
                 (PI) (PI) (SG) (SG)
 Beta  Orbitals:
       Occupied  (SG) (SG) (SG)
       Virtual   (PI) (PI) (SG) (SG) (PI) (PI) (SG) (SG) (DLTA)
                 (DLTA) (PI) (PI) (SG) (PI) (PI) (SG) (PI) (PI)
                 (SG) (SG) (PHI) (PHI) (DLTA) (DLTA) (SG) (DLTA)
                 (DLTA) (PI) (PI) (PI) (PI) (SG) (SG) (DLTA) (DLTA)
                 (PI) (PI) (PI) (PI) (SG) (SG) (PI) (PI) (SG) (DLTA)
                 (DLTA) (?A) (?A) (PHI) (PHI) (PI) (PI) (SG) (DLTA)
                 (DLTA) (PHI) (PHI) (SG) (PI) (PI) (DLTA) (DLTA)
                 (SG) (PI) (PI) (PHI) (PHI) (SG) (DLTA) (DLTA)
                 (SG) (PI) (PI) (SG) (DLTA) (DLTA) (PI) (PI) (PI)
                 (PI) (SG) (SG) (PI) (PI) (?A) (?A) (SG) (PHI)
                 (PHI) (DLTA) (DLTA) (DLTA) (DLTA) (PI) (PI) (SG)
                 (PHI) (PHI) (PI) (PI) (DLTA) (DLTA) (PI) (PI)
                 (SG) (SG) (PHI) (PHI) (DLTA) (DLTA) (PI) (PI)
                 (SG) (SG) (PI) (PI) (SG) (DLTA) (DLTA) (PI) (PI)
                 (SG) (SG)
 The electronic state is 1-SG.
 Alpha  occ. eigenvalues --   -7.71072  -0.54931  -0.32159
 Alpha virt. eigenvalues --    0.02159   0.02159   0.02861   0.04690   0.07481
 Alpha virt. eigenvalues --    0.07481   0.08537   0.10668   0.14458   0.14458
 Alpha virt. eigenvalues --    0.14484   0.14484   0.18817   0.25703   0.25703
 Alpha virt. eigenvalues --    0.28484   0.29761   0.31289   0.31289   0.36167
 Alpha virt. eigenvalues --    0.45916   0.45916   0.45998   0.45998   0.47924
 Alpha virt. eigenvalues --    0.47924   0.49729   0.49729   0.50441   0.52481
 Alpha virt. eigenvalues --    0.52481   0.56546   0.61671   0.69148   0.69148
 Alpha virt. eigenvalues --    0.85055   0.85055   0.86592   0.86839   0.86839
 Alpha virt. eigenvalues --    0.93659   1.04588   1.04588   1.21527   1.34861
 Alpha virt. eigenvalues --    1.34861   1.36682   1.36682   1.36744   1.36744
 Alpha virt. eigenvalues --    1.37410   1.37410   1.39107   1.40256   1.40547
 Alpha virt. eigenvalues --    1.40547   1.42085   1.42085   1.43465   1.43465
 Alpha virt. eigenvalues --    1.45292   1.45292   1.51502   1.56723   1.56723
 Alpha virt. eigenvalues --    1.60040   1.60040   1.70213   1.74981   1.74981
 Alpha virt. eigenvalues --    1.88862   2.02001   2.02001   2.02696   2.53238
 Alpha virt. eigenvalues --    2.53238   2.65169   2.65169   2.70829   2.70829
 Alpha virt. eigenvalues --    2.77875   2.99970   3.73824   3.73824   3.90447
 Alpha virt. eigenvalues --    3.91442   3.91442   3.93072   3.93072   3.94832
 Alpha virt. eigenvalues --    3.94832   3.95781   3.95781   3.97494   3.97494
 Alpha virt. eigenvalues --    3.99251   4.08012   4.08012   4.09164   4.09164
 Alpha virt. eigenvalues --    4.09765   4.09765   4.16314   4.16314   4.21149
 Alpha virt. eigenvalues --    4.38193   6.60119   6.60119   6.63523   6.63523
 Alpha virt. eigenvalues --    6.72708   6.72708   6.75327   7.62197   8.04981
 Alpha virt. eigenvalues --    8.04981   8.35073   8.46565   8.46565   8.53909
 Alpha virt. eigenvalues --    8.53909   8.63817  13.15690
  Beta  occ. eigenvalues --   -7.69707  -0.49124  -0.44098
  Beta virt. eigenvalues --    0.02505   0.02505   0.03806   0.05517   0.08097
  Beta virt. eigenvalues --    0.08097   0.08668   0.11478   0.14460   0.14460
  Beta virt. eigenvalues --    0.14466   0.14466   0.18749   0.24188   0.24188
  Beta virt. eigenvalues --    0.26283   0.31953   0.31953   0.35094   0.36688
  Beta virt. eigenvalues --    0.45992   0.45992   0.46149   0.46149   0.48492
  Beta virt. eigenvalues --    0.49834   0.49834   0.50501   0.50501   0.52945
  Beta virt. eigenvalues --    0.52945   0.53519   0.61480   0.68045   0.68045
  Beta virt. eigenvalues --    0.79449   0.79449   0.85700   0.85700   0.85989
  Beta virt. eigenvalues --    0.94797   1.05406   1.05406   1.24303   1.35260
  Beta virt. eigenvalues --    1.35260   1.36654   1.36654   1.37172   1.37172
  Beta virt. eigenvalues --    1.39515   1.39515   1.40721   1.41053   1.41053
  Beta virt. eigenvalues --    1.43505   1.43505   1.43600   1.45860   1.45860
  Beta virt. eigenvalues --    1.46807   1.46807   1.53652   1.58135   1.58135
  Beta virt. eigenvalues --    1.58939   1.58939   1.65453   1.74276   1.74276
  Beta virt. eigenvalues --    1.85633   2.01322   2.01322   2.01673   2.49470
  Beta virt. eigenvalues --    2.49470   2.60809   2.60809   2.64944   2.64944
  Beta virt. eigenvalues --    2.74735   2.96001   3.74421   3.74421   3.91480
  Beta virt. eigenvalues --    3.91480   3.93601   3.94097   3.94097   3.95444
  Beta virt. eigenvalues --    3.95444   3.99088   3.99088   3.99296   3.99296
  Beta virt. eigenvalues --    4.02920   4.08225   4.08225   4.11339   4.11339
  Beta virt. eigenvalues --    4.11785   4.11785   4.19305   4.19305   4.24209
  Beta virt. eigenvalues --    4.41573   6.57320   6.57320   6.60767   6.60767
  Beta virt. eigenvalues --    6.70018   6.70018   6.72647   7.54473   7.99399
  Beta virt. eigenvalues --    7.99399   8.29870   8.42470   8.42470   8.49878
  Beta virt. eigenvalues --    8.49878   8.59841  13.16681
          Condensed to atoms (all electrons):
               1          2
     1  B    4.977360   0.001412
     2  H    0.001412   1.019815
          Atomic-Atomic Spin Densities.
               1          2
     1  B    0.957459   0.026763
     2  H    0.026763  -1.010985
 Mulliken charges and spin densities:
               1          2
     1  B    0.021228   0.984222
     2  H   -0.021228  -0.984222
 Sum of Mulliken charges =  -0.00000   0.00000
 Mulliken charges and spin densities with hydrogens summed into heavy atoms:
               1          2
     1  B   -0.000000   0.000000
 Electronic spatial extent (au):  <R**2>=             42.6696
 Charge=             -0.0000 electrons
 Dipole moment (field-independent basis, Debye):
    X=              0.0000    Y=              0.0000    Z=              0.3268  Tot=              0.3268
 Quadrupole moment (field-independent basis, Debye-Ang):
   XX=             -7.3159   YY=             -7.3159   ZZ=            -11.3792
   XY=              0.0000   XZ=              0.0000   YZ=              0.0000
 Traceless Quadrupole moment (field-independent basis, Debye-Ang):
   XX=              1.3544   YY=              1.3544   ZZ=             -2.7089
   XY=              0.0000   XZ=              0.0000   YZ=              0.0000
 Octapole moment (field-independent basis, Debye-Ang**2):
  XXX=              0.0000  YYY=              0.0000  ZZZ=             -0.8961  XYY=              0.0000
  XXY=              0.0000  XXZ=              0.5807  XZZ=              0.0000  YZZ=              0.0000
  YYZ=              0.5807  XYZ=              0.0000
 Hexadecapole moment (field-independent basis, Debye-Ang**3):
 XXXX=            -10.7188 YYYY=            -10.7188 ZZZZ=            -84.6346 XXXY=              0.0000
 XXXZ=              0.0000 YYYX=              0.0000 YYYZ=              0.0000 ZZZX=              0.0000
 ZZZY=              0.0000 XXYY=             -3.5729 XXZZ=            -14.4261 YYZZ=            -14.4261
 XXYZ=              0.0000 YYXZ=              0.0000 ZZXY=              0.0000
 N-N= 9.449593052143D-01 E-N=-5.976671004590D+01  KE= 2.501768952732D+01
 Symmetry A1   KE= 2.501768952732D+01
 Symmetry A2   KE= 0.000000000000D+00
 Symmetry B1   KE= 0.000000000000D+00
 Symmetry B2   KE= 0.000000000000D+00
 Symmetry A1   SP=-2.248545547551D-15
 Symmetry A2   SP= 0.000000000000D+00
 Symmetry B1   SP= 0.000000000000D+00
 Symmetry B2   SP= 0.000000000000D+00
                          Isotropic Fermi Contact Couplings
        Atom                 a.u.       MegaHertz       Gauss      10(-4) cm-1
     1  B(11)             -0.03006     -21.55808      -7.69246      -7.19100
     2  H(1)              -0.29030    -648.81299    -231.51261    -216.42072
 --------------------------------------------------------
       Center         ----  Spin Dipole Couplings  ----
                      3XX-RR        3YY-RR        3ZZ-RR
 --------------------------------------------------------
     1   Atom       -0.312156     -0.312156      0.624312
     2   Atom       -0.011193     -0.011193      0.022385
 --------------------------------------------------------
                        XY            XZ            YZ
 --------------------------------------------------------
     1   Atom        0.000000      0.000000      0.000000
     2   Atom        0.000000      0.000000      0.000000
 --------------------------------------------------------


 ---------------------------------------------------------------------------------
              Anisotropic Spin Dipole Couplings in Principal Axis System
 ---------------------------------------------------------------------------------

       Atom             a.u.   MegaHertz   Gauss  10(-4) cm-1        Axes

              Baa    -0.3122   -53.446   -19.071   -17.828  1.0000  0.0000  0.0000
     1 B(11)  Bbb    -0.3122   -53.446   -19.071   -17.828 -0.0000  1.0000  0.0000
              Bcc     0.6243   106.891    38.141    35.655  0.0000  0.0000  1.0000
 
              Baa    -0.0112    -5.972    -2.131    -1.992  1.0000  0.0000  0.0000
     2 H(1)   Bbb    -0.0112    -5.972    -2.131    -1.992 -0.0000  1.0000  0.0000
              Bcc     0.0224    11.944     4.262     3.984  0.0000  0.0000  1.0000
 

 ---------------------------------------------------------------------------------

 No NMR shielding tensors so no spin-rotation constants.
 Leave Link  601 at Sat May 21 19:00:10 2022, MaxMem=   104857600 cpu:               0.2 elap:               0.2
 (Enter /apps/software/g16/l9999.exe)
 1\1\GINC-CNODE16\Stability\UHF\Aug-CC-pVQZ\B1H1\LCZ\21-May-2022\0\\#p 
 UHF/aug-cc-pVQZ guess=mix stable=opt\\BH UHF at 2.8 Angstrom\\0,1\B,0,
 0.,0.,0.\H,0,2.8,0.,0.\\Version=ES64L-G16RevA.03\State=1-SG\HF=-25.035
 0127\S2=0.934481\S2-1=0.\S2A=0.071836\RMSD=5.784e-09\Dipole=-0.1285637
 ,0.,0.\Quadrupole=-2.0139808,1.0069904,1.0069904,0.,0.,0.\PG=C*V [C*(H
 1B1)]\\@


 DEFINE YOUR TERMS, YOU WILL PERMIT ME AGAIN TO SAY, 
 OR WE SHALL NEVER UNDERSTAND ONE ANOTHER.

                                    -- VOLTAIRE
 Job cpu time:       0 days  0 hours  0 minutes 18.2 seconds.
 Elapsed time:       0 days  0 hours  0 minutes 18.2 seconds.
 File lengths (MBytes):  RWF=     33 Int=      0 D2E=      0 Chk=      4 Scr=      1
 Normal termination of Gaussian 16 at Sat May 21 19:00:10 2022.

Sender: Unischeduler System <lcz@mgt01>
Subject: Job 133629: <#!/bin/bash
#BSUB -J intel
#BSUB -o BH-2.8-G.out
#BSUB -n 8
#BSUB -q cqueue
#BSUB -R span[hosts=1]
export g16root=/apps/software
source /apps/software/g16/bsd/g16.profile
export GAUSS_SCRDIR=/scratch
/apps/software/g16/g16 < BH-2.8-G.inp > BH-2.8-G.out> Done

Job <#!/bin/bash
#BSUB -J intel
#BSUB -o BH-2.8-G.out
#BSUB -n 8
#BSUB -q cqueue
#BSUB -R span[hosts=1]
export g16root=/apps/software
source /apps/software/g16/bsd/g16.profile
export GAUSS_SCRDIR=/scratch
/apps/software/g16/g16 < BH-2.8-G.inp > BH-2.8-G.out> was submitted from host <mgt01> by user <lcz>.
Job was executed on host(s) <8*cnode16>, in queue <cqueue>, as user <lcz>.
</apps/users/lcz> was used as the home directory.
</apps/users/lcz/exe13/UHF> was used as the working directory.
Started at 2022-05-21 18:59:51
Results reported at 2022-05-21 19:00:10

Your job looked like:

------------------------------------------------------------
# User input
#!/bin/bash
#BSUB -J intel
#BSUB -o BH-2.8-G.out
#BSUB -n 8
#BSUB -q cqueue
#BSUB -R span[hosts=1]
export g16root=/apps/software
source /apps/software/g16/bsd/g16.profile
export GAUSS_SCRDIR=/scratch
/apps/software/g16/g16 < BH-2.8-G.inp > BH-2.8-G.out
------------------------------------------------------------

Successfully completed.

Resource usage summary:

    CPU time   :           15.24 sec.
    Max Memory :               454 MB
    Max Processes  :               5


The output (if any) follows:

