
                                        *****************
                                        * O   R   C   A *
                                        *****************

                                            #,                                       
                                            ###                                      
                                            ####                                     
                                            #####                                    
                                            ######                                   
                                           ########,                                 
                                     ,,################,,,,,                         
                               ,,#################################,,                 
                          ,,##########################################,,             
                       ,#########################################, ''#####,          
                    ,#############################################,,   '####,        
                  ,##################################################,,,,####,       
                ,###########''''           ''''###############################       
              ,#####''   ,,,,##########,,,,          '''####'''          '####       
            ,##' ,,,,###########################,,,                        '##       
           ' ,,###''''                  '''############,,,                           
         ,,##''                                '''############,,,,        ,,,,,,###''
      ,#''                                            '''#######################'''  
     '                                                          ''''####''''         
             ,#######,   #######,   ,#######,      ##                                
            ,#'     '#,  ##    ##  ,#'     '#,    #''#        ######   ,####,        
            ##       ##  ##   ,#'  ##            #'  '#       #        #'  '#        
            ##       ##  #######   ##           ,######,      #####,   #    #        
            '#,     ,#'  ##    ##  '#,     ,#' ,#      #,         ##   #,  ,#        
             '#######'   ##     ##  '#######'  #'      '#     #####' # '####'        



                  #######################################################
                  #                        -***-                        #
                  #          Department of theory and spectroscopy      #
                  #    Directorship and core code : Frank Neese         #
                  #        Max Planck Institute fuer Kohlenforschung    #
                  #                Kaiser Wilhelm Platz 1               #
                  #                 D-45470 Muelheim/Ruhr               #
                  #                      Germany                        #
                  #                                                     #
                  #                  All rights reserved                #
                  #                        -***-                        #
                  #######################################################


                         Program Version 5.0.0 -  RELEASE  -
                                (SVN: $Rev: 19529$)
                ($Date: 2021-06-28 11:36:33 +0200 (Mo, 28 Jun 2021) $)


 With contributions from (in alphabetic order):
   Daniel Aravena         : Magnetic Suceptibility
   Michael Atanasov       : Ab Initio Ligand Field Theory (pilot matlab implementation)
   Alexander A. Auer      : GIAO ZORA, VPT2 properties, NMR spectrum
   Ute Becker             : Parallelization
   Giovanni Bistoni       : ED, misc. LED, open-shell LED, HFLD
   Martin Brehm           : Molecular dynamics
   Dmytro Bykov           : SCF Hessian
   Vijay G. Chilkuri      : MRCI spin determinant printing, contributions to CSF-ICE
   Dipayan Datta          : RHF DLPNO-CCSD density
   Achintya Kumar Dutta   : EOM-CC, STEOM-CC
   Dmitry Ganyushin       : Spin-Orbit,Spin-Spin,Magnetic field MRCI
   Miquel Garcia          : C-PCM Hessian, Gaussian charge scheme
   Yang Guo               : DLPNO-NEVPT2, F12-NEVPT2, CIM, IAO-localization
   Andreas Hansen         : Spin unrestricted coupled pair/coupled cluster methods
   Benjamin Helmich-Paris : MC-RPA, TRAH-SCF, COSX integrals
   Lee Huntington         : MR-EOM, pCC
   Robert Izsak           : Overlap fitted RIJCOSX, COSX-SCS-MP3, EOM
   Marcus Kettner         : VPT2
   Christian Kollmar      : KDIIS, OOCD, Brueckner-CCSD(T), CCSD density, CASPT2, CASPT2-K
   Simone Kossmann        : Meta GGA functionals, TD-DFT gradient, OOMP2, MP2 Hessian
   Martin Krupicka        : Initial AUTO-CI
   Lucas Lang             : DCDCAS
   Marvin Lechner         : AUTO-CI (C++ implementation), FIC-MRCC
   Dagmar Lenk            : GEPOL surface, SMD
   Dimitrios Liakos       : Extrapolation schemes; Compound Job, initial MDCI parallelization
   Dimitrios Manganas     : Further ROCIS development; embedding schemes
   Dimitrios Pantazis     : SARC Basis sets
   Anastasios Papadopoulos: AUTO-CI, single reference methods and gradients
   Taras Petrenko         : DFT Hessian,TD-DFT gradient, ASA, ECA, R-Raman, ABS, FL, XAS/XES, NRVS
   Peter Pinski           : DLPNO-MP2, DLPNO-MP2 Gradient
   Christoph Reimann      : Effective Core Potentials
   Marius Retegan         : Local ZFS, SOC
   Christoph Riplinger    : Optimizer, TS searches, QM/MM, DLPNO-CCSD(T), (RO)-DLPNO pert. Triples
   Tobias Risthaus        : Range-separated hybrids, TD-DFT gradient, RPA, STAB
   Michael Roemelt        : Original ROCIS implementation
   Masaaki Saitow         : Open-shell DLPNO-CCSD energy and density
   Barbara Sandhoefer     : DKH picture change effects
   Avijit Sen             : IP-ROCIS
   Kantharuban Sivalingam : CASSCF convergence, NEVPT2, FIC-MRCI
   Bernardo de Souza      : ESD, SOC TD-DFT
   Georgi Stoychev        : AutoAux, RI-MP2 NMR
   Willem Van den Heuvel  : Paramagnetic NMR
   Boris Wezisla          : Elementary symmetry handling
   Frank Wennmohs         : Technical directorship


 We gratefully acknowledge several colleagues who have allowed us to
 interface, adapt or use parts of their codes:
   Stefan Grimme, W. Hujo, H. Kruse, P. Pracht,  : VdW corrections, initial TS optimization,
                  C. Bannwarth, S. Ehlert          DFT functionals, gCP, sTDA/sTD-DF
   Ed Valeev, F. Pavosevic, A. Kumar             : LibInt (2-el integral package), F12 methods
   Garnet Chan, S. Sharma, J. Yang, R. Olivares  : DMRG
   Ulf Ekstrom                                   : XCFun DFT Library
   Mihaly Kallay                                 : mrcc  (arbitrary order and MRCC methods)
   Jiri Pittner, Ondrej Demel                    : Mk-CCSD
   Frank Weinhold                                : gennbo (NPA and NBO analysis)
   Christopher J. Cramer and Donald G. Truhlar   : smd solvation model
   Lars Goerigk                                  : TD-DFT with DH, B97 family of functionals
   V. Asgeirsson, H. Jonsson                     : NEB implementation
   FAccTs GmbH                                   : IRC, NEB, NEB-TS, DLPNO-Multilevel, CI-OPT
                                                   MM, QMMM, 2- and 3-layer-ONIOM, Crystal-QMMM,
                                                   LR-CPCM, SF, NACMEs, symmetry and pop. for TD-DFT,
                                                   nearIR, NL-DFT gradient (VV10), updates on ESD,
                                                   ML-optimized integration grids
   S Lehtola, MJT Oliveira, MAL Marques          : LibXC Library
   Liviu Ungur et al                             : ANISO software


 Your calculation uses the libint2 library for the computation of 2-el integrals
 For citations please refer to: http://libint.valeyev.net

 Your ORCA version has been built with support for libXC version: 5.1.0
 For citations please refer to: https://tddft.org/programs/libxc/

 This ORCA versions uses:
   CBLAS   interface :  Fast vector & matrix operations
   LAPACKE interface :  Fast linear algebra routines
   SCALAPACK package :  Parallel linear algebra routines
   Shared memory     :  Shared parallel matrices
   BLAS/LAPACK       :  OpenBLAS 0.3.15  USE64BITINT DYNAMIC_ARCH NO_AFFINITY SkylakeX SINGLE_THREADED
        Core in use  :  SkylakeX
   Copyright (c) 2011-2014, The OpenBLAS Project


================================================================================

----- Orbital basis set information -----
Your calculation utilizes the basis: aug-cc-pVQZ 
    H, B-Ne : Obtained from the ccRepo (grant-hill.group.shef.ac.uk/ccrepo) Feb. 2017
              R. A. Kendall, T. H. Dunning, Jr., R. J. Harrison, J. Chem. Phys. 96, 6796 (1992)
         He : Obtained from the ccRepo (grant-hill.group.shef.ac.uk/ccrepo) Feb. 2017
              D. E. Woon, T. H. Dunning, Jr., J. Chem. Phys. 100, 2975 (1994)
  Li-Be, Na : Obtained from the ccRepo (grant-hill.group.shef.ac.uk/ccrepo) Feb. 2017
              B. P. Prascher, D. E. Woon, K. A. Peterson, T. H. Dunning, Jr., A. K. Wilson, Theor. Chem. Acc. 128, 69 (2011)
         Mg : Obtained from the Peterson Research Group Website (tyr0.chem.wsu.edu/~kipeters) Feb. 2017
              B. P. Prascher, D. E. Woon, K. A. Peterson, T. H. Dunning, Jr., A. K. Wilson, Theor. Chem. Acc. 128, 69 (2011)
      Al-Ar : Obtained from the ccRepo (grant-hill.group.shef.ac.uk/ccrepo) Feb. 2017
              D. E. Woon, T. H. Dunning, Jr., J. Chem. Phys. 98, 1358 (1993)
      Sc-Zn : Obtained from the ccRepo (grant-hill.group.shef.ac.uk/ccrepo) Feb. 2017
              N. B. Balabanov, K. A. Peterson, J. Chem. Phys. 123, 064107 (2005)
              N. B. Balabanov, K. A. Peterson, J. Chem. Phys. 125, 074110 (2006)
      Ga-Kr : Obtained from the ccRepo (grant-hill.group.shef.ac.uk/ccrepo) Feb. 2017
              A. K. Wilson, D. E. Woon, K. A. Peterson, T. H. Dunning, Jr., J. Chem. Phys. 110, 7667 (1999)

================================================================================
                                        WARNINGS
                       Please study these warnings very carefully!
================================================================================


INFO   : the flag for use of the SHARK integral package has been found!

================================================================================
                                       INPUT FILE
================================================================================
NAME = /scratch/BH-3.8-O_617/BH-3.8-O.inp
|  1> ! UHF aug-cc-pVQZ pal8 VeryTightSCF UseSym
|  2> 
|  3> %scf
|  4> 	STABPerform	True
|  5> 	STABRestartUHFifUnstable	True
|  6> end
|  7> 
|  8> *xyz 0 1
|  9>  B	0.0	0.0	0.0
| 10>  H	3.8	0.0	0.0
| 11> **                         ****END OF INPUT****
================================================================================

------------------------------------------------------------------------------
                            SYMMETRY HANDLING SETUP
------------------------------------------------------------------------------

------------------
SYMMETRY DETECTION
------------------
The point group will now be determined using a tolerance of 1.0000e-04.
Splitting atom subsets according to nuclear charge, mass and basis set.
Splitting atom subsets according to distance from the molecule's center.
Identifying relative distance patterns of the atoms.
Splitting atom subsets according to atoms' relative distance patterns.
Bring atoms of each subset into input order.
The molecule is linear.
There is at least one atom subset not centered around the molecule's center.
The molecule does not have a center of inversion.
No further test is needed for point group Cinfv.
This point group has been found:    Cinfv
Largest non-degenerate subgroup:    C2v


Mass-centered symmetry-perfected Cartesians (point groups Cinfv and C2v):

Atom          Symmetry-perfected Cartesians (x, y, z; au)
  0       0.000000000000    0.000000000000   -0.612490013824
  1       0.000000000000    0.000000000000    6.568469295077


-----------------------------------------------
SYMMETRY-PERFECTED CARTESIAN COORDINATES (A.U.)
-----------------------------------------------
Warning (ORCA_SYM): Coordinates were not cleaned so far!

------------------
SYMMETRY REDUCTION
------------------
ORCA supports only abelian point groups.
It is now checked, if the determined point group is supported:
Point Group ( C2v   ) is          ... supported

(Re)building abelian point group:
Creating Character Table          ... done
Making direct product table       ... done
Constructing symmetry operations  ... done
Creating atom transfer table      ... done
Creating asymmetric unit          ... done

----------------------
ASYMMETRIC UNIT IN C2v
----------------------
  #  AT     MASS              COORDS (A.U.)             BAS
   0 B   10.8100   0.00000000   0.00000000  -0.61249001   0
   1 H    1.0080   0.00000000   0.00000000   6.56846930   0

----------------------
SYMMETRY ADAPTED BASIS
----------------------
The coefficients for the symmetry adapted linear combinations (SALCS)
of basis functions will now be computed:
Number of basis functions         ...   126
Preparing memory                  ... done
Constructing Gamma(red)           ... done
Reducing Gamma(red)               ... done
Constructing SALCs                ... done
Checking SALC integrity           ... nothing suspicious
Normalizing SALCs                 ... done

Storing the symmetry object:
Symmetry file                     ... /scratch/BH-3.8-O_617/BH-3.8-O.sym.tmp
Writing symmetry information      ... done

                       ****************************
                       * Single Point Calculation *
                       ****************************

---------------------------------
CARTESIAN COORDINATES (ANGSTROEM)
---------------------------------
  B      0.000000    0.000000   -0.324116
  H      0.000000    0.000000    3.475884

----------------------------
CARTESIAN COORDINATES (A.U.)
----------------------------
  NO LB      ZA    FRAG     MASS         X           Y           Z
   0 B     5.0000    0    10.810    0.000000    0.000000   -0.612490
   1 H     1.0000    0     1.008    0.000000    0.000000    6.568469

--------------------------------
INTERNAL COORDINATES (ANGSTROEM)
--------------------------------
 B      0   0   0     0.000000000000     0.00000000     0.00000000
 H      1   0   0     3.800000000000     0.00000000     0.00000000

---------------------------
INTERNAL COORDINATES (A.U.)
---------------------------
 B      0   0   0     0.000000000000     0.00000000     0.00000000
 H      1   0   0     7.180959308901     0.00000000     0.00000000

---------------------
BASIS SET INFORMATION
---------------------
There are 2 groups of distinct atoms

 Group   1 Type B   : 22s7p4d3f2g contracted to 6s5p4d3f2g pattern {991111/31111/1111/111/11}
 Group   2 Type H   : 7s4p3d2f contracted to 5s4p3d2f pattern {31111/1111/111/11}

Atom   0B    basis set group =>   1
Atom   1H    basis set group =>   2
--------------------------------------------------------------------------
WARNING: There was an error initializing an OpenFabrics device.

  Local host:   cnode03
  Local device: mlx5_0
--------------------------------------------------------------------------


           ************************************************************
           *        Program running with 8 parallel MPI-processes     *
           *              working on a common directory               *
           ************************************************************
------------------------------------------------------------------------------
                           ORCA GTO INTEGRAL CALCULATION
------------------------------------------------------------------------------
------------------------------------------------------------------------------
                   ___                                                        
                  /   \      - P O W E R E D   B Y -                         
                 /     \                                                     
                 |  |  |   _    _      __       _____    __    __             
                 |  |  |  | |  | |    /  \     |  _  \  |  |  /  |          
                  \  \/   | |  | |   /    \    | | | |  |  | /  /          
                 / \  \   | |__| |  /  /\  \   | |_| |  |  |/  /          
                |  |  |   |  __  | /  /__\  \  |    /   |      \           
                |  |  |   | |  | | |   __   |  |    \   |  |\   \          
                \     /   | |  | | |  |  |  |  | |\  \  |  | \   \       
                 \___/    |_|  |_| |__|  |__|  |_| \__\ |__|  \__/        
                                                                              
                      - O R C A' S   B I G   F R I E N D -                    
                                      &                                       
                       - I N T E G R A L  F E E D E R -                       
                                                                              
 v1 FN, 2020, v2 2021                                                         
------------------------------------------------------------------------------


Reading SHARK input file /scratch/BH-3.8-O_617/BH-3.8-O.SHARKINP.tmp ... ok
----------------------
SHARK INTEGRAL PACKAGE
----------------------

Number of atoms                             ...      2
Number of basis functions                   ...    126
Number of shells                            ...     34
Maximum angular momentum                    ...      4
Integral batch strategy                     ... SHARK/LIBINT Hybrid
RI-J (if used) integral strategy            ... SPLIT-RIJ (Revised 2003 algorithm where possible)
Printlevel                                  ...      1
Contraction scheme used                     ... SEGMENTED contraction
Coulomb Range Separation                    ... NOT USED
Exchange Range Separation                   ... NOT USED
Finite Nucleus Model                        ... NOT USED
Auxiliary Coulomb fitting basis             ... NOT available
Auxiliary J/K fitting basis                 ... NOT available
Auxiliary Correlation fitting basis         ... NOT available
Auxiliary 'external' fitting basis          ... NOT available
Integral threshold                          ...     1.000000e-12
Primitive cut-off                           ...     1.000000e-14
Primitive pair pre-selection threshold      ...     1.000000e-14

Calculating pre-screening integrals         ... done (  0.1 sec) Dimension = 34
Organizing shell pair data                  ... done (  0.0 sec)
Shell pair information
Total number of shell pairs                 ...       595
Shell pairs after pre-screening             ...       582
Total number of primitive shell pairs       ...      1563
Primitive shell pairs kept                  ...      1390
          la=0 lb=0:     64 shell pairs
          la=1 lb=0:     96 shell pairs
          la=1 lb=1:     44 shell pairs
          la=2 lb=0:     74 shell pairs
          la=2 lb=1:     61 shell pairs
          la=2 lb=2:     28 shell pairs
          la=3 lb=0:     53 shell pairs
          la=3 lb=1:     45 shell pairs
          la=3 lb=2:     35 shell pairs
          la=3 lb=3:     15 shell pairs
          la=4 lb=0:     22 shell pairs
          la=4 lb=1:     18 shell pairs
          la=4 lb=2:     14 shell pairs
          la=4 lb=3:     10 shell pairs
          la=4 lb=4:      3 shell pairs

Calculating one electron integrals          ... done (  0.0 sec)
Calculating Nuclear repulsion               ... done (  0.0 sec) ENN=      0.696285800395 Eh

SHARK setup successfully completed in   0.1 seconds

Maximum memory used throughout the entire GTOINT-calculation: 28.9 MB
[cnode03:367658] 7 more processes have sent help message help-mpi-btl-openib.txt / error in device init
[cnode03:367658] Set MCA parameter "orte_base_help_aggregate" to 0 to see all help / error messages
--------------------------------------------------------------------------
WARNING: There was an error initializing an OpenFabrics device.

  Local host:   cnode03
  Local device: mlx5_0
--------------------------------------------------------------------------


           ************************************************************
           *        Program running with 8 parallel MPI-processes     *
           *              working on a common directory               *
           ************************************************************
-------------------------------------------------------------------------------
                                 ORCA SCF
-------------------------------------------------------------------------------

------------
SCF SETTINGS
------------
Hamiltonian:
 Ab initio Hamiltonian  Method          .... Hartree-Fock(GTOs)


General Settings:
 Integral files         IntName         .... /scratch/BH-3.8-O_617/BH-3.8-O
 Hartree-Fock type      HFTyp           .... UHF
 Total Charge           Charge          ....    0
 Multiplicity           Mult            ....    1
 Number of Electrons    NEL             ....    6
 Basis Dimension        Dim             ....  126
 Nuclear Repulsion      ENuc            ....      0.6962858004 Eh

 Symmetry handling      UseSym         .... ON
 Point group                           .... C2v
 Used point group                      .... C2v
 Number of irreps                      .... 4
   Irrep   A1 has   50 symmetry adapted basis functions (ofs=   0)
   Irrep   A2 has   16 symmetry adapted basis functions (ofs=  50)
   Irrep   B1 has   30 symmetry adapted basis functions (ofs=  66)
   Irrep   B2 has   30 symmetry adapted basis functions (ofs=  96)

Convergence Acceleration:
 DIIS                   CNVDIIS         .... on
   Start iteration      DIISMaxIt       ....    12
   Startup error        DIISStart       ....  0.200000
   # of expansion vecs  DIISMaxEq       ....     5
   Bias factor          DIISBfac        ....   1.050
   Max. coefficient     DIISMaxC        ....  10.000
 Trust-Rad. Augm. Hess. CNVTRAH         .... auto
   Auto Start mean grad. ratio tolernc. ....  1.125000
   Auto Start start iteration           ....    20
   Auto Start num. interpolation iter.  ....    10
   Max. Number of Micro iterations      ....    16
   Max. Number of Macro iterations      .... Maxiter - #DIIS iter
   Number of Davidson start vectors     ....     2
   Converg. threshold I  (grad. norm)   ....   2.000e-06
   Converg. threshold II (energy diff.) ....   1.000e-09
   Grad. Scal. Fac. for Micro threshold ....   0.100
   Minimum threshold for Micro iter.    ....   0.010
   NR start threshold (gradient norm)   ....   0.001
   Initial trust radius                 ....   0.400
   Minimum AH scaling param. (alpha)    ....   1.000
   Maximum AH scaling param. (alpha)    .... 1000.000
   Orbital update algorithm             .... Taylor
   White noise on init. David. guess    .... on
   Maximum white noise                  ....   0.010
   Quad. conv. algorithm                .... NR
 SOSCF                  CNVSOSCF        .... off
 Level Shifting         CNVShift        .... on
   Level shift para.    LevelShift      ....    0.2500
   Turn off err/grad.   ShiftErr        ....    0.0010
 Zerner damping         CNVZerner       .... off
 Static damping         CNVDamp         .... on
   Fraction old density DampFac         ....    0.7000
   Max. Damping (<1)    DampMax         ....    0.9800
   Min. Damping (>=0)   DampMin         ....    0.0000
   Turn off err/grad.   DampErr         ....    0.1000
 Fernandez-Rico         CNVRico         .... off

SCF Procedure:
 Maximum # iterations   MaxIter         ....   125
 SCF integral mode      SCFMode         .... Direct
   Integral package                     .... SHARK and LIBINT hybrid scheme
 Reset frequency        DirectResetFreq ....    20
 Integral Threshold     Thresh          ....  1.000e-12 Eh
 Primitive CutOff       TCut            ....  1.000e-14 Eh

Convergence Tolerance:
 Convergence Check Mode ConvCheckMode   .... Total+1el-Energy
 Convergence forced     ConvForced      .... 0
 Energy Change          TolE            ....  1.000e-09 Eh
 1-El. energy change                    ....  1.000e-06 Eh
 DIIS Error             TolErr          ....  1.000e-08


Diagonalization of the overlap matrix:
Smallest eigenvalue                        ... 4.783e-03
Time for diagonalization                   ...    0.002 sec
Threshold for overlap eigenvalues          ... 1.000e-08
Number of eigenvalues below threshold      ... 0
Time for construction of square roots      ...    0.002 sec
Producing symmetrization matrix            ... done (   0.000 sec)
Total time needed                          ...    0.004 sec

Time for model grid setup =    0.008 sec

------------------------------
INITIAL GUESS: MODEL POTENTIAL
------------------------------
Loading Hartree-Fock densities                     ... done
Calculating cut-offs                               ... done
Initializing the effective Hamiltonian             ... done
Setting up the integral package (SHARK)            ... done
Starting the Coulomb interaction                   ... done (   0.0 sec)
Reading the grid                                   ... done
Mapping shells                                     ... done
Starting the XC term evaluation                    ... done (   0.0 sec)
done (   0.0 sec)
Diagonalizing the Hamiltonian                      ... done (   0.0 sec)
Back transforming the eigenvectors                 ... done (   0.0 sec)
Now organizing SCF variables                       ... done
The symmetry of the initial guess is 1-A1
Irrep occupations for operator 0
    A1 -    3
    A2 -    0
    B1 -    0
    B2 -    0
Irrep occupations for operator 1
    A1 -    3
    A2 -    0
    B1 -    0
    B2 -    0
                      ------------------
                      INITIAL GUESS DONE (   0.0 sec)
                      ------------------
--------------
SCF ITERATIONS
--------------
ITER       Energy         Delta-E        Max-DP      RMS-DP      [F,P]     Damp
               ***  Starting incremental Fock matrix formation  ***
  0    -24.8026697779   0.000000000000 0.02245260  0.00045792  0.1984097 0.7000
  1    -24.8268976660  -0.024227888063 0.02274374  0.00044875  0.1524040 0.7000
                               ***Turning on DIIS***
  2    -24.8516954182  -0.024797752221 0.01886845  0.00038159  0.1040059 0.7000
  3    -24.7796947020   0.072000716234 0.04227746  0.00087994  0.0680197 0.0000
  4    -24.9318690859  -0.152174383930 0.00541764  0.00011861  0.0141913 0.0000
  5    -24.9205185289   0.011350557031 0.00403345  0.00008276  0.0055773 0.0000
  6    -24.9136193049   0.006899223947 0.00219771  0.00003701  0.0020153 0.0000
  7    -24.9117592637   0.001860041241 0.00164781  0.00003061  0.0008966 0.0000
  8    -24.9111348937   0.000624369978 0.00038367  0.00000850  0.0001940 0.0000
  9    -24.9112756747  -0.000140781022 0.00006517  0.00000150  0.0000293 0.0000
 10    -24.9112711598   0.000004514862 0.00002331  0.00000043  0.0000150 0.0000
 11    -24.9112850530  -0.000013893169 0.00000355  0.00000006  0.0000023 0.0000
 12    -24.9112816604   0.000003392570 0.00000165  0.00000002  0.0000006 0.0000
 13    -24.9112814349   0.000000225526 0.00000028  0.00000000  0.0000001 0.0000
 14    -24.9112812982   0.000000136721 0.00000003  0.00000000  0.0000000 0.0000
                            ***DIIS convergence achieved***

               *****************************************************
               *                     SUCCESS                       *
               *           SCF CONVERGED AFTER  15 CYCLES          *
               *****************************************************


------------------------------------------------------------------------------
                          SCF STABILITY ANALYSIS                              
------------------------------------------------------------------------------


                       ****Iteration    0****

   Memory handling for direct AO based CIS:
   Memory per vector needed      ...     1 MB
   Memory needed                 ...     4 MB
   Memory available              ...  1024 MB
   Number of vectors per batch   ...  1024
   Number of batches             ...     1
   Time for densities:     0.001
   Using LibInt in JK Direct
   Time for J+K (Direct):     1.622
   Time for Sigma-Completion:     0.001
   Lowest Energy          :    -0.181289836630
   Maximum Energy change  :     0.181289836630 (vector 0)
   Maximum residual norm  :     0.023073331609

                       ****Iteration    1****
   Time for densities:     0.000
   Using LibInt in JK Direct
[cnode03:367718] 7 more processes have sent help message help-mpi-btl-openib.txt / error in device init
[cnode03:367718] Set MCA parameter "orte_base_help_aggregate" to 0 to see all help / error messages
   Time for J+K (Direct):     0.846
   Time for Sigma-Completion:     0.001
   Lowest Energy          :    -0.228636971248
   Maximum Energy change  :     0.047347134617 (vector 0)
   Maximum residual norm  :     0.000832189539

                       ****Iteration    2****
   Time for densities:     0.000
   Using LibInt in JK Direct
   Time for J+K (Direct):     0.841
   Time for Sigma-Completion:     0.001
   Lowest Energy          :    -0.230092010831
   Maximum Energy change  :     0.004830075509 (vector 2)
   Maximum residual norm  :     0.001472220945

                       ****Iteration    3****
   Time for densities:     0.000
   Using LibInt in JK Direct
   Time for J+K (Direct):     0.836
   Time for Sigma-Completion:     0.001
   Lowest Energy          :    -0.230117438023
   Maximum Energy change  :     0.003202247520 (vector 2)
   Maximum residual norm  :     0.000104958196

                       ****Iteration    4****
   Time for densities:     0.000
   Using LibInt in JK Direct
   Time for J+K (Direct):     0.852
   Time for Sigma-Completion:     0.001
   Lowest Energy          :    -0.230119279007
   Maximum Energy change  :     0.000109297139 (vector 2)
   Maximum residual norm  :     0.000003928619

      *** CONVERGENCE OF RESIDUAL NORM REACHED ***

----------------------------- 
SCF STABILITY ANALYSIS RESULT 
----------------------------- 

UHF/UKS->UHF/UKS - singlet - internal

   Root    Eigenvalue (au) 
     0      -0.230119 
     1      -0.010571 
     2      -0.010571 

Stability Analysis indicates an UNSTABLE HF/KS wave function with SEVERAL negative eigenvalues.

Since this is UHF/UKS, we will restart the SCF using a new guess based on the eigenvector 
associated with the lowest eigenvalue. Because there is no guarantee that the restart     
will result in a stable solution, the user should check the stability of the resulting    
wave function in a separate calculation using the MOREAD guess feature.

Obtain new guess               ... done 

Total time for performing the stability analysis:     5.014sec

--------------------------
SCF ITERATIONS (restarted)
--------------------------
ITER       Energy         Delta-E        Max-DP      RMS-DP      [F,P]     Damp
               ***  Starting incremental Fock matrix formation  ***
  0    -24.9475988281   0.000000000000 0.01159751  0.00012715  0.0288365 0.7000
  1    -24.9532312352  -0.005632407117 0.01412253  0.00016666  0.0278824 0.7000
                               ***Turning on DIIS***
  2    -24.9606906531  -0.007459417880 0.04535432  0.00058464  0.0267071 0.0000
  3    -25.1015611392  -0.140870486120 0.01104768  0.00015185  0.0259298 0.0000
  4    -25.1040923127  -0.002531173421 0.00595158  0.00008294  0.0276727 0.0000
  5    -25.1017512299   0.002341082796 0.00406137  0.00006430  0.0287620 0.0000
  6    -25.0982835948   0.003467635041 0.00353866  0.00005272  0.0289899 0.0000
  7    -24.9722092389   0.126074355912 0.03588988  0.00055637  0.0288805 0.0000
  8    -25.0087862018  -0.036576962868 0.02027801  0.00033079  0.0255743 0.0000
  9    -24.9961438599   0.012642341889 0.02600335  0.00041351  0.0238068 0.0000
 10    -25.0135213316  -0.017377471688 0.01526979  0.00024112  0.0179393 0.0000
 11    -25.0223453664  -0.008824034789 0.00858987  0.00012998  0.0101089 0.0000
 12    -25.0273337409  -0.004988374554 0.00480513  0.00007186  0.0050920 0.0000
 13    -25.0309400821  -0.003606341231 0.00174157  0.00002795  0.0025010 0.0000
 14    -25.0319241520  -0.000984069836 0.00075965  0.00001283  0.0012383 0.0000
 15    -25.0326342750  -0.000710123050 0.00070530  0.00001054  0.0005801 0.0000
 16    -25.0331346574  -0.000500382348 0.00033216  0.00000421  0.0001182 0.0000
 17    -25.0331012577   0.000033399701 0.00010666  0.00000145  0.0000435 0.0000
 18    -25.0330780259   0.000023231807 0.00002759  0.00000053  0.0000238 0.0000
 19    -25.0330669298   0.000011096084 0.00001679  0.00000026  0.0000113 0.0000
               *** Restarting incremental Fock matrix formation ***
                                   *** Resetting DIIS ***
 20    -25.0330663652   0.000000564556 0.00000422  0.00000007  0.0000034 0.0000
 21    -25.0330650153   0.000001349956 0.00000543  0.00000008  0.0000023 0.0000
 22    -25.0330659153  -0.000000900013 0.00000131  0.00000002  0.0000009 0.0000
 23    -25.0330663509  -0.000000435627 0.00000047  0.00000001  0.0000003 0.0000
 24    -25.0330663979  -0.000000046985 0.00000028  0.00000000  0.0000001 0.0000
 25    -25.0330663995  -0.000000001554 0.00000015  0.00000000  0.0000001 0.0000
                            ***DIIS convergence achieved***

               *****************************************************
               *                     SUCCESS                       *
               *           SCF CONVERGED AFTER  26 CYCLES          *
               *****************************************************


----------------
TOTAL SCF ENERGY
----------------

Total Energy       :          -25.03306638 Eh            -681.18437 eV

Components:
Nuclear Repulsion  :            0.69628580 Eh              18.94690 eV
Electronic Energy  :          -25.72935218 Eh            -700.13127 eV
One Electron Energy:          -34.26405119 Eh            -932.37223 eV
Two Electron Energy:            8.53469901 Eh             232.24097 eV

Virial components:
Potential Energy   :          -50.06428773 Eh           -1362.31853 eV
Kinetic Energy     :           25.03122135 Eh             681.13416 eV
Virial Ratio       :            2.00007371


---------------
SCF CONVERGENCE
---------------

  Last Energy change         ...    2.1322e-08  Tolerance :   1.0000e-09
  Last MAX-Density change    ...    2.9975e-08  Tolerance :   1.0000e-08
  Last RMS-Density change    ...    3.9540e-10  Tolerance :   1.0000e-09
  Last DIIS Error            ...    1.1499e-08  Tolerance :   1.0000e-08

             **** THE GBW FILE WAS UPDATED (/scratch/BH-3.8-O_617/BH-3.8-O.gbw) ****
             **** DENSITY /scratch/BH-3.8-O_617/BH-3.8-O.scfp WAS UPDATED ****
             **** ENERGY FILE WAS UPDATED (/scratch/BH-3.8-O_617/BH-3.8-O.en.tmp) ****

     --------------------------------------------------------------------
                                      WARNING
     A stability analysis of the first UHF/UKS SCF solution was performed
     and an instability detected. The result was used as a guess for
     a second SCF, which has converged. There is no guarantee that the
     current solution is stable - it is up to you to rerun the stability
     analysis using the now stored solution as a guess and verify.
     --------------------------------------------------------------------

----------------------
UHF SPIN CONTAMINATION
----------------------

Expectation value of <S**2>     :     1.005095
Ideal value S*(S+1) for S=0.0   :     0.000000
Deviation                       :     1.005095

             **** THE GBW FILE WAS UPDATED (/scratch/BH-3.8-O_617/BH-3.8-O.gbw) ****
             **** DENSITY /scratch/BH-3.8-O_617/BH-3.8-O.scfp WAS UPDATED ****
----------------
ORBITAL ENERGIES
----------------
                 SPIN UP ORBITALS
  NO   OCC          E(Eh)            E(eV)    Irrep 
   0   1.0000      -7.687393      -209.1846    1-A1
   1   1.0000      -0.493337       -13.4244    2-A1
   2   1.0000      -0.446667       -12.1544    3-A1
   3   0.0000       0.026946         0.7332    1-B2
   4   0.0000       0.026946         0.7332    1-B1
   5   0.0000       0.042367         1.1529    4-A1
   6   0.0000       0.053606         1.4587    5-A1
   7   0.0000       0.079150         2.1538    6-A1
   8   0.0000       0.083896         2.2829    2-B1
   9   0.0000       0.083896         2.2829    2-B2
  10   0.0000       0.115188         3.1344    7-A1
  11   0.0000       0.142788         3.8855    3-B2
  12   0.0000       0.142788         3.8855    3-B1
  13   0.0000       0.145527         3.9600    1-A2
  14   0.0000       0.145527         3.9600    8-A1
  15   0.0000       0.182364         4.9624    9-A1
  16   0.0000       0.216113         5.8807    4-B2
  17   0.0000       0.216113         5.8807    4-B1
  18   0.0000       0.262772         7.1504   10-A1
  19   0.0000       0.319776         8.7015    5-B1
  20   0.0000       0.319776         8.7015    5-B2
  21   0.0000       0.352248         9.5852   11-A1
  22   0.0000       0.360189         9.8012   12-A1
  23   0.0000       0.429396        11.6845   13-A1
  24   0.0000       0.461518        12.5585    6-B2
  25   0.0000       0.461518        12.5585    6-B1
  26   0.0000       0.465915        12.6782   14-A1
  27   0.0000       0.465915        12.6782    2-A2
  28   0.0000       0.477186        12.9849    7-B2
  29   0.0000       0.477186        12.9849    7-B1
  30   0.0000       0.501140        13.6367   15-A1
  31   0.0000       0.501140        13.6367    3-A2
  32   0.0000       0.517209        14.0740   16-A1
  33   0.0000       0.529703        14.4139    8-B2
  34   0.0000       0.529703        14.4139    8-B1
  35   0.0000       0.580009        15.7828   17-A1
  36   0.0000       0.630871        17.1669    4-A2
  37   0.0000       0.630871        17.1669   18-A1
  38   0.0000       0.704867        19.1804    9-B2
  39   0.0000       0.704867        19.1804    9-B1
  40   0.0000       0.784848        21.3568   10-B1
  41   0.0000       0.784848        21.3568   10-B2
  42   0.0000       0.801617        21.8131   19-A1
  43   0.0000       0.913561        24.8593   20-A1
  44   0.0000       1.061352        28.8809   11-B1
  45   0.0000       1.061352        28.8809   11-B2
  46   0.0000       1.126756        30.6606   21-A1
  47   0.0000       1.369326        37.2613    5-A2
  48   0.0000       1.369326        37.2613   22-A1
  49   0.0000       1.383950        37.6592   12-B2
  50   0.0000       1.383950        37.6592   12-B1
  51   0.0000       1.384105        37.6634   13-B1
  52   0.0000       1.384105        37.6634   13-B2
  53   0.0000       1.391503        37.8647   23-A1
  54   0.0000       1.391503        37.8647    6-A2
  55   0.0000       1.392221        37.8843   24-A1
  56   0.0000       1.415550        38.5191   25-A1
  57   0.0000       1.415550        38.5191    7-A2
  58   0.0000       1.436027        39.0763   26-A1
  59   0.0000       1.439135        39.1609   14-B1
  60   0.0000       1.439135        39.1609   14-B2
  61   0.0000       1.450241        39.4631   15-B2
  62   0.0000       1.450241        39.4631   15-B1
  63   0.0000       1.459707        39.7206   27-A1
  64   0.0000       1.459707        39.7206    8-A2
  65   0.0000       1.486519        40.4502   28-A1
  66   0.0000       1.499102        40.7926   16-B2
  67   0.0000       1.499102        40.7926   16-B1
  68   0.0000       1.564649        42.5763   17-B1
  69   0.0000       1.564649        42.5763   17-B2
  70   0.0000       1.581601        43.0376   29-A1
  71   0.0000       1.581601        43.0376    9-A2
  72   0.0000       1.585708        43.1493   30-A1
  73   0.0000       1.619897        44.0796   31-A1
  74   0.0000       1.663840        45.2754   18-B1
  75   0.0000       1.663840        45.2754   18-B2
  76   0.0000       1.830179        49.8017   32-A1
  77   0.0000       2.458952        66.9115   10-A2
  78   0.0000       2.458952        66.9115   33-A1
  79   0.0000       2.503418        68.1215   19-B2
  80   0.0000       2.503418        68.1215   19-B1
  81   0.0000       2.577390        70.1343   20-B1
  82   0.0000       2.577390        70.1343   20-B2
  83   0.0000       2.606629        70.9300   34-A1
  84   0.0000       2.678464        72.8847   35-A1
  85   0.0000       3.744645       101.8970   21-B1
  86   0.0000       3.744645       101.8970   21-B2
  87   0.0000       3.812980       103.7565   36-A1
  88   0.0000       3.919734       106.6614   11-A2
  89   0.0000       3.919734       106.6614   37-A1
  90   0.0000       3.945006       107.3491   22-B2
  91   0.0000       3.945006       107.3491   22-B1
  92   0.0000       3.959811       107.7519   12-A2
  93   0.0000       3.959811       107.7519   38-A1
  94   0.0000       3.965096       107.8957   39-A1
  95   0.0000       3.965096       107.8957   13-A2
  96   0.0000       3.989899       108.5707   23-B2
  97   0.0000       3.989899       108.5707   23-B1
  98   0.0000       4.002610       108.9166   40-A1
  99   0.0000       4.004083       108.9566   24-B2
 100   0.0000       4.004083       108.9566   24-B1
 101   0.0000       4.088060       111.2418   25-B1
 102   0.0000       4.088060       111.2418   25-B2
 103   0.0000       4.109338       111.8208   41-A1
 104   0.0000       4.122230       112.1716   42-A1
 105   0.0000       4.122230       112.1716   14-A2
 106   0.0000       4.161477       113.2396   26-B1
 107   0.0000       4.161477       113.2396   26-B2
 108   0.0000       4.217528       114.7648   43-A1
 109   0.0000       6.557784       178.4464   27-B1
 110   0.0000       6.557784       178.4464   27-B2
 111   0.0000       6.560370       178.5167   15-A2
 112   0.0000       6.560370       178.5167   44-A1
 113   0.0000       6.574804       178.9095   28-B1
 114   0.0000       6.574804       178.9095   28-B2
 115   0.0000       6.599945       179.5936   45-A1
 116   0.0000       7.457181       202.9202   46-A1
 117   0.0000       7.946969       216.2480   29-B1
 118   0.0000       7.946969       216.2480   29-B2
 119   0.0000       7.993014       217.5010   47-A1
 120   0.0000       8.396195       228.4721   48-A1
 121   0.0000       8.396195       228.4721   16-A2
 122   0.0000       8.426827       229.3056   30-B2
 123   0.0000       8.426827       229.3056   30-B1
 124   0.0000       8.512252       231.6302   49-A1
 125   0.0000      13.096682       356.3788   50-A1

                 SPIN DOWN ORBITALS
  NO   OCC          E(Eh)            E(eV)    Irrep 
   0   1.0000      -7.702413      -209.5933    1-A1
   1   1.0000      -0.545796       -14.8519    2-A1
   2   1.0000      -0.319047        -8.6817    3-A1
   3   0.0000       0.021883         0.5955    4-A1
   4   0.0000       0.023345         0.6352    1-B1
   5   0.0000       0.023345         0.6352    1-B2
   6   0.0000       0.049030         1.3342    5-A1
   7   0.0000       0.076922         2.0932    2-B1
   8   0.0000       0.076922         2.0932    2-B2
   9   0.0000       0.078929         2.1478    6-A1
  10   0.0000       0.107228         2.9178    7-A1
  11   0.0000       0.143641         3.9087    3-B1
  12   0.0000       0.143641         3.9087    3-B2
  13   0.0000       0.145481         3.9587    1-A2
  14   0.0000       0.145481         3.9587    8-A1
  15   0.0000       0.186156         5.0656    9-A1
  16   0.0000       0.231124         6.2892    4-B1
  17   0.0000       0.231124         6.2892    4-B2
  18   0.0000       0.249590         6.7917   10-A1
  19   0.0000       0.311809         8.4847    5-B1
  20   0.0000       0.311809         8.4847    5-B2
  21   0.0000       0.330027         8.9805   11-A1
  22   0.0000       0.353146         9.6096   12-A1
  23   0.0000       0.461590        12.5605    6-B2
  24   0.0000       0.461590        12.5605    6-B1
  25   0.0000       0.462572        12.5872    2-A2
  26   0.0000       0.462572        12.5872   13-A1
  27   0.0000       0.469713        12.7815    7-B2
  28   0.0000       0.469713        12.7815    7-B1
  29   0.0000       0.474296        12.9063   14-A1
  30   0.0000       0.500073        13.6077   15-A1
  31   0.0000       0.500073        13.6077    3-A2
  32   0.0000       0.503229        13.6936    8-B2
  33   0.0000       0.503229        13.6936    8-B1
  34   0.0000       0.505703        13.7609   16-A1
  35   0.0000       0.574512        15.6333   17-A1
  36   0.0000       0.643489        17.5102   18-A1
  37   0.0000       0.643489        17.5102    4-A2
  38   0.0000       0.721583        19.6353    9-B2
  39   0.0000       0.721583        19.6353    9-B1
  40   0.0000       0.837746        22.7962   19-A1
  41   0.0000       0.843600        22.9555   10-B1
  42   0.0000       0.843600        22.9555   10-B2
  43   0.0000       0.941992        25.6329   20-A1
  44   0.0000       1.052332        28.6354   11-B1
  45   0.0000       1.052332        28.6354   11-B2
  46   0.0000       1.054492        28.6942   21-A1
  47   0.0000       1.369603        37.2688    5-A2
  48   0.0000       1.369603        37.2688   22-A1
  49   0.0000       1.375947        37.4414   12-B1
  50   0.0000       1.375947        37.4414   12-B2
  51   0.0000       1.378801        37.5191   13-B2
  52   0.0000       1.378801        37.5191   13-B1
  53   0.0000       1.378914        37.5222   23-A1
  54   0.0000       1.383236        37.6398    6-A2
  55   0.0000       1.383236        37.6398   24-A1
  56   0.0000       1.394725        37.9524   25-A1
  57   0.0000       1.403711        38.1969   14-B2
  58   0.0000       1.403711        38.1969   14-B1
  59   0.0000       1.410512        38.3820   26-A1
  60   0.0000       1.410512        38.3820    7-A2
  61   0.0000       1.438520        39.1441   15-B1
  62   0.0000       1.438520        39.1441   15-B2
  63   0.0000       1.444647        39.3108    8-A2
  64   0.0000       1.444647        39.3108   27-A1
  65   0.0000       1.451779        39.5049   28-A1
  66   0.0000       1.474543        40.1244   16-B2
  67   0.0000       1.474543        40.1244   16-B1
  68   0.0000       1.563464        42.5440   29-A1
  69   0.0000       1.577179        42.9172   17-B1
  70   0.0000       1.577179        42.9172   17-B2
  71   0.0000       1.592461        43.3331    9-A2
  72   0.0000       1.592461        43.3331   30-A1
  73   0.0000       1.669879        45.4397   18-B1
  74   0.0000       1.669879        45.4397   18-B2
  75   0.0000       1.708497        46.4906   31-A1
  76   0.0000       1.849943        50.3395   32-A1
  77   0.0000       2.498278        67.9816   10-A2
  78   0.0000       2.498278        67.9816   33-A1
  79   0.0000       2.544105        69.2286   19-B2
  80   0.0000       2.544105        69.2286   19-B1
  81   0.0000       2.649046        72.0842   20-B1
  82   0.0000       2.649046        72.0842   20-B2
  83   0.0000       2.660765        72.4031   34-A1
  84   0.0000       2.729748        74.2802   35-A1
  85   0.0000       3.737685       101.7076   21-B1
  86   0.0000       3.737685       101.7076   21-B2
  87   0.0000       3.765310       102.4593   36-A1
  88   0.0000       3.919066       106.6432   11-A2
  89   0.0000       3.919066       106.6432   37-A1
  90   0.0000       3.934159       107.0539   22-B2
  91   0.0000       3.934159       107.0539   22-B1
  92   0.0000       3.945862       107.3724   38-A1
  93   0.0000       3.945862       107.3724   12-A2
  94   0.0000       3.955330       107.6300   13-A2
  95   0.0000       3.955330       107.6300   39-A1
  96   0.0000       3.962195       107.8168   23-B1
  97   0.0000       3.962195       107.8168   23-B2
  98   0.0000       3.966030       107.9212   40-A1
  99   0.0000       3.972646       108.1012   24-B2
 100   0.0000       3.972646       108.1012   24-B1
 101   0.0000       4.074252       110.8660   41-A1
 102   0.0000       4.085421       111.1700   25-B1
 103   0.0000       4.085421       111.1700   25-B2
 104   0.0000       4.100903       111.5912   42-A1
 105   0.0000       4.100903       111.5912   14-A2
 106   0.0000       4.128467       112.3413   26-B1
 107   0.0000       4.128467       112.3413   26-B2
 108   0.0000       4.180540       113.7583   43-A1
 109   0.0000       6.586598       179.2305   27-B1
 110   0.0000       6.586598       179.2305   27-B2
 111   0.0000       6.589138       179.2996   44-A1
 112   0.0000       6.589138       179.2996   15-A2
 113   0.0000       6.603444       179.6888   28-B1
 114   0.0000       6.603444       179.6888   28-B2
 115   0.0000       6.628491       180.3704   45-A1
 116   0.0000       7.537958       205.1183   46-A1
 117   0.0000       8.004745       217.8202   29-B1
 118   0.0000       8.004745       217.8202   29-B2
 119   0.0000       8.050248       219.0584   47-A1
 120   0.0000       8.438364       229.6196   48-A1
 121   0.0000       8.438364       229.6196   16-A2
 122   0.0000       8.468772       230.4470   30-B2
 123   0.0000       8.468772       230.4470   30-B1
 124   0.0000       8.553723       232.7586   49-A1
 125   0.0000      13.085274       356.0684   50-A1

                    ********************************
                    * MULLIKEN POPULATION ANALYSIS *
                    ********************************

--------------------------------------------
MULLIKEN ATOMIC CHARGES AND SPIN POPULATIONS
--------------------------------------------
   0 B :    0.002017   -1.000233
   1 H :   -0.002017    1.000233
Sum of atomic charges         :   -0.0000000
Sum of atomic spin populations:    0.0000000

-----------------------------------------------------
MULLIKEN REDUCED ORBITAL CHARGES AND SPIN POPULATIONS
-----------------------------------------------------
CHARGE
  0 B s       :     3.994163  s :     3.994163
      pz      :     0.999120  p :     0.999120
      px      :     0.000000
      py      :     0.000000
      dz2     :     0.004784  d :     0.004784
      dxz     :     0.000000
      dyz     :     0.000000
      dx2y2   :     0.000000
      dxy     :     0.000000
      f0      :    -0.000084  f :    -0.000084
      f+1     :     0.000000
      f-1     :     0.000000
      f+2     :     0.000000
      f-2     :     0.000000
      f+3     :     0.000000
      f-3     :     0.000000
      g0      :     0.000001  g :     0.000001
      g+1     :     0.000000
      g-1     :     0.000000
      g+2     :     0.000000
      g-2     :     0.000000
      g+3     :     0.000000
      g-3     :     0.000000
      g+4     :     0.000000
      g-4     :     0.000000
  1 H s       :     1.001894  s :     1.001894
      pz      :    -0.000026  p :    -0.000026
      px      :     0.000000
      py      :     0.000000
      dz2     :     0.000127  d :     0.000127
      dxz     :     0.000000
      dyz     :     0.000000
      dx2y2   :     0.000000
      dxy     :     0.000000
      f0      :     0.000021  f :     0.000021
      f+1     :     0.000000
      f-1     :     0.000000
      f+2     :     0.000000
      f-2     :     0.000000
      f+3     :     0.000000
      f-3     :     0.000000

SPIN
  0 B s       :     0.000661  s :     0.000661
      pz      :    -0.999349  p :    -0.999349
      px      :    -0.000000
      py      :    -0.000000
      dz2     :    -0.001413  d :    -0.001413
      dxz     :    -0.000000
      dyz     :    -0.000000
      dx2y2   :     0.000000
      dxy     :     0.000000
      f0      :    -0.000132  f :    -0.000132
      f+1     :     0.000000
      f-1     :    -0.000000
      f+2     :     0.000000
      f-2     :    -0.000000
      f+3     :     0.000000
      f-3     :    -0.000000
      g0      :     0.000001  g :     0.000001
      g+1     :    -0.000000
      g-1     :     0.000000
      g+2     :    -0.000000
      g-2     :    -0.000000
      g+3     :    -0.000000
      g-3     :    -0.000000
      g+4     :     0.000000
      g-4     :    -0.000000
  1 H s       :     0.999924  s :     0.999924
      pz      :     0.000404  p :     0.000404
      px      :     0.000000
      py      :    -0.000000
      dz2     :    -0.000081  d :    -0.000081
      dxz     :    -0.000000
      dyz     :    -0.000000
      dx2y2   :     0.000000
      dxy     :     0.000000
      f0      :    -0.000015  f :    -0.000015
      f+1     :    -0.000000
      f-1     :    -0.000000
      f+2     :    -0.000000
      f-2     :     0.000000
      f+3     :    -0.000000
      f-3     :     0.000000


                     *******************************
                     * LOEWDIN POPULATION ANALYSIS *
                     *******************************

-------------------------------------------
LOEWDIN ATOMIC CHARGES AND SPIN POPULATIONS
-------------------------------------------
   0 B :   -0.012481   -0.942203
   1 H :    0.012481    0.942203

----------------------------------------------------
LOEWDIN REDUCED ORBITAL CHARGES AND SPIN POPULATIONS
----------------------------------------------------
CHARGE
  0 B s       :     3.984888  s :     3.984888
      pz      :     0.998595  p :     0.998595
      px      :     0.000000
      py      :     0.000000
      dz2     :     0.024451  d :     0.024451
      dxz     :     0.000000
      dyz     :     0.000000
      dx2y2   :     0.000000
      dxy     :     0.000000
      f0      :     0.004459  f :     0.004459
      f+1     :     0.000000
      f-1     :     0.000000
      f+2     :     0.000000
      f-2     :     0.000000
      f+3     :     0.000000
      f-3     :     0.000000
      g0      :     0.000088  g :     0.000088
      g+1     :     0.000000
      g-1     :     0.000000
      g+2     :     0.000000
      g-2     :     0.000000
      g+3     :     0.000000
      g-3     :     0.000000
      g+4     :     0.000000
      g-4     :     0.000000
  1 H s       :     0.969480  s :     0.969480
      pz      :     0.014801  p :     0.014801
      px      :     0.000000
      py      :     0.000000
      dz2     :     0.003020  d :     0.003020
      dxz     :     0.000000
      dyz     :     0.000000
      dx2y2   :     0.000000
      dxy     :     0.000000
      f0      :     0.000218  f :     0.000218
      f+1     :     0.000000
      f-1     :     0.000000
      f+2     :     0.000000
      f-2     :     0.000000
      f+3     :     0.000000
      f-3     :     0.000000

SPIN
  0 B s       :     0.003266  s :     0.003266
      pz      :    -0.968473  p :    -0.968473
      px      :    -0.000000
      py      :    -0.000000
      dz2     :     0.018509  d :     0.018509
      dxz     :    -0.000000
      dyz     :    -0.000000
      dx2y2   :     0.000000
      dxy     :     0.000000
      f0      :     0.004416  f :     0.004416
      f+1     :     0.000000
      f-1     :    -0.000000
      f+2     :    -0.000000
      f-2     :    -0.000000
      f+3     :     0.000000
      f-3     :    -0.000000
      g0      :     0.000079  g :     0.000079
      g+1     :    -0.000000
      g-1     :    -0.000000
      g+2     :    -0.000000
      g-2     :     0.000000
      g+3     :    -0.000000
      g-3     :     0.000000
      g+4     :     0.000000
      g-4     :    -0.000000
  1 H s       :     0.952896  s :     0.952896
      pz      :    -0.008399  p :    -0.008399
      px      :    -0.000000
      py      :    -0.000000
      dz2     :    -0.002133  d :    -0.002133
      dxz     :    -0.000000
      dyz     :    -0.000000
      dx2y2   :     0.000000
      dxy     :     0.000000
      f0      :    -0.000160  f :    -0.000160
      f+1     :    -0.000000
      f-1     :    -0.000000
      f+2     :     0.000000
      f-2     :     0.000000
      f+3     :    -0.000000
      f-3     :     0.000000


                      *****************************
                      * MAYER POPULATION ANALYSIS *
                      *****************************

  NA   - Mulliken gross atomic population
  ZA   - Total nuclear charge
  QA   - Mulliken gross atomic charge
  VA   - Mayer's total valence
  BVA  - Mayer's bonded valence
  FA   - Mayer's free valence

  ATOM       NA         ZA         QA         VA         BVA        FA
  0 B      4.9980     5.0000     0.0020     1.0215     0.0005     1.0209
  1 H      1.0020     1.0000    -0.0020     1.0003     0.0005     0.9998

  Mayer bond orders larger than 0.100000


-------
TIMINGS
-------

Total SCF time: 0 days 0 hours 0 min 12 sec 

Total time                  ....      12.284 sec
Sum of individual times     ....      12.080 sec  ( 98.3%)

Fock matrix formation       ....       6.673 sec  ( 54.3%)
Diagonalization             ....       0.213 sec  (  1.7%)
Density matrix formation    ....       0.007 sec  (  0.1%)
Population analysis         ....       0.006 sec  (  0.1%)
Initial guess               ....       0.006 sec  (  0.1%)
Orbital Transformation      ....       0.000 sec  (  0.0%)
Orbital Orthonormalization  ....       0.000 sec  (  0.0%)
DIIS solution               ....       0.153 sec  (  1.2%)
SCF Stability Analysis      ....       5.014 sec  ( 40.8%)

Maximum memory used throughout the entire SCF-calculation: 228.8 MB

-------------------------   --------------------
FINAL SINGLE POINT ENERGY       -25.033066378137
-------------------------   --------------------


                            ***************************************
                            *     ORCA property calculations      *
                            ***************************************

                                    ---------------------
                                    Active property flags
                                    ---------------------
   (+) Dipole Moment


------------------------------------------------------------------------------
                       ORCA ELECTRIC PROPERTIES CALCULATION
------------------------------------------------------------------------------

Dipole Moment Calculation                       ... on
Quadrupole Moment Calculation                   ... off
Polarizability Calculation                      ... off
GBWName                                         ... /scratch/BH-3.8-O_617/BH-3.8-O.gbw
Electron density file                           ... /scratch/BH-3.8-O_617/BH-3.8-O.scfp
The origin for moment calculation is the CENTER OF MASS  = ( 0.000000,  0.000000 -0.000000)

-------------
DIPOLE MOMENT
-------------
                                X             Y             Z
Electronic contribution:      0.00000      -0.00000      -3.52927
Nuclear contribution   :      0.00000       0.00000       3.50602
                        -----------------------------------------
Total Dipole Moment    :      0.00000      -0.00000      -0.02325
                        -----------------------------------------
Magnitude (a.u.)       :      0.02325
Magnitude (Debye)      :      0.05910



--------------------
Rotational spectrum 
--------------------
 
Rotational constants in cm-1:     0.000000     1.266157     1.266157 
Rotational constants in MHz :     0.000000 37958.423798 37958.423798 

 Dipole components along the rotational axes: 
x,y,z [a.u.] :    -0.023250    -0.000000     0.000000 
x,y,z [Debye]:    -0.059096    -0.000000     0.000000 

 
--------------------------------------------------------------------------
WARNING: There was an error initializing an OpenFabrics device.

  Local host:   cnode03
  Local device: mlx5_0
--------------------------------------------------------------------------
[cnode03:367818] 7 more processes have sent help message help-mpi-btl-openib.txt / error in device init
[cnode03:367818] Set MCA parameter "orte_base_help_aggregate" to 0 to see all help / error messages

Timings for individual modules:

Sum of individual times         ...       13.197 sec (=   0.220 min)
GTO integral calculation        ...        0.535 sec (=   0.009 min)   4.1 %
SCF iterations                  ...       12.662 sec (=   0.211 min)  95.9 %
                             ****ORCA TERMINATED NORMALLY****
TOTAL RUN TIME: 0 days 0 hours 0 minutes 13 seconds 631 msec

Sender: Unischeduler System <lcz@mgt01>
Subject: Job 133672: <#!/bin/bash
#BSUB -J intel
#BSUB -o BH-3.8-O.out
#BSUB -n 8
#BSUB -q cqueue
export LD_LIBRARY_PATH=/apps/software/openmpi-4.1.1/lib:/apps/software/orca_5_0_0:$LD_LIBRARY_PATH
export PATH=/apps/software/openmpi-4.1.1/bin:/apps/software/orca_5_0_0:$PATH
mkdir /scratch/BH-3.8-O_617
scp $USER@mgt01:/apps/users/lcz/exe13/UHF/BH-3.8-O.inp /scratch/BH-3.8-O_617
/apps/software/orca_5_0_0/orca /scratch/BH-3.8-O_617/BH-3.8-O.inp >& BH-3.8-O.out
scp /scratch/BH-3.8-O_617/*.gbw $USER@mgt01:/apps/users/lcz/exe13/UHF
scp /scratch/BH-3.8-O_617/*.xyz $USER@mgt01:/apps/users/lcz/exe13/UHF
scp /scratch/BH-3.8-O_617/*.trj $USER@mgt01:/apps/users/lcz/exe13/UHF> Exited

Job <#!/bin/bash
#BSUB -J intel
#BSUB -o BH-3.8-O.out
#BSUB -n 8
#BSUB -q cqueue
export LD_LIBRARY_PATH=/apps/software/openmpi-4.1.1/lib:/apps/software/orca_5_0_0:$LD_LIBRARY_PATH
export PATH=/apps/software/openmpi-4.1.1/bin:/apps/software/orca_5_0_0:$PATH
mkdir /scratch/BH-3.8-O_617
scp $USER@mgt01:/apps/users/lcz/exe13/UHF/BH-3.8-O.inp /scratch/BH-3.8-O_617
/apps/software/orca_5_0_0/orca /scratch/BH-3.8-O_617/BH-3.8-O.inp >& BH-3.8-O.out
scp /scratch/BH-3.8-O_617/*.gbw $USER@mgt01:/apps/users/lcz/exe13/UHF
scp /scratch/BH-3.8-O_617/*.xyz $USER@mgt01:/apps/users/lcz/exe13/UHF
scp /scratch/BH-3.8-O_617/*.trj $USER@mgt01:/apps/users/lcz/exe13/UHF> was submitted from host <mgt01> by user <lcz>.
Job was executed on host(s) <8*cnode03>, in queue <cqueue>, as user <lcz>.
</apps/users/lcz> was used as the home directory.
</apps/users/lcz/exe13/UHF> was used as the working directory.
Started at 2022-05-21 21:35:10
Results reported at 2022-05-21 21:35:25

Your job looked like:

------------------------------------------------------------
# User input
#!/bin/bash
#BSUB -J intel
#BSUB -o BH-3.8-O.out
#BSUB -n 8
#BSUB -q cqueue
export LD_LIBRARY_PATH=/apps/software/openmpi-4.1.1/lib:/apps/software/orca_5_0_0:$LD_LIBRARY_PATH
export PATH=/apps/software/openmpi-4.1.1/bin:/apps/software/orca_5_0_0:$PATH
mkdir /scratch/BH-3.8-O_617
scp $USER@mgt01:/apps/users/lcz/exe13/UHF/BH-3.8-O.inp /scratch/BH-3.8-O_617
/apps/software/orca_5_0_0/orca /scratch/BH-3.8-O_617/BH-3.8-O.inp >& BH-3.8-O.out
scp /scratch/BH-3.8-O_617/*.gbw $USER@mgt01:/apps/users/lcz/exe13/UHF
scp /scratch/BH-3.8-O_617/*.xyz $USER@mgt01:/apps/users/lcz/exe13/UHF
scp /scratch/BH-3.8-O_617/*.trj $USER@mgt01:/apps/users/lcz/exe13/UHF
------------------------------------------------------------

Exited with exit code 1.

Resource usage summary:

    CPU time   :           85.97 sec.
    Max Memory :              1016 MB
    Max Processes  :              13


The output (if any) follows:

/scratch/BH-3.8-O_617/*.xyz: No such file or directory
/scratch/BH-3.8-O_617/*.trj: No such file or directory
