
                                        *****************
                                        * O   R   C   A *
                                        *****************

                                            #,                                       
                                            ###                                      
                                            ####                                     
                                            #####                                    
                                            ######                                   
                                           ########,                                 
                                     ,,################,,,,,                         
                               ,,#################################,,                 
                          ,,##########################################,,             
                       ,#########################################, ''#####,          
                    ,#############################################,,   '####,        
                  ,##################################################,,,,####,       
                ,###########''''           ''''###############################       
              ,#####''   ,,,,##########,,,,          '''####'''          '####       
            ,##' ,,,,###########################,,,                        '##       
           ' ,,###''''                  '''############,,,                           
         ,,##''                                '''############,,,,        ,,,,,,###''
      ,#''                                            '''#######################'''  
     '                                                          ''''####''''         
             ,#######,   #######,   ,#######,      ##                                
            ,#'     '#,  ##    ##  ,#'     '#,    #''#        ######   ,####,        
            ##       ##  ##   ,#'  ##            #'  '#       #        #'  '#        
            ##       ##  #######   ##           ,######,      #####,   #    #        
            '#,     ,#'  ##    ##  '#,     ,#' ,#      #,         ##   #,  ,#        
             '#######'   ##     ##  '#######'  #'      '#     #####' # '####'        



                  #######################################################
                  #                        -***-                        #
                  #          Department of theory and spectroscopy      #
                  #    Directorship and core code : Frank Neese         #
                  #        Max Planck Institute fuer Kohlenforschung    #
                  #                Kaiser Wilhelm Platz 1               #
                  #                 D-45470 Muelheim/Ruhr               #
                  #                      Germany                        #
                  #                                                     #
                  #                  All rights reserved                #
                  #                        -***-                        #
                  #######################################################


                         Program Version 5.0.0 -  RELEASE  -
                                (SVN: $Rev: 19529$)
                ($Date: 2021-06-28 11:36:33 +0200 (Mo, 28 Jun 2021) $)


 With contributions from (in alphabetic order):
   Daniel Aravena         : Magnetic Suceptibility
   Michael Atanasov       : Ab Initio Ligand Field Theory (pilot matlab implementation)
   Alexander A. Auer      : GIAO ZORA, VPT2 properties, NMR spectrum
   Ute Becker             : Parallelization
   Giovanni Bistoni       : ED, misc. LED, open-shell LED, HFLD
   Martin Brehm           : Molecular dynamics
   Dmytro Bykov           : SCF Hessian
   Vijay G. Chilkuri      : MRCI spin determinant printing, contributions to CSF-ICE
   Dipayan Datta          : RHF DLPNO-CCSD density
   Achintya Kumar Dutta   : EOM-CC, STEOM-CC
   Dmitry Ganyushin       : Spin-Orbit,Spin-Spin,Magnetic field MRCI
   Miquel Garcia          : C-PCM Hessian, Gaussian charge scheme
   Yang Guo               : DLPNO-NEVPT2, F12-NEVPT2, CIM, IAO-localization
   Andreas Hansen         : Spin unrestricted coupled pair/coupled cluster methods
   Benjamin Helmich-Paris : MC-RPA, TRAH-SCF, COSX integrals
   Lee Huntington         : MR-EOM, pCC
   Robert Izsak           : Overlap fitted RIJCOSX, COSX-SCS-MP3, EOM
   Marcus Kettner         : VPT2
   Christian Kollmar      : KDIIS, OOCD, Brueckner-CCSD(T), CCSD density, CASPT2, CASPT2-K
   Simone Kossmann        : Meta GGA functionals, TD-DFT gradient, OOMP2, MP2 Hessian
   Martin Krupicka        : Initial AUTO-CI
   Lucas Lang             : DCDCAS
   Marvin Lechner         : AUTO-CI (C++ implementation), FIC-MRCC
   Dagmar Lenk            : GEPOL surface, SMD
   Dimitrios Liakos       : Extrapolation schemes; Compound Job, initial MDCI parallelization
   Dimitrios Manganas     : Further ROCIS development; embedding schemes
   Dimitrios Pantazis     : SARC Basis sets
   Anastasios Papadopoulos: AUTO-CI, single reference methods and gradients
   Taras Petrenko         : DFT Hessian,TD-DFT gradient, ASA, ECA, R-Raman, ABS, FL, XAS/XES, NRVS
   Peter Pinski           : DLPNO-MP2, DLPNO-MP2 Gradient
   Christoph Reimann      : Effective Core Potentials
   Marius Retegan         : Local ZFS, SOC
   Christoph Riplinger    : Optimizer, TS searches, QM/MM, DLPNO-CCSD(T), (RO)-DLPNO pert. Triples
   Tobias Risthaus        : Range-separated hybrids, TD-DFT gradient, RPA, STAB
   Michael Roemelt        : Original ROCIS implementation
   Masaaki Saitow         : Open-shell DLPNO-CCSD energy and density
   Barbara Sandhoefer     : DKH picture change effects
   Avijit Sen             : IP-ROCIS
   Kantharuban Sivalingam : CASSCF convergence, NEVPT2, FIC-MRCI
   Bernardo de Souza      : ESD, SOC TD-DFT
   Georgi Stoychev        : AutoAux, RI-MP2 NMR
   Willem Van den Heuvel  : Paramagnetic NMR
   Boris Wezisla          : Elementary symmetry handling
   Frank Wennmohs         : Technical directorship


 We gratefully acknowledge several colleagues who have allowed us to
 interface, adapt or use parts of their codes:
   Stefan Grimme, W. Hujo, H. Kruse, P. Pracht,  : VdW corrections, initial TS optimization,
                  C. Bannwarth, S. Ehlert          DFT functionals, gCP, sTDA/sTD-DF
   Ed Valeev, F. Pavosevic, A. Kumar             : LibInt (2-el integral package), F12 methods
   Garnet Chan, S. Sharma, J. Yang, R. Olivares  : DMRG
   Ulf Ekstrom                                   : XCFun DFT Library
   Mihaly Kallay                                 : mrcc  (arbitrary order and MRCC methods)
   Jiri Pittner, Ondrej Demel                    : Mk-CCSD
   Frank Weinhold                                : gennbo (NPA and NBO analysis)
   Christopher J. Cramer and Donald G. Truhlar   : smd solvation model
   Lars Goerigk                                  : TD-DFT with DH, B97 family of functionals
   V. Asgeirsson, H. Jonsson                     : NEB implementation
   FAccTs GmbH                                   : IRC, NEB, NEB-TS, DLPNO-Multilevel, CI-OPT
                                                   MM, QMMM, 2- and 3-layer-ONIOM, Crystal-QMMM,
                                                   LR-CPCM, SF, NACMEs, symmetry and pop. for TD-DFT,
                                                   nearIR, NL-DFT gradient (VV10), updates on ESD,
                                                   ML-optimized integration grids
   S Lehtola, MJT Oliveira, MAL Marques          : LibXC Library
   Liviu Ungur et al                             : ANISO software


 Your calculation uses the libint2 library for the computation of 2-el integrals
 For citations please refer to: http://libint.valeyev.net

 Your ORCA version has been built with support for libXC version: 5.1.0
 For citations please refer to: https://tddft.org/programs/libxc/

 This ORCA versions uses:
   CBLAS   interface :  Fast vector & matrix operations
   LAPACKE interface :  Fast linear algebra routines
   SCALAPACK package :  Parallel linear algebra routines
   Shared memory     :  Shared parallel matrices
   BLAS/LAPACK       :  OpenBLAS 0.3.15  USE64BITINT DYNAMIC_ARCH NO_AFFINITY SkylakeX SINGLE_THREADED
        Core in use  :  SkylakeX
   Copyright (c) 2011-2014, The OpenBLAS Project


================================================================================

----- Orbital basis set information -----
Your calculation utilizes the basis: aug-cc-pVQZ 
    H, B-Ne : Obtained from the ccRepo (grant-hill.group.shef.ac.uk/ccrepo) Feb. 2017
              R. A. Kendall, T. H. Dunning, Jr., R. J. Harrison, J. Chem. Phys. 96, 6796 (1992)
         He : Obtained from the ccRepo (grant-hill.group.shef.ac.uk/ccrepo) Feb. 2017
              D. E. Woon, T. H. Dunning, Jr., J. Chem. Phys. 100, 2975 (1994)
  Li-Be, Na : Obtained from the ccRepo (grant-hill.group.shef.ac.uk/ccrepo) Feb. 2017
              B. P. Prascher, D. E. Woon, K. A. Peterson, T. H. Dunning, Jr., A. K. Wilson, Theor. Chem. Acc. 128, 69 (2011)
         Mg : Obtained from the Peterson Research Group Website (tyr0.chem.wsu.edu/~kipeters) Feb. 2017
              B. P. Prascher, D. E. Woon, K. A. Peterson, T. H. Dunning, Jr., A. K. Wilson, Theor. Chem. Acc. 128, 69 (2011)
      Al-Ar : Obtained from the ccRepo (grant-hill.group.shef.ac.uk/ccrepo) Feb. 2017
              D. E. Woon, T. H. Dunning, Jr., J. Chem. Phys. 98, 1358 (1993)
      Sc-Zn : Obtained from the ccRepo (grant-hill.group.shef.ac.uk/ccrepo) Feb. 2017
              N. B. Balabanov, K. A. Peterson, J. Chem. Phys. 123, 064107 (2005)
              N. B. Balabanov, K. A. Peterson, J. Chem. Phys. 125, 074110 (2006)
      Ga-Kr : Obtained from the ccRepo (grant-hill.group.shef.ac.uk/ccrepo) Feb. 2017
              A. K. Wilson, D. E. Woon, K. A. Peterson, T. H. Dunning, Jr., J. Chem. Phys. 110, 7667 (1999)

================================================================================
                                        WARNINGS
                       Please study these warnings very carefully!
================================================================================


INFO   : the flag for use of the SHARK integral package has been found!

================================================================================
                                       INPUT FILE
================================================================================
NAME = /scratch/BH-3.4-O_552/BH-3.4-O.inp
|  1> ! UHF aug-cc-pVQZ pal8 VeryTightSCF UseSym
|  2> 
|  3> %scf
|  4> 	STABPerform	True
|  5> 	STABRestartUHFifUnstable	True
|  6> end
|  7> 
|  8> *xyz 0 1
|  9>  B	0.0	0.0	0.0
| 10>  H	3.4	0.0	0.0
| 11> **                         ****END OF INPUT****
================================================================================

------------------------------------------------------------------------------
                            SYMMETRY HANDLING SETUP
------------------------------------------------------------------------------

------------------
SYMMETRY DETECTION
------------------
The point group will now be determined using a tolerance of 1.0000e-04.
Splitting atom subsets according to nuclear charge, mass and basis set.
Splitting atom subsets according to distance from the molecule's center.
Identifying relative distance patterns of the atoms.
Splitting atom subsets according to atoms' relative distance patterns.
Bring atoms of each subset into input order.
The molecule is linear.
There is at least one atom subset not centered around the molecule's center.
The molecule does not have a center of inversion.
No further test is needed for point group Cinfv.
This point group has been found:    Cinfv
Largest non-degenerate subgroup:    C2v


Mass-centered symmetry-perfected Cartesians (point groups Cinfv and C2v):

Atom          Symmetry-perfected Cartesians (x, y, z; au)
  0       0.000000000000    0.000000000000   -0.548017380790
  1       0.000000000000    0.000000000000    5.877051474542


-----------------------------------------------
SYMMETRY-PERFECTED CARTESIAN COORDINATES (A.U.)
-----------------------------------------------
Warning (ORCA_SYM): Coordinates were not cleaned so far!

------------------
SYMMETRY REDUCTION
------------------
ORCA supports only abelian point groups.
It is now checked, if the determined point group is supported:
Point Group ( C2v   ) is          ... supported

(Re)building abelian point group:
Creating Character Table          ... done
Making direct product table       ... done
Constructing symmetry operations  ... done
Creating atom transfer table      ... done
Creating asymmetric unit          ... done

----------------------
ASYMMETRIC UNIT IN C2v
----------------------
  #  AT     MASS              COORDS (A.U.)             BAS
   0 B   10.8100   0.00000000   0.00000000  -0.54801738   0
   1 H    1.0080   0.00000000   0.00000000   5.87705147   0

----------------------
SYMMETRY ADAPTED BASIS
----------------------
The coefficients for the symmetry adapted linear combinations (SALCS)
of basis functions will now be computed:
Number of basis functions         ...   126
Preparing memory                  ... done
Constructing Gamma(red)           ... done
Reducing Gamma(red)               ... done
Constructing SALCs                ... done
Checking SALC integrity           ... nothing suspicious
Normalizing SALCs                 ... done

Storing the symmetry object:
Symmetry file                     ... /scratch/BH-3.4-O_552/BH-3.4-O.sym.tmp
Writing symmetry information      ... done

                       ****************************
                       * Single Point Calculation *
                       ****************************

---------------------------------
CARTESIAN COORDINATES (ANGSTROEM)
---------------------------------
  B      0.000000    0.000000   -0.289998
  H      0.000000    0.000000    3.110002

----------------------------
CARTESIAN COORDINATES (A.U.)
----------------------------
  NO LB      ZA    FRAG     MASS         X           Y           Z
   0 B     5.0000    0    10.810    0.000000    0.000000   -0.548017
   1 H     1.0000    0     1.008    0.000000    0.000000    5.877051

--------------------------------
INTERNAL COORDINATES (ANGSTROEM)
--------------------------------
 B      0   0   0     0.000000000000     0.00000000     0.00000000
 H      1   0   0     3.400000000000     0.00000000     0.00000000

---------------------------
INTERNAL COORDINATES (A.U.)
---------------------------
 B      0   0   0     0.000000000000     0.00000000     0.00000000
 H      1   0   0     6.425068855332     0.00000000     0.00000000

---------------------
BASIS SET INFORMATION
---------------------
There are 2 groups of distinct atoms

 Group   1 Type B   : 22s7p4d3f2g contracted to 6s5p4d3f2g pattern {991111/31111/1111/111/11}
 Group   2 Type H   : 7s4p3d2f contracted to 5s4p3d2f pattern {31111/1111/111/11}

Atom   0B    basis set group =>   1
Atom   1H    basis set group =>   2
--------------------------------------------------------------------------
WARNING: There was an error initializing an OpenFabrics device.

  Local host:   cnode16
  Local device: mlx5_0
--------------------------------------------------------------------------


           ************************************************************
           *        Program running with 8 parallel MPI-processes     *
           *              working on a common directory               *
           ************************************************************
------------------------------------------------------------------------------
                           ORCA GTO INTEGRAL CALCULATION
------------------------------------------------------------------------------
------------------------------------------------------------------------------
                   ___                                                        
                  /   \      - P O W E R E D   B Y -                         
                 /     \                                                     
                 |  |  |   _    _      __       _____    __    __             
                 |  |  |  | |  | |    /  \     |  _  \  |  |  /  |          
                  \  \/   | |  | |   /    \    | | | |  |  | /  /          
                 / \  \   | |__| |  /  /\  \   | |_| |  |  |/  /          
                |  |  |   |  __  | /  /__\  \  |    /   |      \           
                |  |  |   | |  | | |   __   |  |    \   |  |\   \          
                \     /   | |  | | |  |  |  |  | |\  \  |  | \   \       
                 \___/    |_|  |_| |__|  |__|  |_| \__\ |__|  \__/        
                                                                              
                      - O R C A' S   B I G   F R I E N D -                    
                                      &                                       
                       - I N T E G R A L  F E E D E R -                       
                                                                              
 v1 FN, 2020, v2 2021                                                         
------------------------------------------------------------------------------


Reading SHARK input file /scratch/BH-3.4-O_552/BH-3.4-O.SHARKINP.tmp ... ok
----------------------
SHARK INTEGRAL PACKAGE
----------------------

Number of atoms                             ...      2
Number of basis functions                   ...    126
Number of shells                            ...     34
Maximum angular momentum                    ...      4
Integral batch strategy                     ... SHARK/LIBINT Hybrid
RI-J (if used) integral strategy            ... SPLIT-RIJ (Revised 2003 algorithm where possible)
Printlevel                                  ...      1
Contraction scheme used                     ... SEGMENTED contraction
Coulomb Range Separation                    ... NOT USED
Exchange Range Separation                   ... NOT USED
Finite Nucleus Model                        ... NOT USED
Auxiliary Coulomb fitting basis             ... NOT available
Auxiliary J/K fitting basis                 ... NOT available
Auxiliary Correlation fitting basis         ... NOT available
Auxiliary 'external' fitting basis          ... NOT available
Integral threshold                          ...     1.000000e-12
Primitive cut-off                           ...     1.000000e-14
Primitive pair pre-selection threshold      ...     1.000000e-14

Calculating pre-screening integrals         ... done (  0.1 sec) Dimension = 34
Organizing shell pair data                  ... done (  0.0 sec)
Shell pair information
Total number of shell pairs                 ...       595
Shell pairs after pre-screening             ...       587
Total number of primitive shell pairs       ...      1563
Primitive shell pairs kept                  ...      1425
          la=0 lb=0:     64 shell pairs
          la=1 lb=0:     96 shell pairs
          la=1 lb=1:     44 shell pairs
          la=2 lb=0:     75 shell pairs
          la=2 lb=1:     63 shell pairs
          la=2 lb=2:     28 shell pairs
          la=3 lb=0:     55 shell pairs
          la=3 lb=1:     45 shell pairs
          la=3 lb=2:     35 shell pairs
          la=3 lb=3:     15 shell pairs
          la=4 lb=0:     22 shell pairs
          la=4 lb=1:     18 shell pairs
          la=4 lb=2:     14 shell pairs
          la=4 lb=3:     10 shell pairs
          la=4 lb=4:      3 shell pairs

Calculating one electron integrals          ... done (  0.0 sec)
Calculating Nuclear repulsion               ... done (  0.0 sec) ENN=      0.778201776912 Eh

SHARK setup successfully completed in   0.1 seconds

Maximum memory used throughout the entire GTOINT-calculation: 28.9 MB
[cnode16:01580] 7 more processes have sent help message help-mpi-btl-openib.txt / error in device init
[cnode16:01580] Set MCA parameter "orte_base_help_aggregate" to 0 to see all help / error messages
--------------------------------------------------------------------------
WARNING: There was an error initializing an OpenFabrics device.

  Local host:   cnode16
  Local device: mlx5_0
--------------------------------------------------------------------------


           ************************************************************
           *        Program running with 8 parallel MPI-processes     *
           *              working on a common directory               *
           ************************************************************
-------------------------------------------------------------------------------
                                 ORCA SCF
-------------------------------------------------------------------------------

------------
SCF SETTINGS
------------
Hamiltonian:
 Ab initio Hamiltonian  Method          .... Hartree-Fock(GTOs)


General Settings:
 Integral files         IntName         .... /scratch/BH-3.4-O_552/BH-3.4-O
 Hartree-Fock type      HFTyp           .... UHF
 Total Charge           Charge          ....    0
 Multiplicity           Mult            ....    1
 Number of Electrons    NEL             ....    6
 Basis Dimension        Dim             ....  126
 Nuclear Repulsion      ENuc            ....      0.7782017769 Eh

 Symmetry handling      UseSym         .... ON
 Point group                           .... C2v
 Used point group                      .... C2v
 Number of irreps                      .... 4
   Irrep   A1 has   50 symmetry adapted basis functions (ofs=   0)
   Irrep   A2 has   16 symmetry adapted basis functions (ofs=  50)
   Irrep   B1 has   30 symmetry adapted basis functions (ofs=  66)
   Irrep   B2 has   30 symmetry adapted basis functions (ofs=  96)

Convergence Acceleration:
 DIIS                   CNVDIIS         .... on
   Start iteration      DIISMaxIt       ....    12
   Startup error        DIISStart       ....  0.200000
   # of expansion vecs  DIISMaxEq       ....     5
   Bias factor          DIISBfac        ....   1.050
   Max. coefficient     DIISMaxC        ....  10.000
 Trust-Rad. Augm. Hess. CNVTRAH         .... auto
   Auto Start mean grad. ratio tolernc. ....  1.125000
   Auto Start start iteration           ....    20
   Auto Start num. interpolation iter.  ....    10
   Max. Number of Micro iterations      ....    16
   Max. Number of Macro iterations      .... Maxiter - #DIIS iter
   Number of Davidson start vectors     ....     2
   Converg. threshold I  (grad. norm)   ....   2.000e-06
   Converg. threshold II (energy diff.) ....   1.000e-09
   Grad. Scal. Fac. for Micro threshold ....   0.100
   Minimum threshold for Micro iter.    ....   0.010
   NR start threshold (gradient norm)   ....   0.001
   Initial trust radius                 ....   0.400
   Minimum AH scaling param. (alpha)    ....   1.000
   Maximum AH scaling param. (alpha)    .... 1000.000
   Orbital update algorithm             .... Taylor
   White noise on init. David. guess    .... on
   Maximum white noise                  ....   0.010
   Quad. conv. algorithm                .... NR
 SOSCF                  CNVSOSCF        .... off
 Level Shifting         CNVShift        .... on
   Level shift para.    LevelShift      ....    0.2500
   Turn off err/grad.   ShiftErr        ....    0.0010
 Zerner damping         CNVZerner       .... off
 Static damping         CNVDamp         .... on
   Fraction old density DampFac         ....    0.7000
   Max. Damping (<1)    DampMax         ....    0.9800
   Min. Damping (>=0)   DampMin         ....    0.0000
   Turn off err/grad.   DampErr         ....    0.1000
 Fernandez-Rico         CNVRico         .... off

SCF Procedure:
 Maximum # iterations   MaxIter         ....   125
 SCF integral mode      SCFMode         .... Direct
   Integral package                     .... SHARK and LIBINT hybrid scheme
 Reset frequency        DirectResetFreq ....    20
 Integral Threshold     Thresh          ....  1.000e-12 Eh
 Primitive CutOff       TCut            ....  1.000e-14 Eh

Convergence Tolerance:
 Convergence Check Mode ConvCheckMode   .... Total+1el-Energy
 Convergence forced     ConvForced      .... 0
 Energy Change          TolE            ....  1.000e-09 Eh
 1-El. energy change                    ....  1.000e-06 Eh
 DIIS Error             TolErr          ....  1.000e-08


Diagonalization of the overlap matrix:
Smallest eigenvalue                        ... 4.304e-03
Time for diagonalization                   ...    0.002 sec
Threshold for overlap eigenvalues          ... 1.000e-08
Number of eigenvalues below threshold      ... 0
Time for construction of square roots      ...    0.002 sec
Producing symmetrization matrix            ... done (   0.001 sec)
Total time needed                          ...    0.005 sec

Time for model grid setup =    0.008 sec

------------------------------
INITIAL GUESS: MODEL POTENTIAL
------------------------------
Loading Hartree-Fock densities                     ... done
Calculating cut-offs                               ... done
Initializing the effective Hamiltonian             ... done
Setting up the integral package (SHARK)            ... done
Starting the Coulomb interaction                   ... done (   0.0 sec)
Reading the grid                                   ... done
Mapping shells                                     ... done
Starting the XC term evaluation                    ... done (   0.0 sec)
done (   0.0 sec)
Diagonalizing the Hamiltonian                      ... done (   0.0 sec)
Back transforming the eigenvectors                 ... done (   0.0 sec)
Now organizing SCF variables                       ... done
The symmetry of the initial guess is 1-A1
Irrep occupations for operator 0
    A1 -    3
    A2 -    0
    B1 -    0
    B2 -    0
Irrep occupations for operator 1
    A1 -    3
    A2 -    0
    B1 -    0
    B2 -    0
                      ------------------
                      INITIAL GUESS DONE (   0.0 sec)
                      ------------------
--------------
SCF ITERATIONS
--------------
ITER       Energy         Delta-E        Max-DP      RMS-DP      [F,P]     Damp
               ***  Starting incremental Fock matrix formation  ***
  0    -24.8336243371   0.000000000000 0.02235080  0.00043890  0.1873410 0.7000
  1    -24.8579673571  -0.024343020069 0.02125931  0.00042029  0.1421041 0.7000
                               ***Turning on DIIS***
  2    -24.8804210987  -0.022453741573 0.05726190  0.00113700  0.0963537 0.0000
  3    -24.9596909828  -0.079269884071 0.00998464  0.00018429  0.0233010 0.0000
  4    -24.9437958953   0.015895087448 0.00553554  0.00010521  0.0081734 0.0000
  5    -24.9339904593   0.009805436084 0.00306815  0.00004753  0.0031161 0.0000
  6    -24.9313097689   0.002680690393 0.00121493  0.00002082  0.0013901 0.0000
  7    -24.9307757554   0.000534013433 0.00096640  0.00001907  0.0005638 0.0000
  8    -24.9305201795   0.000255575904 0.00019356  0.00000457  0.0000712 0.0000
  9    -24.9305522109  -0.000032031336 0.00005193  0.00000107  0.0000144 0.0000
 10    -24.9305591900  -0.000006979097 0.00000913  0.00000016  0.0000043 0.0000
 11    -24.9305610098  -0.000001819874 0.00000228  0.00000004  0.0000012 0.0000
 12    -24.9305595509   0.000001458943 0.00000053  0.00000001  0.0000004 0.0000
 13    -24.9305596355  -0.000000084584 0.00000010  0.00000000  0.0000001 0.0000
                            ***DIIS convergence achieved***

               *****************************************************
               *                     SUCCESS                       *
               *           SCF CONVERGED AFTER  14 CYCLES          *
               *****************************************************


------------------------------------------------------------------------------
                          SCF STABILITY ANALYSIS                              
------------------------------------------------------------------------------


                       ****Iteration    0****

   Memory handling for direct AO based CIS:
   Memory per vector needed      ...     1 MB
   Memory needed                 ...     4 MB
   Memory available              ...  1024 MB
   Number of vectors per batch   ...  1024
   Number of batches             ...     1
   Time for densities:     0.001
   Using LibInt in JK Direct
   Time for J+K (Direct):     1.702
   Time for Sigma-Completion:     0.001
   Lowest Energy          :    -0.150924354143
   Maximum Energy change  :     0.150924354143 (vector 0)
   Maximum residual norm  :     0.025455568222

                       ****Iteration    1****
   Time for densities:     0.000
   Using LibInt in JK Direct
[cnode16:01641] 7 more processes have sent help message help-mpi-btl-openib.txt / error in device init
[cnode16:01641] Set MCA parameter "orte_base_help_aggregate" to 0 to see all help / error messages
   Time for J+K (Direct):     0.890
   Time for Sigma-Completion:     0.001
   Lowest Energy          :    -0.206745981185
   Maximum Energy change  :     0.055821627042 (vector 0)
   Maximum residual norm  :     0.001013341741

                       ****Iteration    2****
   Time for densities:     0.000
   Using LibInt in JK Direct
   Time for J+K (Direct):     0.891
   Time for Sigma-Completion:     0.000
   Lowest Energy          :    -0.208539112742
   Maximum Energy change  :     0.009544173727 (vector 1)
   Maximum residual norm  :     0.002190054228

                       ****Iteration    3****
   Time for densities:     0.000
   Using LibInt in JK Direct
   Time for J+K (Direct):     0.884
   Time for Sigma-Completion:     0.001
   Lowest Energy          :    -0.208571736266
   Maximum Energy change  :     0.004657736370 (vector 2)
   Maximum residual norm  :     0.000120676652

                       ****Iteration    4****
   Time for densities:     0.000
   Using LibInt in JK Direct
   Time for J+K (Direct):     0.897
   Time for Sigma-Completion:     0.003
   Lowest Energy          :    -0.208573980117
   Maximum Energy change  :     0.000135118195 (vector 1)
   Maximum residual norm  :     0.000007339371

      *** CONVERGENCE OF RESIDUAL NORM REACHED ***

----------------------------- 
SCF STABILITY ANALYSIS RESULT 
----------------------------- 

UHF/UKS->UHF/UKS - singlet - internal

   Root    Eigenvalue (au) 
     0      -0.208574 
     1      -0.009354 
     2      -0.009354 

Stability Analysis indicates an UNSTABLE HF/KS wave function with SEVERAL negative eigenvalues.

Since this is UHF/UKS, we will restart the SCF using a new guess based on the eigenvector 
associated with the lowest eigenvalue. Because there is no guarantee that the restart     
will result in a stable solution, the user should check the stability of the resulting    
wave function in a separate calculation using the MOREAD guess feature.

Obtain new guess               ... done 

Total time for performing the stability analysis:     5.286sec

--------------------------
SCF ITERATIONS (restarted)
--------------------------
ITER       Energy         Delta-E        Max-DP      RMS-DP      [F,P]     Damp
               ***  Starting incremental Fock matrix formation  ***
  0    -24.9632309882   0.000000000000 0.00983219  0.00011103  0.0282378 0.7000
  1    -24.9674580942  -0.004227105965 0.01176897  0.00014351  0.0269921 0.7000
                               ***Turning on DIIS***
  2    -24.9729764600  -0.005518365789 0.03765782  0.00050191  0.0255491 0.0000
  3    -25.0450435899  -0.072067129943 0.00713848  0.00009817  0.0232143 0.0000
  4    -25.0585254035  -0.013481813585 0.00337528  0.00004500  0.0223404 0.0000
  5    -25.0624219487  -0.003896545238 0.00238015  0.00003297  0.0214706 0.0000
  6    -25.0624239403  -0.000001991614 0.00229822  0.00003421  0.0209587 0.0000
  7    -25.0095611270   0.052862813377 0.01928224  0.00031239  0.0208850 0.0000
  8    -24.9873389464   0.022222180585 0.03404710  0.00054164  0.0210722 0.0000
  9    -25.0259321442  -0.038593197863 0.01122377  0.00016934  0.0160918 0.0000
 10    -25.0182708189   0.007661325318 0.00887158  0.00013720  0.0104954 0.0000
 11    -25.0263245385  -0.008053719551 0.00392786  0.00006225  0.0055513 0.0000
 12    -25.0300499645  -0.003725426051 0.00189300  0.00003086  0.0026248 0.0000
 13    -25.0321930385  -0.002143074012 0.00073867  0.00001256  0.0011945 0.0000
 14    -25.0329649171  -0.000771878515 0.00073915  0.00001031  0.0005512 0.0000
 15    -25.0333895777  -0.000424660639 0.00034913  0.00000452  0.0001169 0.0000
 16    -25.0333560370   0.000033540727 0.00009893  0.00000147  0.0000589 0.0000
 17    -25.0333315136   0.000024523405 0.00004237  0.00000067  0.0000322 0.0000
 18    -25.0333183206   0.000013192943 0.00002346  0.00000038  0.0000128 0.0000
 19    -25.0333180586   0.000000262040 0.00000698  0.00000011  0.0000027 0.0000
               *** Restarting incremental Fock matrix formation ***
                                   *** Resetting DIIS ***
 20    -25.0333196972  -0.000001638621 0.00000192  0.00000003  0.0000009 0.0000
 21    -25.0333193396   0.000000357618 0.00000201  0.00000003  0.0000005 0.0000
 22    -25.0333196167  -0.000000277117 0.00000037  0.00000000  0.0000001 0.0000
 23    -25.0333196597  -0.000000042962 0.00000007  0.00000000  0.0000000 0.0000
                            ***DIIS convergence achieved***

               *****************************************************
               *                     SUCCESS                       *
               *           SCF CONVERGED AFTER  24 CYCLES          *
               *****************************************************


----------------
TOTAL SCF ENERGY
----------------

Total Energy       :          -25.03331969 Eh            -681.19126 eV

Components:
Nuclear Repulsion  :            0.77820178 Eh              21.17595 eV
Electronic Energy  :          -25.81152147 Eh            -702.36721 eV
One Electron Energy:          -34.42643099 Eh            -936.79081 eV
Two Electron Energy:            8.61490952 Eh             234.42361 eV

Virial components:
Potential Energy   :          -50.06253851 Eh           -1362.27093 eV
Kinetic Energy     :           25.02921882 Eh             681.07967 eV
Virial Ratio       :            2.00016384


---------------
SCF CONVERGENCE
---------------

  Last Energy change         ...   -3.1234e-08  Tolerance :   1.0000e-09
  Last MAX-Density change    ...    1.6381e-08  Tolerance :   1.0000e-08
  Last RMS-Density change    ...    3.0318e-10  Tolerance :   1.0000e-09
  Last DIIS Error            ...    1.9058e-08  Tolerance :   1.0000e-08

             **** THE GBW FILE WAS UPDATED (/scratch/BH-3.4-O_552/BH-3.4-O.gbw) ****
             **** DENSITY /scratch/BH-3.4-O_552/BH-3.4-O.scfp WAS UPDATED ****
             **** ENERGY FILE WAS UPDATED (/scratch/BH-3.4-O_552/BH-3.4-O.en.tmp) ****

     --------------------------------------------------------------------
                                      WARNING
     A stability analysis of the first UHF/UKS SCF solution was performed
     and an instability detected. The result was used as a guess for
     a second SCF, which has converged. There is no guarantee that the
     current solution is stable - it is up to you to rerun the stability
     analysis using the now stored solution as a guess and verify.
     --------------------------------------------------------------------

----------------------
UHF SPIN CONTAMINATION
----------------------

Expectation value of <S**2>     :     0.994281
Ideal value S*(S+1) for S=0.0   :     0.000000
Deviation                       :     0.994281

             **** THE GBW FILE WAS UPDATED (/scratch/BH-3.4-O_552/BH-3.4-O.gbw) ****
             **** DENSITY /scratch/BH-3.4-O_552/BH-3.4-O.scfp WAS UPDATED ****
----------------
ORBITAL ENERGIES
----------------
                 SPIN UP ORBITALS
  NO   OCC          E(Eh)            E(eV)    Irrep 
   0   1.0000      -7.703827      -209.6318    1-A1
   1   1.0000      -0.546430       -14.8691    2-A1
   2   1.0000      -0.319407        -8.6915    3-A1
   3   0.0000       0.022996         0.6258    1-B1
   4   0.0000       0.022996         0.6258    1-B2
   5   0.0000       0.024141         0.6569    4-A1
   6   0.0000       0.048103         1.3089    5-A1
   7   0.0000       0.076486         2.0813    2-B1
   8   0.0000       0.076486         2.0813    2-B2
   9   0.0000       0.081316         2.2127    6-A1
  10   0.0000       0.106691         2.9032    7-A1
  11   0.0000       0.144373         3.9286    3-B1
  12   0.0000       0.144373         3.9286    3-B2
  13   0.0000       0.145292         3.9536    8-A1
  14   0.0000       0.145292         3.9536    1-A2
  15   0.0000       0.187999         5.1157    9-A1
  16   0.0000       0.240786         6.5521    4-B1
  17   0.0000       0.240786         6.5521    4-B2
  18   0.0000       0.261033         7.1031   10-A1
  19   0.0000       0.312527         8.5043    5-B1
  20   0.0000       0.312527         8.5043    5-B2
  21   0.0000       0.323206         8.7949   11-A1
  22   0.0000       0.360747         9.8164   12-A1
  23   0.0000       0.460120        12.5205    2-A2
  24   0.0000       0.460120        12.5205   13-A1
  25   0.0000       0.461255        12.5514    6-B2
  26   0.0000       0.461255        12.5514    6-B1
  27   0.0000       0.475567        12.9408    7-B2
  28   0.0000       0.475567        12.9408    7-B1
  29   0.0000       0.488829        13.3017   14-A1
  30   0.0000       0.499684        13.5971    3-A2
  31   0.0000       0.499684        13.5971   15-A1
  32   0.0000       0.509540        13.8653    8-B2
  33   0.0000       0.509540        13.8653    8-B1
  34   0.0000       0.521749        14.1975   16-A1
  35   0.0000       0.586738        15.9660   17-A1
  36   0.0000       0.656874        17.8745    4-A2
  37   0.0000       0.656874        17.8745   18-A1
  38   0.0000       0.764905        20.8141    9-B2
  39   0.0000       0.764905        20.8141    9-B1
  40   0.0000       0.853451        23.2236   10-B1
  41   0.0000       0.853451        23.2236   10-B2
  42   0.0000       0.896161        24.3858   19-A1
  43   0.0000       0.939684        25.5701   20-A1
  44   0.0000       1.050586        28.5879   11-B2
  45   0.0000       1.050586        28.5879   11-B1
  46   0.0000       1.064833        28.9756   21-A1
  47   0.0000       1.359239        36.9868   12-B1
  48   0.0000       1.359239        36.9868   12-B2
  49   0.0000       1.368030        37.2260   22-A1
  50   0.0000       1.369075        37.2544    5-A2
  51   0.0000       1.369075        37.2544   23-A1
  52   0.0000       1.371805        37.3287   24-A1
  53   0.0000       1.371805        37.3287    6-A2
  54   0.0000       1.377687        37.4888   13-B2
  55   0.0000       1.377687        37.4888   13-B1
  56   0.0000       1.394181        37.9376   25-A1
  57   0.0000       1.403684        38.1962   14-B1
  58   0.0000       1.403684        38.1962   14-B2
  59   0.0000       1.409145        38.3448   26-A1
  60   0.0000       1.409145        38.3448    7-A2
  61   0.0000       1.437599        39.1190   15-B2
  62   0.0000       1.437599        39.1190   15-B1
  63   0.0000       1.446698        39.3667   27-A1
  64   0.0000       1.446698        39.3667    8-A2
  65   0.0000       1.474698        40.1286   28-A1
  66   0.0000       1.498266        40.7699   16-B2
  67   0.0000       1.498266        40.7699   16-B1
  68   0.0000       1.580566        43.0094   17-B1
  69   0.0000       1.580566        43.0094   17-B2
  70   0.0000       1.623962        44.1903    9-A2
  71   0.0000       1.623962        44.1903   29-A1
  72   0.0000       1.656796        45.0837   30-A1
  73   0.0000       1.768662        48.1277   31-A1
  74   0.0000       1.776107        48.3303   18-B2
  75   0.0000       1.776107        48.3303   18-B1
  76   0.0000       1.906963        51.8911   32-A1
  77   0.0000       2.507008        68.2192   10-A2
  78   0.0000       2.507008        68.2192   33-A1
  79   0.0000       2.585608        70.3580   19-B2
  80   0.0000       2.585608        70.3580   19-B1
  81   0.0000       2.657445        72.3127   20-B1
  82   0.0000       2.657445        72.3127   20-B2
  83   0.0000       2.726041        74.1793   34-A1
  84   0.0000       2.782946        75.7278   35-A1
  85   0.0000       3.736538       101.6764   21-B2
  86   0.0000       3.736538       101.6764   21-B1
  87   0.0000       3.787169       103.0541   36-A1
  88   0.0000       3.918235       106.6206   37-A1
  89   0.0000       3.918235       106.6206   11-A2
  90   0.0000       3.933336       107.0315   22-B1
  91   0.0000       3.933336       107.0315   22-B2
  92   0.0000       3.948988       107.4574   38-A1
  93   0.0000       3.948988       107.4574   12-A2
  94   0.0000       3.954594       107.6100   13-A2
  95   0.0000       3.954594       107.6100   39-A1
  96   0.0000       3.961623       107.8013   23-B2
  97   0.0000       3.961623       107.8013   23-B1
  98   0.0000       3.969739       108.0221   40-A1
  99   0.0000       4.013016       109.1997   24-B2
 100   0.0000       4.013016       109.1997   24-B1
 101   0.0000       4.084502       111.1450   25-B2
 102   0.0000       4.084502       111.1450   25-B1
 103   0.0000       4.101494       111.6073   41-A1
 104   0.0000       4.101494       111.6073   14-A2
 105   0.0000       4.131805       112.4321   26-B2
 106   0.0000       4.131805       112.4321   26-B1
 107   0.0000       4.171651       113.5164   42-A1
 108   0.0000       4.197935       114.2316   43-A1
 109   0.0000       6.589735       179.3158   27-B1
 110   0.0000       6.589735       179.3158   27-B2
 111   0.0000       6.597451       179.5258   44-A1
 112   0.0000       6.597451       179.5258   15-A2
 113   0.0000       6.633081       180.4953   28-B1
 114   0.0000       6.633081       180.4953   28-B2
 115   0.0000       6.675813       181.6581   45-A1
 116   0.0000       7.558590       205.6797   46-A1
 117   0.0000       8.011882       218.0144   29-B1
 118   0.0000       8.011882       218.0144   29-B2
 119   0.0000       8.099718       220.4045   47-A1
 120   0.0000       8.445096       229.8028   48-A1
 121   0.0000       8.445096       229.8028   16-A2
 122   0.0000       8.495285       231.1685   30-B2
 123   0.0000       8.495285       231.1685   30-B1
 124   0.0000       8.596805       233.9309   49-A1
 125   0.0000      13.102052       356.5250   50-A1

                 SPIN DOWN ORBITALS
  NO   OCC          E(Eh)            E(eV)    Irrep 
   0   1.0000      -7.689031      -209.2292    1-A1
   1   1.0000      -0.491299       -13.3689    2-A1
   2   1.0000      -0.446617       -12.1531    3-A1
   3   0.0000       0.026538         0.7221    1-B2
   4   0.0000       0.026538         0.7221    1-B1
   5   0.0000       0.041092         1.1182    4-A1
   6   0.0000       0.054511         1.4833    5-A1
   7   0.0000       0.081791         2.2257    6-A1
   8   0.0000       0.083345         2.2679    2-B2
   9   0.0000       0.083345         2.2679    2-B1
  10   0.0000       0.114723         3.1218    7-A1
  11   0.0000       0.143577         3.9069    3-B1
  12   0.0000       0.143577         3.9069    3-B2
  13   0.0000       0.145322         3.9544    1-A2
  14   0.0000       0.145322         3.9544    8-A1
  15   0.0000       0.186159         5.0657    9-A1
  16   0.0000       0.225505         6.1363    4-B2
  17   0.0000       0.225505         6.1363    4-B1
  18   0.0000       0.265914         7.2359   10-A1
  19   0.0000       0.320242         8.7142    5-B1
  20   0.0000       0.320242         8.7142    5-B2
  21   0.0000       0.356498         9.7008   11-A1
  22   0.0000       0.360219         9.8020   12-A1
  23   0.0000       0.451226        12.2785   13-A1
  24   0.0000       0.461186        12.5495    6-B2
  25   0.0000       0.461186        12.5495    6-B1
  26   0.0000       0.462983        12.5984    2-A2
  27   0.0000       0.462983        12.5984   14-A1
  28   0.0000       0.489438        13.3183    7-B1
  29   0.0000       0.489438        13.3183    7-B2
  30   0.0000       0.500768        13.6266   15-A1
  31   0.0000       0.500768        13.6266    3-A2
  32   0.0000       0.524820        14.2811   16-A1
  33   0.0000       0.528685        14.3862    8-B1
  34   0.0000       0.528685        14.3862    8-B2
  35   0.0000       0.589424        16.0390   17-A1
  36   0.0000       0.644841        17.5470   18-A1
  37   0.0000       0.644841        17.5470    4-A2
  38   0.0000       0.742186        20.1959    9-B1
  39   0.0000       0.742186        20.1959    9-B2
  40   0.0000       0.802597        21.8398   10-B2
  41   0.0000       0.802597        21.8398   10-B1
  42   0.0000       0.845145        22.9976   19-A1
  43   0.0000       0.941481        25.6190   20-A1
  44   0.0000       1.059544        28.8317   11-B2
  45   0.0000       1.059544        28.8317   11-B1
  46   0.0000       1.128553        30.7095   21-A1
  47   0.0000       1.365531        37.1580   12-B1
  48   0.0000       1.365531        37.1580   12-B2
  49   0.0000       1.368799        37.2469    5-A2
  50   0.0000       1.368799        37.2469   22-A1
  51   0.0000       1.377930        37.4954    6-A2
  52   0.0000       1.377930        37.4954   23-A1
  53   0.0000       1.379006        37.5247   24-A1
  54   0.0000       1.382764        37.6269   13-B1
  55   0.0000       1.382764        37.6269   13-B2
  56   0.0000       1.414655        38.4947    7-A2
  57   0.0000       1.414655        38.4947   25-A1
  58   0.0000       1.436997        39.1027   26-A1
  59   0.0000       1.438151        39.1341   14-B2
  60   0.0000       1.438151        39.1341   14-B1
  61   0.0000       1.451441        39.4957   15-B1
  62   0.0000       1.451441        39.4957   15-B2
  63   0.0000       1.461979        39.7825    8-A2
  64   0.0000       1.461979        39.7825   27-A1
  65   0.0000       1.505429        40.9648   28-A1
  66   0.0000       1.521940        41.4141   16-B2
  67   0.0000       1.521940        41.4141   16-B1
  68   0.0000       1.568222        42.6735   17-B1
  69   0.0000       1.568222        42.6735   17-B2
  70   0.0000       1.614465        43.9318    9-A2
  71   0.0000       1.614465        43.9318   29-A1
  72   0.0000       1.658408        45.1276   30-A1
  73   0.0000       1.686604        45.8948   31-A1
  74   0.0000       1.770491        48.1775   18-B1
  75   0.0000       1.770491        48.1775   18-B2
  76   0.0000       1.899092        51.6769   32-A1
  77   0.0000       2.467957        67.1565   10-A2
  78   0.0000       2.467957        67.1565   33-A1
  79   0.0000       2.543629        69.2157   19-B2
  80   0.0000       2.543629        69.2157   19-B1
  81   0.0000       2.588756        70.4436   20-B1
  82   0.0000       2.588756        70.4436   20-B2
  83   0.0000       2.672452        72.7211   34-A1
  84   0.0000       2.739997        74.5591   35-A1
  85   0.0000       3.743408       101.8633   21-B1
  86   0.0000       3.743408       101.8633   21-B2
  87   0.0000       3.832427       104.2857   36-A1
  88   0.0000       3.918857       106.6375   37-A1
  89   0.0000       3.918857       106.6375   11-A2
  90   0.0000       3.944090       107.3241   22-B1
  91   0.0000       3.944090       107.3241   22-B2
  92   0.0000       3.959326       107.7387   12-A2
  93   0.0000       3.959326       107.7387   38-A1
  94   0.0000       3.967688       107.9663   39-A1
  95   0.0000       3.967688       107.9663   13-A2
  96   0.0000       3.997276       108.7714   23-B2
  97   0.0000       3.997276       108.7714   23-B1
  98   0.0000       4.007492       109.0494   40-A1
  99   0.0000       4.035903       109.8225   24-B2
 100   0.0000       4.035903       109.8225   24-B1
 101   0.0000       4.087056       111.2144   25-B2
 102   0.0000       4.087056       111.2144   25-B1
 103   0.0000       4.122628       112.1824   41-A1
 104   0.0000       4.122628       112.1824   14-A2
 105   0.0000       4.164311       113.3167   26-B2
 106   0.0000       4.164311       113.3167   26-B1
 107   0.0000       4.210031       114.5608   42-A1
 108   0.0000       4.228400       115.0606   43-A1
 109   0.0000       6.561011       178.5342   27-B1
 110   0.0000       6.561011       178.5342   27-B2
 111   0.0000       6.568843       178.7473   15-A2
 112   0.0000       6.568843       178.7473   44-A1
 113   0.0000       6.604780       179.7252   28-B1
 114   0.0000       6.604780       179.7252   28-B2
 115   0.0000       6.647670       180.8923   45-A1
 116   0.0000       7.478341       203.4960   46-A1
 117   0.0000       7.954333       216.4484   29-B1
 118   0.0000       7.954333       216.4484   29-B2
 119   0.0000       8.043343       218.8705   47-A1
 120   0.0000       8.403081       228.6594   16-A2
 121   0.0000       8.403081       228.6594   48-A1
 122   0.0000       8.453649       230.0355   30-B2
 123   0.0000       8.453649       230.0355   30-B1
 124   0.0000       8.555754       232.8139   49-A1
 125   0.0000      13.113127       356.8263   50-A1

                    ********************************
                    * MULLIKEN POPULATION ANALYSIS *
                    ********************************

--------------------------------------------
MULLIKEN ATOMIC CHARGES AND SPIN POPULATIONS
--------------------------------------------
   0 B :    0.005123    0.998693
   1 H :   -0.005123   -0.998693
Sum of atomic charges         :   -0.0000000
Sum of atomic spin populations:    0.0000000

-----------------------------------------------------
MULLIKEN REDUCED ORBITAL CHARGES AND SPIN POPULATIONS
-----------------------------------------------------
CHARGE
  0 B s       :     3.993139  s :     3.993139
      pz      :     0.996951  p :     0.996951
      px      :     0.000000
      py      :     0.000000
      dz2     :     0.004877  d :     0.004877
      dxz     :     0.000000
      dyz     :     0.000000
      dx2y2   :     0.000000
      dxy     :     0.000000
      f0      :    -0.000093  f :    -0.000093
      f+1     :     0.000000
      f-1     :     0.000000
      f+2     :     0.000000
      f-2     :     0.000000
      f+3     :     0.000000
      f-3     :     0.000000
      g0      :     0.000003  g :     0.000003
      g+1     :     0.000000
      g-1     :     0.000000
      g+2     :     0.000000
      g-2     :     0.000000
      g+3     :     0.000000
      g-3     :     0.000000
      g+4     :     0.000000
      g-4     :     0.000000
  1 H s       :     1.004192  s :     1.004192
      pz      :     0.000540  p :     0.000540
      px      :     0.000000
      py      :     0.000000
      dz2     :     0.000367  d :     0.000367
      dxz     :     0.000000
      dyz     :     0.000000
      dx2y2   :     0.000000
      dxy     :     0.000000
      f0      :     0.000025  f :     0.000025
      f+1     :     0.000000
      f-1     :     0.000000
      f+2     :     0.000000
      f-2     :     0.000000
      f+3     :     0.000000
      f-3     :     0.000000

SPIN
  0 B s       :     0.000086  s :     0.000086
      pz      :     0.996968  p :     0.996968
      px      :    -0.000000
      py      :     0.000000
      dz2     :     0.001471  d :     0.001471
      dxz     :    -0.000000
      dyz     :     0.000000
      dx2y2   :    -0.000000
      dxy     :     0.000000
      f0      :     0.000171  f :     0.000171
      f+1     :    -0.000000
      f-1     :    -0.000000
      f+2     :    -0.000000
      f-2     :     0.000000
      f+3     :    -0.000000
      f-3     :    -0.000000
      g0      :    -0.000003  g :    -0.000003
      g+1     :     0.000000
      g-1     :     0.000000
      g+2     :     0.000000
      g-2     :     0.000000
      g+3     :     0.000000
      g-3     :    -0.000000
      g+4     :    -0.000000
      g-4     :    -0.000000
  1 H s       :    -0.998246  s :    -0.998246
      pz      :    -0.000613  p :    -0.000613
      px      :     0.000000
      py      :     0.000000
      dz2     :     0.000159  d :     0.000159
      dxz     :    -0.000000
      dyz     :     0.000000
      dx2y2   :    -0.000000
      dxy     :    -0.000000
      f0      :     0.000006  f :     0.000006
      f+1     :     0.000000
      f-1     :     0.000000
      f+2     :     0.000000
      f-2     :     0.000000
      f+3     :     0.000000
      f-3     :     0.000000


                     *******************************
                     * LOEWDIN POPULATION ANALYSIS *
                     *******************************

-------------------------------------------
LOEWDIN ATOMIC CHARGES AND SPIN POPULATIONS
-------------------------------------------
   0 B :   -0.002667    0.897134
   1 H :    0.002667   -0.897134

----------------------------------------------------
LOEWDIN REDUCED ORBITAL CHARGES AND SPIN POPULATIONS
----------------------------------------------------
CHARGE
  0 B s       :     3.967707  s :     3.967707
      pz      :     0.989568  p :     0.989568
      px      :     0.000000
      py      :     0.000000
      dz2     :     0.034379  d :     0.034379
      dxz     :     0.000000
      dyz     :     0.000000
      dx2y2   :     0.000000
      dxy     :     0.000000
      f0      :     0.010619  f :     0.010619
      f+1     :     0.000000
      f-1     :     0.000000
      f+2     :     0.000000
      f-2     :     0.000000
      f+3     :     0.000000
      f-3     :     0.000000
      g0      :     0.000393  g :     0.000393
      g+1     :     0.000000
      g-1     :     0.000000
      g+2     :     0.000000
      g-2     :     0.000000
      g+3     :     0.000000
      g-3     :     0.000000
      g+4     :     0.000000
      g-4     :     0.000000
  1 H s       :     0.953025  s :     0.953025
      pz      :     0.034142  p :     0.034142
      px      :     0.000000
      py      :     0.000000
      dz2     :     0.009329  d :     0.009329
      dxz     :     0.000000
      dyz     :     0.000000
      dx2y2   :     0.000000
      dxy     :     0.000000
      f0      :     0.000836  f :     0.000836
      f+1     :     0.000000
      f-1     :     0.000000
      f+2     :     0.000000
      f-2     :     0.000000
      f+3     :     0.000000
      f-3     :     0.000000

SPIN
  0 B s       :    -0.005213  s :    -0.005213
      pz      :     0.942143  p :     0.942143
      px      :    -0.000000
      py      :     0.000000
      dz2     :    -0.028877  d :    -0.028877
      dxz     :    -0.000000
      dyz     :     0.000000
      dx2y2   :    -0.000000
      dxy     :     0.000000
      f0      :    -0.010558  f :    -0.010558
      f+1     :    -0.000000
      f-1     :    -0.000000
      f+2     :    -0.000000
      f-2     :     0.000000
      f+3     :    -0.000000
      f-3     :     0.000000
      g0      :    -0.000360  g :    -0.000360
      g+1     :     0.000000
      g-1     :     0.000000
      g+2     :     0.000000
      g-2     :     0.000000
      g+3     :     0.000000
      g-3     :     0.000000
      g+4     :    -0.000000
      g-4     :    -0.000000
  1 H s       :    -0.918781  s :    -0.918781
      pz      :     0.015471  p :     0.015471
      px      :     0.000000
      py      :    -0.000000
      dz2     :     0.005629  d :     0.005629
      dxz     :    -0.000000
      dyz     :     0.000000
      dx2y2   :    -0.000000
      dxy     :    -0.000000
      f0      :     0.000546  f :     0.000546
      f+1     :     0.000000
      f-1     :     0.000000
      f+2     :     0.000000
      f-2     :     0.000000
      f+3     :     0.000000
      f-3     :     0.000000


                      *****************************
                      * MAYER POPULATION ANALYSIS *
                      *****************************

  NA   - Mulliken gross atomic population
  ZA   - Total nuclear charge
  QA   - Mulliken gross atomic charge
  VA   - Mayer's total valence
  BVA  - Mayer's bonded valence
  FA   - Mayer's free valence

  ATOM       NA         ZA         QA         VA         BVA        FA
  0 B      4.9949     5.0000     0.0051     1.0209     0.0049     1.0160
  1 H      1.0051     1.0000    -0.0051     1.0012     0.0049     0.9964

  Mayer bond orders larger than 0.100000


-------
TIMINGS
-------

Total SCF time: 0 days 0 hours 0 min 12 sec 

Total time                  ....      12.688 sec
Sum of individual times     ....      12.483 sec  ( 98.4%)

Fock matrix formation       ....       6.819 sec  ( 53.7%)
Diagonalization             ....       0.207 sec  (  1.6%)
Density matrix formation    ....       0.007 sec  (  0.1%)
Population analysis         ....       0.006 sec  (  0.0%)
Initial guess               ....       0.008 sec  (  0.1%)
Orbital Transformation      ....       0.000 sec  (  0.0%)
Orbital Orthonormalization  ....       0.000 sec  (  0.0%)
DIIS solution               ....       0.143 sec  (  1.1%)
SCF Stability Analysis      ....       5.286 sec  ( 41.7%)

Maximum memory used throughout the entire SCF-calculation: 228.8 MB

-------------------------   --------------------
FINAL SINGLE POINT ENERGY       -25.033319690897
-------------------------   --------------------


                            ***************************************
                            *     ORCA property calculations      *
                            ***************************************

                                    ---------------------
                                    Active property flags
                                    ---------------------
   (+) Dipole Moment


------------------------------------------------------------------------------
                       ORCA ELECTRIC PROPERTIES CALCULATION
------------------------------------------------------------------------------

Dipole Moment Calculation                       ... on
Quadrupole Moment Calculation                   ... off
Polarizability Calculation                      ... off
GBWName                                         ... /scratch/BH-3.4-O_552/BH-3.4-O.gbw
Electron density file                           ... /scratch/BH-3.4-O_552/BH-3.4-O.scfp
The origin for moment calculation is the CENTER OF MASS  = ( 0.000000,  0.000000 -0.000000)

-------------
DIPOLE MOMENT
-------------
                                X             Y             Z
Electronic contribution:      0.00000      -0.00000      -3.18196
Nuclear contribution   :      0.00000       0.00000       3.13696
                        -----------------------------------------
Total Dipole Moment    :      0.00000      -0.00000      -0.04500
                        -----------------------------------------
Magnitude (a.u.)       :      0.04500
Magnitude (Debye)      :      0.11437



--------------------
Rotational spectrum 
--------------------
 
Rotational constants in cm-1:     0.000000     1.581601     1.581601 
Rotational constants in MHz :     0.000000 47415.193741 47415.193741 

 Dipole components along the rotational axes: 
x,y,z [a.u.] :    -0.044996    -0.000000     0.000000 
x,y,z [Debye]:    -0.114371    -0.000000     0.000000 

 
--------------------------------------------------------------------------
WARNING: There was an error initializing an OpenFabrics device.

  Local host:   cnode16
  Local device: mlx5_0
--------------------------------------------------------------------------
[cnode16:01913] 7 more processes have sent help message help-mpi-btl-openib.txt / error in device init
[cnode16:01913] Set MCA parameter "orte_base_help_aggregate" to 0 to see all help / error messages

Timings for individual modules:

Sum of individual times         ...       13.624 sec (=   0.227 min)
GTO integral calculation        ...        0.561 sec (=   0.009 min)   4.1 %
SCF iterations                  ...       13.063 sec (=   0.218 min)  95.9 %
                             ****ORCA TERMINATED NORMALLY****
TOTAL RUN TIME: 0 days 0 hours 0 minutes 14 seconds 55 msec

Sender: Unischeduler System <lcz@mgt01>
Subject: Job 133674: <#!/bin/bash
#BSUB -J intel
#BSUB -o BH-3.4-O.out
#BSUB -n 8
#BSUB -q cqueue
export LD_LIBRARY_PATH=/apps/software/openmpi-4.1.1/lib:/apps/software/orca_5_0_0:$LD_LIBRARY_PATH
export PATH=/apps/software/openmpi-4.1.1/bin:/apps/software/orca_5_0_0:$PATH
mkdir /scratch/BH-3.4-O_552
scp $USER@mgt01:/apps/users/lcz/exe13/UHF/BH-3.4-O.inp /scratch/BH-3.4-O_552
/apps/software/orca_5_0_0/orca /scratch/BH-3.4-O_552/BH-3.4-O.inp >& BH-3.4-O.out
scp /scratch/BH-3.4-O_552/*.gbw $USER@mgt01:/apps/users/lcz/exe13/UHF
scp /scratch/BH-3.4-O_552/*.xyz $USER@mgt01:/apps/users/lcz/exe13/UHF
scp /scratch/BH-3.4-O_552/*.trj $USER@mgt01:/apps/users/lcz/exe13/UHF> Exited

Job <#!/bin/bash
#BSUB -J intel
#BSUB -o BH-3.4-O.out
#BSUB -n 8
#BSUB -q cqueue
export LD_LIBRARY_PATH=/apps/software/openmpi-4.1.1/lib:/apps/software/orca_5_0_0:$LD_LIBRARY_PATH
export PATH=/apps/software/openmpi-4.1.1/bin:/apps/software/orca_5_0_0:$PATH
mkdir /scratch/BH-3.4-O_552
scp $USER@mgt01:/apps/users/lcz/exe13/UHF/BH-3.4-O.inp /scratch/BH-3.4-O_552
/apps/software/orca_5_0_0/orca /scratch/BH-3.4-O_552/BH-3.4-O.inp >& BH-3.4-O.out
scp /scratch/BH-3.4-O_552/*.gbw $USER@mgt01:/apps/users/lcz/exe13/UHF
scp /scratch/BH-3.4-O_552/*.xyz $USER@mgt01:/apps/users/lcz/exe13/UHF
scp /scratch/BH-3.4-O_552/*.trj $USER@mgt01:/apps/users/lcz/exe13/UHF> was submitted from host <mgt01> by user <lcz>.
Job was executed on host(s) <8*cnode16>, in queue <cqueue>, as user <lcz>.
</apps/users/lcz> was used as the home directory.
</apps/users/lcz/exe13/UHF> was used as the working directory.
Started at 2022-05-21 21:25:00
Results reported at 2022-05-21 21:25:15

Your job looked like:

------------------------------------------------------------
# User input
#!/bin/bash
#BSUB -J intel
#BSUB -o BH-3.4-O.out
#BSUB -n 8
#BSUB -q cqueue
export LD_LIBRARY_PATH=/apps/software/openmpi-4.1.1/lib:/apps/software/orca_5_0_0:$LD_LIBRARY_PATH
export PATH=/apps/software/openmpi-4.1.1/bin:/apps/software/orca_5_0_0:$PATH
mkdir /scratch/BH-3.4-O_552
scp $USER@mgt01:/apps/users/lcz/exe13/UHF/BH-3.4-O.inp /scratch/BH-3.4-O_552
/apps/software/orca_5_0_0/orca /scratch/BH-3.4-O_552/BH-3.4-O.inp >& BH-3.4-O.out
scp /scratch/BH-3.4-O_552/*.gbw $USER@mgt01:/apps/users/lcz/exe13/UHF
scp /scratch/BH-3.4-O_552/*.xyz $USER@mgt01:/apps/users/lcz/exe13/UHF
scp /scratch/BH-3.4-O_552/*.trj $USER@mgt01:/apps/users/lcz/exe13/UHF
------------------------------------------------------------

Exited with exit code 1.

Resource usage summary:

    CPU time   :           62.71 sec.
    Max Memory :              1154 MB
    Max Processes  :              13


The output (if any) follows:

/scratch/BH-3.4-O_552/*.xyz: No such file or directory
/scratch/BH-3.4-O_552/*.trj: No such file or directory
