 Entering Gaussian System, Link 0=/apps/software/g16/g16
 Initial command:
 /apps/software/g16/l1.exe "/scratch/Gau-347824.inp" -scrdir="/scratch/"
 Entering Link 1 = /apps/software/g16/l1.exe PID=    347827.
  
 Copyright (c) 1988,1990,1992,1993,1995,1998,2003,2009,2016,
            Gaussian, Inc.  All Rights Reserved.
  
 This is part of the Gaussian(R) 16 program.  It is based on
 the Gaussian(R) 09 system (copyright 2009, Gaussian, Inc.),
 the Gaussian(R) 03 system (copyright 2003, Gaussian, Inc.),
 the Gaussian(R) 98 system (copyright 1998, Gaussian, Inc.),
 the Gaussian(R) 94 system (copyright 1995, Gaussian, Inc.),
 the Gaussian 92(TM) system (copyright 1992, Gaussian, Inc.),
 the Gaussian 90(TM) system (copyright 1990, Gaussian, Inc.),
 the Gaussian 88(TM) system (copyright 1988, Gaussian, Inc.),
 the Gaussian 86(TM) system (copyright 1986, Carnegie Mellon
 University), and the Gaussian 82(TM) system (copyright 1983,
 Carnegie Mellon University). Gaussian is a federally registered
 trademark of Gaussian, Inc.
  
 This software contains proprietary and confidential information,
 including trade secrets, belonging to Gaussian, Inc.
  
 This software is provided under written license and may be
 used, copied, transmitted, or stored only in accord with that
 written license.
  
 The following legend is applicable only to US Government
 contracts under FAR:
  
                    RESTRICTED RIGHTS LEGEND
  
 Use, reproduction and disclosure by the US Government is
 subject to restrictions as set forth in subparagraphs (a)
 and (c) of the Commercial Computer Software - Restricted
 Rights clause in FAR 52.227-19.
  
 Gaussian, Inc.
 340 Quinnipiac St., Bldg. 40, Wallingford CT 06492
  
  
 ---------------------------------------------------------------
 Warning -- This program may not be used in any manner that
 competes with the business of Gaussian, Inc. or will provide
 assistance to any competitor of Gaussian, Inc.  The licensee
 of this program is prohibited from giving any competitor of
 Gaussian, Inc. access to this program.  By using this program,
 the user acknowledges that Gaussian, Inc. is engaged in the
 business of creating and licensing software in the field of
 computational chemistry and represents and warrants to the
 licensee that it is not a competitor of Gaussian, Inc. and that
 it will not use this program in any manner prohibited above.
 ---------------------------------------------------------------
  

 Cite this work as:
 Gaussian 16, Revision A.03,
 M. J. Frisch, G. W. Trucks, H. B. Schlegel, G. E. Scuseria, 
 M. A. Robb, J. R. Cheeseman, G. Scalmani, V. Barone, 
 G. A. Petersson, H. Nakatsuji, X. Li, M. Caricato, A. V. Marenich, 
 J. Bloino, B. G. Janesko, R. Gomperts, B. Mennucci, H. P. Hratchian, 
 J. V. Ortiz, A. F. Izmaylov, J. L. Sonnenberg, D. Williams-Young, 
 F. Ding, F. Lipparini, F. Egidi, J. Goings, B. Peng, A. Petrone, 
 T. Henderson, D. Ranasinghe, V. G. Zakrzewski, J. Gao, N. Rega, 
 G. Zheng, W. Liang, M. Hada, M. Ehara, K. Toyota, R. Fukuda, 
 J. Hasegawa, M. Ishida, T. Nakajima, Y. Honda, O. Kitao, H. Nakai, 
 T. Vreven, K. Throssell, J. A. Montgomery, Jr., J. E. Peralta, 
 F. Ogliaro, M. J. Bearpark, J. J. Heyd, E. N. Brothers, K. N. Kudin, 
 V. N. Staroverov, T. A. Keith, R. Kobayashi, J. Normand, 
 K. Raghavachari, A. P. Rendell, J. C. Burant, S. S. Iyengar, 
 J. Tomasi, M. Cossi, J. M. Millam, M. Klene, C. Adamo, R. Cammi, 
 J. W. Ochterski, R. L. Martin, K. Morokuma, O. Farkas, 
 J. B. Foresman, and D. J. Fox, Gaussian, Inc., Wallingford CT, 2016.
 
 ******************************************
 Gaussian 16:  ES64L-G16RevA.03 25-Dec-2016
                21-May-2022 
 ******************************************
 %chk=BH-3.4-G.chk
 ---------------------------------------
 #p UHF/aug-cc-pVQZ guess=mix stable=opt
 ---------------------------------------
 1/38=1,172=1/1;
 2/12=2,17=6,18=5,40=1/2;
 3/5=16,6=2,7=10,11=2,25=1,30=1,116=2/1,2,3;
 4/13=-1/1;
 5/5=2,38=5/2;
 6/7=2,8=2,9=2,10=2,28=1/1;
 8/6=1,10=90,11=11/1;
 9/8=-3,42=1,46=1/14;
 5/5=2,8=3,17=40,38=5/8(-2);
 6/7=2,8=2,9=2,10=2,28=1/1;
 99/5=1,9=1/99;
 Leave Link    1 at Sat May 21 19:11:04 2022, MaxMem=           0 cpu:               0.0 elap:               0.0
 (Enter /apps/software/g16/l101.exe)
 ----------------------
 BH UHF at 3.4 Angstrom
 ----------------------
 Symbolic Z-matrix:
 Charge =  0 Multiplicity = 1
 B                     0.        0.        0. 
 H                     3.4       0.        0. 
 
 ITRead=  0  0
 MicOpt= -1 -1
 NAtoms=      2 NQM=        2 NQMF=       0 NMMI=      0 NMMIF=      0
                NMic=       0 NMicF=      0.
                    Isotopes and Nuclear Properties:
 (Nuclear quadrupole moments (NQMom) in fm**2, nuclear magnetic moments (NMagM)
  in nuclear magnetons)

  Atom         1           2
 IAtWgt=          11           1
 AtmWgt=  11.0093053   1.0078250
 NucSpn=           3           1
 AtZEff=  -0.0000000  -0.0000000
 NQMom=    4.0590000   0.0000000
 NMagM=    2.6886370   2.7928460
 AtZNuc=   5.0000000   1.0000000
 Leave Link  101 at Sat May 21 19:11:04 2022, MaxMem=   104857600 cpu:               0.1 elap:               0.1
 (Enter /apps/software/g16/l202.exe)
                          Input orientation:                          
 ---------------------------------------------------------------------
 Center     Atomic      Atomic             Coordinates (Angstroms)
 Number     Number       Type             X           Y           Z
 ---------------------------------------------------------------------
      1          5           0        0.000000    0.000000    0.000000
      2          1           0        3.400000    0.000000    0.000000
 ---------------------------------------------------------------------
 Stoichiometry    BH
 Framework group  C*V[C*(HB)]
 Deg. of freedom     1
 Full point group                 C*V     NOp   4
 Largest Abelian subgroup         C2V     NOp   4
 Largest concise Abelian subgroup C1      NOp   1
                         Standard orientation:                         
 ---------------------------------------------------------------------
 Center     Atomic      Atomic             Coordinates (Angstroms)
 Number     Number       Type             X           Y           Z
 ---------------------------------------------------------------------
      1          5           0        0.000000    0.000000    0.566667
      2          1           0        0.000000    0.000000   -2.833333
 ---------------------------------------------------------------------
 Rotational constants (GHZ):           0.0000000          47.3494653          47.3494653
 Leave Link  202 at Sat May 21 19:11:04 2022, MaxMem=   104857600 cpu:               0.0 elap:               0.0
 (Enter /apps/software/g16/l301.exe)
 Standard basis: Aug-CC-pVQZ (5D, 7F)
 Ernie: Thresh=  0.10000D-02 Tol=  0.10000D-05 Strict=F.
 Ernie:  4 primitive shells out of 54 were deleted.
 There are    68 symmetry adapted cartesian basis functions of A1  symmetry.
 There are    18 symmetry adapted cartesian basis functions of A2  symmetry.
 There are    37 symmetry adapted cartesian basis functions of B1  symmetry.
 There are    37 symmetry adapted cartesian basis functions of B2  symmetry.
 There are    50 symmetry adapted basis functions of A1  symmetry.
 There are    16 symmetry adapted basis functions of A2  symmetry.
 There are    30 symmetry adapted basis functions of B1  symmetry.
 There are    30 symmetry adapted basis functions of B2  symmetry.
   126 basis functions,   180 primitive gaussians,   160 cartesian basis functions
     3 alpha electrons        3 beta electrons
       nuclear repulsion energy         0.7782017808 Hartrees.
 IExCor=    0 DFT=F Ex=HF Corr=None ExCW=0 ScaHFX=  1.000000
 ScaDFX=  1.000000  1.000000  1.000000  1.000000 ScalE2=  1.000000  1.000000
 IRadAn=      5 IRanWt=     -1 IRanGd=            0 ICorTp=0 IEmpDi=  4
 NAtoms=    2 NActive=    2 NUniq=    2 SFac= 1.00D+00 NAtFMM=   60 NAOKFM=F Big=F
 Integral buffers will be    131072 words long.
 Raffenetti 2 integral format.
 Two-electron integral symmetry is turned on.
 Leave Link  301 at Sat May 21 19:11:04 2022, MaxMem=   104857600 cpu:               0.1 elap:               0.1
 (Enter /apps/software/g16/l302.exe)
 NPDir=0 NMtPBC=     1 NCelOv=     1 NCel=       1 NClECP=     1 NCelD=      1
         NCelK=      1 NCelE2=     1 NClLst=     1 CellRange=     0.0.
 One-electron integrals computed using PRISM.
 One-electron integral symmetry used in STVInt
 NBasis=   126 RedAO= T EigKep=  4.97D-03  NBF=    50    16    30    30
 NBsUse=   126 1.00D-06 EigRej= -1.00D+00 NBFU=    50    16    30    30
 Leave Link  302 at Sat May 21 19:11:04 2022, MaxMem=   104857600 cpu:               0.1 elap:               0.1
 (Enter /apps/software/g16/l303.exe)
 DipDrv:  MaxL=1.
 Leave Link  303 at Sat May 21 19:11:04 2022, MaxMem=   104857600 cpu:               0.0 elap:               0.0
 (Enter /apps/software/g16/l401.exe)
 ExpMin= 1.88D-02 ExpMax= 2.39D+04 ExpMxC= 2.30D+02 IAcc=3 IRadAn=         5 AccDes= 0.00D+00
 Harris functional with IExCor=  205 and IRadAn=       5 diagonalized for initial guess.
 HarFok:  IExCor=  205 AccDes= 0.00D+00 IRadAn=         5 IDoV= 1 UseB2=F ITyADJ=14
 ICtDFT=  3500011 ScaDFX=  1.000000  1.000000  1.000000  1.000000
 FoFCou: FMM=F IPFlag=           0 FMFlag=      100000 FMFlg1=           0
         NFxFlg=           0 DoJE=T BraDBF=F KetDBF=T FulRan=T
         wScrn=  0.000000 ICntrl=       500 IOpCl=  0 I1Cent=   200000004 NGrid=           0
         NMat0=    1 NMatS0=      1 NMatT0=    0 NMatD0=    1 NMtDS0=    0 NMtDT0=    0
 Petite list used in FoFCou.
 Harris En= -24.9930785135347    
 JPrj=0 DoOrth=F DoCkMO=T.
 Mixing orbitals, IMix= 1 IMixAn=  0 NRI=1 NE=    3 Coef=  7.07106781D-01  7.07106781D-01
 Mixing orbitals, IMix= 1 IMixAn=  0 NRI=1 NE=    3 Coef= -7.07106781D-01  7.07106781D-01
 Initial guess orbital symmetries:
 Alpha Orbitals:
       Occupied  (SG) (SG) (?A)
       Virtual   (?A) (?A) (SG) (SG) (PI) (PI) (SG) (SG) (PI) (PI)
                 (DLTA) (DLTA) (SG) (PI) (PI) (SG) (PI) (PI) (SG)
                 (SG) (SG) (PI) (PI) (DLTA) (DLTA) (DLTA) (DLTA)
                 (PHI) (PHI) (SG) (PI) (PI) (SG) (DLTA) (DLTA)
                 (PI) (PI) (PI) (PI) (SG) (SG) (PI) (PI) (SG) (SG)
                 (PI) (PI) (DLTA) (DLTA) (SG) (PI) (PI) (DLTA)
                 (DLTA) (PHI) (PHI) (?B) (?B) (PHI) (PHI) (DLTA)
                 (DLTA) (SG) (PI) (PI) (PHI) (PHI) (SG) (DLTA)
                 (DLTA) (SG) (PI) (PI) (SG) (DLTA) (DLTA) (PI)
                 (PI) (PI) (PI) (SG) (SG) (PI) (PI) (SG) (DLTA)
                 (DLTA) (PI) (PI) (SG) (?B) (PHI) (PHI) (?B) (DLTA)
                 (DLTA) (PI) (PI) (PHI) (PHI) (DLTA) (DLTA) (PI)
                 (PI) (SG) (SG) (PHI) (PHI) (DLTA) (DLTA) (PI)
                 (PI) (SG) (SG) (PI) (PI) (SG) (DLTA) (DLTA) (PI)
                 (PI) (SG) (SG)
 Beta  Orbitals:
       Occupied  (SG) (SG) (?A)
       Virtual   (?A) (?A) (SG) (SG) (PI) (PI) (SG) (SG) (PI) (PI)
                 (DLTA) (DLTA) (SG) (PI) (PI) (SG) (PI) (PI) (SG)
                 (SG) (SG) (PI) (PI) (DLTA) (DLTA) (DLTA) (DLTA)
                 (PHI) (PHI) (SG) (PI) (PI) (SG) (DLTA) (DLTA)
                 (PI) (PI) (PI) (PI) (SG) (SG) (PI) (PI) (SG) (SG)
                 (PI) (PI) (DLTA) (DLTA) (SG) (PI) (PI) (DLTA)
                 (DLTA) (PHI) (PHI) (?B) (?B) (PHI) (PHI) (DLTA)
                 (DLTA) (SG) (PI) (PI) (PHI) (PHI) (SG) (DLTA)
                 (DLTA) (SG) (PI) (PI) (SG) (DLTA) (DLTA) (PI)
                 (PI) (PI) (PI) (SG) (SG) (PI) (PI) (SG) (DLTA)
                 (DLTA) (PI) (PI) (SG) (?B) (PHI) (PHI) (?B) (DLTA)
                 (DLTA) (PI) (PI) (PHI) (PHI) (DLTA) (DLTA) (PI)
                 (PI) (SG) (SG) (PHI) (PHI) (DLTA) (DLTA) (PI)
                 (PI) (SG) (SG) (PI) (PI) (SG) (DLTA) (DLTA) (PI)
                 (PI) (SG) (SG)
 Initial guess <Sx>= 0.0000 <Sy>= 0.0000 <Sz>= 0.0000 <S**2>= 1.0000 S= 0.6180
 Leave Link  401 at Sat May 21 19:11:04 2022, MaxMem=   104857600 cpu:               0.2 elap:               0.2
 (Enter /apps/software/g16/l502.exe)
 Keep R1 and R2 ints in memory in symmetry-blocked form, NReq=40143665.
 FoFCou: FMM=F IPFlag=           0 FMFlag=           0 FMFlg1=           0
         NFxFlg=           0 DoJE=F BraDBF=F KetDBF=F FulRan=T
         wScrn=  0.000000 ICntrl=       600 IOpCl=  0 I1Cent=           0 NGrid=           0
         NMat0=    1 NMatS0=   8001 NMatT0=    0 NMatD0=    1 NMtDS0=    0 NMtDT0=    0
 Petite list used in FoFCou.
 UHF open shell SCF:
 Using DIIS extrapolation, IDIIS=  1040.
 NGot=   104857600 LenX=    88563632 LenY=    88537591
 Requested convergence on RMS density matrix=1.00D-08 within 128 cycles.
 Requested convergence on MAX density matrix=1.00D-06.
 Requested convergence on             energy=1.00D-06.
 No special actions if energy rises.
 An orbital has undefined symmetry, so N**3 symmetry is turned off.

 Cycle   1  Pass 1  IDiag  1:
 Density matrix breaks symmetry, PCut= 1.00D-07
 Density matrix has no symmetry -- integrals replicated.
 E= -24.8514201000032    
 DIIS: error= 3.08D-02 at cycle   1 NSaved=   1.
 NSaved= 1 IEnMin= 1 EnMin= -24.8514201000032     IErMin= 1 ErrMin= 3.08D-02
 ErrMax= 3.08D-02  0.00D+00 EMaxC= 1.00D-01 BMatC= 1.51D-01 BMatP= 1.51D-01
 IDIUse=3 WtCom= 6.92D-01 WtEn= 3.08D-01
 Coeff-Com:  0.100D+01
 Coeff-En:   0.100D+01
 Coeff:      0.100D+01
 Gap=     0.160 Goal=   None    Shift=    0.000
 Gap=     0.160 Goal=   None    Shift=    0.000
 GapD=    0.160 DampG=1.000 DampE=0.500 DampFc=0.5000 IDamp=-1.
 Damping current iteration by 5.00D-01
 RMSDP=1.59D-03 MaxDP=7.16D-02              OVMax= 3.33D-01

 Cycle   2  Pass 1  IDiag  1:
 Density matrix breaks symmetry, PCut= 1.00D-07
 Density matrix has no symmetry -- integrals replicated.
 E= -24.8739632204841     Delta-E=       -0.022543120481 Rises=F Damp=T
 DIIS: error= 1.91D-02 at cycle   2 NSaved=   2.
 NSaved= 2 IEnMin= 2 EnMin= -24.8739632204841     IErMin= 2 ErrMin= 1.91D-02
 ErrMax= 1.91D-02  0.00D+00 EMaxC= 1.00D-01 BMatC= 4.95D-02 BMatP= 1.51D-01
 IDIUse=3 WtCom= 8.09D-01 WtEn= 1.91D-01
 Coeff-Com: -0.741D+00 0.174D+01
 Coeff-En:   0.000D+00 0.100D+01
 Coeff:     -0.600D+00 0.160D+01
 Gap=     0.142 Goal=   None    Shift=    0.000
 Gap=     0.142 Goal=   None    Shift=    0.000
 RMSDP=1.20D-03 MaxDP=5.58D-02 DE=-2.25D-02 OVMax= 1.76D-01

 Cycle   3  Pass 1  IDiag  1:
 Density matrix breaks symmetry, PCut= 1.00D-07
 Density matrix has no symmetry -- integrals replicated.
 E= -24.9083673552373     Delta-E=       -0.034404134753 Rises=F Damp=F
 DIIS: error= 1.03D-02 at cycle   3 NSaved=   3.
 NSaved= 3 IEnMin= 3 EnMin= -24.9083673552373     IErMin= 3 ErrMin= 1.03D-02
 ErrMax= 1.03D-02  0.00D+00 EMaxC= 1.00D-01 BMatC= 4.31D-03 BMatP= 4.95D-02
 IDIUse=3 WtCom= 8.97D-01 WtEn= 1.03D-01
 Coeff-Com: -0.224D+00 0.369D+00 0.855D+00
 Coeff-En:   0.000D+00 0.000D+00 0.100D+01
 Coeff:     -0.201D+00 0.331D+00 0.870D+00
 Gap=     0.184 Goal=   None    Shift=    0.000
 Gap=     0.184 Goal=   None    Shift=    0.000
 RMSDP=4.91D-04 MaxDP=1.65D-02 DE=-3.44D-02 OVMax= 1.11D-01

 Cycle   4  Pass 1  IDiag  1:
 Density matrix breaks symmetry, PCut= 1.00D-07
 Density matrix has no symmetry -- integrals replicated.
 E= -24.9177579335073     Delta-E=       -0.009390578270 Rises=F Damp=F
 DIIS: error= 4.14D-03 at cycle   4 NSaved=   4.
 NSaved= 4 IEnMin= 4 EnMin= -24.9177579335073     IErMin= 4 ErrMin= 4.14D-03
 ErrMax= 4.14D-03  0.00D+00 EMaxC= 1.00D-01 BMatC= 2.00D-03 BMatP= 4.31D-03
 IDIUse=3 WtCom= 9.59D-01 WtEn= 4.14D-02
 Coeff-Com:  0.185D+00-0.359D+00-0.368D+00 0.154D+01
 Coeff-En:   0.000D+00 0.000D+00 0.000D+00 0.100D+01
 Coeff:      0.177D+00-0.344D+00-0.353D+00 0.152D+01
 Gap=     0.186 Goal=   None    Shift=    0.000
 Gap=     0.186 Goal=   None    Shift=    0.000
 RMSDP=5.77D-04 MaxDP=1.38D-02 DE=-9.39D-03 OVMax= 1.15D-01

 Cycle   5  Pass 1  IDiag  1:
 Density matrix breaks symmetry, PCut= 1.00D-07
 Density matrix has no symmetry -- integrals replicated.
 E= -24.9251578177176     Delta-E=       -0.007399884210 Rises=F Damp=F
 DIIS: error= 3.86D-03 at cycle   5 NSaved=   5.
 NSaved= 5 IEnMin= 5 EnMin= -24.9251578177176     IErMin= 5 ErrMin= 3.86D-03
 ErrMax= 3.86D-03  0.00D+00 EMaxC= 1.00D-01 BMatC= 8.76D-04 BMatP= 2.00D-03
 IDIUse=3 WtCom= 9.61D-01 WtEn= 3.86D-02
 Coeff-Com: -0.205D+00 0.399D+00-0.199D+00-0.717D+00 0.172D+01
 Coeff-En:   0.000D+00 0.000D+00 0.000D+00 0.000D+00 0.100D+01
 Coeff:     -0.197D+00 0.383D+00-0.192D+00-0.690D+00 0.170D+01
 Gap=     0.199 Goal=   None    Shift=    0.000
 Gap=     0.199 Goal=   None    Shift=    0.000
 RMSDP=4.63D-04 MaxDP=1.32D-02 DE=-7.40D-03 OVMax= 1.03D-01

 Cycle   6  Pass 1  IDiag  1:
 Density matrix breaks symmetry, PCut= 1.00D-07
 Density matrix has no symmetry -- integrals replicated.
 E= -24.9289679175691     Delta-E=       -0.003810099851 Rises=F Damp=F
 DIIS: error= 2.60D-03 at cycle   6 NSaved=   6.
 NSaved= 6 IEnMin= 6 EnMin= -24.9289679175691     IErMin= 6 ErrMin= 2.60D-03
 ErrMax= 2.60D-03  0.00D+00 EMaxC= 1.00D-01 BMatC= 3.51D-04 BMatP= 8.76D-04
 IDIUse=3 WtCom= 9.74D-01 WtEn= 2.60D-02
 Coeff-Com: -0.412D-01 0.753D-01-0.147D+00 0.154D+00-0.196D+00 0.116D+01
 Coeff-En:   0.000D+00 0.000D+00 0.000D+00 0.000D+00 0.000D+00 0.100D+01
 Coeff:     -0.402D-01 0.733D-01-0.144D+00 0.150D+00-0.191D+00 0.115D+01
 Gap=     0.203 Goal=   None    Shift=    0.000
 Gap=     0.203 Goal=   None    Shift=    0.000
 RMSDP=1.82D-04 MaxDP=5.80D-03 DE=-3.81D-03 OVMax= 4.19D-02

 Cycle   7  Pass 1  IDiag  1:
 Density matrix breaks symmetry, PCut= 1.00D-07
 Density matrix has no symmetry -- integrals replicated.
 E= -24.9299706342984     Delta-E=       -0.001002716729 Rises=F Damp=F
 DIIS: error= 1.87D-03 at cycle   7 NSaved=   7.
 NSaved= 7 IEnMin= 7 EnMin= -24.9299706342984     IErMin= 7 ErrMin= 1.87D-03
 ErrMax= 1.87D-03  0.00D+00 EMaxC= 1.00D-01 BMatC= 1.25D-04 BMatP= 3.51D-04
 IDIUse=3 WtCom= 9.81D-01 WtEn= 1.87D-02
 Coeff-Com: -0.104D+00 0.200D+00 0.126D+00-0.999D+00 0.181D+01-0.371D+01
 Coeff-Com:  0.367D+01
 Coeff-En:   0.000D+00 0.000D+00 0.000D+00 0.000D+00 0.000D+00 0.000D+00
 Coeff-En:   0.100D+01
 Coeff:     -0.102D+00 0.197D+00 0.123D+00-0.980D+00 0.178D+01-0.364D+01
 Coeff:      0.362D+01
 Gap=     0.206 Goal=   None    Shift=    0.000
 Gap=     0.206 Goal=   None    Shift=    0.000
 RMSDP=2.72D-04 MaxDP=8.92D-03 DE=-1.00D-03 OVMax= 6.41D-02

 Cycle   8  Pass 1  IDiag  1:
 Density matrix breaks symmetry, PCut= 1.00D-07
 Density matrix has no symmetry -- integrals replicated.
 E= -24.9307346307685     Delta-E=       -0.000763996470 Rises=F Damp=F
 DIIS: error= 8.04D-04 at cycle   8 NSaved=   8.
 NSaved= 8 IEnMin= 8 EnMin= -24.9307346307685     IErMin= 8 ErrMin= 8.04D-04
 ErrMax= 8.04D-04  0.00D+00 EMaxC= 1.00D-01 BMatC= 4.17D-05 BMatP= 1.25D-04
 IDIUse=3 WtCom= 9.92D-01 WtEn= 8.04D-03
 Coeff-Com:  0.323D-01-0.604D-01-0.899D-01 0.355D+00-0.224D+00 0.379D+00
 Coeff-Com: -0.117D+01 0.178D+01
 Coeff-En:   0.000D+00 0.000D+00 0.000D+00 0.000D+00 0.000D+00 0.000D+00
 Coeff-En:   0.000D+00 0.100D+01
 Coeff:      0.320D-01-0.599D-01-0.892D-01 0.352D+00-0.222D+00 0.376D+00
 Coeff:     -0.116D+01 0.177D+01
 Gap=     0.208 Goal=   None    Shift=    0.000
 Gap=     0.208 Goal=   None    Shift=    0.000
 RMSDP=1.30D-04 MaxDP=4.18D-03 DE=-7.64D-04 OVMax= 3.02D-02

 Cycle   9  Pass 1  IDiag  1:
 Density matrix breaks symmetry, PCut= 1.00D-07
 Density matrix has no symmetry -- integrals replicated.
 E= -24.9308847770653     Delta-E=       -0.000150146297 Rises=F Damp=F
 DIIS: error= 2.81D-04 at cycle   9 NSaved=   9.
 NSaved= 9 IEnMin= 9 EnMin= -24.9308847770653     IErMin= 9 ErrMin= 2.81D-04
 ErrMax= 2.81D-04  0.00D+00 EMaxC= 1.00D-01 BMatC= 6.68D-06 BMatP= 4.17D-05
 IDIUse=3 WtCom= 9.97D-01 WtEn= 2.81D-03
 Coeff-Com:  0.143D-02-0.378D-02-0.934D-02 0.478D-01-0.205D+00 0.570D+00
 Coeff-Com: -0.576D+00 0.116D+00 0.106D+01
 Coeff-En:   0.000D+00 0.000D+00 0.000D+00 0.000D+00 0.000D+00 0.000D+00
 Coeff-En:   0.000D+00 0.000D+00 0.100D+01
 Coeff:      0.142D-02-0.377D-02-0.932D-02 0.476D-01-0.205D+00 0.569D+00
 Coeff:     -0.575D+00 0.116D+00 0.106D+01
 Gap=     0.209 Goal=   None    Shift=    0.000
 Gap=     0.209 Goal=   None    Shift=    0.000
 RMSDP=4.99D-05 MaxDP=1.48D-03 DE=-1.50D-04 OVMax= 1.11D-02

 Cycle  10  Pass 1  IDiag  1:
 Density matrix breaks symmetry, PCut= 1.00D-07
 Density matrix has no symmetry -- integrals replicated.
 E= -24.9308999344275     Delta-E=       -0.000015157362 Rises=F Damp=F
 DIIS: error= 1.96D-04 at cycle  10 NSaved=  10.
 NSaved=10 IEnMin=10 EnMin= -24.9308999344275     IErMin=10 ErrMin= 1.96D-04
 ErrMax= 1.96D-04  0.00D+00 EMaxC= 1.00D-01 BMatC= 4.20D-06 BMatP= 6.68D-06
 IDIUse=3 WtCom= 9.98D-01 WtEn= 1.96D-03
 Coeff-Com: -0.208D-02 0.398D-02-0.516D-03-0.158D-01 0.166D-01-0.412D-01
 Coeff-Com:  0.101D+00-0.244D+00 0.323D+00 0.860D+00
 Coeff-En:   0.000D+00 0.000D+00 0.000D+00 0.000D+00 0.000D+00 0.000D+00
 Coeff-En:   0.000D+00 0.000D+00 0.000D+00 0.100D+01
 Coeff:     -0.208D-02 0.397D-02-0.515D-03-0.158D-01 0.165D-01-0.412D-01
 Coeff:      0.100D+00-0.244D+00 0.323D+00 0.860D+00
 Gap=     0.209 Goal=   None    Shift=    0.000
 Gap=     0.209 Goal=   None    Shift=    0.000
 RMSDP=1.51D-05 MaxDP=4.27D-04 DE=-1.52D-05 OVMax= 3.43D-03

 Cycle  11  Pass 1  IDiag  1:
 Density matrix breaks symmetry, PCut= 1.00D-07
 Density matrix has no symmetry -- integrals replicated.
 E= -24.9309061196337     Delta-E=       -0.000006185206 Rises=F Damp=F
 DIIS: error= 6.29D-05 at cycle  11 NSaved=  11.
 NSaved=11 IEnMin=11 EnMin= -24.9309061196337     IErMin=11 ErrMin= 6.29D-05
 ErrMax= 6.29D-05  0.00D+00 EMaxC= 1.00D-01 BMatC= 3.88D-07 BMatP= 4.20D-06
 IDIUse=1 WtCom= 1.00D+00 WtEn= 0.00D+00
 Coeff-Com:  0.131D-03-0.610D-03-0.586D-02 0.201D-01-0.586D-01 0.198D+00
 Coeff-Com: -0.254D+00 0.195D+00 0.143D+00-0.894D+00 0.166D+01
 Coeff:      0.131D-03-0.610D-03-0.586D-02 0.201D-01-0.586D-01 0.198D+00
 Coeff:     -0.254D+00 0.195D+00 0.143D+00-0.894D+00 0.166D+01
 Gap=     0.209 Goal=   None    Shift=    0.000
 Gap=     0.209 Goal=   None    Shift=    0.000
 RMSDP=4.04D-06 MaxDP=1.21D-04 DE=-6.19D-06 OVMax= 8.33D-04

 Cycle  12  Pass 1  IDiag  1:
 Density matrix breaks symmetry, PCut= 1.00D-07
 Density matrix has no symmetry -- integrals replicated.
 E= -24.9309066578975     Delta-E=       -0.000000538264 Rises=F Damp=F
 DIIS: error= 5.95D-05 at cycle  12 NSaved=  12.
 NSaved=12 IEnMin=12 EnMin= -24.9309066578975     IErMin=12 ErrMin= 5.95D-05
 ErrMax= 5.95D-05  0.00D+00 EMaxC= 1.00D-01 BMatC= 3.67D-07 BMatP= 3.88D-07
 IDIUse=1 WtCom= 1.00D+00 WtEn= 0.00D+00
 Coeff-Com: -0.157D-03 0.283D-03-0.902D-03 0.623D-02-0.252D-01 0.358D-01
 Coeff-Com: -0.178D-01-0.581D-01 0.343D+00 0.466D+00-0.478D+01 0.503D+01
 Coeff:     -0.157D-03 0.283D-03-0.902D-03 0.623D-02-0.252D-01 0.358D-01
 Coeff:     -0.178D-01-0.581D-01 0.343D+00 0.466D+00-0.478D+01 0.503D+01
 Gap=     0.209 Goal=   None    Shift=    0.000
 Gap=     0.209 Goal=   None    Shift=    0.000
 RMSDP=1.04D-05 MaxDP=3.97D-04 DE=-5.38D-07 OVMax= 1.51D-03

 Cycle  13  Pass 1  IDiag  1:
 Density matrix breaks symmetry, PCut= 1.00D-07
 Density matrix has no symmetry -- integrals replicated.
 E= -24.9309079175309     Delta-E=       -0.000001259633 Rises=F Damp=F
 DIIS: error= 4.25D-05 at cycle  13 NSaved=  13.
 NSaved=13 IEnMin=13 EnMin= -24.9309079175309     IErMin=13 ErrMin= 4.25D-05
 ErrMax= 4.25D-05  0.00D+00 EMaxC= 1.00D-01 BMatC= 1.70D-07 BMatP= 3.67D-07
 IDIUse=1 WtCom= 1.00D+00 WtEn= 0.00D+00
 Coeff-Com:  0.581D-03-0.116D-02-0.170D-02 0.488D-02-0.524D-02 0.104D-01
 Coeff-Com: -0.389D-02-0.285D-01-0.683D-01 0.863D-01 0.125D+01-0.412D+01
 Coeff-Com:  0.387D+01
 Coeff:      0.581D-03-0.116D-02-0.170D-02 0.488D-02-0.524D-02 0.104D-01
 Coeff:     -0.389D-02-0.285D-01-0.683D-01 0.863D-01 0.125D+01-0.412D+01
 Coeff:      0.387D+01
 Gap=     0.209 Goal=   None    Shift=    0.000
 Gap=     0.209 Goal=   None    Shift=    0.000
 RMSDP=2.80D-05 MaxDP=1.01D-03 DE=-1.26D-06 OVMax= 4.52D-03

 Cycle  14  Pass 1  IDiag  1:
 Density matrix breaks symmetry, PCut= 1.00D-07
 Density matrix has no symmetry -- integrals replicated.
 E= -24.9309095026323     Delta-E=       -0.000001585101 Rises=F Damp=F
 DIIS: error= 5.45D-06 at cycle  14 NSaved=  14.
 NSaved=14 IEnMin=14 EnMin= -24.9309095026323     IErMin=14 ErrMin= 5.45D-06
 ErrMax= 5.45D-06  0.00D+00 EMaxC= 1.00D-01 BMatC= 4.41D-09 BMatP= 1.70D-07
 IDIUse=1 WtCom= 1.00D+00 WtEn= 0.00D+00
 Coeff-Com:  0.746D-05 0.105D-04-0.183D-04 0.327D-04 0.112D-02-0.174D-02
 Coeff-Com: -0.424D-02 0.171D-01 0.185D-01-0.469D-01-0.255D+00 0.118D+01
 Coeff-Com: -0.142D+01 0.151D+01
 Coeff:      0.746D-05 0.105D-04-0.183D-04 0.327D-04 0.112D-02-0.174D-02
 Coeff:     -0.424D-02 0.171D-01 0.185D-01-0.469D-01-0.255D+00 0.118D+01
 Coeff:     -0.142D+01 0.151D+01
 Gap=     0.209 Goal=   None    Shift=    0.000
 Gap=     0.209 Goal=   None    Shift=    0.000
 RMSDP=5.08D-06 MaxDP=1.84D-04 DE=-1.59D-06 OVMax= 8.06D-04

 Cycle  15  Pass 1  IDiag  1:
 Density matrix breaks symmetry, PCut= 1.00D-07
 Density matrix has no symmetry -- integrals replicated.
 E= -24.9309095364756     Delta-E=       -0.000000033843 Rises=F Damp=F
 DIIS: error= 1.62D-06 at cycle  15 NSaved=  15.
 NSaved=15 IEnMin=15 EnMin= -24.9309095364756     IErMin=15 ErrMin= 1.62D-06
 ErrMax= 1.62D-06  0.00D+00 EMaxC= 1.00D-01 BMatC= 2.97D-10 BMatP= 4.41D-09
 IDIUse=1 WtCom= 1.00D+00 WtEn= 0.00D+00
 Coeff-Com:  0.118D-04-0.265D-04 0.404D-04 0.636D-04 0.458D-04-0.104D-02
 Coeff-Com:  0.241D-02-0.382D-02-0.949D-02 0.199D-01 0.432D-01-0.242D+00
 Coeff-Com:  0.326D+00-0.484D+00 0.135D+01
 Coeff:      0.118D-04-0.265D-04 0.404D-04 0.636D-04 0.458D-04-0.104D-02
 Coeff:      0.241D-02-0.382D-02-0.949D-02 0.199D-01 0.432D-01-0.242D+00
 Coeff:      0.326D+00-0.484D+00 0.135D+01
 Gap=     0.209 Goal=   None    Shift=    0.000
 Gap=     0.209 Goal=   None    Shift=    0.000
 RMSDP=1.55D-07 MaxDP=4.06D-06 DE=-3.38D-08 OVMax= 2.33D-05

 Cycle  16  Pass 1  IDiag  1:
 Density matrix breaks symmetry, PCut= 1.00D-07
 Density matrix has no symmetry -- integrals replicated.
 E= -24.9309095368431     Delta-E=       -0.000000000367 Rises=F Damp=F
 DIIS: error= 7.60D-07 at cycle  16 NSaved=  16.
 NSaved=16 IEnMin=16 EnMin= -24.9309095368431     IErMin=16 ErrMin= 7.60D-07
 ErrMax= 7.60D-07  0.00D+00 EMaxC= 1.00D-01 BMatC= 6.33D-11 BMatP= 2.97D-10
 IDIUse=1 WtCom= 1.00D+00 WtEn= 0.00D+00
 Coeff-Com:  0.898D-05-0.142D-04-0.149D-04 0.599D-04 0.202D-04 0.528D-04
 Coeff-Com: -0.536D-03 0.142D-02 0.156D-02-0.271D-02-0.200D-01 0.823D-01
 Coeff-Com: -0.103D+00 0.151D+00-0.632D+00 0.152D+01
 Coeff:      0.898D-05-0.142D-04-0.149D-04 0.599D-04 0.202D-04 0.528D-04
 Coeff:     -0.536D-03 0.142D-02 0.156D-02-0.271D-02-0.200D-01 0.823D-01
 Coeff:     -0.103D+00 0.151D+00-0.632D+00 0.152D+01
 Gap=     0.209 Goal=   None    Shift=    0.000
 Gap=     0.209 Goal=   None    Shift=    0.000
 RMSDP=1.43D-07 MaxDP=4.16D-06 DE=-3.67D-10 OVMax= 2.80D-05

 Cycle  17  Pass 1  IDiag  1:
 Density matrix breaks symmetry, PCut= 1.00D-07
 Density matrix has no symmetry -- integrals replicated.
 E= -24.9309095369688     Delta-E=       -0.000000000126 Rises=F Damp=F
 DIIS: error= 1.95D-07 at cycle  17 NSaved=  17.
 NSaved=17 IEnMin=17 EnMin= -24.9309095369688     IErMin=17 ErrMin= 1.95D-07
 ErrMax= 1.95D-07  0.00D+00 EMaxC= 1.00D-01 BMatC= 4.21D-12 BMatP= 6.33D-11
 IDIUse=1 WtCom= 1.00D+00 WtEn= 0.00D+00
 Coeff-Com: -0.176D-05 0.264D-05 0.759D-05-0.202D-04 0.168D-04-0.833D-04
 Coeff-Com:  0.173D-03-0.226D-03-0.558D-03 0.106D-03 0.617D-02-0.156D-01
 Coeff-Com:  0.172D-01-0.268D-01 0.167D+00-0.731D+00 0.158D+01
 Coeff:     -0.176D-05 0.264D-05 0.759D-05-0.202D-04 0.168D-04-0.833D-04
 Coeff:      0.173D-03-0.226D-03-0.558D-03 0.106D-03 0.617D-02-0.156D-01
 Coeff:      0.172D-01-0.268D-01 0.167D+00-0.731D+00 0.158D+01
 Gap=     0.209 Goal=   None    Shift=    0.000
 Gap=     0.209 Goal=   None    Shift=    0.000
 RMSDP=6.43D-08 MaxDP=1.99D-06 DE=-1.26D-10 OVMax= 1.17D-05

 Cycle  18  Pass 1  IDiag  1:
 Density matrix breaks symmetry, PCut= 1.00D-07
 Density matrix has no symmetry -- integrals replicated.
 E= -24.9309095369802     Delta-E=       -0.000000000011 Rises=F Damp=F
 DIIS: error= 1.35D-08 at cycle  18 NSaved=  18.
 NSaved=18 IEnMin=18 EnMin= -24.9309095369802     IErMin=18 ErrMin= 1.35D-08
 ErrMax= 1.35D-08  0.00D+00 EMaxC= 1.00D-01 BMatC= 1.74D-14 BMatP= 4.21D-12
 IDIUse=1 WtCom= 1.00D+00 WtEn= 0.00D+00
 Large coefficients: NSaved= 18 BigCof=    0.00 CofMax=   10.00 Det=-8.26D-15
 Inversion failed.  Reducing to 17 matrices.
 Large coefficients: NSaved= 17 BigCof=    0.00 CofMax=   10.00 Det=-8.72D-15
 Inversion failed.  Reducing to 16 matrices.
 Coeff-Com: -0.125D-05 0.161D-06-0.391D-05 0.356D-04-0.449D-04 0.212D-04
 Coeff-Com:  0.709D-04-0.156D-03 0.227D-03-0.820D-03 0.580D-03 0.127D-02
 Coeff-Com: -0.304D-01 0.182D+00-0.520D+00 0.137D+01
 Coeff:     -0.125D-05 0.161D-06-0.391D-05 0.356D-04-0.449D-04 0.212D-04
 Coeff:      0.709D-04-0.156D-03 0.227D-03-0.820D-03 0.580D-03 0.127D-02
 Coeff:     -0.304D-01 0.182D+00-0.520D+00 0.137D+01
 Gap=     0.209 Goal=   None    Shift=    0.000
 Gap=     0.209 Goal=   None    Shift=    0.000
 RMSDP=4.35D-09 MaxDP=1.31D-07 DE=-1.14D-11 OVMax= 7.81D-07

 Density matrix breaks symmetry, PCut= 1.00D-07
 Density matrix has no symmetry -- integrals replicated.
 SCF Done:  E(UHF) =  -24.9309095370     A.U. after   18 cycles
            NFock= 18  Conv=0.44D-08     -V/T= 2.0074
 <Sx>= 0.0000 <Sy>= 0.0000 <Sz>= 0.0000 <S**2>= 0.1441 S= 0.1277
 <L.S>=  0.00000000000    
 KE= 2.474747824038D+01 PE=-5.870467204700D+01 EE= 8.248082488876D+00
 Annihilation of the first spin contaminant:
 S**2 before annihilation     0.1441,   after     0.0019
 Leave Link  502 at Sat May 21 19:11:08 2022, MaxMem=   104857600 cpu:               3.8 elap:               3.8
 (Enter /apps/software/g16/l601.exe)
 Copying SCF densities to generalized density rwf, IOpCl= 1 IROHF=0.
 SCF density gives NOpUse=  1 NOpAll=  4.
 Marking SCF density as not fully symmetric.

 **********************************************************************

            Population analysis using the SCF density.

 **********************************************************************

 Orbital symmetries:
 Alpha Orbitals:
       Occupied  (SG) (?A) (?A)
       Virtual   (?A) (?A) (?A) (?A) (?A) (?A) (SG) (SG) (?B) (?B)
                 (?B) (?B) (SG) (?C) (?C) (?C) (?C) (?C) (?C) (SG)
                 (?D) (?D) (?D) (?D) (?D) (?D) (?D) (?D) (?D) (PI)
                 (PI) (SG) (SG) (DLTA) (DLTA) (PI) (PI) (PI) (PI)
                 (SG) (?E) (?E) (?E) (SG) (?F) (?F) (?F) (?F) (?F)
                 (?F) (?F) (?F) (?F) (?F) (?F) (?F) (?F) (?F) (?F)
                 (?F) (?F) (?F) (?G) (?G) (?G) (SG) (PHI) (PHI)
                 (DLTA) (DLTA) (SG) (PI) (PI) (SG) (DLTA) (DLTA)
                 (PI) (PI) (PI) (PI) (SG) (SG) (PI) (PI) (SG) (?H)
                 (?H) (?H) (?H) (?H) (?H) (?H) (?H) (?H) (?H) (?H)
                 (PI) (PI) (?I) (?I) (?I) (?I) (PI) (PI) (SG) (SG)
                 (PHI) (PHI) (DLTA) (DLTA) (PI) (PI) (SG) (SG)
                 (PI) (PI) (SG) (DLTA) (DLTA) (PI) (PI) (SG) (SG)
 Beta  Orbitals:
       Occupied  (SG) (?A) (?A)
       Virtual   (?A) (?A) (?A) (?A) (?A) (?A) (SG) (SG) (?B) (?B)
                 (?B) (?B) (SG) (?C) (?C) (?C) (?C) (?C) (?C) (SG)
                 (?D) (?D) (?D) (?D) (?D) (?D) (?D) (?D) (?D) (PI)
                 (PI) (SG) (SG) (DLTA) (DLTA) (PI) (PI) (PI) (PI)
                 (SG) (?E) (?E) (?E) (SG) (?F) (?F) (?F) (?F) (?F)
                 (?F) (?F) (?F) (?F) (?F) (?F) (?F) (?F) (?F) (?F)
                 (?F) (?F) (?F) (?G) (?G) (?G) (SG) (PHI) (PHI)
                 (DLTA) (DLTA) (SG) (PI) (PI) (SG) (DLTA) (DLTA)
                 (PI) (PI) (PI) (PI) (SG) (SG) (PI) (PI) (SG) (?H)
                 (?H) (?H) (?H) (?H) (?H) (?H) (?H) (?H) (?H) (?H)
                 (PI) (PI) (?I) (?I) (?I) (?I) (PI) (PI) (SG) (SG)
                 (PHI) (PHI) (DLTA) (DLTA) (PI) (PI) (SG) (SG)
                 (PI) (PI) (SG) (DLTA) (DLTA) (PI) (PI) (SG) (SG)
 Unable to determine electronic state:  an orbital has unidentified symmetry.
 Alpha  occ. eigenvalues --   -7.86751  -0.60373  -0.25928
 Alpha virt. eigenvalues --   -0.05023  -0.02964  -0.02184   0.02954   0.04835
 Alpha virt. eigenvalues --    0.04907   0.06892   0.08929   0.12759   0.12760
 Alpha virt. eigenvalues --    0.13364   0.13399   0.16427   0.24753   0.24830
 Alpha virt. eigenvalues --    0.26802   0.27150   0.27387   0.29900   0.34067
 Alpha virt. eigenvalues --    0.42885   0.42885   0.43507   0.43507   0.44894
 Alpha virt. eigenvalues --    0.44902   0.45489   0.45530   0.46010   0.48212
 Alpha virt. eigenvalues --    0.48282   0.50205   0.58978   0.69824   0.69824
 Alpha virt. eigenvalues --    0.78870   0.78898   0.88001   0.88007   0.89899
 Alpha virt. eigenvalues --    0.93519   0.96071   0.96185   1.03944   1.30792
 Alpha virt. eigenvalues --    1.31262   1.31262   1.31981   1.31987   1.32242
 Alpha virt. eigenvalues --    1.32242   1.32588   1.32592   1.33166   1.33256
 Alpha virt. eigenvalues --    1.33661   1.33708   1.33904   1.36718   1.36718
 Alpha virt. eigenvalues --    1.38206   1.38207   1.41714   1.43556   1.43729
 Alpha virt. eigenvalues --    1.61458   1.63941   1.63941   1.67190   1.67190
 Alpha virt. eigenvalues --    1.77313   1.80484   1.80521   1.92628   2.55835
 Alpha virt. eigenvalues --    2.55835   2.63360   2.63367   2.68942   2.68945
 Alpha virt. eigenvalues --    2.76299   2.81233   3.60284   3.60443   3.66977
 Alpha virt. eigenvalues --    3.82269   3.82269   3.83085   3.83085   3.83340
 Alpha virt. eigenvalues --    3.83341   3.84413   3.84603   3.84662   3.84669
 Alpha virt. eigenvalues --    3.85858   3.90571   3.90789   3.97360   3.97360
 Alpha virt. eigenvalues --    3.98876   3.98879   4.01718   4.01929   4.05849
 Alpha virt. eigenvalues --    4.09083   6.64797   6.64797   6.65570   6.65570
 Alpha virt. eigenvalues --    6.69117   6.69119   6.73362   7.57690   8.04608
 Alpha virt. eigenvalues --    8.04610   8.13334   8.49031   8.49031   8.54018
 Alpha virt. eigenvalues --    8.54019   8.64142  12.94950
  Beta  occ. eigenvalues --   -7.86751  -0.60373  -0.25928
  Beta virt. eigenvalues --   -0.05023  -0.02964  -0.02184   0.02954   0.04835
  Beta virt. eigenvalues --    0.04907   0.06892   0.08929   0.12759   0.12760
  Beta virt. eigenvalues --    0.13364   0.13399   0.16427   0.24753   0.24830
  Beta virt. eigenvalues --    0.26802   0.27150   0.27387   0.29900   0.34067
  Beta virt. eigenvalues --    0.42885   0.42885   0.43507   0.43507   0.44894
  Beta virt. eigenvalues --    0.44902   0.45489   0.45530   0.46010   0.48212
  Beta virt. eigenvalues --    0.48282   0.50205   0.58978   0.69824   0.69824
  Beta virt. eigenvalues --    0.78870   0.78898   0.88001   0.88007   0.89899
  Beta virt. eigenvalues --    0.93519   0.96071   0.96185   1.03944   1.30792
  Beta virt. eigenvalues --    1.31262   1.31262   1.31981   1.31987   1.32242
  Beta virt. eigenvalues --    1.32242   1.32588   1.32592   1.33166   1.33256
  Beta virt. eigenvalues --    1.33661   1.33708   1.33904   1.36718   1.36718
  Beta virt. eigenvalues --    1.38206   1.38207   1.41714   1.43556   1.43729
  Beta virt. eigenvalues --    1.61458   1.63941   1.63941   1.67190   1.67190
  Beta virt. eigenvalues --    1.77313   1.80484   1.80521   1.92628   2.55835
  Beta virt. eigenvalues --    2.55835   2.63360   2.63367   2.68942   2.68945
  Beta virt. eigenvalues --    2.76299   2.81233   3.60284   3.60443   3.66977
  Beta virt. eigenvalues --    3.82269   3.82269   3.83085   3.83085   3.83340
  Beta virt. eigenvalues --    3.83341   3.84413   3.84603   3.84662   3.84669
  Beta virt. eigenvalues --    3.85858   3.90571   3.90789   3.97360   3.97360
  Beta virt. eigenvalues --    3.98876   3.98879   4.01718   4.01929   4.05849
  Beta virt. eigenvalues --    4.09083   6.64797   6.64797   6.65570   6.65570
  Beta virt. eigenvalues --    6.69117   6.69119   6.73362   7.57690   8.04608
  Beta virt. eigenvalues --    8.04610   8.13334   8.49031   8.49031   8.54018
  Beta virt. eigenvalues --    8.54019   8.64142  12.94950
          Condensed to atoms (all electrons):
               1          2
     1  B    4.485806   0.175107
     2  H    0.175107   1.163981
          Atomic-Atomic Spin Densities.
               1          2
     1  B    0.000000   0.000000
     2  H    0.000000   0.000000
 Mulliken charges and spin densities:
               1          2
     1  B    0.339088   0.000000
     2  H   -0.339088   0.000000
 Sum of Mulliken charges =  -0.00000   0.00000
 Mulliken charges and spin densities with hydrogens summed into heavy atoms:
               1          2
     1  B   -0.000000   0.000000
 Electronic spatial extent (au):  <R**2>=             64.1061
 Charge=             -0.0000 electrons
 Dipole moment (field-independent basis, Debye):
    X=              0.0000    Y=              0.0000    Z=              6.3105  Tot=              6.3105
 Quadrupole moment (field-independent basis, Debye-Ang):
   XX=             -9.0645   YY=             -8.7975   ZZ=            -22.0920
   XY=              0.0000   XZ=              0.0000   YZ=              0.0000
 Traceless Quadrupole moment (field-independent basis, Debye-Ang):
   XX=              4.2535   YY=              4.5205   ZZ=             -8.7740
   XY=              0.0000   XZ=              0.0000   YZ=              0.0000
 Octapole moment (field-independent basis, Debye-Ang**2):
  XXX=              0.0000  YYY=             -0.0000  ZZZ=             45.3214  XYY=              0.0000
  XXY=              0.0000  XXZ=              6.9134  XZZ=              0.0000  YZZ=              0.0000
  YYZ=              7.0926  XYZ=              0.0000
 Hexadecapole moment (field-independent basis, Debye-Ang**3):
 XXXX=            -18.6490 YYYY=            -17.7749 ZZZZ=           -249.8787 XXXY=              0.0000
 XXXZ=              0.0000 YYYX=              0.0000 YYYZ=              0.0000 ZZZX=              0.0000
 ZZZY=              0.0000 XXYY=             -6.0708 XXZZ=            -34.0088 YYZZ=            -33.7356
 XXYZ=             -0.0000 YYXZ=              0.0000 ZZXY=              0.0000
 N-N= 7.782017807647D-01 E-N=-5.870467206275D+01  KE= 2.474747824038D+01
 Symmetry A1   KE= 2.468962546756D+01
 Symmetry A2   KE= 8.395522900315D-30
 Symmetry B1   KE= 5.785277282398D-02
 Symmetry B2   KE= 7.902591977147D-29
 Symmetry A1   SP= 0.000000000000D+00
 Symmetry A2   SP= 0.000000000000D+00
 Symmetry B1   SP= 0.000000000000D+00
 Symmetry B2   SP= 0.000000000000D+00
                          Isotropic Fermi Contact Couplings
        Atom                 a.u.       MegaHertz       Gauss      10(-4) cm-1
     1  B(11)              0.00000       0.00000       0.00000       0.00000
     2  H(1)               0.00000       0.00000       0.00000       0.00000
 --------------------------------------------------------
       Center         ----  Spin Dipole Couplings  ----
                      3XX-RR        3YY-RR        3ZZ-RR
 --------------------------------------------------------
     1   Atom        0.000000      0.000000      0.000000
     2   Atom        0.000000      0.000000      0.000000
 --------------------------------------------------------
                        XY            XZ            YZ
 --------------------------------------------------------
     1   Atom       -0.000000     -0.137798      0.000000
     2   Atom       -0.000000      0.001146      0.000000
 --------------------------------------------------------


 ---------------------------------------------------------------------------------
              Anisotropic Spin Dipole Couplings in Principal Axis System
 ---------------------------------------------------------------------------------

       Atom             a.u.   MegaHertz   Gauss  10(-4) cm-1        Axes

              Baa    -0.1378   -23.593    -8.419    -7.870  0.7071  0.0000  0.7071
     1 B(11)  Bbb    -0.0000    -0.000    -0.000    -0.000  0.0000  1.0000 -0.0000
              Bcc     0.1378    23.593     8.419     7.870  0.7071 -0.0000 -0.7071
 
              Baa    -0.0011    -0.611    -0.218    -0.204  0.7071  0.0000 -0.7071
     2 H(1)   Bbb    -0.0000    -0.000    -0.000    -0.000 -0.0000  1.0000  0.0000
              Bcc     0.0011     0.611     0.218     0.204  0.7071 -0.0000  0.7071
 

 ---------------------------------------------------------------------------------

 No NMR shielding tensors so no spin-rotation constants.
 Leave Link  601 at Sat May 21 19:11:08 2022, MaxMem=   104857600 cpu:               0.2 elap:               0.2
 (Enter /apps/software/g16/l801.exe)
 Range of M.O.s used for correlation:     1   126
 NBasis=   126 NAE=     3 NBE=     3 NFC=     0 NFV=     0
 NROrb=    126 NOA=     3 NOB=     3 NVA=   123 NVB=   123
 Leave Link  801 at Sat May 21 19:11:09 2022, MaxMem=   104857600 cpu:               0.0 elap:               0.0
 (Enter /apps/software/g16/l914.exe)
 UHF ground state
 Doing stability rather than CIS.
 Keep R1 and R2 ints in memory in symmetry-blocked form, NReq=40144005.
 FoFCou: FMM=F IPFlag=           0 FMFlag=           0 FMFlg1=           0
         NFxFlg=           0 DoJE=F BraDBF=F KetDBF=F FulRan=T
         wScrn=  0.000000 ICntrl=       600 IOpCl=  0 I1Cent=           0 NGrid=           0
         NMat0=    1 NMatS0=   8001 NMatT0=    0 NMatD0=    1 NMtDS0=    0 NMtDT0=    0
 Petite list used in FoFCou.
 MDV=   104857600 DFT=F DoStab=T Mixed=F DoRPA=F DoScal=F NonHer=F
 Making orbital integer symmetry assigments:
 Orbital symmetries:
 Alpha Orbitals:
       Occupied  (SG) (?A) (?A)
       Virtual   (?A) (?A) (?A) (?A) (?A) (?A) (SG) (SG) (?B) (?B)
                 (?B) (?B) (SG) (?C) (?C) (?C) (?C) (?C) (?C) (SG)
                 (?D) (?D) (?D) (?D) (?D) (?D) (?D) (?D) (?D) (PI)
                 (PI) (SG) (SG) (DLTA) (DLTA) (PI) (PI) (PI) (PI)
                 (SG) (?E) (?E) (?E) (SG) (?F) (?F) (?F) (?F) (?F)
                 (?F) (?F) (?F) (?F) (?F) (?F) (?F) (?F) (?F) (?F)
                 (?F) (?F) (?F) (?G) (?G) (?G) (SG) (PHI) (PHI)
                 (DLTA) (DLTA) (SG) (PI) (PI) (SG) (DLTA) (DLTA)
                 (PI) (PI) (PI) (PI) (SG) (SG) (PI) (PI) (SG) (?H)
                 (?H) (?H) (?H) (?H) (?H) (?H) (?H) (?H) (?H) (?H)
                 (PI) (PI) (?I) (?I) (?I) (?I) (PI) (PI) (SG) (SG)
                 (PHI) (PHI) (DLTA) (DLTA) (PI) (PI) (SG) (SG)
                 (PI) (PI) (SG) (DLTA) (DLTA) (PI) (PI) (SG) (SG)
 Beta  Orbitals:
       Occupied  (SG) (?A) (?A)
       Virtual   (?A) (?A) (?A) (?A) (?A) (?A) (SG) (SG) (?B) (?B)
                 (?B) (?B) (SG) (?C) (?C) (?C) (?C) (?C) (?C) (SG)
                 (?D) (?D) (?D) (?D) (?D) (?D) (?D) (?D) (?D) (PI)
                 (PI) (SG) (SG) (DLTA) (DLTA) (PI) (PI) (PI) (PI)
                 (SG) (?E) (?E) (?E) (SG) (?F) (?F) (?F) (?F) (?F)
                 (?F) (?F) (?F) (?F) (?F) (?F) (?F) (?F) (?F) (?F)
                 (?F) (?F) (?F) (?G) (?G) (?G) (SG) (PHI) (PHI)
                 (DLTA) (DLTA) (SG) (PI) (PI) (SG) (DLTA) (DLTA)
                 (PI) (PI) (PI) (PI) (SG) (SG) (PI) (PI) (SG) (?H)
                 (?H) (?H) (?H) (?H) (?H) (?H) (?H) (?H) (?H) (?H)
                 (PI) (PI) (?I) (?I) (?I) (?I) (PI) (PI) (SG) (SG)
                 (PHI) (PHI) (DLTA) (DLTA) (PI) (PI) (SG) (SG)
                 (PI) (PI) (SG) (DLTA) (DLTA) (PI) (PI) (SG) (SG)
    12 initial guesses have been made.
 Convergence on wavefunction:    0.001000000000000
 Davidson Disk Diagonalization:  ConvIn= 1.00D-03 SkipCon=T Conv= 1.00D-03.
 Max sub-space:  1476 roots to seek:    12 dimension of matrix:          738
 Iteration     1 Dimension    12 NMult     0 NNew     12
 CISAX will form    12 AO SS matrices at one time.
 NMat=    12 NSing=    12 JSym2X= 2.
 New state      1 was old state      5
 Excitation Energies [eV] at current iteration:
 Root      1 :    -3.857012418318524
 Root      2 :     0.946814123744248
 Root      3 :     1.277668784852693
 Root      4 :     1.454122858853851
 Root      5 :     1.514169394490560
 Root      6 :     4.817209401189880
 Root      7 :     4.849146030009677
 Root      8 :     5.583671993061575
 Root      9 :     5.626551549307188
 Root     10 :     5.727402121263166
 Root     11 :     5.752268811501177
 Root     12 :     8.305682123465441
 Iteration     2 Dimension    24 NMult    12 NNew     12
 CISAX will form    12 AO SS matrices at one time.
 NMat=    12 NSing=    12 JSym2X= 2.
 Root      1 not converged, maximum delta is    0.091937879545967
 Excitation Energies [eV] at current iteration:
 Root      1 :    -5.591537179072696   Change is   -1.734524760754171
 Root      2 :     0.339292625478066   Change is   -0.607521498266182
 Root      3 :     0.699036772252321   Change is   -0.578632012600372
 Root      4 :     1.028854129936340   Change is   -0.485315264554220
 Root      5 :     1.052881360597596   Change is   -0.401241498256255
 Root      6 :     4.346638287954073   Change is   -0.470571113235807
 Root      7 :     4.444920103865206   Change is   -0.404225926144471
 Root      8 :     5.056867194979469   Change is   -0.526804798082107
 Root      9 :     5.239237675312195   Change is   -0.387313873994994
 Root     10 :     5.277571003733422   Change is   -0.474697807767756
 Root     11 :     5.422089370696701   Change is   -0.305312750566465
 Root     12 :     6.114822533604298   Change is   -2.190859589861144
 Iteration     3 Dimension    27 NMult    24 NNew      3
 CISAX will form     3 AO SS matrices at one time.
 NMat=     3 NSing=     3 JSym2X= 2.
 Root      1 not converged, maximum delta is    0.016807135375966
 Excitation Energies [eV] at current iteration:
 Root      1 :    -5.656127770750574   Change is   -0.064590591677879
 Root      2 :     0.253550256063148   Change is   -0.085742369414918
 Root      3 :     0.641754971095182   Change is   -0.057281801157139
 Iteration     4 Dimension    30 NMult    27 NNew      3
 CISAX will form     3 AO SS matrices at one time.
 NMat=     3 NSing=     3 JSym2X= 2.
 Root      1 not converged, maximum delta is    0.001681634285165
 Excitation Energies [eV] at current iteration:
 Root      1 :    -5.657287459448065   Change is   -0.001159688697490
 Root      2 :     0.029550481576971   Change is   -0.223999774486177
 Root      3 :     0.536534618541819   Change is   -0.105220352553363
 Iteration     5 Dimension    33 NMult    30 NNew      3
 CISAX will form     3 AO SS matrices at one time.
 NMat=     3 NSing=     3 JSym2X= 2.
 Root      1 has converged.
 Excitation Energies [eV] at current iteration:
 Root      1 :    -5.657302562977538   Change is   -0.000015103529473
 Root      2 :     0.002330769123882   Change is   -0.027219712453089
 Root      3 :     0.484813713092509   Change is   -0.051720905449309
 Convergence achieved on expansion vectors.
 ***********************************************************************
 Stability analysis using <AA,BB:AA,BB> singles matrix:
 ***********************************************************************
 1PDM for each excited state written to RWF  633
 Ground to excited state transition densities written to RWF  633

 Eigenvectors of the stability matrix:
 
 Excited state symmetry could not be determined.
 Eigenvector   1:  2.931-?Sym  Eigenvalue=-0.2079020  <S**2>=1.898
      3A ->  4A        0.62881
      3A ->  6A        0.19904
      3A ->  7A       -0.14567
      3A -> 16A       -0.10747
      3B ->  4B       -0.62881
      3B ->  6B        0.19904
      3B ->  7B        0.14567
      3B -> 16B        0.10747
 The wavefunction has an internal instability.
 Leave Link  914 at Sat May 21 19:11:13 2022, MaxMem=   104857600 cpu:               4.0 elap:               4.0
 (Enter /apps/software/g16/l508.exe)
 Keep R1 and R2 ints in memory in symmetry-blocked form, NReq=40144065.
 FoFCou: FMM=F IPFlag=           0 FMFlag=           0 FMFlg1=           0
         NFxFlg=           0 DoJE=F BraDBF=F KetDBF=F FulRan=T
         wScrn=  0.000000 ICntrl=       600 IOpCl=  0 I1Cent=           0 NGrid=           0
         NMat0=    1 NMatS0=   8001 NMatT0=    0 NMatD0=    1 NMtDS0=    0 NMtDT0=    0
 Petite list used in FoFCou.
 Tight linear equation convergence will be used.
 UHF wavefunction.
 Quadratic Convergence SCF Method.
 Line search only if initial step raises energy.
 Perform preliminary linear searches along instability eigenvector.
     ILin= 1 X=0.000D+00 Y=-2.493090953698D+01 DE= 0.00D+00
     ILin= 2 X=1.000D-01 Y=-2.493296996982D+01 DE=-2.06D-03
     ILin= 3 X=1.414D-01 Y=-2.493499345478D+01 DE=-4.08D-03
     ILin= 4 X=2.000D-01 Y=-2.493893082805D+01 DE=-8.02D-03
     ILin= 5 X=2.828D-01 Y=-2.494637580251D+01 DE=-1.55D-02
     ILin= 6 X=4.000D-01 Y=-2.495961410736D+01 DE=-2.87D-02
     ILin= 7 X=5.657D-01 Y=-2.498000061932D+01 DE=-4.91D-02
     ILin= 8 X=8.000D-01 Y=-2.500019578465D+01 DE=-6.93D-02
     ILin= 9 X=1.131D+00 Y=-2.498353799791D+01 DE=-5.26D-02
     An  expanding polynomial of degree  9 produced  0.8824
 Iteration F X= 8.824D-01 EE=-2.500198407121015D+01
     ILin= 1 X=0.000D+00 Y=-2.493090953698D+01 DE= 0.00D+00
     ILin= 2 X=1.000D-01 Y=-2.493296997069D+01 DE=-2.06D-03
     ILin= 3 X=1.414D-01 Y=-2.493499345724D+01 DE=-4.08D-03
 The two search directions are symmetric.
 Iteration B X= 8.824D-01 EE=-2.500198407121015D+01
 Take forward step, X= 8.824D-01 Step= 8.824D-01
 Iteration   1 EE= -25.0019826470449                                    Grad=9.787D-02 Max rot=    2.0735 deg.
 Gradient too large for Newton-Raphson -- use scaled steepest descent instead.
 Alpha Gap=     0.313 HL deriv= 1.16D-01
  Beta Gap=     0.494 HL deriv= 6.15D-02
     ILin= 1 X=0.000D+00 Y=-2.500198264704D+01 DE= 0.00D+00 F= -2.95D-02
     ILin= 2 X=3.000D-01 Y=-2.501017727309D+01 DE=-8.19D-03 F= -2.50D-02
     ILin= 3 X=5.000D-01 Y=-2.501485668194D+01 DE=-1.29D-02 F= -2.18D-02
     ILin= 4 X=7.000D-01 Y=-2.501886630839D+01 DE=-1.69D-02 F= -1.83D-02
     ILin= 5 X=1.100D+00 Y=-2.502474396762D+01 DE=-2.28D-02 F= -1.10D-02
     ILin= 6 X=1.700D+00 Y=-2.502779487947D+01 DE=-2.58D-02 F=  9.56D-04
     Accept linear search using points  5 and  6.
     An  expanding polynomial of degree  6 produced  1.5523
     Minimum is close to point  6 DX= -1.48D-01 DF= -1.35D-04 DXR=  9.52D-02 DFR=  5.23D-03 which will be used.
 Iteration   2 EE= -25.0277948794733     Delta-E=       -0.025812232428 Grad=4.842D-02 Max rot=    0.9306 deg.
 Gradient too large for Newton-Raphson -- use scaled steepest descent instead.
 Alpha Gap=     0.360 HL deriv= 3.92D-02
  Beta Gap=     0.553 HL deriv= 2.94D-02
     ILin= 1 X=0.000D+00 Y=-2.502779487947D+01 DE= 0.00D+00 F= -6.03D-03
     ILin= 2 X=7.000D-01 Y=-2.503095522628D+01 DE=-3.16D-03 F= -2.97D-03
     ILin= 3 X=1.300D+00 Y=-2.503192061425D+01 DE=-4.13D-03 F= -2.29D-04
     Reject lnstep minimum 1.626D+00 FVal=-2.503201793738D+01 Lims=  7.00D-01  1.30D+00
     ILin= 4 X=2.300D+00 Y=-2.502978781071D+01 DE=-1.99D-03 F=  4.53D-03
     An  expanding polynomial of degree  4 produced  1.3501
     Minimum is close to point  3 DX=  5.01D-02 DF= -5.83D-06 DXR=  3.71D-02 DFR=  1.41D-03 which will be used.
 Iteration   3 EE= -25.0319206142473     Delta-E=       -0.004125734774 Grad=1.866D-02 Max rot=    0.3119 deg.
 Gradient too large for Newton-Raphson -- use scaled steepest descent instead.
 Alpha Gap=     0.371 HL deriv= 1.47D-02
  Beta Gap=     0.568 HL deriv= 2.90D-03
     ILin= 1 X=0.000D+00 Y=-2.503192061425D+01 DE= 0.00D+00 F= -8.64D-04
     ILin= 2 X=1.400D+00 Y=-2.503265892108D+01 DE=-7.38D-04 F= -1.88D-04
     ILin= 3 X=2.900D+00 Y=-2.503238620819D+01 DE=-4.66D-04 F=  5.54D-04
     An  expanding polynomial of degree  3 produced  1.7783
 Iteration   4 EE= -25.0326948439006     Delta-E=       -0.000774229653 Grad=1.100D-02 Max rot=    0.2825 deg.
 Gradient too large for Newton-Raphson -- use scaled steepest descent instead.
 Alpha Gap=     0.375 HL deriv= 4.91D-03
  Beta Gap=     0.574 HL deriv= 3.94D-03
     ILin= 1 X=0.000D+00 Y=-2.503269484390D+01 DE= 0.00D+00 F= -2.56D-04
     ILin= 2 X=1.500D+00 Y=-2.503287112183D+01 DE=-1.76D-04 F=  2.13D-05
     Accept linear search using points  1 and  2.
     An  expanding polynomial of degree  2 produced  1.4544
     Minimum is close to point  2 DX= -4.56D-02 DF= -3.21D-07 DXR=  3.13D-02 DFR=  1.82D-03 which will be used.
 Iteration   5 EE= -25.0328711218307     Delta-E=       -0.000176277930 Grad=6.427D-03 Max rot=    0.1519 deg.
 QCNR:  CnvC1=2.72D-09 CnvC2=2.72D-08
 LinEq1:  Iter=  0 NonCon=     1 RMS=2.83D-04 Max=2.94D-03 NDo=     1
 AX will form     1 AO Fock derivatives at one time.
 LinEq1:  Iter=  1 NonCon=     1 RMS=9.82D-05 Max=1.13D-03 NDo=     1
 LinEq1:  Iter=  2 NonCon=     1 RMS=1.50D-05 Max=1.62D-04 NDo=     1
 LinEq1:  Iter=  3 NonCon=     1 RMS=2.52D-06 Max=2.99D-05 NDo=     1
 LinEq1:  Iter=  4 NonCon=     1 RMS=4.08D-07 Max=4.30D-06 NDo=     1
 LinEq1:  Iter=  5 NonCon=     1 RMS=1.35D-07 Max=1.38D-06 NDo=     1
 LinEq1:  Iter=  6 NonCon=     1 RMS=3.35D-08 Max=4.26D-07 NDo=     1
 LinEq1:  Iter=  7 NonCon=     1 RMS=7.01D-09 Max=6.04D-08 NDo=     1
 LinEq1:  Iter=  8 NonCon=     0 RMS=1.04D-09 Max=8.61D-09 NDo=     1
 Linear equations converged to 2.717D-09 2.717D-08 after     8 iterations.
 Angle between quadratic step and gradient=  70.97 degrees.
     ILin= 1 X=0.000D+00 Y=-2.503287112183D+01 DE= 0.00D+00 F= -8.07D-04
     ILin= 2 X=1.000D+00 Y=-2.503324109252D+01 DE=-3.70D-04 F=  1.27D-04
     Accept linear search using points  1 and  2.
     An  expanding polynomial of degree  2 produced  0.8845
 Iteration   6 EE= -25.0332478462009     Delta-E=       -0.000376724370 Grad=8.593D-03 Max rot=    0.3016 deg.
 QCNR:  CnvC1=2.72D-09 CnvC2=2.72D-08
 LinEq1:  Iter=  0 NonCon=     1 RMS=1.79D-04 Max=2.22D-03 NDo=     1
 LinEq1:  Iter=  1 NonCon=     1 RMS=4.26D-05 Max=3.62D-04 NDo=     1
 LinEq1:  Iter=  2 NonCon=     1 RMS=1.14D-05 Max=9.67D-05 NDo=     1
 LinEq1:  Iter=  3 NonCon=     1 RMS=3.24D-06 Max=3.17D-05 NDo=     1
 LinEq1:  Iter=  4 NonCon=     1 RMS=7.35D-07 Max=6.04D-06 NDo=     1
 LinEq1:  Iter=  5 NonCon=     1 RMS=1.19D-07 Max=1.22D-06 NDo=     1
 LinEq1:  Iter=  6 NonCon=     1 RMS=2.67D-08 Max=3.76D-07 NDo=     1
 LinEq1:  Iter=  7 NonCon=     1 RMS=8.46D-09 Max=1.02D-07 NDo=     1
 LinEq1:  Iter=  8 NonCon=     0 RMS=1.69D-09 Max=1.59D-08 NDo=     1
 Linear equations converged to 2.717D-09 2.717D-08 after     8 iterations.
 Angle between quadratic step and gradient=  76.36 degrees.
     ILin= 1 X=0.000D+00 Y=-2.503324784620D+01 DE= 0.00D+00 F= -1.16D-04
     ILin= 2 X=1.000D+00 Y=-2.503330612301D+01 DE=-5.83D-05 F= -1.76D-06
     Reject lnstep minimum 1.016D+00 FVal=-2.503330613692D+01 Lims=  0.00D+00  1.00D+00
     ILin= 3 X=2.000D+00 Y=-2.503325330387D+01 DE=-5.46D-06 F=  1.07D-04
     An  expanding polynomial of degree  3 produced  1.0246
     Minimum is close to point  2 DX=  2.46D-02 DF= -3.35D-08 DXR=  2.40D-02 DFR=  5.75D-04 which will be used.
 Iteration   7 EE= -25.0333061230104     Delta-E=       -0.000058276809 Grad=2.674D-03 Max rot=    0.0850 deg.
 QCNR:  CnvC1=2.72D-09 CnvC2=2.72D-08
 LinEq1:  Iter=  0 NonCon=     1 RMS=2.91D-05 Max=2.67D-04 NDo=     1
 LinEq1:  Iter=  1 NonCon=     1 RMS=8.44D-06 Max=1.04D-04 NDo=     1
 LinEq1:  Iter=  2 NonCon=     1 RMS=2.63D-06 Max=3.96D-05 NDo=     1
 LinEq1:  Iter=  3 NonCon=     1 RMS=6.00D-07 Max=5.09D-06 NDo=     1
 LinEq1:  Iter=  4 NonCon=     1 RMS=1.04D-07 Max=9.95D-07 NDo=     1
 LinEq1:  Iter=  5 NonCon=     1 RMS=2.16D-08 Max=2.91D-07 NDo=     1
 LinEq1:  Iter=  6 NonCon=     1 RMS=3.45D-09 Max=2.30D-08 NDo=     1
 LinEq1:  Iter=  7 NonCon=     0 RMS=6.00D-10 Max=4.74D-09 NDo=     1
 Linear equations converged to 2.717D-09 2.717D-08 after     7 iterations.
 Angle between quadratic step and gradient=  87.81 degrees.
     ILin= 1 X=0.000D+00 Y=-2.503330612301D+01 DE= 0.00D+00 F= -2.88D-05
     ILin= 2 X=1.000D+00 Y=-2.503331509681D+01 DE=-8.97D-06 F=  2.01D-05
     Accept linear search using points  1 and  2.
     An  expanding polynomial of degree  2 produced  0.7104
 Iteration   8 EE= -25.0333177531566     Delta-E=       -0.000011630146 Grad=1.192D-03 Max rot=    0.0197 deg.
 QCNR:  CnvC1=2.72D-09 CnvC2=2.72D-08
 LinEq1:  Iter=  0 NonCon=     1 RMS=2.82D-05 Max=3.31D-04 NDo=     1
 LinEq1:  Iter=  1 NonCon=     1 RMS=3.08D-06 Max=2.25D-05 NDo=     1
 LinEq1:  Iter=  2 NonCon=     1 RMS=9.98D-07 Max=1.28D-05 NDo=     1
 LinEq1:  Iter=  3 NonCon=     1 RMS=2.51D-07 Max=2.25D-06 NDo=     1
 LinEq1:  Iter=  4 NonCon=     1 RMS=6.62D-08 Max=6.45D-07 NDo=     1
 LinEq1:  Iter=  5 NonCon=     1 RMS=1.01D-08 Max=8.99D-08 NDo=     1
 LinEq1:  Iter=  6 NonCon=     0 RMS=2.28D-09 Max=1.68D-08 NDo=     1
 Linear equations converged to 2.717D-09 2.717D-08 after     6 iterations.
 Angle between quadratic step and gradient=  85.65 degrees.
     ILin= 1 X=0.000D+00 Y=-2.503331775316D+01 DE= 0.00D+00 F= -2.99D-06
     ILin= 2 X=1.000D+00 Y=-2.503331918334D+01 DE=-1.43D-06 F=  6.99D-08
     Accept linear search using points  1 and  2.
     An  expanding polynomial of degree  2 produced  0.9758
     Minimum is close to point  2 DX= -2.42D-02 DF= -8.46D-10 DXR=  2.48D-02 DFR=  5.92D-04 which will be used.
 Iteration   9 EE= -25.0333191833356     Delta-E=       -0.000001430179 Grad=6.733D-04 Max rot=    0.0218 deg.
 QCNR:  CnvC1=2.72D-09 CnvC2=2.72D-08
 LinEq1:  Iter=  0 NonCon=     1 RMS=7.95D-06 Max=5.95D-05 NDo=     1
 LinEq1:  Iter=  1 NonCon=     1 RMS=2.73D-06 Max=2.59D-05 NDo=     1
 LinEq1:  Iter=  2 NonCon=     1 RMS=7.40D-07 Max=6.16D-06 NDo=     1
 LinEq1:  Iter=  3 NonCon=     1 RMS=1.39D-07 Max=1.34D-06 NDo=     1
 LinEq1:  Iter=  4 NonCon=     1 RMS=2.54D-08 Max=2.39D-07 NDo=     1
 LinEq1:  Iter=  5 NonCon=     1 RMS=7.79D-09 Max=8.00D-08 NDo=     1
 LinEq1:  Iter=  6 NonCon=     0 RMS=2.07D-09 Max=2.22D-08 NDo=     1
 Linear equations converged to 2.717D-09 2.717D-08 after     6 iterations.
 Angle between quadratic step and gradient=  81.58 degrees.
     ILin= 1 X=0.000D+00 Y=-2.503331918334D+01 DE= 0.00D+00 F= -4.45D-07
     ILin= 2 X=1.000D+00 Y=-2.503331940428D+01 DE=-2.21D-07 F=  3.01D-09
     Accept linear search using points  1 and  2.
     An  expanding polynomial of degree  2 produced  0.9933
     Minimum is close to point  2 DX= -6.73D-03 DF= -1.01D-11 DXR=  6.77D-03 DFR=  4.59D-05 which will be used.
 Iteration  10 EE= -25.0333194042814     Delta-E=       -0.000000220946 Grad=7.399D-05 Max rot=    0.0024 deg.
 QCNR:  CnvC1=7.40D-10 CnvC2=7.40D-09
 LinEq1:  Iter=  0 NonCon=     1 RMS=1.32D-06 Max=1.40D-05 NDo=     1
 LinEq1:  Iter=  1 NonCon=     1 RMS=4.41D-07 Max=5.09D-06 NDo=     1
 LinEq1:  Iter=  2 NonCon=     1 RMS=1.18D-07 Max=9.79D-07 NDo=     1
 LinEq1:  Iter=  3 NonCon=     1 RMS=2.65D-08 Max=2.16D-07 NDo=     1
 LinEq1:  Iter=  4 NonCon=     1 RMS=4.81D-09 Max=3.53D-08 NDo=     1
 LinEq1:  Iter=  5 NonCon=     1 RMS=1.26D-09 Max=1.33D-08 NDo=     1
 LinEq1:  Iter=  6 NonCon=     0 RMS=3.77D-10 Max=3.03D-09 NDo=     1
 Linear equations converged to 7.399D-10 7.399D-09 after     6 iterations.
 Angle between quadratic step and gradient=  82.54 degrees.
     ILin= 1 X=0.000D+00 Y=-2.503331940428D+01 DE= 0.00D+00 F= -1.17D-07
     ILin= 2 X=1.000D+00 Y=-2.503331943116D+01 DE=-2.69D-08
 Iteration  11 EE= -25.0333194311555     Delta-E=       -0.000000026874 Grad=3.542D-04 Max rot=    0.0110 deg.
 QCNR:  CnvC1=2.72D-09 CnvC2=2.72D-08
 LinEq1:  Iter=  0 NonCon=     1 RMS=4.03D-06 Max=3.22D-05 NDo=     1
 LinEq1:  Iter=  1 NonCon=     1 RMS=1.43D-06 Max=1.46D-05 NDo=     1
 LinEq1:  Iter=  2 NonCon=     1 RMS=3.51D-07 Max=2.80D-06 NDo=     1
 LinEq1:  Iter=  3 NonCon=     1 RMS=7.32D-08 Max=8.11D-07 NDo=     1
 LinEq1:  Iter=  4 NonCon=     1 RMS=1.37D-08 Max=1.27D-07 NDo=     1
 LinEq1:  Iter=  5 NonCon=     1 RMS=4.01D-09 Max=3.99D-08 NDo=     1
 LinEq1:  Iter=  6 NonCon=     0 RMS=1.22D-09 Max=1.38D-08 NDo=     1
 Linear equations converged to 2.717D-09 2.717D-08 after     6 iterations.
 Angle between quadratic step and gradient=  81.66 degrees.
     ILin= 1 X=0.000D+00 Y=-2.503331943116D+01 DE= 0.00D+00 F= -1.16D-07
     ILin= 2 X=1.000D+00 Y=-2.503331948915D+01 DE=-5.80D-08 F=  2.85D-10
     Accept linear search using points  1 and  2.
     An  expanding polynomial of degree  2 produced  0.9976
     Minimum is close to point  2 DX= -2.45D-03 DF= -3.48D-13 DXR=  2.45D-03 DFR=  6.00D-06 which will be used.
 Iteration  12 EE= -25.0333194891486     Delta-E=       -0.000000057993 Grad=4.101D-05 Max rot=    0.0014 deg.
 QCNR:  CnvC1=4.10D-10 CnvC2=4.10D-09
 LinEq1:  Iter=  0 NonCon=     1 RMS=6.09D-07 Max=6.91D-06 NDo=     1
 LinEq1:  Iter=  1 NonCon=     1 RMS=2.19D-07 Max=2.68D-06 NDo=     1
 LinEq1:  Iter=  2 NonCon=     1 RMS=5.48D-08 Max=5.16D-07 NDo=     1
 LinEq1:  Iter=  3 NonCon=     1 RMS=1.23D-08 Max=1.28D-07 NDo=     1
 LinEq1:  Iter=  4 NonCon=     1 RMS=2.43D-09 Max=1.86D-08 NDo=     1
 LinEq1:  Iter=  5 NonCon=     1 RMS=5.58D-10 Max=6.04D-09 NDo=     1
 LinEq1:  Iter=  6 NonCon=     0 RMS=1.81D-10 Max=1.33D-09 NDo=     1
 Linear equations converged to 4.101D-10 4.101D-09 after     6 iterations.
 Angle between quadratic step and gradient=  83.65 degrees.
     ILin= 1 X=0.000D+00 Y=-2.503331948915D+01 DE= 0.00D+00 F= -2.94D-08
     ILin= 2 X=1.000D+00 Y=-2.503331949503D+01 DE=-5.88D-09
 Iteration  13 EE= -25.0333194950313     Delta-E=       -0.000000005883 Grad=1.922D-04 Max rot=    0.0049 deg.
 QCNR:  CnvC1=1.92D-09 CnvC2=1.92D-08
 LinEq1:  Iter=  0 NonCon=     1 RMS=2.10D-06 Max=1.55D-05 NDo=     1
 LinEq1:  Iter=  1 NonCon=     1 RMS=7.37D-07 Max=8.15D-06 NDo=     1
 LinEq1:  Iter=  2 NonCon=     1 RMS=1.61D-07 Max=1.21D-06 NDo=     1
 LinEq1:  Iter=  3 NonCon=     1 RMS=3.58D-08 Max=4.48D-07 NDo=     1
 LinEq1:  Iter=  4 NonCon=     1 RMS=7.02D-09 Max=6.06D-08 NDo=     1
 LinEq1:  Iter=  5 NonCon=     1 RMS=1.83D-09 Max=1.96D-08 NDo=     1
 LinEq1:  Iter=  6 NonCon=     0 RMS=5.98D-10 Max=7.58D-09 NDo=     1
 Linear equations converged to 1.922D-09 1.922D-08 after     6 iterations.
 Angle between quadratic step and gradient=  81.76 degrees.
     ILin= 1 X=0.000D+00 Y=-2.503331949503D+01 DE= 0.00D+00 F= -2.99D-08
     ILin= 2 X=1.000D+00 Y=-2.503331951001D+01 DE=-1.50D-08 F= -3.29D-11
     Reject lnstep minimum 1.001D+00 FVal=-2.503331951001D+01 Lims=  0.00D+00  1.00D+00
     ILin= 3 X=2.000D+00 Y=-2.503331949510D+01 DE=-6.83D-11 F=  2.99D-08
     An  expanding polynomial of degree  3 produced  1.0011
     Minimum is close to point  2 DX=  1.14D-03 DF= -2.13D-14 DXR=  1.14D-03 DFR=  1.42D-06 which will be used.
 Iteration  14 EE= -25.0333195100126     Delta-E=       -0.000000014981 Grad=1.721D-05 Max rot=    0.0005 deg.
 QCNR:  CnvC1=1.72D-10 CnvC2=1.72D-09
 LinEq1:  Iter=  0 NonCon=     1 RMS=2.38D-07 Max=3.02D-06 NDo=     1
 LinEq1:  Iter=  1 NonCon=     1 RMS=8.58D-08 Max=1.07D-06 NDo=     1
 LinEq1:  Iter=  2 NonCon=     1 RMS=2.09D-08 Max=1.86D-07 NDo=     1
 LinEq1:  Iter=  3 NonCon=     1 RMS=4.28D-09 Max=4.82D-08 NDo=     1
 LinEq1:  Iter=  4 NonCon=     1 RMS=9.30D-10 Max=6.71D-09 NDo=     1
 LinEq1:  Iter=  5 NonCon=     1 RMS=1.97D-10 Max=2.11D-09 NDo=     1
 LinEq1:  Iter=  6 NonCon=     0 RMS=6.47D-11 Max=5.80D-10 NDo=     1
 Linear equations converged to 1.721D-10 1.721D-09 after     6 iterations.
 Angle between quadratic step and gradient=  83.62 degrees.
     ILin= 1 X=0.000D+00 Y=-2.503331951001D+01 DE= 0.00D+00 F= -6.08D-09
     ILin= 2 X=1.000D+00 Y=-2.503331951138D+01 DE=-1.37D-09
 Iteration  15 EE= -25.0333195113804     Delta-E=       -0.000000001368 Grad=9.179D-05 Max rot=    0.0032 deg.
 QCNR:  CnvC1=9.18D-10 CnvC2=9.18D-09
 LinEq1:  Iter=  0 NonCon=     1 RMS=9.13D-07 Max=8.18D-06 NDo=     1
 LinEq1:  Iter=  1 NonCon=     1 RMS=3.18D-07 Max=3.59D-06 NDo=     1
 LinEq1:  Iter=  2 NonCon=     1 RMS=6.51D-08 Max=5.42D-07 NDo=     1
 LinEq1:  Iter=  3 NonCon=     1 RMS=1.53D-08 Max=1.84D-07 NDo=     1
 LinEq1:  Iter=  4 NonCon=     1 RMS=2.91D-09 Max=2.69D-08 NDo=     1
 LinEq1:  Iter=  5 NonCon=     0 RMS=7.29D-10 Max=7.88D-09 NDo=     1
 Linear equations converged to 9.179D-10 9.179D-09 after     5 iterations.
 Angle between quadratic step and gradient=  81.82 degrees.
     ILin= 1 X=0.000D+00 Y=-2.503331951138D+01 DE= 0.00D+00 F= -5.74D-09
     ILin= 2 X=1.000D+00 Y=-2.503331951412D+01 DE=-2.74D-09
 Iteration  16 EE= -25.0333195141239     Delta-E=       -0.000000002743 Grad=1.764D-05 Max rot=    0.0008 deg.
 QCNR:  CnvC1=1.76D-10 CnvC2=1.76D-09
 LinEq1:  Iter=  0 NonCon=     1 RMS=1.14D-07 Max=1.23D-06 NDo=     1
 LinEq1:  Iter=  1 NonCon=     1 RMS=4.59D-08 Max=6.40D-07 NDo=     1
 LinEq1:  Iter=  2 NonCon=     1 RMS=1.04D-08 Max=9.98D-08 NDo=     1
 LinEq1:  Iter=  3 NonCon=     1 RMS=1.67D-09 Max=1.33D-08 NDo=     1
 LinEq1:  Iter=  4 NonCon=     1 RMS=2.94D-10 Max=3.37D-09 NDo=     1
 LinEq1:  Iter=  5 NonCon=     0 RMS=1.01D-10 Max=9.13D-10 NDo=     1
 Linear equations converged to 1.764D-10 1.764D-09 after     5 iterations.
 Angle between quadratic step and gradient=  87.36 degrees.
     ILin= 1 X=0.000D+00 Y=-2.503331951412D+01 DE= 0.00D+00 F= -8.22D-10
     ILin= 2 X=1.000D+00 Y=-2.503331951435D+01 DE=-2.23D-10
 Iteration  17 EE= -25.0333195143470     Delta-E=       -0.000000000223 Grad=2.874D-05 Max rot=    0.0012 deg.
 QCNR:  CnvC1=2.87D-10 CnvC2=2.87D-09
 LinEq1:  Iter=  0 NonCon=     1 RMS=2.65D-07 Max=2.39D-06 NDo=     1
 LinEq1:  Iter=  1 NonCon=     1 RMS=1.04D-07 Max=1.19D-06 NDo=     1
 LinEq1:  Iter=  2 NonCon=     1 RMS=1.71D-08 Max=1.51D-07 NDo=     1
 LinEq1:  Iter=  3 NonCon=     1 RMS=3.10D-09 Max=3.27D-08 NDo=     1
 LinEq1:  Iter=  4 NonCon=     1 RMS=6.23D-10 Max=7.64D-09 NDo=     1
 LinEq1:  Iter=  5 NonCon=     1 RMS=2.60D-10 Max=3.08D-09 NDo=     1
 LinEq1:  Iter=  6 NonCon=     0 RMS=2.88D-11 Max=3.05D-10 NDo=     1
 Linear equations converged to 2.874D-10 2.874D-09 after     6 iterations.
 Angle between quadratic step and gradient=  84.72 degrees.
     ILin= 1 X=0.000D+00 Y=-2.503331951435D+01 DE= 0.00D+00 F= -6.46D-10
     ILin= 2 X=1.000D+00 Y=-2.503331951466D+01 DE=-3.15D-10
 Iteration  18 EE= -25.0333195146622     Delta-E=       -0.000000000315 Grad=9.577D-06 Max rot=    0.0004 deg.
 QCNR:  CnvC1=9.58D-11 CnvC2=9.58D-10
 LinEq1:  Iter=  0 NonCon=     1 RMS=1.85D-07 Max=1.96D-06 NDo=     1
 LinEq1:  Iter=  1 NonCon=     1 RMS=2.91D-08 Max=2.43D-07 NDo=     1
 LinEq1:  Iter=  2 NonCon=     1 RMS=9.23D-09 Max=1.18D-07 NDo=     1
 LinEq1:  Iter=  3 NonCon=     1 RMS=2.57D-09 Max=2.48D-08 NDo=     1
 LinEq1:  Iter=  4 NonCon=     1 RMS=6.41D-10 Max=6.73D-09 NDo=     1
 LinEq1:  Iter=  5 NonCon=     1 RMS=9.63D-11 Max=1.11D-09 NDo=     1
 LinEq1:  Iter=  6 NonCon=     0 RMS=2.14D-11 Max=1.97D-10 NDo=     1
 Linear equations converged to 9.577D-11 9.577D-10 after     6 iterations.
 Angle between quadratic step and gradient=  87.75 degrees.
     ILin= 1 X=0.000D+00 Y=-2.503331951466D+01 DE= 0.00D+00 F= -2.03D-10
     ILin= 2 X=1.000D+00 Y=-2.503331951475D+01 DE=-8.56D-11
 Iteration  19 EE= -25.0333195147479     Delta-E=       -0.000000000086 Grad=1.507D-05 Max rot=    0.0007 deg.
 QCNR:  CnvC1=1.51D-10 CnvC2=1.51D-09
 LinEq1:  Iter=  0 NonCon=     1 RMS=1.21D-07 Max=1.11D-06 NDo=     1
 LinEq1:  Iter=  1 NonCon=     1 RMS=3.23D-08 Max=3.46D-07 NDo=     1
 LinEq1:  Iter=  2 NonCon=     1 RMS=7.37D-09 Max=6.94D-08 NDo=     1
 LinEq1:  Iter=  3 NonCon=     1 RMS=1.86D-09 Max=1.88D-08 NDo=     1
 LinEq1:  Iter=  4 NonCon=     1 RMS=4.29D-10 Max=4.14D-09 NDo=     1
 LinEq1:  Iter=  5 NonCon=     0 RMS=1.03D-10 Max=8.76D-10 NDo=     1
 Linear equations converged to 1.507D-10 1.507D-09 after     5 iterations.
 Angle between quadratic step and gradient=  79.09 degrees.
     ILin= 1 X=0.000D+00 Y=-2.503331951475D+01 DE= 0.00D+00 F= -7.41D-11
     ILin= 2 X=1.000D+00 Y=-2.503331951478D+01 DE=-3.52D-11
 Iteration  20 EE= -25.0333195147830     Delta-E=       -0.000000000035 Grad=2.057D-06 Max rot=    0.0001 deg.
 QCNR:  CnvC1=2.06D-11 CnvC2=2.06D-10
 LinEq1:  Iter=  0 NonCon=     1 RMS=1.45D-08 Max=1.24D-07 NDo=     1
 LinEq1:  Iter=  1 NonCon=     1 RMS=4.70D-09 Max=5.43D-08 NDo=     1
 LinEq1:  Iter=  2 NonCon=     1 RMS=1.28D-09 Max=1.50D-08 NDo=     1
 LinEq1:  Iter=  3 NonCon=     1 RMS=3.50D-10 Max=2.99D-09 NDo=     1
 LinEq1:  Iter=  4 NonCon=     1 RMS=5.88D-11 Max=6.05D-10 NDo=     1
 LinEq1:  Iter=  5 NonCon=     0 RMS=1.30D-11 Max=1.40D-10 NDo=     1
 Linear equations converged to 2.057D-11 2.057D-10 after     5 iterations.
 Angle between quadratic step and gradient=  87.95 degrees.
     ILin= 1 X=0.000D+00 Y=-2.503331951478D+01 DE= 0.00D+00 F= -7.17D-12
     ILin= 2 X=1.000D+00 Y=-2.503331951478D+01 DE=-1.74D-13
 Iteration  21 EE= -25.0333195147832     Delta-E=       -0.000000000000 Grad=5.184D-06 Max rot=    0.0002 deg.
 QCNR:  CnvC1=5.18D-11 CnvC2=5.18D-10
 LinEq1:  Iter=  0 NonCon=     1 RMS=3.67D-08 Max=3.96D-07 NDo=     1
 LinEq1:  Iter=  1 NonCon=     1 RMS=9.93D-09 Max=1.21D-07 NDo=     1
 LinEq1:  Iter=  2 NonCon=     1 RMS=2.12D-09 Max=2.04D-08 NDo=     1
 LinEq1:  Iter=  3 NonCon=     1 RMS=6.18D-10 Max=6.01D-09 NDo=     1
 LinEq1:  Iter=  4 NonCon=     1 RMS=1.26D-10 Max=1.25D-09 NDo=     1
 LinEq1:  Iter=  5 NonCon=     0 RMS=3.56D-11 Max=3.01D-10 NDo=     1
 Linear equations converged to 5.184D-11 5.184D-10 after     5 iterations.
 Angle between quadratic step and gradient=  78.27 degrees.
     ILin= 1 X=0.000D+00 Y=-2.503331951478D+01 DE= 0.00D+00 F= -7.83D-12
     ILin= 2 X=1.000D+00 Y=-2.503331951479D+01 DE=-3.77D-12
 Iteration  22 EE= -25.0333195147870     Delta-E=       -0.000000000004 Grad=6.920D-07 Max rot=    0.0000 deg.
 QCNR:  CnvC1=6.92D-12 CnvC2=6.92D-11
 LinEq1:  Iter=  0 NonCon=     1 RMS=4.81D-09 Max=4.07D-08 NDo=     1
 LinEq1:  Iter=  1 NonCon=     1 RMS=1.53D-09 Max=1.71D-08 NDo=     1
 LinEq1:  Iter=  2 NonCon=     1 RMS=4.27D-10 Max=5.04D-09 NDo=     1
 LinEq1:  Iter=  3 NonCon=     1 RMS=1.17D-10 Max=1.04D-09 NDo=     1
 LinEq1:  Iter=  4 NonCon=     1 RMS=1.88D-11 Max=2.48D-10 NDo=     1
 LinEq1:  Iter=  5 NonCon=     0 RMS=4.53D-12 Max=4.78D-11 NDo=     1
 Linear equations converged to 6.920D-12 6.920D-11 after     5 iterations.
 Angle between quadratic step and gradient=  88.01 degrees.
     ILin= 1 X=0.000D+00 Y=-2.503331951479D+01 DE= 0.00D+00 F= -7.36D-13
     ILin= 2 X=1.000D+00 Y=-2.503331951479D+01 DE=-3.91D-14
 Iteration  23 EE= -25.0333195147870     Delta-E=       -0.000000000000 Grad=1.740D-06 Max rot=    0.0001 deg.
 QCNR:  CnvC1=1.74D-11 CnvC2=1.74D-10
 LinEq1:  Iter=  0 NonCon=     1 RMS=1.26D-08 Max=1.33D-07 NDo=     1
 LinEq1:  Iter=  1 NonCon=     1 RMS=3.30D-09 Max=4.39D-08 NDo=     1
 LinEq1:  Iter=  2 NonCon=     1 RMS=5.73D-10 Max=4.69D-09 NDo=     1
 LinEq1:  Iter=  3 NonCon=     1 RMS=1.70D-10 Max=1.52D-09 NDo=     1
 LinEq1:  Iter=  4 NonCon=     1 RMS=4.32D-11 Max=4.21D-10 NDo=     1
 LinEq1:  Iter=  5 NonCon=     0 RMS=1.24D-11 Max=1.02D-10 NDo=     1
 Linear equations converged to 1.740D-11 1.740D-10 after     5 iterations.
 Angle between quadratic step and gradient=  73.30 degrees.
     ILin= 1 X=0.000D+00 Y=-2.503331951479D+01 DE= 0.00D+00 F= -8.61D-13
     ILin= 2 X=1.000D+00 Y=-2.503331951479D+01 DE=-4.33D-13
 Iteration  24 EE= -25.0333195147875     Delta-E=       -0.000000000000 Grad=2.295D-07 Max rot=    0.0000 deg.
 Rotation gradient small -- convergence achieved.
 Orbital symmetries in SymMO:
    1=1    2=1    3=1    4=4    5=3    6=1    7=1    8=4    9=3   10=1
   11=1   12=3   13=4   14=2   15=1   16=1   17=3   18=4   19=1   20=4
   21=3   22=1   23=1   24=2   25=1   26=4   27=3   28=3   29=4   30=1
   31=2   32=1   33=3   34=4   35=1   36=1   37=2   38=1   39=3   40=4
   41=4   42=3   43=1   44=1   45=4   46=3   47=1   48=3   49=4   50=1
   51=1   52=2   53=2   54=1   55=3   56=4   57=1   58=3   59=4   60=1
   61=2   62=4   63=3   64=2   65=1   66=1   67=3   68=4   69=4   70=3
   71=2   72=1   73=1   74=1   75=3   76=4   77=1   78=1   79=2   80=4
   81=3   82=4   83=3   84=1   85=1   86=3   87=4   88=1   89=1   90=2
   91=4   92=3   93=2   94=1   95=2   96=1   97=3   98=4   99=1  100=3
  101=4  102=4  103=3  104=2  105=1  106=3  107=4  108=1  109=1  110=3
  111=4  112=1  113=2  114=4  115=3  116=1  117=1  118=4  119=3  120=1
  121=1  122=2  123=4  124=3  125=1  126=1
 Orbital symmetries in SymMO:
    1=1    2=1    3=1    4=4    5=3    6=1    7=1    8=1    9=3   10=4
   11=1   12=4   13=3   14=1   15=2   16=1   17=3   18=4   19=1   20=3
   21=4   22=1   23=1   24=1   25=4   26=3   27=1   28=2   29=4   30=3
   31=2   32=1   33=1   34=3   35=4   36=1   37=2   38=1   39=4   40=3
   41=3   42=4   43=1   44=1   45=3   46=4   47=1   48=3   49=4   50=1
   51=2   52=2   53=1   54=1   55=3   56=4   57=2   58=1   59=1   60=3
   61=4   62=3   63=4   64=2   65=1   66=1   67=3   68=4   69=4   70=3
   71=2   72=1   73=1   74=1   75=3   76=4   77=1   78=1   79=2   80=4
   81=3   82=4   83=3   84=1   85=1   86=3   87=4   88=1   89=1   90=2
   91=3   92=4   93=2   94=1   95=2   96=1   97=3   98=4   99=1  100=3
  101=4  102=4  103=3  104=2  105=1  106=3  107=4  108=1  109=1  110=4
  111=3  112=1  113=2  114=4  115=3  116=1  117=1  118=4  119=3  120=1
  121=1  122=2  123=4  124=3  125=1  126=1
 SCF Done:  E(UHF) =  -25.0333195148     a.u. after   24 cycles
            Convg  =    0.2295D-06                   158 Fock formations.
              S**2 =  0.9943                  -V/T =  2.0002
 <Sx>= 0.0000 <Sy>= 0.0000 <Sz>= 0.0000 <S**2>= 0.9943 S= 0.6155
 <L.S>=  0.00000000000    
 Annihilation of the first spin contaminant:
 S**2 before annihilation     0.9943,   after     0.0853
 Leave Link  508 at Sat May 21 19:11:19 2022, MaxMem=   104857600 cpu:               6.7 elap:               6.7
 (Enter /apps/software/g16/l801.exe)
 Range of M.O.s used for correlation:     1   126
 NBasis=   126 NAE=     3 NBE=     3 NFC=     0 NFV=     0
 NROrb=    126 NOA=     3 NOB=     3 NVA=   123 NVB=   123
 Leave Link  801 at Sat May 21 19:11:19 2022, MaxMem=   104857600 cpu:               0.0 elap:               0.0
 (Enter /apps/software/g16/l914.exe)
 UHF ground state
 Doing stability rather than CIS.
 Keep R1 and R2 ints in memory in symmetry-blocked form, NReq=40144005.
 FoFCou: FMM=F IPFlag=           0 FMFlag=           0 FMFlg1=           0
         NFxFlg=           0 DoJE=F BraDBF=F KetDBF=F FulRan=T
         wScrn=  0.000000 ICntrl=       600 IOpCl=  0 I1Cent=           0 NGrid=           0
         NMat0=    1 NMatS0=   8001 NMatT0=    0 NMatD0=    1 NMtDS0=    0 NMtDT0=    0
 Petite list used in FoFCou.
 MDV=   104857600 DFT=F DoStab=T Mixed=F DoRPA=F DoScal=F NonHer=F
 Making orbital integer symmetry assigments:
 Orbital symmetries:
 Alpha Orbitals:
       Occupied  (SG) (SG) (SG)
       Virtual   (PI) (PI) (SG) (SG) (PI) (PI) (SG) (SG) (PI) (PI)
                 (DLTA) (DLTA) (SG) (PI) (PI) (SG) (PI) (PI) (SG)
                 (SG) (DLTA) (DLTA) (PHI) (PHI) (PI) (PI) (SG)
                 (DLTA) (DLTA) (PI) (PI) (SG) (SG) (DLTA) (DLTA)
                 (PI) (PI) (PI) (PI) (SG) (SG) (PI) (PI) (SG) (PI)
                 (PI) (SG) (?A) (?A) (DLTA) (DLTA) (PHI) (PHI)
                 (SG) (PI) (PI) (DLTA) (DLTA) (PHI) (PHI) (DLTA)
                 (DLTA) (SG) (PI) (PI) (PHI) (PHI) (DLTA) (DLTA)
                 (SG) (SG) (PI) (PI) (SG) (DLTA) (DLTA) (PI) (PI)
                 (PI) (PI) (SG) (SG) (PI) (PI) (SG) (?A) (?A) (PHI)
                 (PHI) (DLTA) (DLTA) (DLTA) (DLTA) (PI) (PI) (SG)
                 (PI) (PI) (PHI) (PHI) (DLTA) (DLTA) (PI) (PI)
                 (SG) (SG) (PHI) (PHI) (DLTA) (DLTA) (PI) (PI)
                 (SG) (SG) (PI) (PI) (SG) (DLTA) (DLTA) (PI) (PI)
                 (SG) (SG)
 Beta  Orbitals:
       Occupied  (SG) (SG) (SG)
       Virtual   (PI) (PI) (SG) (SG) (SG) (PI) (PI) (SG) (PI) (PI)
                 (DLTA) (DLTA) (SG) (PI) (PI) (SG) (PI) (PI) (SG)
                 (SG) (SG) (PHI) (PHI) (DLTA) (DLTA) (PI) (PI)
                 (DLTA) (DLTA) (SG) (PI) (PI) (SG) (DLTA) (DLTA)
                 (PI) (PI) (PI) (PI) (SG) (SG) (PI) (PI) (SG) (PI)
                 (PI) (?A) (?A) (DLTA) (DLTA) (SG) (PHI) (PHI)
                 (DLTA) (DLTA) (SG) (PHI) (PHI) (PI) (PI) (DLTA)
                 (DLTA) (SG) (PI) (PI) (PHI) (PHI) (DLTA) (DLTA)
                 (SG) (SG) (PI) (PI) (SG) (DLTA) (DLTA) (PI) (PI)
                 (PI) (PI) (SG) (SG) (PI) (PI) (SG) (?A) (?A) (PHI)
                 (PHI) (DLTA) (DLTA) (DLTA) (DLTA) (PI) (PI) (SG)
                 (PI) (PI) (PHI) (PHI) (DLTA) (DLTA) (PI) (PI)
                 (SG) (SG) (PHI) (PHI) (DLTA) (DLTA) (PI) (PI)
                 (SG) (SG) (PI) (PI) (SG) (DLTA) (DLTA) (PI) (PI)
                 (SG) (SG)
    12 initial guesses have been made.
 Convergence on wavefunction:    0.001000000000000
 Davidson Disk Diagonalization:  ConvIn= 1.00D-03 SkipCon=T Conv= 1.00D-03.
 Max sub-space:  1476 roots to seek:    12 dimension of matrix:          738
 Iteration     1 Dimension    12 NMult     0 NNew     12
 CISAX will form    12 AO SS matrices at one time.
 NMat=    12 NSing=    12 JSym2X= 2.
 New state      1 was old state      2
 Excitation Energies [eV] at current iteration:
 Root      1 :     0.501262581900067
 Root      2 :     0.547950987147248
 Root      3 :     1.256459550774521
 Root      4 :     1.256478889943245
 Root      5 :     5.190801655535145
 Root      6 :     6.057684731874518
 Root      7 :     6.577676355262293
 Root      8 :     7.085262309373888
 Root      9 :    11.550568392388852
 Root     10 :    11.550571049465910
 Root     11 :    11.878389482297013
 Root     12 :    11.878392981305185
 Iteration     2 Dimension    24 NMult    12 NNew     12
 CISAX will form    12 AO SS matrices at one time.
 NMat=    12 NSing=    12 JSym2X= 2.
 Root      1 not converged, maximum delta is    0.060683777991498
 Excitation Energies [eV] at current iteration:
 Root      1 :     0.025432216465617   Change is   -0.475830365434450
 Root      2 :     0.028191756571735   Change is   -0.519759230575513
 Root      3 :     0.824268766845503   Change is   -0.432190783929018
 Root      4 :     0.824276545383575   Change is   -0.432202344559670
 Root      5 :     4.662729848576088   Change is   -0.528071806959056
 Root      6 :     5.291873782514118   Change is   -0.765810949360400
 Root      7 :     6.043966216181140   Change is   -1.041296093192748
 Root      8 :     6.500493650661773   Change is   -0.077182704600520
 Root      9 :     8.447854951721924   Change is   -3.102713440666928
 Root     10 :     8.448115103459680   Change is   -3.102455946006232
 Root     11 :    10.385188121258437   Change is   -1.493204860046747
 Root     12 :    10.390104260377338   Change is   -1.488285221919674
 Iteration     3 Dimension    27 NMult    24 NNew      3
 CISAX will form     3 AO SS matrices at one time.
 NMat=     3 NSing=     3 JSym2X= 2.
 Root      1 not converged, maximum delta is    0.005212737426309
 Excitation Energies [eV] at current iteration:
 Root      1 :     0.019556887961923   Change is   -0.005875328503694
 Root      2 :     0.019610002224270   Change is   -0.008581754347465
 Root      3 :     0.811893673177811   Change is   -0.012375093667692
 Iteration     4 Dimension    30 NMult    27 NNew      3
 CISAX will form     3 AO SS matrices at one time.
 NMat=     3 NSing=     3 JSym2X= 2.
 Root      1 has converged.
 Excitation Energies [eV] at current iteration:
 Root      1 :     0.019494811426545   Change is   -0.000062076535378
 Root      2 :     0.019495618316188   Change is   -0.000114383908082
 Root      3 :     0.811733230228026   Change is   -0.000160442949785
 Convergence achieved on expansion vectors.
 ***********************************************************************
 Stability analysis using <AA,BB:AA,BB> singles matrix:
 ***********************************************************************
 1PDM for each excited state written to RWF  633
 Ground to excited state transition densities written to RWF  633

 Eigenvectors of the stability matrix:
 
 Excited state symmetry could not be determined.
 Eigenvector   1:  2.274-?Sym  Eigenvalue= 0.0007164  <S**2>=1.043
      3A ->  5A       -0.69095
      3A ->  9A        0.64799
      3A -> 21A        0.28207
 The wavefunction is stable under the perturbations considered.
 Leave Link  914 at Sat May 21 19:11:23 2022, MaxMem=   104857600 cpu:               3.9 elap:               3.9
 (Enter /apps/software/g16/l508.exe)
 The wavefunction is already stable.
 Leave Link  508 at Sat May 21 19:11:23 2022, MaxMem=   104857600 cpu:               0.0 elap:               0.0
 (Enter /apps/software/g16/l601.exe)
 Copying SCF densities to generalized density rwf, IOpCl= 1 IROHF=0.

 **********************************************************************

            Population analysis using the SCF density.

 **********************************************************************

 Orbital symmetries:
 Alpha Orbitals:
       Occupied  (SG) (SG) (SG)
       Virtual   (PI) (PI) (SG) (SG) (PI) (PI) (SG) (SG) (PI) (PI)
                 (DLTA) (DLTA) (SG) (PI) (PI) (SG) (PI) (PI) (SG)
                 (SG) (DLTA) (DLTA) (PHI) (PHI) (PI) (PI) (SG)
                 (DLTA) (DLTA) (PI) (PI) (SG) (SG) (DLTA) (DLTA)
                 (PI) (PI) (PI) (PI) (SG) (SG) (PI) (PI) (SG) (PI)
                 (PI) (SG) (?A) (?A) (DLTA) (DLTA) (PHI) (PHI)
                 (SG) (PI) (PI) (DLTA) (DLTA) (PHI) (PHI) (DLTA)
                 (DLTA) (SG) (PI) (PI) (PHI) (PHI) (DLTA) (DLTA)
                 (SG) (SG) (PI) (PI) (SG) (DLTA) (DLTA) (PI) (PI)
                 (PI) (PI) (SG) (SG) (PI) (PI) (SG) (?A) (?A) (PHI)
                 (PHI) (DLTA) (DLTA) (DLTA) (DLTA) (PI) (PI) (SG)
                 (PI) (PI) (PHI) (PHI) (DLTA) (DLTA) (PI) (PI)
                 (SG) (SG) (PHI) (PHI) (DLTA) (DLTA) (PI) (PI)
                 (SG) (SG) (PI) (PI) (SG) (DLTA) (DLTA) (PI) (PI)
                 (SG) (SG)
 Beta  Orbitals:
       Occupied  (SG) (SG) (SG)
       Virtual   (PI) (PI) (SG) (SG) (SG) (PI) (PI) (SG) (PI) (PI)
                 (DLTA) (DLTA) (SG) (PI) (PI) (SG) (PI) (PI) (SG)
                 (SG) (SG) (PHI) (PHI) (DLTA) (DLTA) (PI) (PI)
                 (DLTA) (DLTA) (SG) (PI) (PI) (SG) (DLTA) (DLTA)
                 (PI) (PI) (PI) (PI) (SG) (SG) (PI) (PI) (SG) (PI)
                 (PI) (?A) (?A) (DLTA) (DLTA) (SG) (PHI) (PHI)
                 (DLTA) (DLTA) (SG) (PHI) (PHI) (PI) (PI) (DLTA)
                 (DLTA) (SG) (PI) (PI) (PHI) (PHI) (DLTA) (DLTA)
                 (SG) (SG) (PI) (PI) (SG) (DLTA) (DLTA) (PI) (PI)
                 (PI) (PI) (SG) (SG) (PI) (PI) (SG) (?A) (?A) (PHI)
                 (PHI) (DLTA) (DLTA) (DLTA) (DLTA) (PI) (PI) (SG)
                 (PI) (PI) (PHI) (PHI) (DLTA) (DLTA) (PI) (PI)
                 (SG) (SG) (PHI) (PHI) (DLTA) (DLTA) (PI) (PI)
                 (SG) (SG) (PI) (PI) (SG) (DLTA) (DLTA) (PI) (PI)
                 (SG) (SG)
 The electronic state is 1-SG.
 Alpha  occ. eigenvalues --   -7.70382  -0.54643  -0.31941
 Alpha virt. eigenvalues --    0.02300   0.02300   0.02414   0.04810   0.07649
 Alpha virt. eigenvalues --    0.07649   0.08132   0.10669   0.14437   0.14437
 Alpha virt. eigenvalues --    0.14529   0.14529   0.18800   0.24079   0.24079
 Alpha virt. eigenvalues --    0.26103   0.31253   0.31253   0.32321   0.36075
 Alpha virt. eigenvalues --    0.46012   0.46012   0.46126   0.46126   0.47557
 Alpha virt. eigenvalues --    0.47557   0.48883   0.49968   0.49968   0.50954
 Alpha virt. eigenvalues --    0.50954   0.52175   0.58674   0.65687   0.65687
 Alpha virt. eigenvalues --    0.76490   0.76490   0.85345   0.85345   0.89616
 Alpha virt. eigenvalues --    0.93968   1.05059   1.05059   1.06483   1.35924
 Alpha virt. eigenvalues --    1.35924   1.36803   1.36908   1.36908   1.37181
 Alpha virt. eigenvalues --    1.37181   1.37769   1.37769   1.39418   1.40368
 Alpha virt. eigenvalues --    1.40368   1.40915   1.40915   1.43760   1.43760
 Alpha virt. eigenvalues --    1.44670   1.44670   1.47470   1.49827   1.49827
 Alpha virt. eigenvalues --    1.58057   1.58057   1.62396   1.62396   1.65680
 Alpha virt. eigenvalues --    1.76866   1.77611   1.77611   1.90696   2.50701
 Alpha virt. eigenvalues --    2.50701   2.58561   2.58561   2.65744   2.65744
 Alpha virt. eigenvalues --    2.72604   2.78295   3.73654   3.73654   3.78717
 Alpha virt. eigenvalues --    3.91823   3.91823   3.93334   3.93334   3.94899
 Alpha virt. eigenvalues --    3.94899   3.95459   3.95459   3.96162   3.96162
 Alpha virt. eigenvalues --    3.96974   4.01302   4.01302   4.08450   4.08450
 Alpha virt. eigenvalues --    4.10149   4.10149   4.13180   4.13180   4.17165
 Alpha virt. eigenvalues --    4.19793   6.58973   6.58973   6.59745   6.59745
 Alpha virt. eigenvalues --    6.63308   6.63308   6.67581   7.55859   8.01188
 Alpha virt. eigenvalues --    8.01188   8.09972   8.44510   8.44510   8.49529
 Alpha virt. eigenvalues --    8.49529   8.59680  13.10266
  Beta  occ. eigenvalues --   -7.68903  -0.49130  -0.44662
  Beta virt. eigenvalues --    0.02654   0.02654   0.04109   0.05451   0.08179
  Beta virt. eigenvalues --    0.08335   0.08335   0.11472   0.14358   0.14358
  Beta virt. eigenvalues --    0.14532   0.14532   0.18616   0.22551   0.22551
  Beta virt. eigenvalues --    0.26591   0.32024   0.32024   0.35650   0.36022
  Beta virt. eigenvalues --    0.45123   0.46119   0.46119   0.46298   0.46298
  Beta virt. eigenvalues --    0.48944   0.48944   0.50077   0.50077   0.52482
  Beta virt. eigenvalues --    0.52868   0.52868   0.58942   0.64484   0.64484
  Beta virt. eigenvalues --    0.74219   0.74219   0.80260   0.80260   0.84514
  Beta virt. eigenvalues --    0.94148   1.05954   1.05954   1.12855   1.36553
  Beta virt. eigenvalues --    1.36553   1.36880   1.36880   1.37793   1.37793
  Beta virt. eigenvalues --    1.37901   1.38276   1.38276   1.41465   1.41465
  Beta virt. eigenvalues --    1.43700   1.43815   1.43815   1.45144   1.45144
  Beta virt. eigenvalues --    1.46198   1.46198   1.50543   1.52194   1.52194
  Beta virt. eigenvalues --    1.56822   1.56822   1.61446   1.61446   1.65841
  Beta virt. eigenvalues --    1.68660   1.77049   1.77049   1.89909   2.46796
  Beta virt. eigenvalues --    2.46796   2.54363   2.54363   2.58876   2.58876
  Beta virt. eigenvalues --    2.67245   2.74000   3.74341   3.74341   3.83243
  Beta virt. eigenvalues --    3.91886   3.91886   3.94409   3.94409   3.95933
  Beta virt. eigenvalues --    3.95933   3.96769   3.96769   3.99728   3.99728
  Beta virt. eigenvalues --    4.00749   4.03590   4.03590   4.08706   4.08706
  Beta virt. eigenvalues --    4.12263   4.12263   4.16431   4.16431   4.21003
  Beta virt. eigenvalues --    4.22840   6.56101   6.56101   6.56884   6.56884
  Beta virt. eigenvalues --    6.60478   6.60478   6.64767   7.47834   7.95433
  Beta virt. eigenvalues --    7.95433   8.04334   8.40308   8.40308   8.45365
  Beta virt. eigenvalues --    8.45365   8.55575  13.11373
          Condensed to atoms (all electrons):
               1          2
     1  B    4.995071  -0.000195
     2  H   -0.000195   1.005319
          Atomic-Atomic Spin Densities.
               1          2
     1  B    0.993234   0.005460
     2  H    0.005460  -1.004153
 Mulliken charges and spin densities:
               1          2
     1  B    0.005124   0.998693
     2  H   -0.005124  -0.998693
 Sum of Mulliken charges =   0.00000  -0.00000
 Mulliken charges and spin densities with hydrogens summed into heavy atoms:
               1          2
     1  B    0.000000  -0.000000
 Electronic spatial extent (au):  <R**2>=             53.4493
 Charge=             -0.0000 electrons
 Dipole moment (field-independent basis, Debye):
    X=              0.0000    Y=              0.0000    Z=              0.1144  Tot=              0.1144
 Quadrupole moment (field-independent basis, Debye-Ang):
   XX=             -7.3127   YY=             -7.3127   ZZ=            -10.9948
   XY=              0.0000   XZ=              0.0000   YZ=              0.0000
 Traceless Quadrupole moment (field-independent basis, Debye-Ang):
   XX=              1.2274   YY=              1.2274   ZZ=             -2.4547
   XY=              0.0000   XZ=              0.0000   YZ=              0.0000
 Octapole moment (field-independent basis, Debye-Ang**2):
  XXX=              0.0000  YYY=              0.0000  ZZZ=             -2.8996  XYY=              0.0000
  XXY=              0.0000  XXZ=              0.5247  XZZ=              0.0000  YZZ=              0.0000
  YYZ=              0.5247  XYZ=              0.0000
 Hexadecapole moment (field-independent basis, Debye-Ang**3):
 XXXX=            -10.7457 YYYY=            -10.7457 ZZZZ=           -109.3023 XXXY=              0.0000
 XXXZ=              0.0000 YYYX=              0.0000 YYYZ=              0.0000 ZZZX=              0.0000
 ZZZY=              0.0000 XXYY=             -3.5819 XXZZ=            -18.2827 YYZZ=            -18.2827
 XXYZ=              0.0000 YYXZ=              0.0000 ZZXY=              0.0000
 N-N= 7.782017807647D-01 E-N=-5.945562610886D+01  KE= 2.502918818760D+01
 Symmetry A1   KE= 2.502918818760D+01
 Symmetry A2   KE= 0.000000000000D+00
 Symmetry B1   KE= 0.000000000000D+00
 Symmetry B2   KE= 0.000000000000D+00
 Symmetry A1   SP=-1.335361959493D-15
 Symmetry A2   SP= 0.000000000000D+00
 Symmetry B1   SP= 0.000000000000D+00
 Symmetry B2   SP= 0.000000000000D+00
                          Isotropic Fermi Contact Couplings
        Atom                 a.u.       MegaHertz       Gauss      10(-4) cm-1
     1  B(11)             -0.00521      -3.73886      -1.33412      -1.24715
     2  H(1)              -0.29718    -664.18472    -236.99762    -221.54817
 --------------------------------------------------------
       Center         ----  Spin Dipole Couplings  ----
                      3XX-RR        3YY-RR        3ZZ-RR
 --------------------------------------------------------
     1   Atom       -0.324966     -0.324966      0.649932
     2   Atom       -0.005707     -0.005707      0.011413
 --------------------------------------------------------
                        XY            XZ            YZ
 --------------------------------------------------------
     1   Atom        0.000000      0.000000      0.000000
     2   Atom        0.000000      0.000000      0.000000
 --------------------------------------------------------


 ---------------------------------------------------------------------------------
              Anisotropic Spin Dipole Couplings in Principal Axis System
 ---------------------------------------------------------------------------------

       Atom             a.u.   MegaHertz   Gauss  10(-4) cm-1        Axes

              Baa    -0.3250   -55.639   -19.853   -18.559  1.0000  0.0000  0.0000
     1 B(11)  Bbb    -0.3250   -55.639   -19.853   -18.559 -0.0000  1.0000  0.0000
              Bcc     0.6499   111.278    39.707    37.118  0.0000  0.0000  1.0000
 
              Baa    -0.0057    -3.045    -1.086    -1.016  1.0000  0.0000  0.0000
     2 H(1)   Bbb    -0.0057    -3.045    -1.086    -1.016 -0.0000  1.0000  0.0000
              Bcc     0.0114     6.090     2.173     2.031  0.0000  0.0000  1.0000
 

 ---------------------------------------------------------------------------------

 No NMR shielding tensors so no spin-rotation constants.
 Leave Link  601 at Sat May 21 19:11:24 2022, MaxMem=   104857600 cpu:               0.3 elap:               0.2
 (Enter /apps/software/g16/l9999.exe)
 1\1\GINC-CNODE03\Stability\UHF\Aug-CC-pVQZ\B1H1\LCZ\21-May-2022\0\\#p 
 UHF/aug-cc-pVQZ guess=mix stable=opt\\BH UHF at 3.4 Angstrom\\0,1\B,0,
 0.,0.,0.\H,0,3.4,0.,0.\\Version=ES64L-G16RevA.03\State=1-SG\HF=-25.033
 3195\S2=0.994281\S2-1=0.\S2A=0.08528\RMSD=8.447e-09\Dipole=-0.044996,0
 .,0.\Quadrupole=-1.825028,0.912514,0.912514,0.,0.,0.\PG=C*V [C*(H1B1)]
 \\@


 I am not a vegetarian because I love animals;
 I am a vegetarian because I hate plants.
                               -- A. Whitney Brown
 Job cpu time:       0 days  0 hours  0 minutes 19.7 seconds.
 Elapsed time:       0 days  0 hours  0 minutes 19.7 seconds.
 File lengths (MBytes):  RWF=     29 Int=      0 D2E=      0 Chk=      4 Scr=      1
 Normal termination of Gaussian 16 at Sat May 21 19:11:24 2022.

Sender: Unischeduler System <lcz@mgt01>
Subject: Job 133632: <#!/bin/bash
#BSUB -J intel
#BSUB -o BH-3.4-G.out
#BSUB -n 8
#BSUB -q cqueue
#BSUB -R span[hosts=1]
export g16root=/apps/software
source /apps/software/g16/bsd/g16.profile
export GAUSS_SCRDIR=/scratch
/apps/software/g16/g16 < BH-3.4-G.inp > BH-3.4-G.out> Done

Job <#!/bin/bash
#BSUB -J intel
#BSUB -o BH-3.4-G.out
#BSUB -n 8
#BSUB -q cqueue
#BSUB -R span[hosts=1]
export g16root=/apps/software
source /apps/software/g16/bsd/g16.profile
export GAUSS_SCRDIR=/scratch
/apps/software/g16/g16 < BH-3.4-G.inp > BH-3.4-G.out> was submitted from host <mgt01> by user <lcz>.
Job was executed on host(s) <8*cnode03>, in queue <cqueue>, as user <lcz>.
</apps/users/lcz> was used as the home directory.
</apps/users/lcz/exe13/UHF> was used as the working directory.
Started at 2022-05-21 19:11:04
Results reported at 2022-05-21 19:11:24

Your job looked like:

------------------------------------------------------------
# User input
#!/bin/bash
#BSUB -J intel
#BSUB -o BH-3.4-G.out
#BSUB -n 8
#BSUB -q cqueue
#BSUB -R span[hosts=1]
export g16root=/apps/software
source /apps/software/g16/bsd/g16.profile
export GAUSS_SCRDIR=/scratch
/apps/software/g16/g16 < BH-3.4-G.inp > BH-3.4-G.out
------------------------------------------------------------

Successfully completed.

Resource usage summary:

    CPU time   :           14.71 sec.
    Max Memory :               482 MB
    Max Processes  :               5


The output (if any) follows:

