
                                        *****************
                                        * O   R   C   A *
                                        *****************

                                            #,                                       
                                            ###                                      
                                            ####                                     
                                            #####                                    
                                            ######                                   
                                           ########,                                 
                                     ,,################,,,,,                         
                               ,,#################################,,                 
                          ,,##########################################,,             
                       ,#########################################, ''#####,          
                    ,#############################################,,   '####,        
                  ,##################################################,,,,####,       
                ,###########''''           ''''###############################       
              ,#####''   ,,,,##########,,,,          '''####'''          '####       
            ,##' ,,,,###########################,,,                        '##       
           ' ,,###''''                  '''############,,,                           
         ,,##''                                '''############,,,,        ,,,,,,###''
      ,#''                                            '''#######################'''  
     '                                                          ''''####''''         
             ,#######,   #######,   ,#######,      ##                                
            ,#'     '#,  ##    ##  ,#'     '#,    #''#        ######   ,####,        
            ##       ##  ##   ,#'  ##            #'  '#       #        #'  '#        
            ##       ##  #######   ##           ,######,      #####,   #    #        
            '#,     ,#'  ##    ##  '#,     ,#' ,#      #,         ##   #,  ,#        
             '#######'   ##     ##  '#######'  #'      '#     #####' # '####'        



                  #######################################################
                  #                        -***-                        #
                  #          Department of theory and spectroscopy      #
                  #    Directorship and core code : Frank Neese         #
                  #        Max Planck Institute fuer Kohlenforschung    #
                  #                Kaiser Wilhelm Platz 1               #
                  #                 D-45470 Muelheim/Ruhr               #
                  #                      Germany                        #
                  #                                                     #
                  #                  All rights reserved                #
                  #                        -***-                        #
                  #######################################################


                         Program Version 5.0.0 -  RELEASE  -
                                (SVN: $Rev: 19529$)
                ($Date: 2021-06-28 11:36:33 +0200 (Mo, 28 Jun 2021) $)


 With contributions from (in alphabetic order):
   Daniel Aravena         : Magnetic Suceptibility
   Michael Atanasov       : Ab Initio Ligand Field Theory (pilot matlab implementation)
   Alexander A. Auer      : GIAO ZORA, VPT2 properties, NMR spectrum
   Ute Becker             : Parallelization
   Giovanni Bistoni       : ED, misc. LED, open-shell LED, HFLD
   Martin Brehm           : Molecular dynamics
   Dmytro Bykov           : SCF Hessian
   Vijay G. Chilkuri      : MRCI spin determinant printing, contributions to CSF-ICE
   Dipayan Datta          : RHF DLPNO-CCSD density
   Achintya Kumar Dutta   : EOM-CC, STEOM-CC
   Dmitry Ganyushin       : Spin-Orbit,Spin-Spin,Magnetic field MRCI
   Miquel Garcia          : C-PCM Hessian, Gaussian charge scheme
   Yang Guo               : DLPNO-NEVPT2, F12-NEVPT2, CIM, IAO-localization
   Andreas Hansen         : Spin unrestricted coupled pair/coupled cluster methods
   Benjamin Helmich-Paris : MC-RPA, TRAH-SCF, COSX integrals
   Lee Huntington         : MR-EOM, pCC
   Robert Izsak           : Overlap fitted RIJCOSX, COSX-SCS-MP3, EOM
   Marcus Kettner         : VPT2
   Christian Kollmar      : KDIIS, OOCD, Brueckner-CCSD(T), CCSD density, CASPT2, CASPT2-K
   Simone Kossmann        : Meta GGA functionals, TD-DFT gradient, OOMP2, MP2 Hessian
   Martin Krupicka        : Initial AUTO-CI
   Lucas Lang             : DCDCAS
   Marvin Lechner         : AUTO-CI (C++ implementation), FIC-MRCC
   Dagmar Lenk            : GEPOL surface, SMD
   Dimitrios Liakos       : Extrapolation schemes; Compound Job, initial MDCI parallelization
   Dimitrios Manganas     : Further ROCIS development; embedding schemes
   Dimitrios Pantazis     : SARC Basis sets
   Anastasios Papadopoulos: AUTO-CI, single reference methods and gradients
   Taras Petrenko         : DFT Hessian,TD-DFT gradient, ASA, ECA, R-Raman, ABS, FL, XAS/XES, NRVS
   Peter Pinski           : DLPNO-MP2, DLPNO-MP2 Gradient
   Christoph Reimann      : Effective Core Potentials
   Marius Retegan         : Local ZFS, SOC
   Christoph Riplinger    : Optimizer, TS searches, QM/MM, DLPNO-CCSD(T), (RO)-DLPNO pert. Triples
   Tobias Risthaus        : Range-separated hybrids, TD-DFT gradient, RPA, STAB
   Michael Roemelt        : Original ROCIS implementation
   Masaaki Saitow         : Open-shell DLPNO-CCSD energy and density
   Barbara Sandhoefer     : DKH picture change effects
   Avijit Sen             : IP-ROCIS
   Kantharuban Sivalingam : CASSCF convergence, NEVPT2, FIC-MRCI
   Bernardo de Souza      : ESD, SOC TD-DFT
   Georgi Stoychev        : AutoAux, RI-MP2 NMR
   Willem Van den Heuvel  : Paramagnetic NMR
   Boris Wezisla          : Elementary symmetry handling
   Frank Wennmohs         : Technical directorship


 We gratefully acknowledge several colleagues who have allowed us to
 interface, adapt or use parts of their codes:
   Stefan Grimme, W. Hujo, H. Kruse, P. Pracht,  : VdW corrections, initial TS optimization,
                  C. Bannwarth, S. Ehlert          DFT functionals, gCP, sTDA/sTD-DF
   Ed Valeev, F. Pavosevic, A. Kumar             : LibInt (2-el integral package), F12 methods
   Garnet Chan, S. Sharma, J. Yang, R. Olivares  : DMRG
   Ulf Ekstrom                                   : XCFun DFT Library
   Mihaly Kallay                                 : mrcc  (arbitrary order and MRCC methods)
   Jiri Pittner, Ondrej Demel                    : Mk-CCSD
   Frank Weinhold                                : gennbo (NPA and NBO analysis)
   Christopher J. Cramer and Donald G. Truhlar   : smd solvation model
   Lars Goerigk                                  : TD-DFT with DH, B97 family of functionals
   V. Asgeirsson, H. Jonsson                     : NEB implementation
   FAccTs GmbH                                   : IRC, NEB, NEB-TS, DLPNO-Multilevel, CI-OPT
                                                   MM, QMMM, 2- and 3-layer-ONIOM, Crystal-QMMM,
                                                   LR-CPCM, SF, NACMEs, symmetry and pop. for TD-DFT,
                                                   nearIR, NL-DFT gradient (VV10), updates on ESD,
                                                   ML-optimized integration grids
   S Lehtola, MJT Oliveira, MAL Marques          : LibXC Library
   Liviu Ungur et al                             : ANISO software


 Your calculation uses the libint2 library for the computation of 2-el integrals
 For citations please refer to: http://libint.valeyev.net

 Your ORCA version has been built with support for libXC version: 5.1.0
 For citations please refer to: https://tddft.org/programs/libxc/

 This ORCA versions uses:
   CBLAS   interface :  Fast vector & matrix operations
   LAPACKE interface :  Fast linear algebra routines
   SCALAPACK package :  Parallel linear algebra routines
   Shared memory     :  Shared parallel matrices
   BLAS/LAPACK       :  OpenBLAS 0.3.15  USE64BITINT DYNAMIC_ARCH NO_AFFINITY SkylakeX SINGLE_THREADED
        Core in use  :  SkylakeX
   Copyright (c) 2011-2014, The OpenBLAS Project


================================================================================

----- Orbital basis set information -----
Your calculation utilizes the basis: aug-cc-pVQZ 
    H, B-Ne : Obtained from the ccRepo (grant-hill.group.shef.ac.uk/ccrepo) Feb. 2017
              R. A. Kendall, T. H. Dunning, Jr., R. J. Harrison, J. Chem. Phys. 96, 6796 (1992)
         He : Obtained from the ccRepo (grant-hill.group.shef.ac.uk/ccrepo) Feb. 2017
              D. E. Woon, T. H. Dunning, Jr., J. Chem. Phys. 100, 2975 (1994)
  Li-Be, Na : Obtained from the ccRepo (grant-hill.group.shef.ac.uk/ccrepo) Feb. 2017
              B. P. Prascher, D. E. Woon, K. A. Peterson, T. H. Dunning, Jr., A. K. Wilson, Theor. Chem. Acc. 128, 69 (2011)
         Mg : Obtained from the Peterson Research Group Website (tyr0.chem.wsu.edu/~kipeters) Feb. 2017
              B. P. Prascher, D. E. Woon, K. A. Peterson, T. H. Dunning, Jr., A. K. Wilson, Theor. Chem. Acc. 128, 69 (2011)
      Al-Ar : Obtained from the ccRepo (grant-hill.group.shef.ac.uk/ccrepo) Feb. 2017
              D. E. Woon, T. H. Dunning, Jr., J. Chem. Phys. 98, 1358 (1993)
      Sc-Zn : Obtained from the ccRepo (grant-hill.group.shef.ac.uk/ccrepo) Feb. 2017
              N. B. Balabanov, K. A. Peterson, J. Chem. Phys. 123, 064107 (2005)
              N. B. Balabanov, K. A. Peterson, J. Chem. Phys. 125, 074110 (2006)
      Ga-Kr : Obtained from the ccRepo (grant-hill.group.shef.ac.uk/ccrepo) Feb. 2017
              A. K. Wilson, D. E. Woon, K. A. Peterson, T. H. Dunning, Jr., J. Chem. Phys. 110, 7667 (1999)

================================================================================
                                        WARNINGS
                       Please study these warnings very carefully!
================================================================================


INFO   : the flag for use of the SHARK integral package has been found!

================================================================================
                                       INPUT FILE
================================================================================
NAME = /scratch/BH-4.6-O_595/BH-4.6-O.inp
|  1> ! UHF aug-cc-pVQZ pal8 VeryTightSCF UseSym
|  2> 
|  3> %scf
|  4> 	STABPerform	True
|  5> 	STABRestartUHFifUnstable	True
|  6> end
|  7> 
|  8> *xyz 0 1
|  9>  B	0.0	0.0	0.0
| 10>  H	4.6	0.0	0.0
| 11> **                         ****END OF INPUT****
================================================================================

------------------------------------------------------------------------------
                            SYMMETRY HANDLING SETUP
------------------------------------------------------------------------------

------------------
SYMMETRY DETECTION
------------------
The point group will now be determined using a tolerance of 1.0000e-04.
Splitting atom subsets according to nuclear charge, mass and basis set.
Splitting atom subsets according to distance from the molecule's center.
Identifying relative distance patterns of the atoms.
Splitting atom subsets according to atoms' relative distance patterns.
Bring atoms of each subset into input order.
The molecule is linear.
There is at least one atom subset not centered around the molecule's center.
The molecule does not have a center of inversion.
No further test is needed for point group Cinfv.
This point group has been found:    Cinfv
Largest non-degenerate subgroup:    C2v


Mass-centered symmetry-perfected Cartesians (point groups Cinfv and C2v):

Atom          Symmetry-perfected Cartesians (x, y, z; au)
  0       0.000000000000    0.000000000000   -0.741435279892
  1       0.000000000000    0.000000000000    7.951304936146


-----------------------------------------------
SYMMETRY-PERFECTED CARTESIAN COORDINATES (A.U.)
-----------------------------------------------
Warning (ORCA_SYM): Coordinates were not cleaned so far!

------------------
SYMMETRY REDUCTION
------------------
ORCA supports only abelian point groups.
It is now checked, if the determined point group is supported:
Point Group ( C2v   ) is          ... supported

(Re)building abelian point group:
Creating Character Table          ... done
Making direct product table       ... done
Constructing symmetry operations  ... done
Creating atom transfer table      ... done
Creating asymmetric unit          ... done

----------------------
ASYMMETRIC UNIT IN C2v
----------------------
  #  AT     MASS              COORDS (A.U.)             BAS
   0 B   10.8100   0.00000000   0.00000000  -0.74143528   0
   1 H    1.0080   0.00000000   0.00000000   7.95130494   0

----------------------
SYMMETRY ADAPTED BASIS
----------------------
The coefficients for the symmetry adapted linear combinations (SALCS)
of basis functions will now be computed:
Number of basis functions         ...   126
Preparing memory                  ... done
Constructing Gamma(red)           ... done
Reducing Gamma(red)               ... done
Constructing SALCs                ... done
Checking SALC integrity           ... nothing suspicious
Normalizing SALCs                 ... done

Storing the symmetry object:
Symmetry file                     ... /scratch/BH-4.6-O_595/BH-4.6-O.sym.tmp
Writing symmetry information      ... done

                       ****************************
                       * Single Point Calculation *
                       ****************************

---------------------------------
CARTESIAN COORDINATES (ANGSTROEM)
---------------------------------
  B      0.000000    0.000000   -0.392351
  H      0.000000    0.000000    4.207649

----------------------------
CARTESIAN COORDINATES (A.U.)
----------------------------
  NO LB      ZA    FRAG     MASS         X           Y           Z
   0 B     5.0000    0    10.810    0.000000    0.000000   -0.741435
   1 H     1.0000    0     1.008    0.000000    0.000000    7.951305

--------------------------------
INTERNAL COORDINATES (ANGSTROEM)
--------------------------------
 B      0   0   0     0.000000000000     0.00000000     0.00000000
 H      1   0   0     4.600000000000     0.00000000     0.00000000

---------------------------
INTERNAL COORDINATES (A.U.)
---------------------------
 B      0   0   0     0.000000000000     0.00000000     0.00000000
 H      1   0   0     8.692740216038     0.00000000     0.00000000

---------------------
BASIS SET INFORMATION
---------------------
There are 2 groups of distinct atoms

 Group   1 Type B   : 22s7p4d3f2g contracted to 6s5p4d3f2g pattern {991111/31111/1111/111/11}
 Group   2 Type H   : 7s4p3d2f contracted to 5s4p3d2f pattern {31111/1111/111/11}

Atom   0B    basis set group =>   1
Atom   1H    basis set group =>   2
--------------------------------------------------------------------------
WARNING: There was an error initializing an OpenFabrics device.

  Local host:   cnode06
  Local device: mlx5_0
--------------------------------------------------------------------------


           ************************************************************
           *        Program running with 8 parallel MPI-processes     *
           *              working on a common directory               *
           ************************************************************
------------------------------------------------------------------------------
                           ORCA GTO INTEGRAL CALCULATION
------------------------------------------------------------------------------
------------------------------------------------------------------------------
                   ___                                                        
                  /   \      - P O W E R E D   B Y -                         
                 /     \                                                     
                 |  |  |   _    _      __       _____    __    __             
                 |  |  |  | |  | |    /  \     |  _  \  |  |  /  |          
                  \  \/   | |  | |   /    \    | | | |  |  | /  /          
                 / \  \   | |__| |  /  /\  \   | |_| |  |  |/  /          
                |  |  |   |  __  | /  /__\  \  |    /   |      \           
                |  |  |   | |  | | |   __   |  |    \   |  |\   \          
                \     /   | |  | | |  |  |  |  | |\  \  |  | \   \       
                 \___/    |_|  |_| |__|  |__|  |_| \__\ |__|  \__/        
                                                                              
                      - O R C A' S   B I G   F R I E N D -                    
                                      &                                       
                       - I N T E G R A L  F E E D E R -                       
                                                                              
 v1 FN, 2020, v2 2021                                                         
------------------------------------------------------------------------------


Reading SHARK input file /scratch/BH-4.6-O_595/BH-4.6-O.SHARKINP.tmp ... ok
----------------------
SHARK INTEGRAL PACKAGE
----------------------

Number of atoms                             ...      2
Number of basis functions                   ...    126
Number of shells                            ...     34
Maximum angular momentum                    ...      4
Integral batch strategy                     ... SHARK/LIBINT Hybrid
RI-J (if used) integral strategy            ... SPLIT-RIJ (Revised 2003 algorithm where possible)
Printlevel                                  ...      1
Contraction scheme used                     ... SEGMENTED contraction
Coulomb Range Separation                    ... NOT USED
Exchange Range Separation                   ... NOT USED
Finite Nucleus Model                        ... NOT USED
Auxiliary Coulomb fitting basis             ... NOT available
Auxiliary J/K fitting basis                 ... NOT available
Auxiliary Correlation fitting basis         ... NOT available
Auxiliary 'external' fitting basis          ... NOT available
Integral threshold                          ...     1.000000e-12
Primitive cut-off                           ...     1.000000e-14
Primitive pair pre-selection threshold      ...     1.000000e-14

Calculating pre-screening integrals         ... done (  0.1 sec) Dimension = 34
Organizing shell pair data                  ... done (  0.0 sec)
Shell pair information
Total number of shell pairs                 ...       595
Shell pairs after pre-screening             ...       567
Total number of primitive shell pairs       ...      1563
Primitive shell pairs kept                  ...      1353
          la=0 lb=0:     62 shell pairs
          la=1 lb=0:     93 shell pairs
          la=1 lb=1:     43 shell pairs
          la=2 lb=0:     72 shell pairs
          la=2 lb=1:     61 shell pairs
          la=2 lb=2:     27 shell pairs
          la=3 lb=0:     52 shell pairs
          la=3 lb=1:     43 shell pairs
          la=3 lb=2:     33 shell pairs
          la=3 lb=3:     15 shell pairs
          la=4 lb=0:     21 shell pairs
          la=4 lb=1:     18 shell pairs
          la=4 lb=2:     14 shell pairs
          la=4 lb=3:     10 shell pairs
          la=4 lb=4:      3 shell pairs

Calculating one electron integrals          ... done (  0.0 sec)
Calculating Nuclear repulsion               ... done (  0.0 sec) ENN=      0.575192617717 Eh

SHARK setup successfully completed in   0.1 seconds

Maximum memory used throughout the entire GTOINT-calculation: 28.9 MB
[cnode06:185836] 7 more processes have sent help message help-mpi-btl-openib.txt / error in device init
[cnode06:185836] Set MCA parameter "orte_base_help_aggregate" to 0 to see all help / error messages
--------------------------------------------------------------------------
WARNING: There was an error initializing an OpenFabrics device.

  Local host:   cnode06
  Local device: mlx5_0
--------------------------------------------------------------------------


           ************************************************************
           *        Program running with 8 parallel MPI-processes     *
           *              working on a common directory               *
           ************************************************************
-------------------------------------------------------------------------------
                                 ORCA SCF
-------------------------------------------------------------------------------

------------
SCF SETTINGS
------------
Hamiltonian:
 Ab initio Hamiltonian  Method          .... Hartree-Fock(GTOs)


General Settings:
 Integral files         IntName         .... /scratch/BH-4.6-O_595/BH-4.6-O
 Hartree-Fock type      HFTyp           .... UHF
 Total Charge           Charge          ....    0
 Multiplicity           Mult            ....    1
 Number of Electrons    NEL             ....    6
 Basis Dimension        Dim             ....  126
 Nuclear Repulsion      ENuc            ....      0.5751926177 Eh

 Symmetry handling      UseSym         .... ON
 Point group                           .... C2v
 Used point group                      .... C2v
 Number of irreps                      .... 4
   Irrep   A1 has   50 symmetry adapted basis functions (ofs=   0)
   Irrep   A2 has   16 symmetry adapted basis functions (ofs=  50)
   Irrep   B1 has   30 symmetry adapted basis functions (ofs=  66)
   Irrep   B2 has   30 symmetry adapted basis functions (ofs=  96)

Convergence Acceleration:
 DIIS                   CNVDIIS         .... on
   Start iteration      DIISMaxIt       ....    12
   Startup error        DIISStart       ....  0.200000
   # of expansion vecs  DIISMaxEq       ....     5
   Bias factor          DIISBfac        ....   1.050
   Max. coefficient     DIISMaxC        ....  10.000
 Trust-Rad. Augm. Hess. CNVTRAH         .... auto
   Auto Start mean grad. ratio tolernc. ....  1.125000
   Auto Start start iteration           ....    20
   Auto Start num. interpolation iter.  ....    10
   Max. Number of Micro iterations      ....    16
   Max. Number of Macro iterations      .... Maxiter - #DIIS iter
   Number of Davidson start vectors     ....     2
   Converg. threshold I  (grad. norm)   ....   2.000e-06
   Converg. threshold II (energy diff.) ....   1.000e-09
   Grad. Scal. Fac. for Micro threshold ....   0.100
   Minimum threshold for Micro iter.    ....   0.010
   NR start threshold (gradient norm)   ....   0.001
   Initial trust radius                 ....   0.400
   Minimum AH scaling param. (alpha)    ....   1.000
   Maximum AH scaling param. (alpha)    .... 1000.000
   Orbital update algorithm             .... Taylor
   White noise on init. David. guess    .... on
   Maximum white noise                  ....   0.010
   Quad. conv. algorithm                .... NR
 SOSCF                  CNVSOSCF        .... off
 Level Shifting         CNVShift        .... on
   Level shift para.    LevelShift      ....    0.2500
   Turn off err/grad.   ShiftErr        ....    0.0010
 Zerner damping         CNVZerner       .... off
 Static damping         CNVDamp         .... on
   Fraction old density DampFac         ....    0.7000
   Max. Damping (<1)    DampMax         ....    0.9800
   Min. Damping (>=0)   DampMin         ....    0.0000
   Turn off err/grad.   DampErr         ....    0.1000
 Fernandez-Rico         CNVRico         .... off

SCF Procedure:
 Maximum # iterations   MaxIter         ....   125
 SCF integral mode      SCFMode         .... Direct
   Integral package                     .... SHARK and LIBINT hybrid scheme
 Reset frequency        DirectResetFreq ....    20
 Integral Threshold     Thresh          ....  1.000e-12 Eh
 Primitive CutOff       TCut            ....  1.000e-14 Eh

Convergence Tolerance:
 Convergence Check Mode ConvCheckMode   .... Total+1el-Energy
 Convergence forced     ConvForced      .... 0
 Energy Change          TolE            ....  1.000e-09 Eh
 1-El. energy change                    ....  1.000e-06 Eh
 DIIS Error             TolErr          ....  1.000e-08


Diagonalization of the overlap matrix:
Smallest eigenvalue                        ... 4.877e-03
Time for diagonalization                   ...    0.002 sec
Threshold for overlap eigenvalues          ... 1.000e-08
Number of eigenvalues below threshold      ... 0
Time for construction of square roots      ...    0.002 sec
Producing symmetrization matrix            ... done (   0.000 sec)
Total time needed                          ...    0.004 sec

Time for model grid setup =    0.008 sec

------------------------------
INITIAL GUESS: MODEL POTENTIAL
------------------------------
Loading Hartree-Fock densities                     ... done
Calculating cut-offs                               ... done
Initializing the effective Hamiltonian             ... done
Setting up the integral package (SHARK)            ... done
Starting the Coulomb interaction                   ... done (   0.0 sec)
Reading the grid                                   ... done
Mapping shells                                     ... done
Starting the XC term evaluation                    ... done (   0.0 sec)
done (   0.0 sec)
Diagonalizing the Hamiltonian                      ... done (   0.0 sec)
Back transforming the eigenvectors                 ... done (   0.0 sec)
Now organizing SCF variables                       ... done
The symmetry of the initial guess is 1-A1
Irrep occupations for operator 0
    A1 -    3
    A2 -    0
    B1 -    0
    B2 -    0
Irrep occupations for operator 1
    A1 -    3
    A2 -    0
    B1 -    0
    B2 -    0
                      ------------------
                      INITIAL GUESS DONE (   0.0 sec)
                      ------------------
--------------
SCF ITERATIONS
--------------
ITER       Energy         Delta-E        Max-DP      RMS-DP      [F,P]     Damp
               ***  Starting incremental Fock matrix formation  ***
  0    -24.7673243105   0.000000000000 0.02309847  0.00046901  0.2059086 0.7000
  1    -24.7880679217  -0.020743611120 0.02309242  0.00046288  0.1614978 0.7000
                               ***Turning on DIIS***
  2    -24.8116609214  -0.023592999711 0.02011865  0.00042739  0.1137049 0.7000
  3    -24.7538585573   0.057802364033 0.04844081  0.00110350  0.0706453 0.0000
  4    -24.9206469164  -0.166788359046 0.00935715  0.00017154  0.0209042 0.0000
  5    -24.8989128213   0.021734095079 0.00573951  0.00013401  0.0104315 0.0000
  6    -24.8874693292   0.011443492061 0.00378461  0.00006377  0.0036505 0.0000
  7    -24.8840703257   0.003399003538 0.00155777  0.00003004  0.0012950 0.0000
  8    -24.8840072374   0.000063088355 0.00186482  0.00003358  0.0006890 0.0000
  9    -24.8847438352  -0.000736597842 0.00032994  0.00000663  0.0003198 0.0000
 10    -24.8840938048   0.000650030447 0.00017506  0.00000297  0.0000801 0.0000
 11    -24.8842815628  -0.000187758045 0.00003210  0.00000049  0.0000088 0.0000
 12    -24.8842826673  -0.000001104485 0.00000216  0.00000005  0.0000026 0.0000
 13    -24.8842834414  -0.000000774121 0.00000132  0.00000002  0.0000007 0.0000
 14    -24.8842826273   0.000000814072 0.00000018  0.00000000  0.0000001 0.0000
 15    -24.8842825689   0.000000058399 0.00000009  0.00000000  0.0000000 0.0000
                            ***DIIS convergence achieved***

               *****************************************************
               *                     SUCCESS                       *
               *           SCF CONVERGED AFTER  16 CYCLES          *
               *****************************************************


------------------------------------------------------------------------------
                          SCF STABILITY ANALYSIS                              
------------------------------------------------------------------------------


                       ****Iteration    0****

   Memory handling for direct AO based CIS:
   Memory per vector needed      ...     1 MB
   Memory needed                 ...     4 MB
   Memory available              ...  1024 MB
   Number of vectors per batch   ...  1024
   Number of batches             ...     1
   Time for densities:     0.001
   Using LibInt in JK Direct
   Time for J+K (Direct):     1.468
   Time for Sigma-Completion:     0.001
   Lowest Energy          :    -0.222761810054
   Maximum Energy change  :     0.222761810054 (vector 0)
   Maximum residual norm  :     0.021166138503

                       ****Iteration    1****
   Time for densities:     0.000
   Using LibInt in JK Direct
   Time for J+K (Direct):     0.769
   Time for Sigma-Completion:     0.001
   Lowest Energy          :    -0.262716929488
   Maximum Energy change  :     0.039955119434 (vector 0)
   Maximum residual norm  :     0.000637489309

                       ****Iteration    2****
   Time for densities:     0.000
   Using LibInt in JK Direct
[cnode06:185896] 7 more processes have sent help message help-mpi-btl-openib.txt / error in device init
[cnode06:185896] Set MCA parameter "orte_base_help_aggregate" to 0 to see all help / error messages
   Time for J+K (Direct):     0.764
   Time for Sigma-Completion:     0.001
   Lowest Energy          :    -0.263770470414
   Maximum Energy change  :     0.001125243758 (vector 2)
   Maximum residual norm  :     0.000437364323

                       ****Iteration    3****
   Time for densities:     0.000
   Using LibInt in JK Direct
   Time for J+K (Direct):     0.768
   Time for Sigma-Completion:     0.001
   Lowest Energy          :    -0.263786423821
   Maximum Energy change  :     0.001288645131 (vector 1)
   Maximum residual norm  :     0.000081217425

      *** CONVERGENCE OF RESIDUAL NORM REACHED ***

----------------------------- 
SCF STABILITY ANALYSIS RESULT 
----------------------------- 

UHF/UKS->UHF/UKS - singlet - internal

   Root    Eigenvalue (au) 
     0      -0.263786 
     1      -0.015864 
     2      -0.015864 

Stability Analysis indicates an UNSTABLE HF/KS wave function with SEVERAL negative eigenvalues.

Since this is UHF/UKS, we will restart the SCF using a new guess based on the eigenvector 
associated with the lowest eigenvalue. Because there is no guarantee that the restart     
will result in a stable solution, the user should check the stability of the resulting    
wave function in a separate calculation using the MOREAD guess feature.

Obtain new guess               ... done 

Total time for performing the stability analysis:     3.786sec

--------------------------
SCF ITERATIONS (restarted)
--------------------------
ITER       Energy         Delta-E        Max-DP      RMS-DP      [F,P]     Damp
               ***  Starting incremental Fock matrix formation  ***
  0    -24.9261004018   0.000000000000 0.01417631  0.00015439  0.0297612 0.7000
  1    -24.9343891303  -0.008288728559 0.01739639  0.00020422  0.0289201 0.7000
                               ***Turning on DIIS***
  2    -24.9454671636  -0.011078033306 0.05516635  0.00071089  0.0277443 0.0000
  3    -25.1624486161  -0.216981452446 0.02189106  0.00030438  0.0288608 0.0000
  4    -25.1652983405  -0.002849724360 0.01210860  0.00017892  0.0377585 0.0000
  5    -25.1545088589   0.010789481553 0.00734298  0.00011252  0.0394746 0.0000
  6    -25.1427680610   0.011740797874 0.00518516  0.00007345  0.0389503 0.0000
  7    -24.9489739778   0.193794083192 0.04751205  0.00072744  0.0378943 0.0000
  8    -25.0186620953  -0.069688117478 0.02089542  0.00034014  0.0262207 0.0000
  9    -24.9974855266   0.021176568736 0.02714294  0.00041742  0.0246783 0.0000
 10    -25.0066570007  -0.009171474107 0.01982547  0.00031655  0.0186662 0.0000
 11    -25.0274111284  -0.020754127710 0.00699224  0.00010389  0.0100909 0.0000
 12    -25.0265861609   0.000824967445 0.00532386  0.00008138  0.0054344 0.0000
 13    -25.0308270038  -0.004240842825 0.00183024  0.00002902  0.0026651 0.0000
 14    -25.0317151733  -0.000888169570 0.00078107  0.00001364  0.0013100 0.0000
 15    -25.0324362529  -0.000721079597 0.00067853  0.00001001  0.0006135 0.0000
 16    -25.0329908596  -0.000554606661 0.00026908  0.00000363  0.0001219 0.0000
 17    -25.0329823309   0.000008528713 0.00011656  0.00000152  0.0000405 0.0000
 18    -25.0329652274   0.000017103522 0.00003038  0.00000049  0.0000163 0.0000
 19    -25.0329546696   0.000010557775 0.00001078  0.00000018  0.0000085 0.0000
               *** Restarting incremental Fock matrix formation ***
                                   *** Resetting DIIS ***
 20    -25.0329513912   0.000003278412 0.00000307  0.00000005  0.0000033 0.0000
 21    -25.0329500641   0.000001327124 0.00000434  0.00000007  0.0000023 0.0000
 22    -25.0329509508  -0.000000886789 0.00000107  0.00000002  0.0000008 0.0000
 23    -25.0329514451  -0.000000494218 0.00000042  0.00000001  0.0000002 0.0000
 24    -25.0329514625  -0.000000017407 0.00000033  0.00000000  0.0000001 0.0000
 25    -25.0329514158   0.000000046672 0.00000010  0.00000000  0.0000000 0.0000
                            ***DIIS convergence achieved***

               *****************************************************
               *                     SUCCESS                       *
               *           SCF CONVERGED AFTER  26 CYCLES          *
               *****************************************************


----------------
TOTAL SCF ENERGY
----------------

Total Energy       :          -25.03295140 Eh            -681.18124 eV

Components:
Nuclear Repulsion  :            0.57519262 Eh              15.65179 eV
Electronic Energy  :          -25.60814401 Eh            -696.83302 eV
One Electron Energy:          -34.02141470 Eh            -925.76976 eV
Two Electron Energy:            8.41327069 Eh             228.93673 eV

Virial components:
Potential Energy   :          -50.06516692 Eh           -1362.34245 eV
Kinetic Energy     :           25.03221552 Eh             681.16121 eV
Virial Ratio       :            2.00002940


---------------
SCF CONVERGENCE
---------------

  Last Energy change         ...    1.9738e-08  Tolerance :   1.0000e-09
  Last MAX-Density change    ...    1.1254e-08  Tolerance :   1.0000e-08
  Last RMS-Density change    ...    1.8377e-10  Tolerance :   1.0000e-09
  Last DIIS Error            ...    6.0709e-09  Tolerance :   1.0000e-08

             **** THE GBW FILE WAS UPDATED (/scratch/BH-4.6-O_595/BH-4.6-O.gbw) ****
             **** DENSITY /scratch/BH-4.6-O_595/BH-4.6-O.scfp WAS UPDATED ****
             **** ENERGY FILE WAS UPDATED (/scratch/BH-4.6-O_595/BH-4.6-O.en.tmp) ****

     --------------------------------------------------------------------
                                      WARNING
     A stability analysis of the first UHF/UKS SCF solution was performed
     and an instability detected. The result was used as a guess for
     a second SCF, which has converged. There is no guarantee that the
     current solution is stable - it is up to you to rerun the stability
     analysis using the now stored solution as a guess and verify.
     --------------------------------------------------------------------

----------------------
UHF SPIN CONTAMINATION
----------------------

Expectation value of <S**2>     :     1.010517
Ideal value S*(S+1) for S=0.0   :     0.000000
Deviation                       :     1.010517

             **** THE GBW FILE WAS UPDATED (/scratch/BH-4.6-O_595/BH-4.6-O.gbw) ****
             **** DENSITY /scratch/BH-4.6-O_595/BH-4.6-O.scfp WAS UPDATED ****
----------------
ORBITAL ENERGIES
----------------
                 SPIN UP ORBITALS
  NO   OCC          E(Eh)            E(eV)    Irrep 
   0   1.0000      -7.701623      -209.5718    1-A1
   1   1.0000      -0.545403       -14.8412    2-A1
   2   1.0000      -0.318841        -8.6761    3-A1
   3   0.0000       0.018890         0.5140    4-A1
   4   0.0000       0.023588         0.6419    1-B2
   5   0.0000       0.023588         0.6419    1-B1
   6   0.0000       0.050580         1.3764    5-A1
   7   0.0000       0.074219         2.0196    6-A1
   8   0.0000       0.077241         2.1018    2-B1
   9   0.0000       0.077241         2.1018    2-B2
  10   0.0000       0.109057         2.9676    7-A1
  11   0.0000       0.142452         3.8763    3-B2
  12   0.0000       0.142452         3.8763    3-B1
  13   0.0000       0.145613         3.9623    1-A2
  14   0.0000       0.145613         3.9623    8-A1
  15   0.0000       0.173132         4.7112    9-A1
  16   0.0000       0.215122         5.8538    4-B1
  17   0.0000       0.215122         5.8538    4-B2
  18   0.0000       0.241982         6.5847   10-A1
  19   0.0000       0.311638         8.4801    5-B2
  20   0.0000       0.311638         8.4801    5-B1
  21   0.0000       0.315518         8.5857   11-A1
  22   0.0000       0.342283         9.3140   12-A1
  23   0.0000       0.452884        12.3236   13-A1
  24   0.0000       0.461819        12.5667    6-B2
  25   0.0000       0.461819        12.5667    6-B1
  26   0.0000       0.466345        12.6899    2-A2
  27   0.0000       0.466345        12.6899   14-A1
  28   0.0000       0.466637        12.6978    7-B1
  29   0.0000       0.466637        12.6978    7-B2
  30   0.0000       0.496485        13.5100    8-B2
  31   0.0000       0.496485        13.5100    8-B1
  32   0.0000       0.497209        13.5298   15-A1
  33   0.0000       0.500302        13.6139    3-A2
  34   0.0000       0.500302        13.6139   16-A1
  35   0.0000       0.553300        15.0561   17-A1
  36   0.0000       0.631777        17.1915    4-A2
  37   0.0000       0.631777        17.1915   18-A1
  38   0.0000       0.663743        18.0614    9-B1
  39   0.0000       0.663743        18.0614    9-B2
  40   0.0000       0.719784        19.5863   19-A1
  41   0.0000       0.827583        22.5197   10-B1
  42   0.0000       0.827583        22.5197   10-B2
  43   0.0000       0.900801        24.5120   20-A1
  44   0.0000       1.051233        28.6055   11-B2
  45   0.0000       1.051233        28.6055   11-B1
  46   0.0000       1.064407        28.9640   21-A1
  47   0.0000       1.369937        37.2779    5-A2
  48   0.0000       1.369937        37.2779   22-A1
  49   0.0000       1.379211        37.5302   12-B1
  50   0.0000       1.379211        37.5302   12-B2
  51   0.0000       1.385846        37.7108   23-A1
  52   0.0000       1.385846        37.7108    6-A2
  53   0.0000       1.390948        37.8496   13-B2
  54   0.0000       1.390948        37.8496   13-B1
  55   0.0000       1.391364        37.8609   24-A1
  56   0.0000       1.397779        38.0355   25-A1
  57   0.0000       1.406711        38.2785   14-B1
  58   0.0000       1.406711        38.2785   14-B2
  59   0.0000       1.411010        38.3955    7-A2
  60   0.0000       1.411010        38.3955   26-A1
  61   0.0000       1.421921        38.6924   27-A1
  62   0.0000       1.439041        39.1583   15-B2
  63   0.0000       1.439041        39.1583   15-B1
  64   0.0000       1.447016        39.3753    8-A2
  65   0.0000       1.447016        39.3753   28-A1
  66   0.0000       1.455745        39.6128   16-B1
  67   0.0000       1.455745        39.6128   16-B2
  68   0.0000       1.497815        40.7576   29-A1
  69   0.0000       1.574624        42.8477   17-B1
  70   0.0000       1.574624        42.8477   17-B2
  71   0.0000       1.576296        42.8932    9-A2
  72   0.0000       1.576296        42.8932   30-A1
  73   0.0000       1.589991        43.2659   18-B2
  74   0.0000       1.589991        43.2659   18-B1
  75   0.0000       1.616273        43.9810   31-A1
  76   0.0000       1.741188        47.3801   32-A1
  77   0.0000       2.491533        67.7981   10-A2
  78   0.0000       2.491533        67.7981   33-A1
  79   0.0000       2.504857        68.1606   19-B1
  80   0.0000       2.504857        68.1606   19-B2
  81   0.0000       2.538736        69.0825   34-A1
  82   0.0000       2.635074        71.7040   20-B1
  83   0.0000       2.635074        71.7040   20-B2
  84   0.0000       2.703746        73.5727   35-A1
  85   0.0000       3.737382       101.6993   21-B2
  86   0.0000       3.737382       101.6993   21-B1
  87   0.0000       3.760710       102.3341   36-A1
  88   0.0000       3.919560       106.6566   37-A1
  89   0.0000       3.919560       106.6566   11-A2
  90   0.0000       3.934680       107.0681   22-B1
  91   0.0000       3.934680       107.0681   22-B2
  92   0.0000       3.945499       107.3625   38-A1
  93   0.0000       3.945499       107.3625   12-A2
  94   0.0000       3.953004       107.5667   23-B2
  95   0.0000       3.953004       107.5667   23-B1
  96   0.0000       3.955953       107.6470   39-A1
  97   0.0000       3.955953       107.6470   13-A2
  98   0.0000       3.962438       107.8234   40-A1
  99   0.0000       3.966158       107.9246   24-B2
 100   0.0000       3.966158       107.9246   24-B1
 101   0.0000       3.979286       108.2819   41-A1
 102   0.0000       4.085967       111.1848   25-B2
 103   0.0000       4.085967       111.1848   25-B1
 104   0.0000       4.099986       111.5663   42-A1
 105   0.0000       4.099986       111.5663   14-A2
 106   0.0000       4.114270       111.9550   26-B2
 107   0.0000       4.114270       111.9550   26-B1
 108   0.0000       4.149674       112.9184   43-A1
 109   0.0000       6.583597       179.1488   27-B1
 110   0.0000       6.583597       179.1488   27-B2
 111   0.0000       6.583925       179.1577   44-A1
 112   0.0000       6.583925       179.1577   15-A2
 113   0.0000       6.586022       179.2148   28-B2
 114   0.0000       6.586022       179.2148   28-B1
 115   0.0000       6.590768       179.3439   45-A1
 116   0.0000       7.498146       204.0349   46-A1
 117   0.0000       7.995700       217.5741   29-B2
 118   0.0000       7.995700       217.5741   29-B1
 119   0.0000       8.037717       218.7174   47-A1
 120   0.0000       8.433002       229.4737   16-A2
 121   0.0000       8.433002       229.4737   48-A1
 122   0.0000       8.441261       229.6984   30-B1
 123   0.0000       8.441261       229.6984   30-B2
 124   0.0000       8.473022       230.5626   49-A1
 125   0.0000      13.046721       355.0193   50-A1

                 SPIN DOWN ORBITALS
  NO   OCC          E(Eh)            E(eV)    Irrep 
   0   1.0000      -7.686491      -209.1601    1-A1
   1   1.0000      -0.496146       -13.5008    2-A1
   2   1.0000      -0.446369       -12.1463    3-A1
   3   0.0000       0.027291         0.7426    1-B1
   4   0.0000       0.027291         0.7426    1-B2
   5   0.0000       0.043592         1.1862    4-A1
   6   0.0000       0.051612         1.4044    5-A1
   7   0.0000       0.075381         2.0512    6-A1
   8   0.0000       0.084228         2.2920    2-B1
   9   0.0000       0.084228         2.2920    2-B2
  10   0.0000       0.116837         3.1793    7-A1
  11   0.0000       0.142069         3.8659    3-B2
  12   0.0000       0.142069         3.8659    3-B1
  13   0.0000       0.145682         3.9642    1-A2
  14   0.0000       0.145682         3.9642    8-A1
  15   0.0000       0.168790         4.5930    9-A1
  16   0.0000       0.200295         5.4503    4-B1
  17   0.0000       0.200295         5.4503    4-B2
  18   0.0000       0.253752         6.9049   10-A1
  19   0.0000       0.319797         8.7021    5-B1
  20   0.0000       0.319797         8.7021    5-B2
  21   0.0000       0.343168         9.3381   11-A1
  22   0.0000       0.360588         9.8121   12-A1
  23   0.0000       0.395777        10.7696   13-A1
  24   0.0000       0.461744        12.5647    6-B2
  25   0.0000       0.461744        12.5647    6-B1
  26   0.0000       0.470285        12.7971   14-A1
  27   0.0000       0.470285        12.7971    2-A2
  28   0.0000       0.471270        12.8239    7-B2
  29   0.0000       0.471270        12.8239    7-B1
  30   0.0000       0.498873        13.5750   15-A1
  31   0.0000       0.501371        13.6430    3-A2
  32   0.0000       0.501371        13.6430   16-A1
  33   0.0000       0.526660        14.3311    8-B1
  34   0.0000       0.526660        14.3311    8-B2
  35   0.0000       0.571574        15.5533   17-A1
  36   0.0000       0.618511        16.8305   18-A1
  37   0.0000       0.618511        16.8305    4-A2
  38   0.0000       0.650940        17.7130    9-B2
  39   0.0000       0.650940        17.7130    9-B1
  40   0.0000       0.701431        19.0869   19-A1
  41   0.0000       0.763061        20.7639   10-B2
  42   0.0000       0.763061        20.7639   10-B1
  43   0.0000       0.855058        23.2673   20-A1
  44   0.0000       1.060517        28.8581   11-B2
  45   0.0000       1.060517        28.8581   11-B1
  46   0.0000       1.133016        30.8309   21-A1
  47   0.0000       1.369658        37.2703    5-A2
  48   0.0000       1.369658        37.2703   22-A1
  49   0.0000       1.384369        37.6706   12-B2
  50   0.0000       1.384369        37.6706   12-B1
  51   0.0000       1.394805        37.9546   23-A1
  52   0.0000       1.394805        37.9546    6-A2
  53   0.0000       1.401932        38.1485   13-B2
  54   0.0000       1.401932        38.1485   13-B1
  55   0.0000       1.407535        38.3010   24-A1
  56   0.0000       1.415885        38.5282   25-A1
  57   0.0000       1.415885        38.5282    7-A2
  58   0.0000       1.426734        38.8234   26-A1
  59   0.0000       1.439685        39.1758   14-B2
  60   0.0000       1.439685        39.1758   14-B1
  61   0.0000       1.455500        39.6062   15-B1
  62   0.0000       1.455500        39.6062   15-B2
  63   0.0000       1.463125        39.8137    8-A2
  64   0.0000       1.463125        39.8137   27-A1
  65   0.0000       1.466559        39.9071   28-A1
  66   0.0000       1.479434        40.2574   16-B1
  67   0.0000       1.479434        40.2574   16-B2
  68   0.0000       1.523464        41.4556   29-A1
  69   0.0000       1.562043        42.5054   17-B2
  70   0.0000       1.562043        42.5054   17-B1
  71   0.0000       1.563913        42.5562    9-A2
  72   0.0000       1.563913        42.5562   30-A1
  73   0.0000       1.579036        42.9678   31-A1
  74   0.0000       1.580425        43.0055   18-B2
  75   0.0000       1.580425        43.0055   18-B1
  76   0.0000       1.668789        45.4101   32-A1
  77   0.0000       2.452064        66.7240   10-A2
  78   0.0000       2.452064        66.7240   33-A1
  79   0.0000       2.465325        67.0849   19-B1
  80   0.0000       2.465325        67.0849   19-B2
  81   0.0000       2.495686        67.9111   34-A1
  82   0.0000       2.560854        69.6844   20-B1
  83   0.0000       2.560854        69.6844   20-B2
  84   0.0000       2.636548        71.7441   35-A1
  85   0.0000       3.744511       101.8933   21-B2
  86   0.0000       3.744511       101.8933   21-B1
  87   0.0000       3.808873       103.6447   36-A1
  88   0.0000       3.920250       106.6754   37-A1
  89   0.0000       3.920250       106.6754   11-A2
  90   0.0000       3.945573       107.3645   22-B1
  91   0.0000       3.945573       107.3645   22-B2
  92   0.0000       3.960415       107.7684   38-A1
  93   0.0000       3.960415       107.7684   12-A2
  94   0.0000       3.964882       107.8899   39-A1
  95   0.0000       3.964882       107.8899   13-A2
  96   0.0000       3.975501       108.1789   23-B2
  97   0.0000       3.975501       108.1789   23-B1
  98   0.0000       3.987090       108.4942   40-A1
  99   0.0000       4.003159       108.9315   24-B2
 100   0.0000       4.003159       108.9315   24-B1
 101   0.0000       4.026550       109.5680   41-A1
 102   0.0000       4.088647       111.2577   25-B2
 103   0.0000       4.088647       111.2577   25-B1
 104   0.0000       4.121423       112.1496   42-A1
 105   0.0000       4.121423       112.1496   14-A2
 106   0.0000       4.147558       112.8608   26-B1
 107   0.0000       4.147558       112.8608   26-B2
 108   0.0000       4.187848       113.9571   43-A1
 109   0.0000       6.554752       178.3639   27-B1
 110   0.0000       6.554752       178.3639   27-B2
 111   0.0000       6.555090       178.3731   44-A1
 112   0.0000       6.555090       178.3731   15-A2
 113   0.0000       6.557208       178.4307   28-B2
 114   0.0000       6.557208       178.4307   28-B1
 115   0.0000       6.561982       178.5606   45-A1
 116   0.0000       7.416513       201.8136   46-A1
 117   0.0000       7.937782       215.9980   29-B2
 118   0.0000       7.937782       215.9980   29-B1
 119   0.0000       7.980300       217.1550   47-A1
 120   0.0000       8.390768       228.3244   16-A2
 121   0.0000       8.390768       228.3244   48-A1
 122   0.0000       8.399091       228.5509   30-B1
 123   0.0000       8.399091       228.5509   30-B2
 124   0.0000       8.431002       229.4192   49-A1
 125   0.0000      13.058472       355.3391   50-A1

                    ********************************
                    * MULLIKEN POPULATION ANALYSIS *
                    ********************************

--------------------------------------------
MULLIKEN ATOMIC CHARGES AND SPIN POPULATIONS
--------------------------------------------
   0 B :    0.000281    1.000402
   1 H :   -0.000281   -1.000402
Sum of atomic charges         :    0.0000000
Sum of atomic spin populations:    0.0000000

-----------------------------------------------------
MULLIKEN REDUCED ORBITAL CHARGES AND SPIN POPULATIONS
-----------------------------------------------------
CHARGE
  0 B s       :     3.994705  s :     3.994705
      pz      :     1.000127  p :     1.000127
      px      :     0.000000
      py      :     0.000000
      dz2     :     0.004915  d :     0.004915
      dxz     :     0.000000
      dyz     :     0.000000
      dx2y2   :     0.000000
      dxy     :     0.000000
      f0      :    -0.000028  f :    -0.000028
      f+1     :     0.000000
      f-1     :     0.000000
      f+2     :     0.000000
      f-2     :     0.000000
      f+3     :     0.000000
      f-3     :     0.000000
      g0      :    -0.000001  g :    -0.000001
      g+1     :     0.000000
      g-1     :     0.000000
      g+2     :     0.000000
      g-2     :     0.000000
      g+3     :     0.000000
      g-3     :     0.000000
      g+4     :     0.000000
      g-4     :     0.000000
  1 H s       :     1.000457  s :     1.000457
      pz      :    -0.000140  p :    -0.000140
      px      :     0.000000
      py      :     0.000000
      dz2     :    -0.000034  d :    -0.000034
      dxz     :     0.000000
      dyz     :     0.000000
      dx2y2   :     0.000000
      dxy     :     0.000000
      f0      :    -0.000001  f :    -0.000001
      f+1     :     0.000000
      f-1     :     0.000000
      f+2     :     0.000000
      f-2     :     0.000000
      f+3     :     0.000000
      f-3     :     0.000000

SPIN
  0 B s       :    -0.001036  s :    -0.001036
      pz      :     1.000163  p :     1.000163
      px      :     0.000000
      py      :    -0.000000
      dz2     :     0.001211  d :     0.001211
      dxz     :    -0.000000
      dyz     :    -0.000000
      dx2y2   :     0.000000
      dxy     :     0.000000
      f0      :     0.000063  f :     0.000063
      f+1     :    -0.000000
      f-1     :    -0.000000
      f+2     :     0.000000
      f-2     :     0.000000
      f+3     :    -0.000000
      f-3     :     0.000000
      g0      :     0.000001  g :     0.000001
      g+1     :     0.000000
      g-1     :    -0.000000
      g+2     :     0.000000
      g-2     :     0.000000
      g+3     :    -0.000000
      g-3     :     0.000000
      g+4     :    -0.000000
      g-4     :    -0.000000
  1 H s       :    -1.000192  s :    -1.000192
      pz      :    -0.000181  p :    -0.000181
      px      :     0.000000
      py      :    -0.000000
      dz2     :    -0.000029  d :    -0.000029
      dxz     :    -0.000000
      dyz     :    -0.000000
      dx2y2   :     0.000000
      dxy     :     0.000000
      f0      :    -0.000000  f :    -0.000000
      f+1     :    -0.000000
      f-1     :     0.000000
      f+2     :    -0.000000
      f-2     :     0.000000
      f+3     :    -0.000000
      f-3     :    -0.000000


                     *******************************
                     * LOEWDIN POPULATION ANALYSIS *
                     *******************************

-------------------------------------------
LOEWDIN ATOMIC CHARGES AND SPIN POPULATIONS
-------------------------------------------
   0 B :   -0.008678    0.982887
   1 H :    0.008678   -0.982887

----------------------------------------------------
LOEWDIN REDUCED ORBITAL CHARGES AND SPIN POPULATIONS
----------------------------------------------------
CHARGE
  0 B s       :     3.993280  s :     3.993280
      pz      :     1.003792  p :     1.003792
      px      :     0.000000
      py      :     0.000000
      dz2     :     0.011167  d :     0.011167
      dxz     :     0.000000
      dyz     :     0.000000
      dx2y2   :     0.000000
      dxy     :     0.000000
      f0      :     0.000436  f :     0.000436
      f+1     :     0.000000
      f-1     :     0.000000
      f+2     :     0.000000
      f-2     :     0.000000
      f+3     :     0.000000
      f-3     :     0.000000
      g0      :     0.000003  g :     0.000003
      g+1     :     0.000000
      g-1     :     0.000000
      g+2     :     0.000000
      g-2     :     0.000000
      g+3     :     0.000000
      g-3     :     0.000000
      g+4     :     0.000000
      g-4     :     0.000000
  1 H s       :     0.989210  s :     0.989210
      pz      :     0.001887  p :     0.001887
      px      :     0.000000
      py      :     0.000000
      dz2     :     0.000214  d :     0.000214
      dxz     :     0.000000
      dyz     :     0.000000
      dx2y2   :     0.000000
      dxy     :     0.000000
      f0      :     0.000011  f :     0.000011
      f+1     :     0.000000
      f-1     :     0.000000
      f+2     :     0.000000
      f-2     :     0.000000
      f+3     :     0.000000
      f-3     :     0.000000

SPIN
  0 B s       :    -0.001567  s :    -0.001567
      pz      :     0.989853  p :     0.989853
      px      :     0.000000
      py      :    -0.000000
      dz2     :    -0.004988  d :    -0.004988
      dxz     :    -0.000000
      dyz     :    -0.000000
      dx2y2   :     0.000000
      dxy     :     0.000000
      f0      :    -0.000408  f :    -0.000408
      f+1     :    -0.000000
      f-1     :    -0.000000
      f+2     :     0.000000
      f-2     :     0.000000
      f+3     :    -0.000000
      f-3     :     0.000000
      g0      :    -0.000003  g :    -0.000003
      g+1     :     0.000000
      g-1     :    -0.000000
      g+2     :    -0.000000
      g-2     :     0.000000
      g+3     :    -0.000000
      g-3     :     0.000000
      g+4     :    -0.000000
      g-4     :    -0.000000
  1 H s       :    -0.984549  s :    -0.984549
      pz      :     0.001466  p :     0.001466
      px      :    -0.000000
      py      :    -0.000000
      dz2     :     0.000186  d :     0.000186
      dxz     :     0.000000
      dyz     :    -0.000000
      dx2y2   :     0.000000
      dxy     :     0.000000
      f0      :     0.000010  f :     0.000010
      f+1     :    -0.000000
      f-1     :    -0.000000
      f+2     :    -0.000000
      f-2     :    -0.000000
      f+3     :    -0.000000
      f-3     :    -0.000000


                      *****************************
                      * MAYER POPULATION ANALYSIS *
                      *****************************

  NA   - Mulliken gross atomic population
  ZA   - Total nuclear charge
  QA   - Mulliken gross atomic charge
  VA   - Mayer's total valence
  BVA  - Mayer's bonded valence
  FA   - Mayer's free valence

  ATOM       NA         ZA         QA         VA         BVA        FA
  0 B      4.9997     5.0000     0.0003     1.0224    -0.0005     1.0229
  1 H      1.0003     1.0000    -0.0003     0.9998    -0.0005     1.0003

  Mayer bond orders larger than 0.100000


-------
TIMINGS
-------

Total SCF time: 0 days 0 hours 0 min 10 sec 

Total time                  ....      10.346 sec
Sum of individual times     ....      10.141 sec  ( 98.0%)

Fock matrix formation       ....       5.941 sec  ( 57.4%)
Diagonalization             ....       0.227 sec  (  2.2%)
Density matrix formation    ....       0.008 sec  (  0.1%)
Population analysis         ....       0.006 sec  (  0.1%)
Initial guess               ....       0.006 sec  (  0.1%)
Orbital Transformation      ....       0.000 sec  (  0.0%)
Orbital Orthonormalization  ....       0.000 sec  (  0.0%)
DIIS solution               ....       0.160 sec  (  1.5%)
SCF Stability Analysis      ....       3.786 sec  ( 36.6%)

Maximum memory used throughout the entire SCF-calculation: 228.7 MB

-------------------------   --------------------
FINAL SINGLE POINT ENERGY       -25.032951396062
-------------------------   --------------------


                            ***************************************
                            *     ORCA property calculations      *
                            ***************************************

                                    ---------------------
                                    Active property flags
                                    ---------------------
   (+) Dipole Moment


------------------------------------------------------------------------------
                       ORCA ELECTRIC PROPERTIES CALCULATION
------------------------------------------------------------------------------

Dipole Moment Calculation                       ... on
Quadrupole Moment Calculation                   ... off
Polarizability Calculation                      ... off
GBWName                                         ... /scratch/BH-4.6-O_595/BH-4.6-O.gbw
Electron density file                           ... /scratch/BH-4.6-O_595/BH-4.6-O.scfp
The origin for moment calculation is the CENTER OF MASS  = ( 0.000000,  0.000000 -0.000000)

-------------
DIPOLE MOMENT
-------------
                                X             Y             Z
Electronic contribution:     -0.00000       0.00000      -4.25181
Nuclear contribution   :      0.00000       0.00000       4.24413
                        -----------------------------------------
Total Dipole Moment    :     -0.00000       0.00000      -0.00769
                        -----------------------------------------
Magnitude (a.u.)       :      0.00769
Magnitude (Debye)      :      0.01953



--------------------
Rotational spectrum 
--------------------
 
Rotational constants in cm-1:     0.000000     0.864050     0.864050 
Rotational constants in MHz :     0.000000 25903.574652 25903.574652 

 Dipole components along the rotational axes: 
x,y,z [a.u.] :    -0.007685     0.000000    -0.000000 
x,y,z [Debye]:    -0.019535     0.000000    -0.000000 

 
--------------------------------------------------------------------------
WARNING: There was an error initializing an OpenFabrics device.

  Local host:   cnode06
  Local device: mlx5_0
--------------------------------------------------------------------------
[cnode06:186104] 7 more processes have sent help message help-mpi-btl-openib.txt / error in device init
[cnode06:186104] Set MCA parameter "orte_base_help_aggregate" to 0 to see all help / error messages

Timings for individual modules:

Sum of individual times         ...       11.241 sec (=   0.187 min)
GTO integral calculation        ...        0.509 sec (=   0.008 min)   4.5 %
SCF iterations                  ...       10.731 sec (=   0.179 min)  95.5 %
                             ****ORCA TERMINATED NORMALLY****
TOTAL RUN TIME: 0 days 0 hours 0 minutes 11 seconds 707 msec

Sender: Unischeduler System <lcz@mgt01>
Subject: Job 133668: <#!/bin/bash
#BSUB -J intel
#BSUB -o BH-4.6-O.out
#BSUB -n 8
#BSUB -q cqueue
export LD_LIBRARY_PATH=/apps/software/openmpi-4.1.1/lib:/apps/software/orca_5_0_0:$LD_LIBRARY_PATH
export PATH=/apps/software/openmpi-4.1.1/bin:/apps/software/orca_5_0_0:$PATH
mkdir /scratch/BH-4.6-O_595
scp $USER@mgt01:/apps/users/lcz/exe13/UHF/BH-4.6-O.inp /scratch/BH-4.6-O_595
/apps/software/orca_5_0_0/orca /scratch/BH-4.6-O_595/BH-4.6-O.inp >& BH-4.6-O.out
scp /scratch/BH-4.6-O_595/*.gbw $USER@mgt01:/apps/users/lcz/exe13/UHF
scp /scratch/BH-4.6-O_595/*.xyz $USER@mgt01:/apps/users/lcz/exe13/UHF
scp /scratch/BH-4.6-O_595/*.trj $USER@mgt01:/apps/users/lcz/exe13/UHF> Exited

Job <#!/bin/bash
#BSUB -J intel
#BSUB -o BH-4.6-O.out
#BSUB -n 8
#BSUB -q cqueue
export LD_LIBRARY_PATH=/apps/software/openmpi-4.1.1/lib:/apps/software/orca_5_0_0:$LD_LIBRARY_PATH
export PATH=/apps/software/openmpi-4.1.1/bin:/apps/software/orca_5_0_0:$PATH
mkdir /scratch/BH-4.6-O_595
scp $USER@mgt01:/apps/users/lcz/exe13/UHF/BH-4.6-O.inp /scratch/BH-4.6-O_595
/apps/software/orca_5_0_0/orca /scratch/BH-4.6-O_595/BH-4.6-O.inp >& BH-4.6-O.out
scp /scratch/BH-4.6-O_595/*.gbw $USER@mgt01:/apps/users/lcz/exe13/UHF
scp /scratch/BH-4.6-O_595/*.xyz $USER@mgt01:/apps/users/lcz/exe13/UHF
scp /scratch/BH-4.6-O_595/*.trj $USER@mgt01:/apps/users/lcz/exe13/UHF> was submitted from host <mgt01> by user <lcz>.
Job was executed on host(s) <8*cnode06>, in queue <cqueue>, as user <lcz>.
</apps/users/lcz> was used as the home directory.
</apps/users/lcz/exe13/UHF> was used as the working directory.
Started at 2022-05-21 21:16:41
Results reported at 2022-05-21 21:16:54

Your job looked like:

------------------------------------------------------------
# User input
#!/bin/bash
#BSUB -J intel
#BSUB -o BH-4.6-O.out
#BSUB -n 8
#BSUB -q cqueue
export LD_LIBRARY_PATH=/apps/software/openmpi-4.1.1/lib:/apps/software/orca_5_0_0:$LD_LIBRARY_PATH
export PATH=/apps/software/openmpi-4.1.1/bin:/apps/software/orca_5_0_0:$PATH
mkdir /scratch/BH-4.6-O_595
scp $USER@mgt01:/apps/users/lcz/exe13/UHF/BH-4.6-O.inp /scratch/BH-4.6-O_595
/apps/software/orca_5_0_0/orca /scratch/BH-4.6-O_595/BH-4.6-O.inp >& BH-4.6-O.out
scp /scratch/BH-4.6-O_595/*.gbw $USER@mgt01:/apps/users/lcz/exe13/UHF
scp /scratch/BH-4.6-O_595/*.xyz $USER@mgt01:/apps/users/lcz/exe13/UHF
scp /scratch/BH-4.6-O_595/*.trj $USER@mgt01:/apps/users/lcz/exe13/UHF
------------------------------------------------------------

Exited with exit code 1.

Resource usage summary:

    CPU time   :           66.17 sec.
    Max Memory :              1013 MB
    Max Processes  :              13


The output (if any) follows:

/scratch/BH-4.6-O_595/*.xyz: No such file or directory
/scratch/BH-4.6-O_595/*.trj: No such file or directory
