
                                        *****************
                                        * O   R   C   A *
                                        *****************

                                            #,                                       
                                            ###                                      
                                            ####                                     
                                            #####                                    
                                            ######                                   
                                           ########,                                 
                                     ,,################,,,,,                         
                               ,,#################################,,                 
                          ,,##########################################,,             
                       ,#########################################, ''#####,          
                    ,#############################################,,   '####,        
                  ,##################################################,,,,####,       
                ,###########''''           ''''###############################       
              ,#####''   ,,,,##########,,,,          '''####'''          '####       
            ,##' ,,,,###########################,,,                        '##       
           ' ,,###''''                  '''############,,,                           
         ,,##''                                '''############,,,,        ,,,,,,###''
      ,#''                                            '''#######################'''  
     '                                                          ''''####''''         
             ,#######,   #######,   ,#######,      ##                                
            ,#'     '#,  ##    ##  ,#'     '#,    #''#        ######   ,####,        
            ##       ##  ##   ,#'  ##            #'  '#       #        #'  '#        
            ##       ##  #######   ##           ,######,      #####,   #    #        
            '#,     ,#'  ##    ##  '#,     ,#' ,#      #,         ##   #,  ,#        
             '#######'   ##     ##  '#######'  #'      '#     #####' # '####'        



                  #######################################################
                  #                        -***-                        #
                  #          Department of theory and spectroscopy      #
                  #    Directorship and core code : Frank Neese         #
                  #        Max Planck Institute fuer Kohlenforschung    #
                  #                Kaiser Wilhelm Platz 1               #
                  #                 D-45470 Muelheim/Ruhr               #
                  #                      Germany                        #
                  #                                                     #
                  #                  All rights reserved                #
                  #                        -***-                        #
                  #######################################################


                         Program Version 5.0.0 -  RELEASE  -
                                (SVN: $Rev: 19529$)
                ($Date: 2021-06-28 11:36:33 +0200 (Mo, 28 Jun 2021) $)


 With contributions from (in alphabetic order):
   Daniel Aravena         : Magnetic Suceptibility
   Michael Atanasov       : Ab Initio Ligand Field Theory (pilot matlab implementation)
   Alexander A. Auer      : GIAO ZORA, VPT2 properties, NMR spectrum
   Ute Becker             : Parallelization
   Giovanni Bistoni       : ED, misc. LED, open-shell LED, HFLD
   Martin Brehm           : Molecular dynamics
   Dmytro Bykov           : SCF Hessian
   Vijay G. Chilkuri      : MRCI spin determinant printing, contributions to CSF-ICE
   Dipayan Datta          : RHF DLPNO-CCSD density
   Achintya Kumar Dutta   : EOM-CC, STEOM-CC
   Dmitry Ganyushin       : Spin-Orbit,Spin-Spin,Magnetic field MRCI
   Miquel Garcia          : C-PCM Hessian, Gaussian charge scheme
   Yang Guo               : DLPNO-NEVPT2, F12-NEVPT2, CIM, IAO-localization
   Andreas Hansen         : Spin unrestricted coupled pair/coupled cluster methods
   Benjamin Helmich-Paris : MC-RPA, TRAH-SCF, COSX integrals
   Lee Huntington         : MR-EOM, pCC
   Robert Izsak           : Overlap fitted RIJCOSX, COSX-SCS-MP3, EOM
   Marcus Kettner         : VPT2
   Christian Kollmar      : KDIIS, OOCD, Brueckner-CCSD(T), CCSD density, CASPT2, CASPT2-K
   Simone Kossmann        : Meta GGA functionals, TD-DFT gradient, OOMP2, MP2 Hessian
   Martin Krupicka        : Initial AUTO-CI
   Lucas Lang             : DCDCAS
   Marvin Lechner         : AUTO-CI (C++ implementation), FIC-MRCC
   Dagmar Lenk            : GEPOL surface, SMD
   Dimitrios Liakos       : Extrapolation schemes; Compound Job, initial MDCI parallelization
   Dimitrios Manganas     : Further ROCIS development; embedding schemes
   Dimitrios Pantazis     : SARC Basis sets
   Anastasios Papadopoulos: AUTO-CI, single reference methods and gradients
   Taras Petrenko         : DFT Hessian,TD-DFT gradient, ASA, ECA, R-Raman, ABS, FL, XAS/XES, NRVS
   Peter Pinski           : DLPNO-MP2, DLPNO-MP2 Gradient
   Christoph Reimann      : Effective Core Potentials
   Marius Retegan         : Local ZFS, SOC
   Christoph Riplinger    : Optimizer, TS searches, QM/MM, DLPNO-CCSD(T), (RO)-DLPNO pert. Triples
   Tobias Risthaus        : Range-separated hybrids, TD-DFT gradient, RPA, STAB
   Michael Roemelt        : Original ROCIS implementation
   Masaaki Saitow         : Open-shell DLPNO-CCSD energy and density
   Barbara Sandhoefer     : DKH picture change effects
   Avijit Sen             : IP-ROCIS
   Kantharuban Sivalingam : CASSCF convergence, NEVPT2, FIC-MRCI
   Bernardo de Souza      : ESD, SOC TD-DFT
   Georgi Stoychev        : AutoAux, RI-MP2 NMR
   Willem Van den Heuvel  : Paramagnetic NMR
   Boris Wezisla          : Elementary symmetry handling
   Frank Wennmohs         : Technical directorship


 We gratefully acknowledge several colleagues who have allowed us to
 interface, adapt or use parts of their codes:
   Stefan Grimme, W. Hujo, H. Kruse, P. Pracht,  : VdW corrections, initial TS optimization,
                  C. Bannwarth, S. Ehlert          DFT functionals, gCP, sTDA/sTD-DF
   Ed Valeev, F. Pavosevic, A. Kumar             : LibInt (2-el integral package), F12 methods
   Garnet Chan, S. Sharma, J. Yang, R. Olivares  : DMRG
   Ulf Ekstrom                                   : XCFun DFT Library
   Mihaly Kallay                                 : mrcc  (arbitrary order and MRCC methods)
   Jiri Pittner, Ondrej Demel                    : Mk-CCSD
   Frank Weinhold                                : gennbo (NPA and NBO analysis)
   Christopher J. Cramer and Donald G. Truhlar   : smd solvation model
   Lars Goerigk                                  : TD-DFT with DH, B97 family of functionals
   V. Asgeirsson, H. Jonsson                     : NEB implementation
   FAccTs GmbH                                   : IRC, NEB, NEB-TS, DLPNO-Multilevel, CI-OPT
                                                   MM, QMMM, 2- and 3-layer-ONIOM, Crystal-QMMM,
                                                   LR-CPCM, SF, NACMEs, symmetry and pop. for TD-DFT,
                                                   nearIR, NL-DFT gradient (VV10), updates on ESD,
                                                   ML-optimized integration grids
   S Lehtola, MJT Oliveira, MAL Marques          : LibXC Library
   Liviu Ungur et al                             : ANISO software


 Your calculation uses the libint2 library for the computation of 2-el integrals
 For citations please refer to: http://libint.valeyev.net

 Your ORCA version has been built with support for libXC version: 5.1.0
 For citations please refer to: https://tddft.org/programs/libxc/

 This ORCA versions uses:
   CBLAS   interface :  Fast vector & matrix operations
   LAPACKE interface :  Fast linear algebra routines
   SCALAPACK package :  Parallel linear algebra routines
   Shared memory     :  Shared parallel matrices
   BLAS/LAPACK       :  OpenBLAS 0.3.15  USE64BITINT DYNAMIC_ARCH NO_AFFINITY SkylakeX SINGLE_THREADED
        Core in use  :  SkylakeX
   Copyright (c) 2011-2014, The OpenBLAS Project


================================================================================

----- Orbital basis set information -----
Your calculation utilizes the basis: aug-cc-pVQZ 
    H, B-Ne : Obtained from the ccRepo (grant-hill.group.shef.ac.uk/ccrepo) Feb. 2017
              R. A. Kendall, T. H. Dunning, Jr., R. J. Harrison, J. Chem. Phys. 96, 6796 (1992)
         He : Obtained from the ccRepo (grant-hill.group.shef.ac.uk/ccrepo) Feb. 2017
              D. E. Woon, T. H. Dunning, Jr., J. Chem. Phys. 100, 2975 (1994)
  Li-Be, Na : Obtained from the ccRepo (grant-hill.group.shef.ac.uk/ccrepo) Feb. 2017
              B. P. Prascher, D. E. Woon, K. A. Peterson, T. H. Dunning, Jr., A. K. Wilson, Theor. Chem. Acc. 128, 69 (2011)
         Mg : Obtained from the Peterson Research Group Website (tyr0.chem.wsu.edu/~kipeters) Feb. 2017
              B. P. Prascher, D. E. Woon, K. A. Peterson, T. H. Dunning, Jr., A. K. Wilson, Theor. Chem. Acc. 128, 69 (2011)
      Al-Ar : Obtained from the ccRepo (grant-hill.group.shef.ac.uk/ccrepo) Feb. 2017
              D. E. Woon, T. H. Dunning, Jr., J. Chem. Phys. 98, 1358 (1993)
      Sc-Zn : Obtained from the ccRepo (grant-hill.group.shef.ac.uk/ccrepo) Feb. 2017
              N. B. Balabanov, K. A. Peterson, J. Chem. Phys. 123, 064107 (2005)
              N. B. Balabanov, K. A. Peterson, J. Chem. Phys. 125, 074110 (2006)
      Ga-Kr : Obtained from the ccRepo (grant-hill.group.shef.ac.uk/ccrepo) Feb. 2017
              A. K. Wilson, D. E. Woon, K. A. Peterson, T. H. Dunning, Jr., J. Chem. Phys. 110, 7667 (1999)

================================================================================
                                        WARNINGS
                       Please study these warnings very carefully!
================================================================================


INFO   : the flag for use of the SHARK integral package has been found!

================================================================================
                                       INPUT FILE
================================================================================
NAME = /scratch/BH-4.4-O_678/BH-4.4-O.inp
|  1> ! UHF aug-cc-pVQZ pal8 VeryTightSCF UseSym
|  2> 
|  3> %scf
|  4> 	STABPerform	True
|  5> 	STABRestartUHFifUnstable	True
|  6> end
|  7> 
|  8> *xyz 0 1
|  9>  B	0.0	0.0	0.0
| 10>  H	4.4	0.0	0.0
| 11> **                         ****END OF INPUT****
================================================================================

------------------------------------------------------------------------------
                            SYMMETRY HANDLING SETUP
------------------------------------------------------------------------------

------------------
SYMMETRY DETECTION
------------------
The point group will now be determined using a tolerance of 1.0000e-04.
Splitting atom subsets according to nuclear charge, mass and basis set.
Splitting atom subsets according to distance from the molecule's center.
Identifying relative distance patterns of the atoms.
Splitting atom subsets according to atoms' relative distance patterns.
Bring atoms of each subset into input order.
The molecule is linear.
There is at least one atom subset not centered around the molecule's center.
The molecule does not have a center of inversion.
No further test is needed for point group Cinfv.
This point group has been found:    Cinfv
Largest non-degenerate subgroup:    C2v


Mass-centered symmetry-perfected Cartesians (point groups Cinfv and C2v):

Atom          Symmetry-perfected Cartesians (x, y, z; au)
  0       0.000000000000    0.000000000000   -0.709198963375
  1       0.000000000000    0.000000000000    7.605596025878


-----------------------------------------------
SYMMETRY-PERFECTED CARTESIAN COORDINATES (A.U.)
-----------------------------------------------
Warning (ORCA_SYM): Coordinates were not cleaned so far!

------------------
SYMMETRY REDUCTION
------------------
ORCA supports only abelian point groups.
It is now checked, if the determined point group is supported:
Point Group ( C2v   ) is          ... supported

(Re)building abelian point group:
Creating Character Table          ... done
Making direct product table       ... done
Constructing symmetry operations  ... done
Creating atom transfer table      ... done
Creating asymmetric unit          ... done

----------------------
ASYMMETRIC UNIT IN C2v
----------------------
  #  AT     MASS              COORDS (A.U.)             BAS
   0 B   10.8100   0.00000000   0.00000000  -0.70919896   0
   1 H    1.0080   0.00000000   0.00000000   7.60559603   0

----------------------
SYMMETRY ADAPTED BASIS
----------------------
The coefficients for the symmetry adapted linear combinations (SALCS)
of basis functions will now be computed:
Number of basis functions         ...   126
Preparing memory                  ... done
Constructing Gamma(red)           ... done
Reducing Gamma(red)               ... done
Constructing SALCs                ... done
Checking SALC integrity           ... nothing suspicious
Normalizing SALCs                 ... done

Storing the symmetry object:
Symmetry file                     ... /scratch/BH-4.4-O_678/BH-4.4-O.sym.tmp
Writing symmetry information      ... done

                       ****************************
                       * Single Point Calculation *
                       ****************************

---------------------------------
CARTESIAN COORDINATES (ANGSTROEM)
---------------------------------
  B      0.000000    0.000000   -0.375292
  H      0.000000    0.000000    4.024708

----------------------------
CARTESIAN COORDINATES (A.U.)
----------------------------
  NO LB      ZA    FRAG     MASS         X           Y           Z
   0 B     5.0000    0    10.810    0.000000    0.000000   -0.709199
   1 H     1.0000    0     1.008    0.000000    0.000000    7.605596

--------------------------------
INTERNAL COORDINATES (ANGSTROEM)
--------------------------------
 B      0   0   0     0.000000000000     0.00000000     0.00000000
 H      1   0   0     4.400000000000     0.00000000     0.00000000

---------------------------
INTERNAL COORDINATES (A.U.)
---------------------------
 B      0   0   0     0.000000000000     0.00000000     0.00000000
 H      1   0   0     8.314794989254     0.00000000     0.00000000

---------------------
BASIS SET INFORMATION
---------------------
There are 2 groups of distinct atoms

 Group   1 Type B   : 22s7p4d3f2g contracted to 6s5p4d3f2g pattern {991111/31111/1111/111/11}
 Group   2 Type H   : 7s4p3d2f contracted to 5s4p3d2f pattern {31111/1111/111/11}

Atom   0B    basis set group =>   1
Atom   1H    basis set group =>   2
--------------------------------------------------------------------------
WARNING: There was an error initializing an OpenFabrics device.

  Local host:   cnode06
  Local device: mlx5_0
--------------------------------------------------------------------------


           ************************************************************
           *        Program running with 8 parallel MPI-processes     *
           *              working on a common directory               *
           ************************************************************
------------------------------------------------------------------------------
                           ORCA GTO INTEGRAL CALCULATION
------------------------------------------------------------------------------
------------------------------------------------------------------------------
                   ___                                                        
                  /   \      - P O W E R E D   B Y -                         
                 /     \                                                     
                 |  |  |   _    _      __       _____    __    __             
                 |  |  |  | |  | |    /  \     |  _  \  |  |  /  |          
                  \  \/   | |  | |   /    \    | | | |  |  | /  /          
                 / \  \   | |__| |  /  /\  \   | |_| |  |  |/  /          
                |  |  |   |  __  | /  /__\  \  |    /   |      \           
                |  |  |   | |  | | |   __   |  |    \   |  |\   \          
                \     /   | |  | | |  |  |  |  | |\  \  |  | \   \       
                 \___/    |_|  |_| |__|  |__|  |_| \__\ |__|  \__/        
                                                                              
                      - O R C A' S   B I G   F R I E N D -                    
                                      &                                       
                       - I N T E G R A L  F E E D E R -                       
                                                                              
 v1 FN, 2020, v2 2021                                                         
------------------------------------------------------------------------------


Reading SHARK input file /scratch/BH-4.4-O_678/BH-4.4-O.SHARKINP.tmp ... ok
----------------------
SHARK INTEGRAL PACKAGE
----------------------

Number of atoms                             ...      2
Number of basis functions                   ...    126
Number of shells                            ...     34
Maximum angular momentum                    ...      4
Integral batch strategy                     ... SHARK/LIBINT Hybrid
RI-J (if used) integral strategy            ... SPLIT-RIJ (Revised 2003 algorithm where possible)
Printlevel                                  ...      1
Contraction scheme used                     ... SEGMENTED contraction
Coulomb Range Separation                    ... NOT USED
Exchange Range Separation                   ... NOT USED
Finite Nucleus Model                        ... NOT USED
Auxiliary Coulomb fitting basis             ... NOT available
Auxiliary J/K fitting basis                 ... NOT available
Auxiliary Correlation fitting basis         ... NOT available
Auxiliary 'external' fitting basis          ... NOT available
Integral threshold                          ...     1.000000e-12
Primitive cut-off                           ...     1.000000e-14
Primitive pair pre-selection threshold      ...     1.000000e-14

Calculating pre-screening integrals         ... done (  0.1 sec) Dimension = 34
Organizing shell pair data                  ... done (  0.0 sec)
Shell pair information
Total number of shell pairs                 ...       595
Shell pairs after pre-screening             ...       570
Total number of primitive shell pairs       ...      1563
Primitive shell pairs kept                  ...      1362
          la=0 lb=0:     62 shell pairs
          la=1 lb=0:     93 shell pairs
          la=1 lb=1:     43 shell pairs
          la=2 lb=0:     74 shell pairs
          la=2 lb=1:     61 shell pairs
          la=2 lb=2:     27 shell pairs
          la=3 lb=0:     52 shell pairs
          la=3 lb=1:     43 shell pairs
          la=3 lb=2:     33 shell pairs
          la=3 lb=3:     15 shell pairs
          la=4 lb=0:     22 shell pairs
          la=4 lb=1:     18 shell pairs
          la=4 lb=2:     14 shell pairs
          la=4 lb=3:     10 shell pairs
          la=4 lb=4:      3 shell pairs

Calculating one electron integrals          ... done (  0.0 sec)
Calculating Nuclear repulsion               ... done (  0.0 sec) ENN=      0.601337736705 Eh

SHARK setup successfully completed in   0.1 seconds

Maximum memory used throughout the entire GTOINT-calculation: 28.9 MB
[cnode06:185975] 7 more processes have sent help message help-mpi-btl-openib.txt / error in device init
[cnode06:185975] Set MCA parameter "orte_base_help_aggregate" to 0 to see all help / error messages
--------------------------------------------------------------------------
WARNING: There was an error initializing an OpenFabrics device.

  Local host:   cnode06
  Local device: mlx5_0
--------------------------------------------------------------------------


           ************************************************************
           *        Program running with 8 parallel MPI-processes     *
           *              working on a common directory               *
           ************************************************************
-------------------------------------------------------------------------------
                                 ORCA SCF
-------------------------------------------------------------------------------

------------
SCF SETTINGS
------------
Hamiltonian:
 Ab initio Hamiltonian  Method          .... Hartree-Fock(GTOs)


General Settings:
 Integral files         IntName         .... /scratch/BH-4.4-O_678/BH-4.4-O
 Hartree-Fock type      HFTyp           .... UHF
 Total Charge           Charge          ....    0
 Multiplicity           Mult            ....    1
 Number of Electrons    NEL             ....    6
 Basis Dimension        Dim             ....  126
 Nuclear Repulsion      ENuc            ....      0.6013377367 Eh

 Symmetry handling      UseSym         .... ON
 Point group                           .... C2v
 Used point group                      .... C2v
 Number of irreps                      .... 4
   Irrep   A1 has   50 symmetry adapted basis functions (ofs=   0)
   Irrep   A2 has   16 symmetry adapted basis functions (ofs=  50)
   Irrep   B1 has   30 symmetry adapted basis functions (ofs=  66)
   Irrep   B2 has   30 symmetry adapted basis functions (ofs=  96)

Convergence Acceleration:
 DIIS                   CNVDIIS         .... on
   Start iteration      DIISMaxIt       ....    12
   Startup error        DIISStart       ....  0.200000
   # of expansion vecs  DIISMaxEq       ....     5
   Bias factor          DIISBfac        ....   1.050
   Max. coefficient     DIISMaxC        ....  10.000
 Trust-Rad. Augm. Hess. CNVTRAH         .... auto
   Auto Start mean grad. ratio tolernc. ....  1.125000
   Auto Start start iteration           ....    20
   Auto Start num. interpolation iter.  ....    10
   Max. Number of Micro iterations      ....    16
   Max. Number of Macro iterations      .... Maxiter - #DIIS iter
   Number of Davidson start vectors     ....     2
   Converg. threshold I  (grad. norm)   ....   2.000e-06
   Converg. threshold II (energy diff.) ....   1.000e-09
   Grad. Scal. Fac. for Micro threshold ....   0.100
   Minimum threshold for Micro iter.    ....   0.010
   NR start threshold (gradient norm)   ....   0.001
   Initial trust radius                 ....   0.400
   Minimum AH scaling param. (alpha)    ....   1.000
   Maximum AH scaling param. (alpha)    .... 1000.000
   Orbital update algorithm             .... Taylor
   White noise on init. David. guess    .... on
   Maximum white noise                  ....   0.010
   Quad. conv. algorithm                .... NR
 SOSCF                  CNVSOSCF        .... off
 Level Shifting         CNVShift        .... on
   Level shift para.    LevelShift      ....    0.2500
   Turn off err/grad.   ShiftErr        ....    0.0010
 Zerner damping         CNVZerner       .... off
 Static damping         CNVDamp         .... on
   Fraction old density DampFac         ....    0.7000
   Max. Damping (<1)    DampMax         ....    0.9800
   Min. Damping (>=0)   DampMin         ....    0.0000
   Turn off err/grad.   DampErr         ....    0.1000
 Fernandez-Rico         CNVRico         .... off

SCF Procedure:
 Maximum # iterations   MaxIter         ....   125
 SCF integral mode      SCFMode         .... Direct
   Integral package                     .... SHARK and LIBINT hybrid scheme
 Reset frequency        DirectResetFreq ....    20
 Integral Threshold     Thresh          ....  1.000e-12 Eh
 Primitive CutOff       TCut            ....  1.000e-14 Eh

Convergence Tolerance:
 Convergence Check Mode ConvCheckMode   .... Total+1el-Energy
 Convergence forced     ConvForced      .... 0
 Energy Change          TolE            ....  1.000e-09 Eh
 1-El. energy change                    ....  1.000e-06 Eh
 DIIS Error             TolErr          ....  1.000e-08


Diagonalization of the overlap matrix:
Smallest eigenvalue                        ... 4.869e-03
Time for diagonalization                   ...    0.002 sec
Threshold for overlap eigenvalues          ... 1.000e-08
Number of eigenvalues below threshold      ... 0
Time for construction of square roots      ...    0.002 sec
Producing symmetrization matrix            ... done (   0.000 sec)
Total time needed                          ...    0.005 sec

Time for model grid setup =    0.008 sec

------------------------------
INITIAL GUESS: MODEL POTENTIAL
------------------------------
Loading Hartree-Fock densities                     ... done
Calculating cut-offs                               ... done
Initializing the effective Hamiltonian             ... done
Setting up the integral package (SHARK)            ... done
Starting the Coulomb interaction                   ... done (   0.0 sec)
Reading the grid                                   ... done
Mapping shells                                     ... done
Starting the XC term evaluation                    ... done (   0.0 sec)
done (   0.0 sec)
Diagonalizing the Hamiltonian                      ... done (   0.0 sec)
Back transforming the eigenvectors                 ... done (   0.0 sec)
Now organizing SCF variables                       ... done
The symmetry of the initial guess is 1-A1
Irrep occupations for operator 0
    A1 -    3
    A2 -    0
    B1 -    0
    B2 -    0
Irrep occupations for operator 1
    A1 -    3
    A2 -    0
    B1 -    0
    B2 -    0
                      ------------------
                      INITIAL GUESS DONE (   0.0 sec)
                      ------------------
--------------
SCF ITERATIONS
--------------
ITER       Energy         Delta-E        Max-DP      RMS-DP      [F,P]     Damp
               ***  Starting incremental Fock matrix formation  ***
  0    -24.7740399856   0.000000000000 0.02254915  0.00046788  0.2049316 0.7000
  1    -24.7956395269  -0.021599541329 0.02318718  0.00046287  0.1600798 0.7000
                               ***Turning on DIIS***
  2    -24.8199989567  -0.024359429776 0.02000156  0.00042017  0.1117186 0.7000
  3    -24.7554526159   0.064546340770 0.04703915  0.00104827  0.0690954 0.0000
  4    -24.9215801907  -0.166127574758 0.00827137  0.00015667  0.0190231 0.0000
  5    -24.9024865088   0.019093681867 0.00530494  0.00011996  0.0089888 0.0000
  6    -24.8925057297   0.009980779119 0.00333309  0.00005593  0.0029785 0.0000
  7    -24.8897218337   0.002783896059 0.00139148  0.00002649  0.0011502 0.0000
  8    -24.8896355269   0.000086306775 0.00164744  0.00002941  0.0006305 0.0000
  9    -24.8901299443  -0.000494417433 0.00027708  0.00000528  0.0002009 0.0000
 10    -24.8897533042   0.000376640144 0.00012986  0.00000229  0.0000553 0.0000
 11    -24.8898778701  -0.000124565946 0.00002428  0.00000041  0.0000085 0.0000
 12    -24.8898764775   0.000001392602 0.00000256  0.00000004  0.0000018 0.0000
 13    -24.8898764306   0.000000046894 0.00000115  0.00000002  0.0000006 0.0000
 14    -24.8898758642   0.000000566446 0.00000012  0.00000000  0.0000001 0.0000
 15    -24.8898758400   0.000000024211 0.00000007  0.00000000  0.0000000 0.0000
                            ***DIIS convergence achieved***

               *****************************************************
               *                     SUCCESS                       *
               *           SCF CONVERGED AFTER  16 CYCLES          *
               *****************************************************


------------------------------------------------------------------------------
                          SCF STABILITY ANALYSIS                              
------------------------------------------------------------------------------


                       ****Iteration    0****

   Memory handling for direct AO based CIS:
   Memory per vector needed      ...     1 MB
   Memory needed                 ...     4 MB
   Memory available              ...  1024 MB
   Number of vectors per batch   ...  1024
   Number of batches             ...     1
   Time for densities:     0.001
   Using LibInt in JK Direct
   Time for J+K (Direct):     1.543
   Time for Sigma-Completion:     0.002
   Lowest Energy          :    -0.213903251042
   Maximum Energy change  :     0.213903251042 (vector 0)
   Maximum residual norm  :     0.021428942014

                       ****Iteration    1****
   Time for densities:     0.000
   Using LibInt in JK Direct
[cnode06:186035] 7 more processes have sent help message help-mpi-btl-openib.txt / error in device init
[cnode06:186035] Set MCA parameter "orte_base_help_aggregate" to 0 to see all help / error messages
   Time for J+K (Direct):     0.789
   Time for Sigma-Completion:     0.002
   Lowest Energy          :    -0.255103778158
   Maximum Energy change  :     0.041200527115 (vector 0)
   Maximum residual norm  :     0.000677261367

                       ****Iteration    2****
   Time for densities:     0.000
   Using LibInt in JK Direct
   Time for J+K (Direct):     0.776
   Time for Sigma-Completion:     0.002
   Lowest Energy          :    -0.256241596066
   Maximum Energy change  :     0.001610141175 (vector 2)
   Maximum residual norm  :     0.000611930282

                       ****Iteration    3****
   Time for densities:     0.000
   Using LibInt in JK Direct
   Time for J+K (Direct):     0.790
   Time for Sigma-Completion:     0.001
   Lowest Energy          :    -0.256259587653
   Maximum Energy change  :     0.001630220076 (vector 1)
   Maximum residual norm  :     0.000085467926

      *** CONVERGENCE OF RESIDUAL NORM REACHED ***

----------------------------- 
SCF STABILITY ANALYSIS RESULT 
----------------------------- 

UHF/UKS->UHF/UKS - singlet - internal

   Root    Eigenvalue (au) 
     0      -0.256260 
     1      -0.014417 
     2      -0.014417 

Stability Analysis indicates an UNSTABLE HF/KS wave function with SEVERAL negative eigenvalues.

Since this is UHF/UKS, we will restart the SCF using a new guess based on the eigenvector 
associated with the lowest eigenvalue. Because there is no guarantee that the restart     
will result in a stable solution, the user should check the stability of the resulting    
wave function in a separate calculation using the MOREAD guess feature.

Obtain new guess               ... done 

Total time for performing the stability analysis:     3.918sec

--------------------------
SCF ITERATIONS (restarted)
--------------------------
ITER       Energy         Delta-E        Max-DP      RMS-DP      [F,P]     Damp
               ***  Starting incremental Fock matrix formation  ***
  0    -24.9304857426   0.000000000000 0.01362410  0.00014816  0.0295518 0.7000
  1    -24.9381388392  -0.007653096639 0.01672446  0.00019586  0.0287286 0.7000
                               ***Turning on DIIS***
  2    -24.9483626181  -0.010223778852 0.05328170  0.00068383  0.0276048 0.0000
  3    -25.1520079575  -0.203645339376 0.02056213  0.00028701  0.0279216 0.0000
  4    -25.1542049338  -0.002196976312 0.01163965  0.00017293  0.0357626 0.0000
  5    -25.1441636904   0.010041243365 0.00745105  0.00011350  0.0372964 0.0000
  6    -25.1332185034   0.010945187003 0.00549181  0.00007791  0.0368061 0.0000
  7    -24.9500179717   0.183200531711 0.04493096  0.00069296  0.0358108 0.0000
  8    -25.0182242494  -0.068206277722 0.01909676  0.00031839  0.0262583 0.0000
  9    -25.0003890995   0.017835149964 0.02493961  0.00038968  0.0251376 0.0000
 10    -24.9961039913   0.004285108157 0.02442000  0.00039294  0.0202197 0.0000
 11    -25.0289173161  -0.032813324786 0.00647580  0.00009916  0.0110946 0.0000
 12    -25.0238990228   0.005018293310 0.00672643  0.00010558  0.0060216 0.0000
 13    -25.0302758621  -0.006376839352 0.00195135  0.00003152  0.0029211 0.0000
 14    -25.0313707298  -0.001094867659 0.00089396  0.00001532  0.0014489 0.0000
 15    -25.0322857202  -0.000914990434 0.00075654  0.00001121  0.0006824 0.0000
 16    -25.0329994950  -0.000713774775 0.00025817  0.00000360  0.0001181 0.0000
 17    -25.0329956212   0.000003873756 0.00011724  0.00000158  0.0000409 0.0000
 18    -25.0329755328   0.000020088485 0.00003004  0.00000049  0.0000163 0.0000
 19    -25.0329658060   0.000009726785 0.00001149  0.00000019  0.0000088 0.0000
               *** Restarting incremental Fock matrix formation ***
                                   *** Resetting DIIS ***
 20    -25.0329623912   0.000003414759 0.00000287  0.00000005  0.0000035 0.0000
 21    -25.0329611500   0.000001241187 0.00000411  0.00000007  0.0000024 0.0000
 22    -25.0329619767  -0.000000826664 0.00000113  0.00000002  0.0000008 0.0000
 23    -25.0329624430  -0.000000466311 0.00000041  0.00000001  0.0000002 0.0000
 24    -25.0329624567  -0.000000013675 0.00000031  0.00000000  0.0000001 0.0000
 25    -25.0329624152   0.000000041469 0.00000010  0.00000000  0.0000000 0.0000
                            ***DIIS convergence achieved***

               *****************************************************
               *                     SUCCESS                       *
               *           SCF CONVERGED AFTER  26 CYCLES          *
               *****************************************************


----------------
TOTAL SCF ENERGY
----------------

Total Energy       :          -25.03296240 Eh            -681.18154 eV

Components:
Nuclear Repulsion  :            0.60133774 Eh              16.36323 eV
Electronic Energy  :          -25.63430013 Eh            -697.54477 eV
One Electron Energy:          -34.07394663 Eh            -927.19923 eV
Two Electron Energy:            8.43964650 Eh             229.65446 eV

Virial components:
Potential Energy   :          -50.06507603 Eh           -1362.33998 eV
Kinetic Energy     :           25.03211364 Eh             681.15844 eV
Virial Ratio       :            2.00003391


---------------
SCF CONVERGENCE
---------------

  Last Energy change         ...    1.8291e-08  Tolerance :   1.0000e-09
  Last MAX-Density change    ...    1.3490e-08  Tolerance :   1.0000e-08
  Last RMS-Density change    ...    2.0901e-10  Tolerance :   1.0000e-09
  Last DIIS Error            ...    6.1788e-09  Tolerance :   1.0000e-08

             **** THE GBW FILE WAS UPDATED (/scratch/BH-4.4-O_678/BH-4.4-O.gbw) ****
             **** DENSITY /scratch/BH-4.4-O_678/BH-4.4-O.scfp WAS UPDATED ****
             **** ENERGY FILE WAS UPDATED (/scratch/BH-4.4-O_678/BH-4.4-O.en.tmp) ****

     --------------------------------------------------------------------
                                      WARNING
     A stability analysis of the first UHF/UKS SCF solution was performed
     and an instability detected. The result was used as a guess for
     a second SCF, which has converged. There is no guarantee that the
     current solution is stable - it is up to you to rerun the stability
     analysis using the now stored solution as a guess and verify.
     --------------------------------------------------------------------

----------------------
UHF SPIN CONTAMINATION
----------------------

Expectation value of <S**2>     :     1.009972
Ideal value S*(S+1) for S=0.0   :     0.000000
Deviation                       :     1.009972

             **** THE GBW FILE WAS UPDATED (/scratch/BH-4.4-O_678/BH-4.4-O.gbw) ****
             **** DENSITY /scratch/BH-4.4-O_678/BH-4.4-O.scfp WAS UPDATED ****
----------------
ORBITAL ENERGIES
----------------
                 SPIN UP ORBITALS
  NO   OCC          E(Eh)            E(eV)    Irrep 
   0   1.0000      -7.686591      -209.1628    1-A1
   1   1.0000      -0.495609       -13.4862    2-A1
   2   1.0000      -0.446422       -12.1478    3-A1
   3   0.0000       0.027236         0.7411    1-B1
   4   0.0000       0.027236         0.7411    1-B2
   5   0.0000       0.043452         1.1824    4-A1
   6   0.0000       0.052063         1.4167    5-A1
   7   0.0000       0.076160         2.0724    6-A1
   8   0.0000       0.084189         2.2909    2-B1
   9   0.0000       0.084189         2.2909    2-B2
  10   0.0000       0.116374         3.1667    7-A1
  11   0.0000       0.142078         3.8661    3-B1
  12   0.0000       0.142078         3.8661    3-B2
  13   0.0000       0.145659         3.9636    8-A1
  14   0.0000       0.145659         3.9636    1-A2
  15   0.0000       0.172691         4.6992    9-A1
  16   0.0000       0.203902         5.5485    4-B1
  17   0.0000       0.203902         5.5485    4-B2
  18   0.0000       0.256174         6.9708   10-A1
  19   0.0000       0.319649         8.6981    5-B1
  20   0.0000       0.319649         8.6981    5-B2
  21   0.0000       0.344174         9.3655   11-A1
  22   0.0000       0.360733         9.8161   12-A1
  23   0.0000       0.402956        10.9650   13-A1
  24   0.0000       0.461714        12.5639    6-B2
  25   0.0000       0.461714        12.5639    6-B1
  26   0.0000       0.469643        12.7796   14-A1
  27   0.0000       0.469643        12.7796    2-A2
  28   0.0000       0.470596        12.8056    7-B2
  29   0.0000       0.470596        12.8056    7-B1
  30   0.0000       0.501301        13.6411   15-A1
  31   0.0000       0.501301        13.6411    3-A2
  32   0.0000       0.502813        13.6822   16-A1
  33   0.0000       0.527865        14.3639    8-B2
  34   0.0000       0.527865        14.3639    8-B1
  35   0.0000       0.574368        15.6294   17-A1
  36   0.0000       0.620229        16.8773   18-A1
  37   0.0000       0.620229        16.8773    4-A2
  38   0.0000       0.661566        18.0021    9-B2
  39   0.0000       0.661566        18.0021    9-B1
  40   0.0000       0.722618        19.6634   19-A1
  41   0.0000       0.767418        20.8825   10-B2
  42   0.0000       0.767418        20.8825   10-B1
  43   0.0000       0.867932        23.6176   20-A1
  44   0.0000       1.060776        28.8652   11-B1
  45   0.0000       1.060776        28.8652   11-B2
  46   0.0000       1.135844        30.9079   21-A1
  47   0.0000       1.369617        37.2692    5-A2
  48   0.0000       1.369617        37.2692   22-A1
  49   0.0000       1.384324        37.6694   12-B1
  50   0.0000       1.384324        37.6694   12-B2
  51   0.0000       1.394720        37.9522    6-A2
  52   0.0000       1.394720        37.9522   23-A1
  53   0.0000       1.401556        38.1383   13-B1
  54   0.0000       1.401556        38.1383   13-B2
  55   0.0000       1.407901        38.3109   24-A1
  56   0.0000       1.415860        38.5275   25-A1
  57   0.0000       1.415860        38.5275    7-A2
  58   0.0000       1.428751        38.8783   26-A1
  59   0.0000       1.439628        39.1743   14-B1
  60   0.0000       1.439628        39.1743   14-B2
  61   0.0000       1.454164        39.5698   15-B1
  62   0.0000       1.454164        39.5698   15-B2
  63   0.0000       1.462553        39.7981    8-A2
  64   0.0000       1.462553        39.7981   27-A1
  65   0.0000       1.466076        39.8940   28-A1
  66   0.0000       1.480490        40.2862   16-B2
  67   0.0000       1.480490        40.2862   16-B1
  68   0.0000       1.531907        41.6853   29-A1
  69   0.0000       1.562479        42.5172   17-B1
  70   0.0000       1.562479        42.5172   17-B2
  71   0.0000       1.565738        42.6059    9-A2
  72   0.0000       1.565738        42.6059   30-A1
  73   0.0000       1.584820        43.1251   31-A1
  74   0.0000       1.591645        43.3109   18-B2
  75   0.0000       1.591645        43.3109   18-B1
  76   0.0000       1.700997        46.2865   32-A1
  77   0.0000       2.453016        66.7500   10-A2
  78   0.0000       2.453016        66.7500   33-A1
  79   0.0000       2.471274        67.2468   19-B2
  80   0.0000       2.471274        67.2468   19-B1
  81   0.0000       2.512592        68.3711   34-A1
  82   0.0000       2.564198        69.7754   20-B2
  83   0.0000       2.564198        69.7754   20-B1
  84   0.0000       2.647481        72.0416   35-A1
  85   0.0000       3.744674       101.8977   21-B2
  86   0.0000       3.744674       101.8977   21-B1
  87   0.0000       3.811721       103.7222   36-A1
  88   0.0000       3.920189       106.6738   37-A1
  89   0.0000       3.920189       106.6738   11-A2
  90   0.0000       3.945506       107.3627   22-B1
  91   0.0000       3.945506       107.3627   22-B2
  92   0.0000       3.960336       107.7662   12-A2
  93   0.0000       3.960336       107.7662   38-A1
  94   0.0000       3.964855       107.8892   39-A1
  95   0.0000       3.964855       107.8892   13-A2
  96   0.0000       3.976334       108.2015   23-B1
  97   0.0000       3.976334       108.2015   23-B2
  98   0.0000       3.993030       108.6559   40-A1
  99   0.0000       4.003073       108.9292   24-B2
 100   0.0000       4.003073       108.9292   24-B1
 101   0.0000       4.031370       109.6992   41-A1
 102   0.0000       4.088578       111.2559   25-B2
 103   0.0000       4.088578       111.2559   25-B1
 104   0.0000       4.121492       112.1515   42-A1
 105   0.0000       4.121492       112.1515   14-A2
 106   0.0000       4.150471       112.9400   26-B2
 107   0.0000       4.150471       112.9400   26-B1
 108   0.0000       4.196840       114.2018   43-A1
 109   0.0000       6.555282       178.3783   27-B1
 110   0.0000       6.555282       178.3783   27-B2
 111   0.0000       6.555817       178.3928   44-A1
 112   0.0000       6.555817       178.3928   15-A2
 113   0.0000       6.559258       178.4865   28-B2
 114   0.0000       6.559258       178.4865   28-B1
 115   0.0000       6.566638       178.6873   45-A1
 116   0.0000       7.425278       202.0521   46-A1
 117   0.0000       7.939883       216.0552   29-B2
 118   0.0000       7.939883       216.0552   29-B1
 119   0.0000       7.982839       217.2241   47-A1
 120   0.0000       8.391562       228.3460   48-A1
 121   0.0000       8.391562       228.3460   16-A2
 122   0.0000       8.403353       228.6669   30-B2
 123   0.0000       8.403353       228.6669   30-B1
 124   0.0000       8.446001       229.8274   49-A1
 125   0.0000      13.064209       355.4952   50-A1

                 SPIN DOWN ORBITALS
  NO   OCC          E(Eh)            E(eV)    Irrep 
   0   1.0000      -7.701712      -209.5742    1-A1
   1   1.0000      -0.545452       -14.8425    2-A1
   2   1.0000      -0.318868        -8.6768    3-A1
   3   0.0000       0.019492         0.5304    4-A1
   4   0.0000       0.023555         0.6410    1-B1
   5   0.0000       0.023555         0.6410    1-B2
   6   0.0000       0.050234         1.3669    5-A1
   7   0.0000       0.075399         2.0517    6-A1
   8   0.0000       0.077197         2.1006    2-B1
   9   0.0000       0.077197         2.1006    2-B2
  10   0.0000       0.108535         2.9534    7-A1
  11   0.0000       0.142643         3.8815    3-B2
  12   0.0000       0.142643         3.8815    3-B1
  13   0.0000       0.145593         3.9618    1-A2
  14   0.0000       0.145593         3.9618    8-A1
  15   0.0000       0.177291         4.8243    9-A1
  16   0.0000       0.218681         5.9506    4-B2
  17   0.0000       0.218681         5.9506    4-B1
  18   0.0000       0.242147         6.5892   10-A1
  19   0.0000       0.311519         8.4769    5-B2
  20   0.0000       0.311519         8.4769    5-B1
  21   0.0000       0.323195         8.7946   11-A1
  22   0.0000       0.342105         9.3091   12-A1
  23   0.0000       0.456171        12.4131   13-A1
  24   0.0000       0.461789        12.5659    6-B1
  25   0.0000       0.461789        12.5659    6-B2
  26   0.0000       0.465786        12.6747   14-A1
  27   0.0000       0.465786        12.6747    2-A2
  28   0.0000       0.466042        12.6817    7-B2
  29   0.0000       0.466042        12.6817    7-B1
  30   0.0000       0.497794        13.5457    8-B1
  31   0.0000       0.497794        13.5457    8-B2
  32   0.0000       0.498269        13.5586   15-A1
  33   0.0000       0.500239        13.6122   16-A1
  34   0.0000       0.500239        13.6122    3-A2
  35   0.0000       0.559266        15.2184   17-A1
  36   0.0000       0.633402        17.2358    4-A2
  37   0.0000       0.633402        17.2358   18-A1
  38   0.0000       0.674908        18.3652    9-B2
  39   0.0000       0.674908        18.3652    9-B1
  40   0.0000       0.743172        20.2227   19-A1
  41   0.0000       0.831047        22.6139   10-B2
  42   0.0000       0.831047        22.6139   10-B1
  43   0.0000       0.911042        24.7907   20-A1
  44   0.0000       1.051555        28.6143   11-B1
  45   0.0000       1.051555        28.6143   11-B2
  46   0.0000       1.067620        29.0514   21-A1
  47   0.0000       1.369895        37.2767    5-A2
  48   0.0000       1.369895        37.2767   22-A1
  49   0.0000       1.379166        37.5290   12-B1
  50   0.0000       1.379166        37.5290   12-B2
  51   0.0000       1.385776        37.7089    6-A2
  52   0.0000       1.385776        37.7089   23-A1
  53   0.0000       1.390724        37.8435   24-A1
  54   0.0000       1.390996        37.8509   13-B1
  55   0.0000       1.390996        37.8509   13-B2
  56   0.0000       1.399042        38.0699   25-A1
  57   0.0000       1.405918        38.2570   14-B1
  58   0.0000       1.405918        38.2570   14-B2
  59   0.0000       1.410988        38.3949   26-A1
  60   0.0000       1.410988        38.3949    7-A2
  61   0.0000       1.424530        38.7634   27-A1
  62   0.0000       1.438986        39.1568   15-B2
  63   0.0000       1.438986        39.1568   15-B1
  64   0.0000       1.446615        39.3644    8-A2
  65   0.0000       1.446615        39.3644   28-A1
  66   0.0000       1.457165        39.6515   16-B2
  67   0.0000       1.457165        39.6515   16-B1
  68   0.0000       1.506208        40.9860   29-A1
  69   0.0000       1.575058        42.8595   17-B1
  70   0.0000       1.575058        42.8595   17-B2
  71   0.0000       1.577937        42.9379   30-A1
  72   0.0000       1.577937        42.9379    9-A2
  73   0.0000       1.599991        43.5380   18-B2
  74   0.0000       1.599991        43.5380   18-B1
  75   0.0000       1.634576        44.4791   31-A1
  76   0.0000       1.759519        47.8790   32-A1
  77   0.0000       2.492472        67.8236   10-A2
  78   0.0000       2.492472        67.8236   33-A1
  79   0.0000       2.510926        68.3258   19-B2
  80   0.0000       2.510926        68.3258   19-B1
  81   0.0000       2.557138        69.5833   34-A1
  82   0.0000       2.638065        71.7854   20-B2
  83   0.0000       2.638065        71.7854   20-B1
  84   0.0000       2.712513        73.8112   35-A1
  85   0.0000       3.737585       101.7049   21-B2
  86   0.0000       3.737585       101.7049   21-B1
  87   0.0000       3.763955       102.4224   36-A1
  88   0.0000       3.919501       106.6550   37-A1
  89   0.0000       3.919501       106.6550   11-A2
  90   0.0000       3.934617       107.0664   22-B1
  91   0.0000       3.934617       107.0664   22-B2
  92   0.0000       3.945464       107.3615   38-A1
  93   0.0000       3.945464       107.3615   12-A2
  94   0.0000       3.953942       107.5922   23-B1
  95   0.0000       3.953942       107.5922   23-B2
  96   0.0000       3.955895       107.6454   39-A1
  97   0.0000       3.955895       107.6454   13-A2
  98   0.0000       3.965529       107.9075   40-A1
  99   0.0000       3.966002       107.9204   24-B2
 100   0.0000       3.966002       107.9204   24-B1
 101   0.0000       3.986954       108.4905   41-A1
 102   0.0000       4.085902       111.1831   25-B1
 103   0.0000       4.085902       111.1831   25-B2
 104   0.0000       4.100066       111.5685   42-A1
 105   0.0000       4.100066       111.5685   14-A2
 106   0.0000       4.117212       112.0350   26-B2
 107   0.0000       4.117212       112.0350   26-B1
 108   0.0000       4.158621       113.1618   43-A1
 109   0.0000       6.584125       179.1632   27-B1
 110   0.0000       6.584125       179.1632   27-B2
 111   0.0000       6.584646       179.1773   44-A1
 112   0.0000       6.584646       179.1773   15-A2
 113   0.0000       6.588055       179.2701   28-B2
 114   0.0000       6.588055       179.2701   28-B1
 115   0.0000       6.595398       179.4699   45-A1
 116   0.0000       7.506743       204.2689   46-A1
 117   0.0000       7.997778       217.6306   29-B2
 118   0.0000       7.997778       217.6306   29-B1
 119   0.0000       8.040220       218.7855   47-A1
 120   0.0000       8.433791       229.4951   48-A1
 121   0.0000       8.433791       229.4951   16-A2
 122   0.0000       8.445493       229.8135   30-B2
 123   0.0000       8.445493       229.8135   30-B1
 124   0.0000       8.487938       230.9685   49-A1
 125   0.0000      13.052498       355.1765   50-A1

                    ********************************
                    * MULLIKEN POPULATION ANALYSIS *
                    ********************************

--------------------------------------------
MULLIKEN ATOMIC CHARGES AND SPIN POPULATIONS
--------------------------------------------
   0 B :    0.000431   -1.000507
   1 H :   -0.000431    1.000507
Sum of atomic charges         :   -0.0000000
Sum of atomic spin populations:    0.0000000

-----------------------------------------------------
MULLIKEN REDUCED ORBITAL CHARGES AND SPIN POPULATIONS
-----------------------------------------------------
CHARGE
  0 B s       :     3.994645  s :     3.994645
      pz      :     1.000093  p :     1.000093
      px      :     0.000000
      py      :     0.000000
      dz2     :     0.004875  d :     0.004875
      dxz     :     0.000000
      dyz     :     0.000000
      dx2y2   :     0.000000
      dxy     :     0.000000
      f0      :    -0.000044  f :    -0.000044
      f+1     :     0.000000
      f-1     :     0.000000
      f+2     :     0.000000
      f-2     :     0.000000
      f+3     :     0.000000
      f-3     :     0.000000
      g0      :    -0.000001  g :    -0.000001
      g+1     :     0.000000
      g-1     :     0.000000
      g+2     :     0.000000
      g-2     :     0.000000
      g+3     :     0.000000
      g-3     :     0.000000
      g+4     :     0.000000
      g-4     :     0.000000
  1 H s       :     1.000637  s :     1.000637
      pz      :    -0.000177  p :    -0.000177
      px      :     0.000000
      py      :     0.000000
      dz2     :    -0.000030  d :    -0.000030
      dxz     :     0.000000
      dyz     :     0.000000
      dx2y2   :     0.000000
      dxy     :     0.000000
      f0      :     0.000001  f :     0.000001
      f+1     :     0.000000
      f-1     :     0.000000
      f+2     :     0.000000
      f-2     :     0.000000
      f+3     :     0.000000
      f-3     :     0.000000

SPIN
  0 B s       :     0.001013  s :     0.001013
      pz      :    -1.000181  p :    -1.000181
      px      :    -0.000000
      py      :     0.000000
      dz2     :    -0.001258  d :    -0.001258
      dxz     :     0.000000
      dyz     :     0.000000
      dx2y2   :     0.000000
      dxy     :    -0.000000
      f0      :    -0.000080  f :    -0.000080
      f+1     :     0.000000
      f-1     :     0.000000
      f+2     :    -0.000000
      f-2     :    -0.000000
      f+3     :     0.000000
      f-3     :     0.000000
      g0      :    -0.000001  g :    -0.000001
      g+1     :    -0.000000
      g-1     :    -0.000000
      g+2     :     0.000000
      g-2     :    -0.000000
      g+3     :     0.000000
      g-3     :    -0.000000
      g+4     :    -0.000000
      g-4     :     0.000000
  1 H s       :     1.000247  s :     1.000247
      pz      :     0.000238  p :     0.000238
      px      :     0.000000
      py      :     0.000000
      dz2     :     0.000024  d :     0.000024
      dxz     :     0.000000
      dyz     :     0.000000
      dx2y2   :    -0.000000
      dxy     :    -0.000000
      f0      :    -0.000001  f :    -0.000001
      f+1     :    -0.000000
      f-1     :     0.000000
      f+2     :    -0.000000
      f-2     :    -0.000000
      f+3     :     0.000000
      f-3     :     0.000000


                     *******************************
                     * LOEWDIN POPULATION ANALYSIS *
                     *******************************

-------------------------------------------
LOEWDIN ATOMIC CHARGES AND SPIN POPULATIONS
-------------------------------------------
   0 B :   -0.010435   -0.976703
   1 H :    0.010435    0.976703

----------------------------------------------------
LOEWDIN REDUCED ORBITAL CHARGES AND SPIN POPULATIONS
----------------------------------------------------
CHARGE
  0 B s       :     3.992458  s :     3.992458
      pz      :     1.003539  p :     1.003539
      px      :     0.000000
      py      :     0.000000
      dz2     :     0.013600  d :     0.013600
      dxz     :     0.000000
      dyz     :     0.000000
      dx2y2   :     0.000000
      dxy     :     0.000000
      f0      :     0.000831  f :     0.000831
      f+1     :     0.000000
      f-1     :     0.000000
      f+2     :     0.000000
      f-2     :     0.000000
      f+3     :     0.000000
      f-3     :     0.000000
      g0      :     0.000007  g :     0.000007
      g+1     :     0.000000
      g-1     :     0.000000
      g+2     :     0.000000
      g-2     :     0.000000
      g+3     :     0.000000
      g-3     :     0.000000
      g+4     :     0.000000
      g-4     :     0.000000
  1 H s       :     0.985804  s :     0.985804
      pz      :     0.003309  p :     0.003309
      px      :     0.000000
      py      :     0.000000
      dz2     :     0.000429  d :     0.000429
      dxz     :     0.000000
      dyz     :     0.000000
      dx2y2   :     0.000000
      dxy     :     0.000000
      f0      :     0.000024  f :     0.000024
      f+1     :     0.000000
      f-1     :     0.000000
      f+2     :     0.000000
      f-2     :     0.000000
      f+3     :     0.000000
      f-3     :     0.000000

SPIN
  0 B s       :     0.001823  s :     0.001823
      pz      :    -0.986769  p :    -0.986769
      px      :    -0.000000
      py      :    -0.000000
      dz2     :     0.007433  d :     0.007433
      dxz     :    -0.000000
      dyz     :     0.000000
      dx2y2   :     0.000000
      dxy     :    -0.000000
      f0      :     0.000804  f :     0.000804
      f+1     :     0.000000
      f-1     :     0.000000
      f+2     :    -0.000000
      f-2     :     0.000000
      f+3     :    -0.000000
      f-3     :    -0.000000
      g0      :     0.000006  g :     0.000006
      g+1     :    -0.000000
      g-1     :    -0.000000
      g+2     :     0.000000
      g-2     :     0.000000
      g+3     :     0.000000
      g-3     :     0.000000
      g+4     :    -0.000000
      g-4     :    -0.000000
  1 H s       :     0.979496  s :     0.979496
      pz      :    -0.002413  p :    -0.002413
      px      :     0.000000
      py      :     0.000000
      dz2     :    -0.000360  d :    -0.000360
      dxz     :     0.000000
      dyz     :    -0.000000
      dx2y2   :    -0.000000
      dxy     :    -0.000000
      f0      :    -0.000020  f :    -0.000020
      f+1     :    -0.000000
      f-1     :     0.000000
      f+2     :    -0.000000
      f-2     :    -0.000000
      f+3     :     0.000000
      f-3     :    -0.000000


                      *****************************
                      * MAYER POPULATION ANALYSIS *
                      *****************************

  NA   - Mulliken gross atomic population
  ZA   - Total nuclear charge
  QA   - Mulliken gross atomic charge
  VA   - Mayer's total valence
  BVA  - Mayer's bonded valence
  FA   - Mayer's free valence

  ATOM       NA         ZA         QA         VA         BVA        FA
  0 B      4.9996     5.0000     0.0004     1.0222    -0.0007     1.0229
  1 H      1.0004     1.0000    -0.0004     0.9997    -0.0007     1.0004

  Mayer bond orders larger than 0.100000


-------
TIMINGS
-------

Total SCF time: 0 days 0 hours 0 min 10 sec 

Total time                  ....      10.633 sec
Sum of individual times     ....      10.428 sec  ( 98.1%)

Fock matrix formation       ....       6.096 sec  ( 57.3%)
Diagonalization             ....       0.224 sec  (  2.1%)
Density matrix formation    ....       0.008 sec  (  0.1%)
Population analysis         ....       0.006 sec  (  0.1%)
Initial guess               ....       0.007 sec  (  0.1%)
Orbital Transformation      ....       0.000 sec  (  0.0%)
Orbital Orthonormalization  ....       0.000 sec  (  0.0%)
DIIS solution               ....       0.162 sec  (  1.5%)
SCF Stability Analysis      ....       3.918 sec  ( 36.8%)

Maximum memory used throughout the entire SCF-calculation: 228.8 MB

-------------------------   --------------------
FINAL SINGLE POINT ENERGY       -25.032962396919
-------------------------   --------------------


                            ***************************************
                            *     ORCA property calculations      *
                            ***************************************

                                    ---------------------
                                    Active property flags
                                    ---------------------
   (+) Dipole Moment


------------------------------------------------------------------------------
                       ORCA ELECTRIC PROPERTIES CALCULATION
------------------------------------------------------------------------------

Dipole Moment Calculation                       ... on
Quadrupole Moment Calculation                   ... off
Polarizability Calculation                      ... off
GBWName                                         ... /scratch/BH-4.4-O_678/BH-4.4-O.gbw
Electron density file                           ... /scratch/BH-4.4-O_678/BH-4.4-O.scfp
The origin for moment calculation is the CENTER OF MASS  = ( 0.000000,  0.000000 -0.000000)

-------------
DIPOLE MOMENT
-------------
                                X             Y             Z
Electronic contribution:     -0.00000      -0.00000      -4.06943
Nuclear contribution   :      0.00000       0.00000       4.05960
                        -----------------------------------------
Total Dipole Moment    :     -0.00000      -0.00000      -0.00982
                        -----------------------------------------
Magnitude (a.u.)       :      0.00982
Magnitude (Debye)      :      0.02497



--------------------
Rotational spectrum 
--------------------
 
Rotational constants in cm-1:     0.000000     0.944385     0.944385 
Rotational constants in MHz :     0.000000 28311.964858 28311.964858 

 Dipole components along the rotational axes: 
x,y,z [a.u.] :    -0.009825    -0.000000    -0.000000 
x,y,z [Debye]:    -0.024972    -0.000000    -0.000000 

 
--------------------------------------------------------------------------
WARNING: There was an error initializing an OpenFabrics device.

  Local host:   cnode06
  Local device: mlx5_0
--------------------------------------------------------------------------
[cnode06:186183] 7 more processes have sent help message help-mpi-btl-openib.txt / error in device init
[cnode06:186183] Set MCA parameter "orte_base_help_aggregate" to 0 to see all help / error messages

Timings for individual modules:

Sum of individual times         ...       11.531 sec (=   0.192 min)
GTO integral calculation        ...        0.508 sec (=   0.008 min)   4.4 %
SCF iterations                  ...       11.023 sec (=   0.184 min)  95.6 %
                             ****ORCA TERMINATED NORMALLY****
TOTAL RUN TIME: 0 days 0 hours 0 minutes 11 seconds 977 msec

Sender: Unischeduler System <lcz@mgt01>
Subject: Job 133669: <#!/bin/bash
#BSUB -J intel
#BSUB -o BH-4.4-O.out
#BSUB -n 8
#BSUB -q cqueue
export LD_LIBRARY_PATH=/apps/software/openmpi-4.1.1/lib:/apps/software/orca_5_0_0:$LD_LIBRARY_PATH
export PATH=/apps/software/openmpi-4.1.1/bin:/apps/software/orca_5_0_0:$PATH
mkdir /scratch/BH-4.4-O_678
scp $USER@mgt01:/apps/users/lcz/exe13/UHF/BH-4.4-O.inp /scratch/BH-4.4-O_678
/apps/software/orca_5_0_0/orca /scratch/BH-4.4-O_678/BH-4.4-O.inp >& BH-4.4-O.out
scp /scratch/BH-4.4-O_678/*.gbw $USER@mgt01:/apps/users/lcz/exe13/UHF
scp /scratch/BH-4.4-O_678/*.xyz $USER@mgt01:/apps/users/lcz/exe13/UHF
scp /scratch/BH-4.4-O_678/*.trj $USER@mgt01:/apps/users/lcz/exe13/UHF> Exited

Job <#!/bin/bash
#BSUB -J intel
#BSUB -o BH-4.4-O.out
#BSUB -n 8
#BSUB -q cqueue
export LD_LIBRARY_PATH=/apps/software/openmpi-4.1.1/lib:/apps/software/orca_5_0_0:$LD_LIBRARY_PATH
export PATH=/apps/software/openmpi-4.1.1/bin:/apps/software/orca_5_0_0:$PATH
mkdir /scratch/BH-4.4-O_678
scp $USER@mgt01:/apps/users/lcz/exe13/UHF/BH-4.4-O.inp /scratch/BH-4.4-O_678
/apps/software/orca_5_0_0/orca /scratch/BH-4.4-O_678/BH-4.4-O.inp >& BH-4.4-O.out
scp /scratch/BH-4.4-O_678/*.gbw $USER@mgt01:/apps/users/lcz/exe13/UHF
scp /scratch/BH-4.4-O_678/*.xyz $USER@mgt01:/apps/users/lcz/exe13/UHF
scp /scratch/BH-4.4-O_678/*.trj $USER@mgt01:/apps/users/lcz/exe13/UHF> was submitted from host <mgt01> by user <lcz>.
Job was executed on host(s) <8*cnode06>, in queue <cqueue>, as user <lcz>.
</apps/users/lcz> was used as the home directory.
</apps/users/lcz/exe13/UHF> was used as the working directory.
Started at 2022-05-21 21:16:45
Results reported at 2022-05-21 21:16:58

Your job looked like:

------------------------------------------------------------
# User input
#!/bin/bash
#BSUB -J intel
#BSUB -o BH-4.4-O.out
#BSUB -n 8
#BSUB -q cqueue
export LD_LIBRARY_PATH=/apps/software/openmpi-4.1.1/lib:/apps/software/orca_5_0_0:$LD_LIBRARY_PATH
export PATH=/apps/software/openmpi-4.1.1/bin:/apps/software/orca_5_0_0:$PATH
mkdir /scratch/BH-4.4-O_678
scp $USER@mgt01:/apps/users/lcz/exe13/UHF/BH-4.4-O.inp /scratch/BH-4.4-O_678
/apps/software/orca_5_0_0/orca /scratch/BH-4.4-O_678/BH-4.4-O.inp >& BH-4.4-O.out
scp /scratch/BH-4.4-O_678/*.gbw $USER@mgt01:/apps/users/lcz/exe13/UHF
scp /scratch/BH-4.4-O_678/*.xyz $USER@mgt01:/apps/users/lcz/exe13/UHF
scp /scratch/BH-4.4-O_678/*.trj $USER@mgt01:/apps/users/lcz/exe13/UHF
------------------------------------------------------------

Exited with exit code 1.

Resource usage summary:

    CPU time   :           32.63 sec.
    Max Memory :              1239 MB
    Max Processes  :              13


The output (if any) follows:

/scratch/BH-4.4-O_678/*.xyz: No such file or directory
/scratch/BH-4.4-O_678/*.trj: No such file or directory
