 Entering Gaussian System, Link 0=/apps/software/g16/g16
 Initial command:
 /apps/software/g16/l1.exe "/scratch/Gau-76624.inp" -scrdir="/scratch/"
 Entering Link 1 = /apps/software/g16/l1.exe PID=     76625.
  
 Copyright (c) 1988,1990,1992,1993,1995,1998,2003,2009,2016,
            Gaussian, Inc.  All Rights Reserved.
  
 This is part of the Gaussian(R) 16 program.  It is based on
 the Gaussian(R) 09 system (copyright 2009, Gaussian, Inc.),
 the Gaussian(R) 03 system (copyright 2003, Gaussian, Inc.),
 the Gaussian(R) 98 system (copyright 1998, Gaussian, Inc.),
 the Gaussian(R) 94 system (copyright 1995, Gaussian, Inc.),
 the Gaussian 92(TM) system (copyright 1992, Gaussian, Inc.),
 the Gaussian 90(TM) system (copyright 1990, Gaussian, Inc.),
 the Gaussian 88(TM) system (copyright 1988, Gaussian, Inc.),
 the Gaussian 86(TM) system (copyright 1986, Carnegie Mellon
 University), and the Gaussian 82(TM) system (copyright 1983,
 Carnegie Mellon University). Gaussian is a federally registered
 trademark of Gaussian, Inc.
  
 This software contains proprietary and confidential information,
 including trade secrets, belonging to Gaussian, Inc.
  
 This software is provided under written license and may be
 used, copied, transmitted, or stored only in accord with that
 written license.
  
 The following legend is applicable only to US Government
 contracts under FAR:
  
                    RESTRICTED RIGHTS LEGEND
  
 Use, reproduction and disclosure by the US Government is
 subject to restrictions as set forth in subparagraphs (a)
 and (c) of the Commercial Computer Software - Restricted
 Rights clause in FAR 52.227-19.
  
 Gaussian, Inc.
 340 Quinnipiac St., Bldg. 40, Wallingford CT 06492
  
  
 ---------------------------------------------------------------
 Warning -- This program may not be used in any manner that
 competes with the business of Gaussian, Inc. or will provide
 assistance to any competitor of Gaussian, Inc.  The licensee
 of this program is prohibited from giving any competitor of
 Gaussian, Inc. access to this program.  By using this program,
 the user acknowledges that Gaussian, Inc. is engaged in the
 business of creating and licensing software in the field of
 computational chemistry and represents and warrants to the
 licensee that it is not a competitor of Gaussian, Inc. and that
 it will not use this program in any manner prohibited above.
 ---------------------------------------------------------------
  

 Cite this work as:
 Gaussian 16, Revision A.03,
 M. J. Frisch, G. W. Trucks, H. B. Schlegel, G. E. Scuseria, 
 M. A. Robb, J. R. Cheeseman, G. Scalmani, V. Barone, 
 G. A. Petersson, H. Nakatsuji, X. Li, M. Caricato, A. V. Marenich, 
 J. Bloino, B. G. Janesko, R. Gomperts, B. Mennucci, H. P. Hratchian, 
 J. V. Ortiz, A. F. Izmaylov, J. L. Sonnenberg, D. Williams-Young, 
 F. Ding, F. Lipparini, F. Egidi, J. Goings, B. Peng, A. Petrone, 
 T. Henderson, D. Ranasinghe, V. G. Zakrzewski, J. Gao, N. Rega, 
 G. Zheng, W. Liang, M. Hada, M. Ehara, K. Toyota, R. Fukuda, 
 J. Hasegawa, M. Ishida, T. Nakajima, Y. Honda, O. Kitao, H. Nakai, 
 T. Vreven, K. Throssell, J. A. Montgomery, Jr., J. E. Peralta, 
 F. Ogliaro, M. J. Bearpark, J. J. Heyd, E. N. Brothers, K. N. Kudin, 
 V. N. Staroverov, T. A. Keith, R. Kobayashi, J. Normand, 
 K. Raghavachari, A. P. Rendell, J. C. Burant, S. S. Iyengar, 
 J. Tomasi, M. Cossi, J. M. Millam, M. Klene, C. Adamo, R. Cammi, 
 J. W. Ochterski, R. L. Martin, K. Morokuma, O. Farkas, 
 J. B. Foresman, and D. J. Fox, Gaussian, Inc., Wallingford CT, 2016.
 
 ******************************************
 Gaussian 16:  ES64L-G16RevA.03 25-Dec-2016
                21-May-2022 
 ******************************************
 %chk=BH-4.2-G.chk
 ---------------------------------------
 #p UHF/aug-cc-pVQZ guess=mix stable=opt
 ---------------------------------------
 1/38=1,172=1/1;
 2/12=2,17=6,18=5,40=1/2;
 3/5=16,6=2,7=10,11=2,25=1,30=1,116=2/1,2,3;
 4/13=-1/1;
 5/5=2,38=5/2;
 6/7=2,8=2,9=2,10=2,28=1/1;
 8/6=1,10=90,11=11/1;
 9/8=-3,42=1,46=1/14;
 5/5=2,8=3,17=40,38=5/8(-2);
 6/7=2,8=2,9=2,10=2,28=1/1;
 99/5=1,9=1/99;
 Leave Link    1 at Sat May 21 19:00:57 2022, MaxMem=           0 cpu:               0.0 elap:               0.0
 (Enter /apps/software/g16/l101.exe)
 ----------------------
 BH UHF at 4.2 Angstrom
 ----------------------
 Symbolic Z-matrix:
 Charge =  0 Multiplicity = 1
 B                     0.        0.        0. 
 H                     4.2       0.        0. 
 
 ITRead=  0  0
 MicOpt= -1 -1
 NAtoms=      2 NQM=        2 NQMF=       0 NMMI=      0 NMMIF=      0
                NMic=       0 NMicF=      0.
                    Isotopes and Nuclear Properties:
 (Nuclear quadrupole moments (NQMom) in fm**2, nuclear magnetic moments (NMagM)
  in nuclear magnetons)

  Atom         1           2
 IAtWgt=          11           1
 AtmWgt=  11.0093053   1.0078250
 NucSpn=           3           1
 AtZEff=  -0.0000000  -0.0000000
 NQMom=    4.0590000   0.0000000
 NMagM=    2.6886370   2.7928460
 AtZNuc=   5.0000000   1.0000000
 Leave Link  101 at Sat May 21 19:00:57 2022, MaxMem=   104857600 cpu:               0.1 elap:               0.1
 (Enter /apps/software/g16/l202.exe)
                          Input orientation:                          
 ---------------------------------------------------------------------
 Center     Atomic      Atomic             Coordinates (Angstroms)
 Number     Number       Type             X           Y           Z
 ---------------------------------------------------------------------
      1          5           0        0.000000    0.000000    0.000000
      2          1           0        4.200000    0.000000    0.000000
 ---------------------------------------------------------------------
 Stoichiometry    BH
 Framework group  C*V[C*(HB)]
 Deg. of freedom     1
 Full point group                 C*V     NOp   4
 Largest Abelian subgroup         C2V     NOp   4
 Largest concise Abelian subgroup C1      NOp   1
                         Standard orientation:                         
 ---------------------------------------------------------------------
 Center     Atomic      Atomic             Coordinates (Angstroms)
 Number     Number       Type             X           Y           Z
 ---------------------------------------------------------------------
      1          5           0        0.000000    0.000000    0.700000
      2          1           0        0.000000    0.000000   -3.500000
 ---------------------------------------------------------------------
 Rotational constants (GHZ):           0.0000000          31.0294682          31.0294682
 Leave Link  202 at Sat May 21 19:00:57 2022, MaxMem=   104857600 cpu:               0.0 elap:               0.0
 (Enter /apps/software/g16/l301.exe)
 Standard basis: Aug-CC-pVQZ (5D, 7F)
 Ernie: Thresh=  0.10000D-02 Tol=  0.10000D-05 Strict=F.
 Ernie:  4 primitive shells out of 54 were deleted.
 There are    68 symmetry adapted cartesian basis functions of A1  symmetry.
 There are    18 symmetry adapted cartesian basis functions of A2  symmetry.
 There are    37 symmetry adapted cartesian basis functions of B1  symmetry.
 There are    37 symmetry adapted cartesian basis functions of B2  symmetry.
 There are    50 symmetry adapted basis functions of A1  symmetry.
 There are    16 symmetry adapted basis functions of A2  symmetry.
 There are    30 symmetry adapted basis functions of B1  symmetry.
 There are    30 symmetry adapted basis functions of B2  symmetry.
   126 basis functions,   180 primitive gaussians,   160 cartesian basis functions
     3 alpha electrons        3 beta electrons
       nuclear repulsion energy         0.6299728701 Hartrees.
 IExCor=    0 DFT=F Ex=HF Corr=None ExCW=0 ScaHFX=  1.000000
 ScaDFX=  1.000000  1.000000  1.000000  1.000000 ScalE2=  1.000000  1.000000
 IRadAn=      5 IRanWt=     -1 IRanGd=            0 ICorTp=0 IEmpDi=  4
 NAtoms=    2 NActive=    2 NUniq=    2 SFac= 1.00D+00 NAtFMM=   60 NAOKFM=F Big=F
 Integral buffers will be    131072 words long.
 Raffenetti 2 integral format.
 Two-electron integral symmetry is turned on.
 Leave Link  301 at Sat May 21 19:00:57 2022, MaxMem=   104857600 cpu:               0.0 elap:               0.0
 (Enter /apps/software/g16/l302.exe)
 NPDir=0 NMtPBC=     1 NCelOv=     1 NCel=       1 NClECP=     1 NCelD=      1
         NCelK=      1 NCelE2=     1 NClLst=     1 CellRange=     0.0.
 One-electron integrals computed using PRISM.
 One-electron integral symmetry used in STVInt
 NBasis=   126 RedAO= T EigKep=  1.15D-02  NBF=    50    16    30    30
 NBsUse=   126 1.00D-06 EigRej= -1.00D+00 NBFU=    50    16    30    30
 Leave Link  302 at Sat May 21 19:00:57 2022, MaxMem=   104857600 cpu:               0.1 elap:               0.1
 (Enter /apps/software/g16/l303.exe)
 DipDrv:  MaxL=1.
 Leave Link  303 at Sat May 21 19:00:57 2022, MaxMem=   104857600 cpu:               0.0 elap:               0.0
 (Enter /apps/software/g16/l401.exe)
 ExpMin= 1.88D-02 ExpMax= 2.39D+04 ExpMxC= 2.30D+02 IAcc=3 IRadAn=         5 AccDes= 0.00D+00
 Harris functional with IExCor=  205 and IRadAn=       5 diagonalized for initial guess.
 HarFok:  IExCor=  205 AccDes= 0.00D+00 IRadAn=         5 IDoV= 1 UseB2=F ITyADJ=14
 ICtDFT=  3500011 ScaDFX=  1.000000  1.000000  1.000000  1.000000
 FoFCou: FMM=F IPFlag=           0 FMFlag=      100000 FMFlg1=           0
         NFxFlg=           0 DoJE=T BraDBF=F KetDBF=T FulRan=T
         wScrn=  0.000000 ICntrl=       500 IOpCl=  0 I1Cent=   200000004 NGrid=           0
         NMat0=    1 NMatS0=      1 NMatT0=    0 NMatD0=    1 NMtDS0=    0 NMtDT0=    0
 Petite list used in FoFCou.
 Harris En= -24.9892053055128    
 JPrj=0 DoOrth=F DoCkMO=T.
 Mixing orbitals, IMix= 1 IMixAn=  0 NRI=1 NE=    3 Coef=  7.07106781D-01  7.07106781D-01
 Mixing orbitals, IMix= 1 IMixAn=  0 NRI=1 NE=    3 Coef= -7.07106781D-01  7.07106781D-01
 Initial guess orbital symmetries:
 Alpha Orbitals:
       Occupied  (SG) (SG) (?A)
       Virtual   (?A) (?A) (SG) (SG) (PI) (PI) (SG) (SG) (PI) (PI)
                 (DLTA) (DLTA) (SG) (PI) (PI) (SG) (PI) (PI) (SG)
                 (SG) (SG) (SG) (PI) (PI) (DLTA) (DLTA) (DLTA)
                 (DLTA) (PHI) (PHI) (PI) (PI) (SG) (DLTA) (DLTA)
                 (PI) (PI) (SG) (PI) (PI) (SG) (PI) (PI) (SG) (SG)
                 (PI) (PI) (DLTA) (DLTA) (SG) (DLTA) (DLTA) (?B)
                 (PHI) (PHI) (?B) (PI) (PI) (SG) (DLTA) (DLTA)
                 (PHI) (PHI) (PI) (PI) (SG) (SG) (PHI) (PHI) (DLTA)
                 (DLTA) (PI) (PI) (SG) (DLTA) (DLTA) (PI) (PI)
                 (SG) (PI) (PI) (SG) (PI) (PI) (SG) (DLTA) (DLTA)
                 (PI) (PI) (SG) (?B) (?C) (?C) (?B) (DLTA) (DLTA)
                 (?C) (?C) (SG) (PHI) (PHI) (DLTA) (DLTA) (PI)
                 (PI) (SG) (PHI) (PHI) (DLTA) (DLTA) (PI) (PI)
                 (SG) (SG) (PI) (PI) (SG) (DLTA) (DLTA) (PI) (PI)
                 (SG) (SG)
 Beta  Orbitals:
       Occupied  (SG) (SG) (?A)
       Virtual   (?A) (?A) (SG) (SG) (PI) (PI) (SG) (SG) (PI) (PI)
                 (DLTA) (DLTA) (SG) (PI) (PI) (SG) (PI) (PI) (SG)
                 (SG) (SG) (SG) (PI) (PI) (DLTA) (DLTA) (DLTA)
                 (DLTA) (PHI) (PHI) (PI) (PI) (SG) (DLTA) (DLTA)
                 (PI) (PI) (SG) (PI) (PI) (SG) (PI) (PI) (SG) (SG)
                 (PI) (PI) (DLTA) (DLTA) (SG) (DLTA) (DLTA) (?B)
                 (PHI) (PHI) (?B) (PI) (PI) (SG) (DLTA) (DLTA)
                 (PHI) (PHI) (PI) (PI) (SG) (SG) (PHI) (PHI) (DLTA)
                 (DLTA) (PI) (PI) (SG) (DLTA) (DLTA) (PI) (PI)
                 (SG) (PI) (PI) (SG) (PI) (PI) (SG) (DLTA) (DLTA)
                 (PI) (PI) (SG) (?B) (?C) (?C) (?B) (DLTA) (DLTA)
                 (?C) (?C) (SG) (PHI) (PHI) (DLTA) (DLTA) (PI)
                 (PI) (SG) (PHI) (PHI) (DLTA) (DLTA) (PI) (PI)
                 (SG) (SG) (PI) (PI) (SG) (DLTA) (DLTA) (PI) (PI)
                 (SG) (SG)
 Initial guess <Sx>= 0.0000 <Sy>= 0.0000 <Sz>= 0.0000 <S**2>= 1.0000 S= 0.6180
 Leave Link  401 at Sat May 21 19:00:57 2022, MaxMem=   104857600 cpu:               0.2 elap:               0.2
 (Enter /apps/software/g16/l502.exe)
 Keep R1 and R2 ints in memory in symmetry-blocked form, NReq=40143665.
 FoFCou: FMM=F IPFlag=           0 FMFlag=           0 FMFlg1=           0
         NFxFlg=           0 DoJE=F BraDBF=F KetDBF=F FulRan=T
         wScrn=  0.000000 ICntrl=       600 IOpCl=  0 I1Cent=           0 NGrid=           0
         NMat0=    1 NMatS0=   8001 NMatT0=    0 NMatD0=    1 NMtDS0=    0 NMtDT0=    0
 Petite list used in FoFCou.
 UHF open shell SCF:
 Using DIIS extrapolation, IDIIS=  1040.
 NGot=   104857600 LenX=    88563632 LenY=    88537591
 Requested convergence on RMS density matrix=1.00D-08 within 128 cycles.
 Requested convergence on MAX density matrix=1.00D-06.
 Requested convergence on             energy=1.00D-06.
 No special actions if energy rises.
 An orbital has undefined symmetry, so N**3 symmetry is turned off.

 Cycle   1  Pass 1  IDiag  1:
 Density matrix breaks symmetry, PCut= 1.00D-07
 Density matrix has no symmetry -- integrals replicated.
 E= -24.8337500106422    
 DIIS: error= 2.78D-02 at cycle   1 NSaved=   1.
 NSaved= 1 IEnMin= 1 EnMin= -24.8337500106422     IErMin= 1 ErrMin= 2.78D-02
 ErrMax= 2.78D-02  0.00D+00 EMaxC= 1.00D-01 BMatC= 1.48D-01 BMatP= 1.48D-01
 IDIUse=3 WtCom= 7.22D-01 WtEn= 2.78D-01
 Coeff-Com:  0.100D+01
 Coeff-En:   0.100D+01
 Coeff:      0.100D+01
 Gap=     0.125 Goal=   None    Shift=    0.000
 Gap=     0.125 Goal=   None    Shift=    0.000
 GapD=    0.125 DampG=1.000 DampE=0.500 DampFc=0.5000 IDamp=-1.
 Damping current iteration by 5.00D-01
 RMSDP=1.77D-03 MaxDP=8.53D-02              OVMax= 3.72D-01

 Cycle   2  Pass 1  IDiag  1:
 Density matrix breaks symmetry, PCut= 1.00D-07
 Density matrix has no symmetry -- integrals replicated.
 E= -24.8527894384435     Delta-E=       -0.019039427801 Rises=F Damp=T
 DIIS: error= 1.68D-02 at cycle   2 NSaved=   2.
 NSaved= 2 IEnMin= 2 EnMin= -24.8527894384435     IErMin= 2 ErrMin= 1.68D-02
 ErrMax= 1.68D-02  0.00D+00 EMaxC= 1.00D-01 BMatC= 4.96D-02 BMatP= 1.48D-01
 IDIUse=3 WtCom= 8.32D-01 WtEn= 1.68D-01
 Coeff-Com: -0.598D+00 0.160D+01
 Coeff-En:   0.000D+00 0.100D+01
 Coeff:     -0.498D+00 0.150D+01
 Gap=     0.084 Goal=   None    Shift=    0.000
 Gap=     0.084 Goal=   None    Shift=    0.000
 RMSDP=1.27D-03 MaxDP=5.86D-02 DE=-1.90D-02 OVMax= 2.97D-01

 Cycle   3  Pass 1  IDiag  1:
 Density matrix breaks symmetry, PCut= 1.00D-07
 Density matrix has no symmetry -- integrals replicated.
 E= -24.8660116465844     Delta-E=       -0.013222208141 Rises=F Damp=F
 DIIS: error= 1.61D-02 at cycle   3 NSaved=   3.
 NSaved= 3 IEnMin= 3 EnMin= -24.8660116465844     IErMin= 3 ErrMin= 1.61D-02
 ErrMax= 1.61D-02  0.00D+00 EMaxC= 1.00D-01 BMatC= 1.36D-02 BMatP= 4.96D-02
 IDIUse=3 WtCom= 8.39D-01 WtEn= 1.61D-01
 Coeff-Com: -0.416D+00 0.730D+00 0.686D+00
 Coeff-En:   0.000D+00 0.000D+00 0.100D+01
 Coeff:     -0.349D+00 0.612D+00 0.737D+00
 Gap=     0.132 Goal=   None    Shift=    0.000
 Gap=     0.132 Goal=   None    Shift=    0.000
 RMSDP=9.41D-04 MaxDP=3.80D-02 DE=-1.32D-02 OVMax= 2.13D-01

 Cycle   4  Pass 1  IDiag  1:
 Density matrix breaks symmetry, PCut= 1.00D-07
 Density matrix has no symmetry -- integrals replicated.
 E= -24.8816078367323     Delta-E=       -0.015596190148 Rises=F Damp=F
 DIIS: error= 5.18D-03 at cycle   4 NSaved=   4.
 NSaved= 4 IEnMin= 4 EnMin= -24.8816078367323     IErMin= 4 ErrMin= 5.18D-03
 ErrMax= 5.18D-03  0.00D+00 EMaxC= 1.00D-01 BMatC= 3.86D-03 BMatP= 1.36D-02
 IDIUse=3 WtCom= 9.48D-01 WtEn= 5.18D-02
 Coeff-Com:  0.136D+00-0.288D+00 0.193D+00 0.958D+00
 Coeff-En:   0.000D+00 0.000D+00 0.000D+00 0.100D+01
 Coeff:      0.129D+00-0.273D+00 0.183D+00 0.961D+00
 Gap=     0.131 Goal=   None    Shift=    0.000
 Gap=     0.131 Goal=   None    Shift=    0.000
 RMSDP=4.45D-04 MaxDP=1.36D-02 DE=-1.56D-02 OVMax= 7.80D-02

 Cycle   5  Pass 1  IDiag  1:
 Density matrix breaks symmetry, PCut= 1.00D-07
 Density matrix has no symmetry -- integrals replicated.
 E= -24.8870352997801     Delta-E=       -0.005427463048 Rises=F Damp=F
 DIIS: error= 2.49D-03 at cycle   5 NSaved=   5.
 NSaved= 5 IEnMin= 5 EnMin= -24.8870352997801     IErMin= 5 ErrMin= 2.49D-03
 ErrMax= 2.49D-03  0.00D+00 EMaxC= 1.00D-01 BMatC= 7.13D-04 BMatP= 3.86D-03
 IDIUse=3 WtCom= 9.75D-01 WtEn= 2.49D-02
 Coeff-Com: -0.263D+00 0.505D+00-0.461D-01-0.986D+00 0.179D+01
 Coeff-En:   0.000D+00 0.000D+00 0.000D+00 0.000D+00 0.100D+01
 Coeff:     -0.256D+00 0.492D+00-0.449D-01-0.962D+00 0.177D+01
 Gap=     0.139 Goal=   None    Shift=    0.000
 Gap=     0.139 Goal=   None    Shift=    0.000
 RMSDP=4.03D-04 MaxDP=1.26D-02 DE=-5.43D-03 OVMax= 8.76D-02

 Cycle   6  Pass 1  IDiag  1:
 Density matrix breaks symmetry, PCut= 1.00D-07
 Density matrix has no symmetry -- integrals replicated.
 E= -24.8910783229445     Delta-E=       -0.004043023164 Rises=F Damp=F
 DIIS: error= 2.56D-03 at cycle   6 NSaved=   6.
 NSaved= 6 IEnMin= 6 EnMin= -24.8910783229445     IErMin= 5 ErrMin= 2.49D-03
 ErrMax= 2.56D-03  0.00D+00 EMaxC= 1.00D-01 BMatC= 5.14D-04 BMatP= 7.13D-04
 IDIUse=3 WtCom= 9.75D-01 WtEn= 2.49D-02
 Coeff-Com: -0.687D-01 0.114D+00 0.239D-01 0.149D+00-0.320D+01 0.399D+01
 Coeff-En:   0.000D+00 0.000D+00 0.000D+00 0.000D+00 0.000D+00 0.100D+01
 Coeff:     -0.670D-01 0.111D+00 0.233D-01 0.145D+00-0.312D+01 0.391D+01
 Gap=     0.148 Goal=   None    Shift=    0.000
 Gap=     0.148 Goal=   None    Shift=    0.000
 RMSDP=1.05D-03 MaxDP=2.83D-02 DE=-4.04D-03 OVMax= 2.27D-01

 Cycle   7  Pass 1  IDiag  1:
 Density matrix breaks symmetry, PCut= 1.00D-07
 Density matrix has no symmetry -- integrals replicated.
 E= -24.8921400781703     Delta-E=       -0.001061755226 Rises=F Damp=F
 DIIS: error= 5.92D-03 at cycle   7 NSaved=   7.
 NSaved= 7 IEnMin= 7 EnMin= -24.8921400781703     IErMin= 5 ErrMin= 2.49D-03
 ErrMax= 5.92D-03  0.00D+00 EMaxC= 1.00D-01 BMatC= 3.66D-03 BMatP= 5.14D-04
 IDIUse=3 WtCom= 9.75D-01 WtEn= 2.49D-02
 Coeff-Com:  0.883D-01-0.169D+00-0.144D+00 0.463D+00-0.876D+00 0.128D+01
 Coeff-Com:  0.357D+00
 Coeff-En:   0.000D+00 0.000D+00 0.000D+00 0.000D+00 0.000D+00 0.000D+00
 Coeff-En:   0.100D+01
 Coeff:      0.861D-01-0.164D+00-0.141D+00 0.452D+00-0.854D+00 0.125D+01
 Coeff:      0.373D+00
 Gap=     0.146 Goal=   None    Shift=    0.000
 Gap=     0.146 Goal=   None    Shift=    0.000
 RMSDP=3.73D-04 MaxDP=1.67D-02 DE=-1.06D-03 OVMax= 7.96D-02

 Cycle   8  Pass 1  IDiag  1:
 Density matrix breaks symmetry, PCut= 1.00D-07
 Density matrix has no symmetry -- integrals replicated.
 E= -24.8957771942243     Delta-E=       -0.003637116054 Rises=F Damp=F
 DIIS: error= 2.46D-03 at cycle   8 NSaved=   8.
 NSaved= 8 IEnMin= 8 EnMin= -24.8957771942243     IErMin= 8 ErrMin= 2.46D-03
 ErrMax= 2.46D-03  0.00D+00 EMaxC= 1.00D-01 BMatC= 2.36D-04 BMatP= 5.14D-04
 IDIUse=3 WtCom= 9.75D-01 WtEn= 2.46D-02
 Coeff-Com: -0.523D-01 0.102D+00-0.498D-01-0.189D+00 0.666D+00-0.849D+00
 Coeff-Com: -0.257D+00 0.163D+01
 Coeff-En:   0.000D+00 0.000D+00 0.000D+00 0.000D+00 0.000D+00 0.000D+00
 Coeff-En:   0.000D+00 0.100D+01
 Coeff:     -0.510D-01 0.994D-01-0.485D-01-0.184D+00 0.650D+00-0.828D+00
 Coeff:     -0.251D+00 0.161D+01
 Gap=     0.149 Goal=   None    Shift=    0.000
 Gap=     0.149 Goal=   None    Shift=    0.000
 RMSDP=1.72D-04 MaxDP=5.35D-03 DE=-3.64D-03 OVMax= 3.94D-02

 Cycle   9  Pass 1  IDiag  1:
 Density matrix breaks symmetry, PCut= 1.00D-07
 Density matrix has no symmetry -- integrals replicated.
 E= -24.8964686720584     Delta-E=       -0.000691477834 Rises=F Damp=F
 DIIS: error= 1.32D-03 at cycle   9 NSaved=   9.
 NSaved= 9 IEnMin= 9 EnMin= -24.8964686720584     IErMin= 9 ErrMin= 1.32D-03
 ErrMax= 1.32D-03  0.00D+00 EMaxC= 1.00D-01 BMatC= 4.84D-05 BMatP= 2.36D-04
 IDIUse=3 WtCom= 9.87D-01 WtEn= 1.32D-02
 Coeff-Com: -0.136D-01 0.260D-01-0.153D-01-0.177D+00-0.127D+00 0.695D+00
 Coeff-Com:  0.420D+00-0.309D+01 0.328D+01
 Coeff-En:   0.000D+00 0.000D+00 0.000D+00 0.000D+00 0.000D+00 0.000D+00
 Coeff-En:   0.000D+00 0.000D+00 0.100D+01
 Coeff:     -0.134D-01 0.257D-01-0.151D-01-0.175D+00-0.125D+00 0.686D+00
 Coeff:      0.414D+00-0.305D+01 0.325D+01
 Gap=     0.152 Goal=   None    Shift=    0.000
 Gap=     0.152 Goal=   None    Shift=    0.000
 RMSDP=2.95D-04 MaxDP=8.97D-03 DE=-6.91D-04 OVMax= 6.68D-02

 Cycle  10  Pass 1  IDiag  1:
 Density matrix breaks symmetry, PCut= 1.00D-07
 Density matrix has no symmetry -- integrals replicated.
 E= -24.8968702368420     Delta-E=       -0.000401564784 Rises=F Damp=F
 DIIS: error= 7.81D-04 at cycle  10 NSaved=  10.
 NSaved=10 IEnMin=10 EnMin= -24.8968702368420     IErMin=10 ErrMin= 7.81D-04
 ErrMax= 7.81D-04  0.00D+00 EMaxC= 1.00D-01 BMatC= 5.87D-05 BMatP= 4.84D-05
 IDIUse=3 WtCom= 9.87D-01 WtEn= 1.32D-02
 Coeff-Com:  0.199D-01-0.395D-01 0.229D-01 0.160D+00-0.300D+00 0.134D+00
 Coeff-Com: -0.357D+00 0.110D+01-0.158D+01 0.184D+01
 Coeff-En:   0.000D+00 0.000D+00 0.000D+00 0.000D+00 0.000D+00 0.000D+00
 Coeff-En:   0.000D+00 0.000D+00 0.000D+00 0.100D+01
 Coeff:      0.196D-01-0.390D-01 0.226D-01 0.158D+00-0.296D+00 0.133D+00
 Coeff:     -0.352D+00 0.108D+01-0.156D+01 0.183D+01
 Gap=     0.153 Goal=   None    Shift=    0.000
 Gap=     0.153 Goal=   None    Shift=    0.000
 RMSDP=1.20D-04 MaxDP=3.88D-03 DE=-4.02D-04 OVMax= 2.71D-02

 Cycle  11  Pass 1  IDiag  1:
 Density matrix breaks symmetry, PCut= 1.00D-07
 Density matrix has no symmetry -- integrals replicated.
 E= -24.8969762983097     Delta-E=       -0.000106061468 Rises=F Damp=F
 DIIS: error= 1.74D-04 at cycle  11 NSaved=  11.
 NSaved=11 IEnMin=11 EnMin= -24.8969762983097     IErMin=11 ErrMin= 1.74D-04
 ErrMax= 1.74D-04  0.00D+00 EMaxC= 1.00D-01 BMatC= 4.41D-06 BMatP= 4.84D-05
 IDIUse=3 WtCom= 9.98D-01 WtEn= 1.74D-03
 Coeff-Com: -0.636D-02 0.133D-01-0.101D-01-0.443D-01 0.304D+00-0.435D+00
 Coeff-Com:  0.861D-02 0.695D+00-0.591D+00-0.604D+00 0.167D+01
 Coeff-En:   0.000D+00 0.000D+00 0.000D+00 0.000D+00 0.000D+00 0.000D+00
 Coeff-En:   0.000D+00 0.000D+00 0.000D+00 0.000D+00 0.100D+01
 Coeff:     -0.635D-02 0.133D-01-0.101D-01-0.442D-01 0.304D+00-0.434D+00
 Coeff:      0.859D-02 0.694D+00-0.590D+00-0.603D+00 0.167D+01
 Gap=     0.152 Goal=   None    Shift=    0.000
 Gap=     0.152 Goal=   None    Shift=    0.000
 RMSDP=4.70D-05 MaxDP=1.50D-03 DE=-1.06D-04 OVMax= 9.72D-03

 Cycle  12  Pass 1  IDiag  1:
 Density matrix breaks symmetry, PCut= 1.00D-07
 Density matrix has no symmetry -- integrals replicated.
 E= -24.8969746059714     Delta-E=        0.000001692338 Rises=F Damp=F
 DIIS: error= 1.98D-04 at cycle  12 NSaved=  12.
 NSaved=12 IEnMin=11 EnMin= -24.8969762983097     IErMin=11 ErrMin= 1.74D-04
 ErrMax= 1.98D-04  0.00D+00 EMaxC= 1.00D-01 BMatC= 4.33D-06 BMatP= 4.41D-06
 IDIUse=3 WtCom= 9.98D-01 WtEn= 1.74D-03
 Rare condition: small coef for last iteration:  0.000D+00
 Coeff-Com: -0.242D-02 0.428D-02 0.134D-01 0.205D-01-0.471D-01-0.320D-01
 Coeff-Com: -0.557D-01 0.254D+00-0.211D+00 0.303D+00-0.983D+00 0.174D+01
 Coeff-En:   0.000D+00 0.000D+00 0.000D+00 0.000D+00 0.000D+00 0.000D+00
 Coeff-En:   0.000D+00 0.000D+00 0.000D+00 0.000D+00 0.000D+00 0.100D+01
 Coeff:     -0.242D-02 0.428D-02 0.134D-01 0.205D-01-0.471D-01-0.320D-01
 Coeff:     -0.557D-01 0.254D+00-0.211D+00 0.303D+00-0.983D+00 0.174D+01
 Gap=     0.153 Goal=   None    Shift=    0.000
 Gap=     0.153 Goal=   None    Shift=    0.000
 RMSDP=1.64D-05 MaxDP=5.54D-04 DE= 1.69D-06 OVMax= 2.44D-03

 Cycle  13  Pass 1  IDiag  1:
 Density matrix breaks symmetry, PCut= 1.00D-07
 Density matrix has no symmetry -- integrals replicated.
 E= -24.8969808449162     Delta-E=       -0.000006238945 Rises=F Damp=F
 DIIS: error= 1.45D-04 at cycle  13 NSaved=  13.
 NSaved=13 IEnMin=13 EnMin= -24.8969808449162     IErMin=13 ErrMin= 1.45D-04
 ErrMax= 1.45D-04  0.00D+00 EMaxC= 1.00D-01 BMatC= 8.99D-07 BMatP= 4.33D-06
 IDIUse=3 WtCom= 9.99D-01 WtEn= 1.45D-03
 Coeff-Com: -0.689D-03 0.125D-02 0.140D-02-0.112D-01 0.434D-01-0.419D-01
 Coeff-Com: -0.318D-01 0.176D+00-0.106D+00-0.350D+00 0.787D+00-0.295D+01
 Coeff-Com:  0.348D+01
 Coeff-En:   0.000D+00 0.000D+00 0.000D+00 0.000D+00 0.000D+00 0.000D+00
 Coeff-En:   0.000D+00 0.000D+00 0.000D+00 0.000D+00 0.000D+00 0.000D+00
 Coeff-En:   0.100D+01
 Coeff:     -0.688D-03 0.125D-02 0.140D-02-0.112D-01 0.434D-01-0.418D-01
 Coeff:     -0.318D-01 0.176D+00-0.106D+00-0.349D+00 0.786D+00-0.294D+01
 Coeff:      0.347D+01
 Gap=     0.153 Goal=   None    Shift=    0.000
 Gap=     0.153 Goal=   None    Shift=    0.000
 RMSDP=3.27D-05 MaxDP=1.15D-03 DE=-6.24D-06 OVMax= 5.30D-03

 Cycle  14  Pass 1  IDiag  1:
 Density matrix breaks symmetry, PCut= 1.00D-07
 Density matrix has no symmetry -- integrals replicated.
 E= -24.8969820813507     Delta-E=       -0.000001236434 Rises=F Damp=F
 DIIS: error= 2.42D-04 at cycle  14 NSaved=  14.
 NSaved=14 IEnMin=14 EnMin= -24.8969820813507     IErMin=13 ErrMin= 1.45D-04
 ErrMax= 2.42D-04  0.00D+00 EMaxC= 1.00D-01 BMatC= 5.71D-06 BMatP= 8.99D-07
 IDIUse=3 WtCom= 9.99D-01 WtEn= 1.45D-03
 Coeff-Com: -0.231D-03 0.553D-03-0.201D-02 0.102D-02 0.370D-01-0.522D-01
 Coeff-Com: -0.124D-01 0.145D+00-0.247D+00 0.553D+00-0.696D+00 0.433D+00
 Coeff-Com: -0.143D+01 0.227D+01
 Coeff-En:   0.000D+00 0.000D+00 0.000D+00 0.000D+00 0.000D+00 0.000D+00
 Coeff-En:   0.000D+00 0.000D+00 0.000D+00 0.000D+00 0.000D+00 0.000D+00
 Coeff-En:   0.000D+00 0.100D+01
 Coeff:     -0.231D-03 0.553D-03-0.200D-02 0.102D-02 0.369D-01-0.522D-01
 Coeff:     -0.124D-01 0.145D+00-0.247D+00 0.552D+00-0.695D+00 0.433D+00
 Coeff:     -0.143D+01 0.227D+01
 Gap=     0.152 Goal=   None    Shift=    0.000
 Gap=     0.152 Goal=   None    Shift=    0.000
 RMSDP=4.93D-05 MaxDP=1.40D-03 DE=-1.24D-06 OVMax= 9.41D-03

 Cycle  15  Pass 1  IDiag  1:
 Density matrix breaks symmetry, PCut= 1.00D-07
 Density matrix has no symmetry -- integrals replicated.
 E= -24.8969941842892     Delta-E=       -0.000012102938 Rises=F Damp=F
 DIIS: error= 4.74D-05 at cycle  15 NSaved=  15.
 NSaved=15 IEnMin=15 EnMin= -24.8969941842892     IErMin=15 ErrMin= 4.74D-05
 ErrMax= 4.74D-05  0.00D+00 EMaxC= 1.00D-01 BMatC= 1.84D-07 BMatP= 8.99D-07
 IDIUse=1 WtCom= 1.00D+00 WtEn= 0.00D+00
 Coeff-Com: -0.135D-03 0.324D-03-0.257D-03-0.234D-02 0.739D-02-0.118D-01
 Coeff-Com:  0.103D-01-0.229D-01 0.592D-01-0.205D+00 0.425D+00-0.384D+00
 Coeff-Com:  0.468D+00-0.766D+00 0.142D+01
 Coeff:     -0.135D-03 0.324D-03-0.257D-03-0.234D-02 0.739D-02-0.118D-01
 Coeff:      0.103D-01-0.229D-01 0.592D-01-0.205D+00 0.425D+00-0.384D+00
 Coeff:      0.468D+00-0.766D+00 0.142D+01
 Gap=     0.153 Goal=   None    Shift=    0.000
 Gap=     0.153 Goal=   None    Shift=    0.000
 RMSDP=1.02D-05 MaxDP=2.95D-04 DE=-1.21D-05 OVMax= 2.15D-03

 Cycle  16  Pass 1  IDiag  1:
 Density matrix breaks symmetry, PCut= 1.00D-07
 Density matrix has no symmetry -- integrals replicated.
 E= -24.8969945015607     Delta-E=       -0.000000317272 Rises=F Damp=F
 DIIS: error= 2.34D-05 at cycle  16 NSaved=  16.
 NSaved=16 IEnMin=16 EnMin= -24.8969945015607     IErMin=16 ErrMin= 2.34D-05
 ErrMax= 2.34D-05  0.00D+00 EMaxC= 1.00D-01 BMatC= 4.62D-08 BMatP= 1.84D-07
 IDIUse=1 WtCom= 1.00D+00 WtEn= 0.00D+00
 Coeff-Com: -0.296D-04 0.383D-04 0.461D-04 0.127D-03-0.385D-02 0.649D-02
 Coeff-Com: -0.105D-02-0.653D-02-0.253D-02 0.499D-01-0.135D+00 0.199D+00
 Coeff-Com: -0.235D+00 0.266D+00-0.380D+00 0.124D+01
 Coeff:     -0.296D-04 0.383D-04 0.461D-04 0.127D-03-0.385D-02 0.649D-02
 Coeff:     -0.105D-02-0.653D-02-0.253D-02 0.499D-01-0.135D+00 0.199D+00
 Coeff:     -0.235D+00 0.266D+00-0.380D+00 0.124D+01
 Gap=     0.153 Goal=   None    Shift=    0.000
 Gap=     0.153 Goal=   None    Shift=    0.000
 RMSDP=2.43D-06 MaxDP=8.01D-05 DE=-3.17D-07 OVMax= 5.54D-04

 Cycle  17  Pass 1  IDiag  1:
 Density matrix breaks symmetry, PCut= 1.00D-07
 Density matrix has no symmetry -- integrals replicated.
 E= -24.8969945698220     Delta-E=       -0.000000068261 Rises=F Damp=F
 DIIS: error= 4.90D-06 at cycle  17 NSaved=  17.
 NSaved=17 IEnMin=17 EnMin= -24.8969945698220     IErMin=17 ErrMin= 4.90D-06
 ErrMax= 4.90D-06  0.00D+00 EMaxC= 1.00D-01 BMatC= 1.81D-09 BMatP= 4.62D-08
 IDIUse=1 WtCom= 1.00D+00 WtEn= 0.00D+00
 Coeff-Com: -0.984D-05 0.216D-04 0.676D-05-0.722D-04 0.241D-03-0.186D-03
 Coeff-Com:  0.160D-03-0.544D-03 0.181D-02-0.466D-02 0.927D-02-0.803D-02
 Coeff-Com:  0.686D-02-0.103D-01 0.162D-01-0.167D+00 0.116D+01
 Coeff:     -0.984D-05 0.216D-04 0.676D-05-0.722D-04 0.241D-03-0.186D-03
 Coeff:      0.160D-03-0.544D-03 0.181D-02-0.466D-02 0.927D-02-0.803D-02
 Coeff:      0.686D-02-0.103D-01 0.162D-01-0.167D+00 0.116D+01
 Gap=     0.153 Goal=   None    Shift=    0.000
 Gap=     0.153 Goal=   None    Shift=    0.000
 RMSDP=3.98D-07 MaxDP=1.71D-05 DE=-6.83D-08 OVMax= 8.33D-05

 Cycle  18  Pass 1  IDiag  1:
 Density matrix breaks symmetry, PCut= 1.00D-07
 Density matrix has no symmetry -- integrals replicated.
 E= -24.8969945720118     Delta-E=       -0.000000002190 Rises=F Damp=F
 DIIS: error= 1.17D-06 at cycle  18 NSaved=  18.
 NSaved=18 IEnMin=18 EnMin= -24.8969945720118     IErMin=18 ErrMin= 1.17D-06
 ErrMax= 1.17D-06  0.00D+00 EMaxC= 1.00D-01 BMatC= 1.17D-10 BMatP= 1.81D-09
 IDIUse=1 WtCom= 1.00D+00 WtEn= 0.00D+00
 Coeff-Com: -0.259D-05 0.416D-05 0.118D-05-0.540D-05-0.235D-04 0.293D-04
 Coeff-Com:  0.203D-04 0.313D-04-0.133D-03 0.266D-03-0.496D-03-0.179D-02
 Coeff-Com:  0.373D-02-0.339D-02-0.955D-03 0.156D-01-0.126D+00 0.111D+01
 Coeff:     -0.259D-05 0.416D-05 0.118D-05-0.540D-05-0.235D-04 0.293D-04
 Coeff:      0.203D-04 0.313D-04-0.133D-03 0.266D-03-0.496D-03-0.179D-02
 Coeff:      0.373D-02-0.339D-02-0.955D-03 0.156D-01-0.126D+00 0.111D+01
 Gap=     0.153 Goal=   None    Shift=    0.000
 Gap=     0.153 Goal=   None    Shift=    0.000
 RMSDP=1.13D-07 MaxDP=3.70D-06 DE=-2.19D-09 OVMax= 2.37D-05

 Cycle  19  Pass 1  IDiag  1:
 Density matrix breaks symmetry, PCut= 1.00D-07
 Density matrix has no symmetry -- integrals replicated.
 E= -24.8969945721736     Delta-E=       -0.000000000162 Rises=F Damp=F
 DIIS: error= 9.50D-08 at cycle  19 NSaved=  19.
 NSaved=19 IEnMin=19 EnMin= -24.8969945721736     IErMin=19 ErrMin= 9.50D-08
 ErrMax= 9.50D-08  0.00D+00 EMaxC= 1.00D-01 BMatC= 6.58D-13 BMatP= 1.17D-10
 IDIUse=1 WtCom= 1.00D+00 WtEn= 0.00D+00
 Coeff-Com: -0.115D-06 0.320D-06-0.416D-06-0.757D-06-0.712D-05 0.204D-04
 Coeff-Com: -0.105D-04-0.162D-04-0.172D-04 0.249D-03-0.607D-03 0.129D-02
 Coeff-Com: -0.195D-02 0.223D-02-0.182D-02 0.252D-02-0.941D-02-0.256D+00
 Coeff-Com:  0.126D+01
 Coeff:     -0.115D-06 0.320D-06-0.416D-06-0.757D-06-0.712D-05 0.204D-04
 Coeff:     -0.105D-04-0.162D-04-0.172D-04 0.249D-03-0.607D-03 0.129D-02
 Coeff:     -0.195D-02 0.223D-02-0.182D-02 0.252D-02-0.941D-02-0.256D+00
 Coeff:      0.126D+01
 Gap=     0.153 Goal=   None    Shift=    0.000
 Gap=     0.153 Goal=   None    Shift=    0.000
 RMSDP=8.33D-09 MaxDP=2.77D-07 DE=-1.62D-10 OVMax= 1.68D-06

 Density matrix breaks symmetry, PCut= 1.00D-07
 Density matrix has no symmetry -- integrals replicated.
 SCF Done:  E(UHF) =  -24.8969945722     A.U. after   19 cycles
            NFock= 19  Conv=0.83D-08     -V/T= 2.0054
 <Sx>= 0.0000 <Sy>= 0.0000 <Sz>= 0.0000 <S**2>= 0.2357 S= 0.1970
 <L.S>=  0.00000000000    
 KE= 2.476207999491D+01 PE=-5.834917937525D+01 EE= 8.060131938024D+00
 Annihilation of the first spin contaminant:
 S**2 before annihilation     0.2357,   after     0.0040
 Leave Link  502 at Sat May 21 19:01:01 2022, MaxMem=   104857600 cpu:               3.9 elap:               3.9
 (Enter /apps/software/g16/l601.exe)
 Copying SCF densities to generalized density rwf, IOpCl= 1 IROHF=0.
 SCF density gives NOpUse=  1 NOpAll=  4.
 Marking SCF density as not fully symmetric.

 **********************************************************************

            Population analysis using the SCF density.

 **********************************************************************

 Orbital symmetries:
 Alpha Orbitals:
       Occupied  (SG) (?A) (?A)
       Virtual   (?A) (?A) (?A) (?A) (?A) (?A) (SG) (SG) (?B) (?B)
                 (?B) (?B) (SG) (?C) (?C) (?C) (?C) (?C) (?C) (SG)
                 (?D) (?D) (?D) (?D) (?E) (?E) (?E) (?E) (?E) (?E)
                 (?E) (?E) (SG) (DLTA) (DLTA) (PI) (PI) (SG) (PI)
                 (PI) (?F) (?F) (?F) (?F) (?G) (?G) (?G) (?G) (?G)
                 (?G) (?G) (?G) (?G) (?G) (?G) (?G) (?G) (?G) (?H)
                 (?H) (?H) (?H) (?H) (?H) (?H) (SG) (PHI) (PHI)
                 (DLTA) (DLTA) (PI) (PI) (SG) (SG) (DLTA) (DLTA)
                 (PI) (PI) (SG) (PI) (PI) (SG) (?I) (?I) (?I) (?J)
                 (?J) (?J) (?J) (?J) (?J) (?J) (?J) (?J) (?J) (?J)
                 (?J) (?J) (SG) (?K) (?K) (?K) (?K) (?K) (?K) (?K)
                 (PHI) (PHI) (DLTA) (DLTA) (PI) (PI) (SG) (SG)
                 (PI) (PI) (SG) (DLTA) (DLTA) (PI) (PI) (SG) (SG)
 Beta  Orbitals:
       Occupied  (SG) (?A) (?A)
       Virtual   (?A) (?A) (?A) (?A) (?A) (?A) (SG) (SG) (?B) (?B)
                 (?B) (?B) (SG) (?C) (?C) (?C) (?C) (?C) (?C) (SG)
                 (?D) (?D) (?D) (?D) (?E) (?E) (?E) (?E) (?E) (?E)
                 (?E) (?E) (SG) (DLTA) (DLTA) (PI) (PI) (SG) (PI)
                 (PI) (?F) (?F) (?F) (?F) (?G) (?G) (?G) (?G) (?G)
                 (?G) (?G) (?G) (?G) (?G) (?G) (?G) (?G) (?G) (?H)
                 (?H) (?H) (?H) (?H) (?H) (?H) (SG) (PHI) (PHI)
                 (DLTA) (DLTA) (PI) (PI) (SG) (SG) (DLTA) (DLTA)
                 (PI) (PI) (SG) (PI) (PI) (SG) (?I) (?I) (?I) (?J)
                 (?J) (?J) (?J) (?J) (?J) (?J) (?J) (?J) (?J) (?J)
                 (?J) (?J) (SG) (?K) (?K) (?K) (?K) (?K) (?K) (?K)
                 (PHI) (PHI) (DLTA) (DLTA) (PI) (PI) (SG) (SG)
                 (PI) (PI) (SG) (DLTA) (DLTA) (PI) (PI) (SG) (SG)
 Unable to determine electronic state:  an orbital has unidentified symmetry.
 Alpha  occ. eigenvalues --   -7.88014  -0.61637  -0.23690
 Alpha virt. eigenvalues --   -0.08425  -0.04159  -0.03145   0.02515   0.04391
 Alpha virt. eigenvalues --    0.04452   0.06317   0.09569   0.12101   0.12102
 Alpha virt. eigenvalues --    0.12794   0.12845   0.15574   0.23826   0.24240
 Alpha virt. eigenvalues --    0.24495   0.25394   0.25523   0.29362   0.33441
 Alpha virt. eigenvalues --    0.41990   0.41990   0.42622   0.42622   0.43596
 Alpha virt. eigenvalues --    0.43719   0.43821   0.44215   0.44299   0.45217
 Alpha virt. eigenvalues --    0.45335   0.47080   0.55397   0.68847   0.68847
 Alpha virt. eigenvalues --    0.72806   0.72826   0.79047   0.86658   0.86665
 Alpha virt. eigenvalues --    0.94342   0.94907   0.95059   1.00555   1.29753
 Alpha virt. eigenvalues --    1.30199   1.30199   1.30749   1.30782   1.30980
 Alpha virt. eigenvalues --    1.30989   1.31561   1.31569   1.31920   1.32109
 Alpha virt. eigenvalues --    1.32442   1.32644   1.33183   1.35563   1.35563
 Alpha virt. eigenvalues --    1.35970   1.36525   1.36537   1.38496   1.38757
 Alpha virt. eigenvalues --    1.45519   1.64247   1.64247   1.64548   1.64548
 Alpha virt. eigenvalues --    1.66958   1.66973   1.68823   1.79942   2.55173
 Alpha virt. eigenvalues --    2.55173   2.57613   2.57617   2.63294   2.67885
 Alpha virt. eigenvalues --    2.67887   2.75980   3.58956   3.59175   3.62896
 Alpha virt. eigenvalues --    3.81141   3.81141   3.81846   3.81848   3.81970
 Alpha virt. eigenvalues --    3.81975   3.82578   3.82604   3.82975   3.83173
 Alpha virt. eigenvalues --    3.83241   3.83522   3.83862   3.87626   3.96155
 Alpha virt. eigenvalues --    3.96156   3.97173   3.97177   3.98784   3.99133
 Alpha virt. eigenvalues --    4.03461   6.64830   6.64830   6.64931   6.64931
 Alpha virt. eigenvalues --    6.65487   6.65488   6.66603   7.53852   8.03842
 Alpha virt. eigenvalues --    8.03843   8.08122   8.48465   8.48465   8.50101
 Alpha virt. eigenvalues --    8.50102   8.55583  12.89391
  Beta  occ. eigenvalues --   -7.88014  -0.61637  -0.23690
  Beta virt. eigenvalues --   -0.08425  -0.04159  -0.03145   0.02515   0.04391
  Beta virt. eigenvalues --    0.04452   0.06317   0.09569   0.12101   0.12102
  Beta virt. eigenvalues --    0.12794   0.12845   0.15574   0.23826   0.24240
  Beta virt. eigenvalues --    0.24495   0.25394   0.25523   0.29362   0.33441
  Beta virt. eigenvalues --    0.41990   0.41990   0.42622   0.42622   0.43596
  Beta virt. eigenvalues --    0.43719   0.43821   0.44215   0.44299   0.45217
  Beta virt. eigenvalues --    0.45335   0.47080   0.55397   0.68847   0.68847
  Beta virt. eigenvalues --    0.72806   0.72826   0.79047   0.86658   0.86665
  Beta virt. eigenvalues --    0.94342   0.94907   0.95059   1.00555   1.29753
  Beta virt. eigenvalues --    1.30199   1.30199   1.30749   1.30782   1.30980
  Beta virt. eigenvalues --    1.30989   1.31561   1.31569   1.31920   1.32109
  Beta virt. eigenvalues --    1.32442   1.32644   1.33183   1.35563   1.35563
  Beta virt. eigenvalues --    1.35970   1.36525   1.36537   1.38496   1.38757
  Beta virt. eigenvalues --    1.45519   1.64247   1.64247   1.64548   1.64548
  Beta virt. eigenvalues --    1.66958   1.66973   1.68823   1.79942   2.55173
  Beta virt. eigenvalues --    2.55173   2.57613   2.57617   2.63294   2.67885
  Beta virt. eigenvalues --    2.67887   2.75980   3.58956   3.59175   3.62896
  Beta virt. eigenvalues --    3.81141   3.81141   3.81846   3.81848   3.81970
  Beta virt. eigenvalues --    3.81975   3.82578   3.82604   3.82975   3.83173
  Beta virt. eigenvalues --    3.83241   3.83522   3.83862   3.87626   3.96155
  Beta virt. eigenvalues --    3.96156   3.97173   3.97177   3.98784   3.99133
  Beta virt. eigenvalues --    4.03461   6.64830   6.64830   6.64931   6.64931
  Beta virt. eigenvalues --    6.65487   6.65488   6.66603   7.53852   8.03842
  Beta virt. eigenvalues --    8.03843   8.08122   8.48465   8.48465   8.50101
  Beta virt. eigenvalues --    8.50102   8.55583  12.89391
          Condensed to atoms (all electrons):
               1          2
     1  B    4.522937   0.107659
     2  H    0.107659   1.261745
          Atomic-Atomic Spin Densities.
               1          2
     1  B    0.000000   0.000000
     2  H    0.000000  -0.000000
 Mulliken charges and spin densities:
               1          2
     1  B    0.369404   0.000000
     2  H   -0.369404  -0.000000
 Sum of Mulliken charges =  -0.00000  -0.00000
 Mulliken charges and spin densities with hydrogens summed into heavy atoms:
               1          2
     1  B   -0.000000  -0.000000
 Electronic spatial extent (au):  <R**2>=             88.4009
 Charge=             -0.0000 electrons
 Dipole moment (field-independent basis, Debye):
    X=              0.0000    Y=             -0.0000    Z=              8.0898  Tot=              8.0898
 Quadrupole moment (field-independent basis, Debye-Ang):
   XX=             -9.0859   YY=             -9.5899   ZZ=            -29.6193
   XY=             -0.0000   XZ=              0.0000   YZ=              0.0000
 Traceless Quadrupole moment (field-independent basis, Debye-Ang):
   XX=              7.0125   YY=              6.5085   ZZ=            -13.5210
   XY=             -0.0000   XZ=              0.0000   YZ=              0.0000
 Octapole moment (field-independent basis, Debye-Ang**2):
  XXX=              0.0000  YYY=             -0.0000  ZZZ=             86.3645  XYY=             -0.0000
  XXY=             -0.0000  XXZ=              9.5103  XZZ=             -0.0000  YZZ=              0.0000
  YYZ=              9.1461  XYZ=              0.0000
 Hexadecapole moment (field-independent basis, Debye-Ang**3):
 XXXX=            -20.1528 YYYY=            -22.1635 ZZZZ=           -485.2875 XXXY=              0.0000
 XXXZ=             -0.0000 YYYX=              0.0000 YYYZ=              0.0000 ZZZX=              0.0000
 ZZZY=              0.0000 XXYY=             -7.0535 XXZZ=            -51.5502 YYZZ=            -52.1768
 XXYZ=              0.0000 YYXZ=              0.0000 ZZXY=              0.0000
 N-N= 6.299728701429D-01 E-N=-5.834917654041D+01  KE= 2.476207999491D+01
 Symmetry A1   KE= 2.467609400182D+01
 Symmetry A2   KE= 1.550148137081D-29
 Symmetry B1   KE= 2.651412739043D-29
 Symmetry B2   KE= 8.598599309141D-02
 Symmetry A1   SP=-1.362366271955D-11
 Symmetry A2   SP=-4.957269805549D-31
 Symmetry B1   SP=-1.834901530271D-30
 Symmetry B2   SP= 1.361272145521D-11
                          Isotropic Fermi Contact Couplings
        Atom                 a.u.       MegaHertz       Gauss      10(-4) cm-1
     1  B(11)             -0.00000      -0.00000      -0.00000      -0.00000
     2  H(1)              -0.00000      -0.00000      -0.00000      -0.00000
 --------------------------------------------------------
       Center         ----  Spin Dipole Couplings  ----
                      3XX-RR        3YY-RR        3ZZ-RR
 --------------------------------------------------------
     1   Atom       -0.000000     -0.000000      0.000000
     2   Atom       -0.000000     -0.000000      0.000000
 --------------------------------------------------------
                        XY            XZ            YZ
 --------------------------------------------------------
     1   Atom       -0.000000      0.000000     -0.177655
     2   Atom        0.000000     -0.000000      0.000924
 --------------------------------------------------------


 ---------------------------------------------------------------------------------
              Anisotropic Spin Dipole Couplings in Principal Axis System
 ---------------------------------------------------------------------------------

       Atom             a.u.   MegaHertz   Gauss  10(-4) cm-1        Axes

              Baa    -0.1777   -30.417   -10.854   -10.146  0.0000  0.7071  0.7071
     1 B(11)  Bbb    -0.0000    -0.000    -0.000    -0.000  1.0000 -0.0000 -0.0000
              Bcc     0.1777    30.417    10.854    10.146 -0.0000  0.7071 -0.7071
 
              Baa    -0.0009    -0.493    -0.176    -0.165 -0.0000  0.7071 -0.7071
     2 H(1)   Bbb    -0.0000    -0.000    -0.000    -0.000  1.0000  0.0000 -0.0000
              Bcc     0.0009     0.493     0.176     0.165 -0.0000  0.7071  0.7071
 

 ---------------------------------------------------------------------------------

 No NMR shielding tensors so no spin-rotation constants.
 Leave Link  601 at Sat May 21 19:01:01 2022, MaxMem=   104857600 cpu:               0.2 elap:               0.2
 (Enter /apps/software/g16/l801.exe)
 Range of M.O.s used for correlation:     1   126
 NBasis=   126 NAE=     3 NBE=     3 NFC=     0 NFV=     0
 NROrb=    126 NOA=     3 NOB=     3 NVA=   123 NVB=   123
 Leave Link  801 at Sat May 21 19:01:01 2022, MaxMem=   104857600 cpu:               0.0 elap:               0.0
 (Enter /apps/software/g16/l914.exe)
 UHF ground state
 Doing stability rather than CIS.
 Keep R1 and R2 ints in memory in symmetry-blocked form, NReq=40144005.
 FoFCou: FMM=F IPFlag=           0 FMFlag=           0 FMFlg1=           0
         NFxFlg=           0 DoJE=F BraDBF=F KetDBF=F FulRan=T
         wScrn=  0.000000 ICntrl=       600 IOpCl=  0 I1Cent=           0 NGrid=           0
         NMat0=    1 NMatS0=   8001 NMatT0=    0 NMatD0=    1 NMtDS0=    0 NMtDT0=    0
 Petite list used in FoFCou.
 MDV=   104857600 DFT=F DoStab=T Mixed=F DoRPA=F DoScal=F NonHer=F
 Making orbital integer symmetry assigments:
 Orbital symmetries:
 Alpha Orbitals:
       Occupied  (SG) (?A) (?A)
       Virtual   (?A) (?A) (?A) (?A) (?A) (?A) (SG) (SG) (?B) (?B)
                 (?B) (?B) (SG) (?C) (?C) (?C) (?C) (?C) (?C) (SG)
                 (?D) (?D) (?D) (?D) (?E) (?E) (?E) (?E) (?E) (?E)
                 (?E) (?E) (SG) (DLTA) (DLTA) (PI) (PI) (SG) (PI)
                 (PI) (?F) (?F) (?F) (?F) (?G) (?G) (?G) (?G) (?G)
                 (?G) (?G) (?G) (?G) (?G) (?G) (?G) (?G) (?G) (?H)
                 (?H) (?H) (?H) (?H) (?H) (?H) (SG) (PHI) (PHI)
                 (DLTA) (DLTA) (PI) (PI) (SG) (SG) (DLTA) (DLTA)
                 (PI) (PI) (SG) (PI) (PI) (SG) (?I) (?I) (?I) (?J)
                 (?J) (?J) (?J) (?J) (?J) (?J) (?J) (?J) (?J) (?J)
                 (?J) (?J) (SG) (?K) (?K) (?K) (?K) (?K) (?K) (?K)
                 (PHI) (PHI) (DLTA) (DLTA) (PI) (PI) (SG) (SG)
                 (PI) (PI) (SG) (DLTA) (DLTA) (PI) (PI) (SG) (SG)
 Beta  Orbitals:
       Occupied  (SG) (?A) (?A)
       Virtual   (?A) (?A) (?A) (?A) (?A) (?A) (SG) (SG) (?B) (?B)
                 (?B) (?B) (SG) (?C) (?C) (?C) (?C) (?C) (?C) (SG)
                 (?D) (?D) (?D) (?D) (?E) (?E) (?E) (?E) (?E) (?E)
                 (?E) (?E) (SG) (DLTA) (DLTA) (PI) (PI) (SG) (PI)
                 (PI) (?F) (?F) (?F) (?F) (?G) (?G) (?G) (?G) (?G)
                 (?G) (?G) (?G) (?G) (?G) (?G) (?G) (?G) (?G) (?H)
                 (?H) (?H) (?H) (?H) (?H) (?H) (SG) (PHI) (PHI)
                 (DLTA) (DLTA) (PI) (PI) (SG) (SG) (DLTA) (DLTA)
                 (PI) (PI) (SG) (PI) (PI) (SG) (?I) (?I) (?I) (?J)
                 (?J) (?J) (?J) (?J) (?J) (?J) (?J) (?J) (?J) (?J)
                 (?J) (?J) (SG) (?K) (?K) (?K) (?K) (?K) (?K) (?K)
                 (PHI) (PHI) (DLTA) (DLTA) (PI) (PI) (SG) (SG)
                 (PI) (PI) (SG) (DLTA) (DLTA) (PI) (PI) (SG) (SG)
    12 initial guesses have been made.
 Convergence on wavefunction:    0.001000000000000
 Davidson Disk Diagonalization:  ConvIn= 1.00D-03 SkipCon=T Conv= 1.00D-03.
 Max sub-space:  1476 roots to seek:    12 dimension of matrix:          738
 Iteration     1 Dimension    12 NMult     0 NNew     12
 CISAX will form    12 AO SS matrices at one time.
 NMat=    12 NSing=    12 JSym2X= 2.
 New state      1 was old state      5
 Excitation Energies [eV] at current iteration:
 Root      1 :    -5.026762111574352
 Root      2 :     0.609114021560678
 Root      3 :     0.956104760769843
 Root      4 :     1.044919420371187
 Root      5 :     1.182264140510140
 Root      6 :     4.263799768279564
 Root      7 :     4.366099843230000
 Root      8 :     5.149975956451300
 Root      9 :     5.181294163161482
 Root     10 :     5.209486966829966
 Root     11 :     5.269429339239221
 Root     12 :     7.887212635003820
 Iteration     2 Dimension    24 NMult    12 NNew     12
 CISAX will form    12 AO SS matrices at one time.
 NMat=    12 NSing=    12 JSym2X= 2.
 Root      1 not converged, maximum delta is    0.109467090332084
 Excitation Energies [eV] at current iteration:
 Root      1 :    -6.706886761377168   Change is   -1.680124649802816
 Root      2 :     0.096665420342191   Change is   -0.512448601218487
 Root      3 :     0.488624688293387   Change is   -0.556294732077800
 Root      4 :     0.552689643130823   Change is   -0.403415117639019
 Root      5 :     0.659127104368355   Change is   -0.523137036141786
 Root      6 :     3.741508856662840   Change is   -0.522290911616724
 Root      7 :     3.966919752107968   Change is   -0.399180091122032
 Root      8 :     4.659460052543450   Change is   -0.550026914286517
 Root      9 :     4.660903105182664   Change is   -0.489072851268636
 Root     10 :     4.696495970707337   Change is   -0.484798192454145
 Root     11 :     4.805405140095671   Change is   -0.464024199143551
 Root     12 :     5.167855179901368   Change is   -2.719357455102452
 Iteration     3 Dimension    27 NMult    24 NNew      3
 CISAX will form     3 AO SS matrices at one time.
 NMat=     3 NSing=     3 JSym2X= 2.
 Root      1 not converged, maximum delta is    0.016180057725773
 Excitation Energies [eV] at current iteration:
 Root      1 :    -6.758815491006368   Change is   -0.051928729629199
 Root      2 :     0.075606898037502   Change is   -0.021058522304688
 Root      3 :     0.453545166339048   Change is   -0.035079521954339
 Iteration     4 Dimension    30 NMult    27 NNew      3
 CISAX will form     3 AO SS matrices at one time.
 NMat=     3 NSing=     3 JSym2X= 2.
 Root      1 not converged, maximum delta is    0.001203955591379
 Excitation Energies [eV] at current iteration:
 Root      1 :    -6.759491182099150   Change is   -0.000675691092782
 Root      2 :     0.014997626975133   Change is   -0.060609271062369
 Root      3 :     0.419346172056936   Change is   -0.034198994282111
 Iteration     5 Dimension    33 NMult    30 NNew      3
 CISAX will form     3 AO SS matrices at one time.
 NMat=     3 NSing=     3 JSym2X= 2.
 Root      1 has converged.
 Excitation Energies [eV] at current iteration:
 Root      1 :    -6.759508294048634   Change is   -0.000017111949484
 Root      2 :     0.000549753795337   Change is   -0.014447873179796
 Root      3 :     0.413342666277567   Change is   -0.006003505779369
 Convergence achieved on expansion vectors.
 ***********************************************************************
 Stability analysis using <AA,BB:AA,BB> singles matrix:
 ***********************************************************************
 1PDM for each excited state written to RWF  633
 Ground to excited state transition densities written to RWF  633

 Eigenvectors of the stability matrix:
 
 Excited state symmetry could not be determined.
 Eigenvector   1:  2.781-?Sym  Eigenvalue=-0.2484074  <S**2>=1.684
      3A ->  4A        0.66369
      3A ->  6A        0.11961
      3B ->  4B       -0.66369
      3B ->  6B        0.11961
 The wavefunction has an internal instability.
 Leave Link  914 at Sat May 21 19:01:06 2022, MaxMem=   104857600 cpu:               4.1 elap:               4.1
 (Enter /apps/software/g16/l508.exe)
 Keep R1 and R2 ints in memory in symmetry-blocked form, NReq=40144065.
 FoFCou: FMM=F IPFlag=           0 FMFlag=           0 FMFlg1=           0
         NFxFlg=           0 DoJE=F BraDBF=F KetDBF=F FulRan=T
         wScrn=  0.000000 ICntrl=       600 IOpCl=  0 I1Cent=           0 NGrid=           0
         NMat0=    1 NMatS0=   8001 NMatT0=    0 NMatD0=    1 NMtDS0=    0 NMtDT0=    0
 Petite list used in FoFCou.
 Tight linear equation convergence will be used.
 UHF wavefunction.
 Quadratic Convergence SCF Method.
 Line search only if initial step raises energy.
 Perform preliminary linear searches along instability eigenvector.
     ILin= 1 X=0.000D+00 Y=-2.489699457217D+01 DE= 0.00D+00
     ILin= 2 X=1.000D-01 Y=-2.489945857884D+01 DE=-2.46D-03
     ILin= 3 X=1.414D-01 Y=-2.490188268956D+01 DE=-4.89D-03
     ILin= 4 X=2.000D-01 Y=-2.490661254886D+01 DE=-9.62D-03
     ILin= 5 X=2.828D-01 Y=-2.491560797946D+01 DE=-1.86D-02
     ILin= 6 X=4.000D-01 Y=-2.493181341206D+01 DE=-3.48D-02
     ILin= 7 X=5.657D-01 Y=-2.495763186969D+01 DE=-6.06D-02
     ILin= 8 X=8.000D-01 Y=-2.498692303953D+01 DE=-8.99D-02
     ILin= 9 X=1.131D+00 Y=-2.498301219918D+01 DE=-8.60D-02
     An  expanding polynomial of degree  9 produced  0.9505
 Iteration F X= 9.505D-01 EE=-2.499340177312489D+01
     ILin= 1 X=0.000D+00 Y=-2.489699457217D+01 DE= 0.00D+00
     ILin= 2 X=1.000D-01 Y=-2.489945857941D+01 DE=-2.46D-03
     ILin= 3 X=1.414D-01 Y=-2.490188269118D+01 DE=-4.89D-03
 The two search directions are symmetric.
 Iteration B X= 9.505D-01 EE=-2.499340177312489D+01
 Take forward step, X= 9.505D-01 Step= 9.505D-01
 Iteration   1 EE= -24.9933973981290                                    Grad=1.105D-01 Max rot=    2.6035 deg.
 Gradient too large for Newton-Raphson -- use scaled steepest descent instead.
 Alpha Gap=     0.291 HL deriv= 1.56D-01
  Beta Gap=     0.495 HL deriv= 8.12D-02
     ILin= 1 X=0.000D+00 Y=-2.499339739813D+01 DE= 0.00D+00 F= -4.10D-02
     ILin= 2 X=3.000D-01 Y=-2.500478167017D+01 DE=-1.14D-02 F= -3.47D-02
     ILin= 3 X=4.000D-01 Y=-2.500813748597D+01 DE=-1.47D-02 F= -3.24D-02
     ILin= 4 X=6.000D-01 Y=-2.501413329206D+01 DE=-2.07D-02 F= -2.75D-02
     ILin= 5 X=1.000D+00 Y=-2.502302356082D+01 DE=-2.96D-02 F= -1.68D-02
     ILin= 6 X=1.400D+00 Y=-2.502740012657D+01 DE=-3.40D-02 F= -5.00D-03
     ILin= 7 X=2.100D+00 Y=-2.502331920056D+01 DE=-2.99D-02 F=  1.68D-02
     An  expanding polynomial of degree  7 produced  1.5633
 Iteration   2 EE= -25.0278092056253     Delta-E=       -0.034411807496 Grad=4.816D-02 Max rot=    0.9664 deg.
 Gradient too large for Newton-Raphson -- use scaled steepest descent instead.
 Alpha Gap=     0.356 HL deriv= 3.60D-02
  Beta Gap=     0.561 HL deriv= 3.01D-02
     ILin= 1 X=0.000D+00 Y=-2.502780920563D+01 DE= 0.00D+00 F= -6.09D-03
     ILin= 2 X=7.000D-01 Y=-2.503097102352D+01 DE=-3.16D-03 F= -2.92D-03
     ILin= 3 X=1.300D+00 Y=-2.503188335138D+01 DE=-4.07D-03 F= -1.07D-04
     Reject lnstep minimum 1.618D+00 FVal=-2.503192754903D+01 Lims=  7.00D-01  1.30D+00
     ILin= 4 X=2.400D+00 Y=-2.502909223639D+01 DE=-1.28D-03 F=  5.21D-03
     An  expanding polynomial of degree  4 produced  1.3234
     Minimum is close to point  3 DX=  2.34D-02 DF= -1.30D-06 DXR=  1.77D-02 DFR=  3.18D-04 which will be used.
 Iteration   3 EE= -25.0318833513844     Delta-E=       -0.004074145759 Grad=1.869D-02 Max rot=    0.3175 deg.
 Gradient too large for Newton-Raphson -- use scaled steepest descent instead.
 Alpha Gap=     0.367 HL deriv= 1.13D-02
  Beta Gap=     0.572 HL deriv= 5.47D-03
     ILin= 1 X=0.000D+00 Y=-2.503188335138D+01 DE= 0.00D+00 F= -8.75D-04
     ILin= 2 X=1.400D+00 Y=-2.503255009566D+01 DE=-6.67D-04 F= -7.51D-05
     Reject lnstep minimum 1.444D+00 FVal=-2.503255129378D+01 Lims=  0.00D+00  1.40D+00
     ILin= 3 X=2.900D+00 Y=-2.503201011804D+01 DE=-1.27D-04 F=  7.97D-04
     An  expanding polynomial of degree  3 produced  1.5258
     Minimum is close to point  2 DX=  1.26D-01 DF= -4.56D-06 DXR=  8.24D-02 DFR=  6.84D-03 which will be used.
 Iteration   4 EE= -25.0325500956569     Delta-E=       -0.000666744273 Grad=8.419D-03 Max rot=    0.1393 deg.
 QCNR:  CnvC1=2.72D-09 CnvC2=2.72D-08
 LinEq1:  Iter=  0 NonCon=     1 RMS=4.34D-04 Max=5.23D-03 NDo=     1
 AX will form     1 AO Fock derivatives at one time.
 LinEq1:  Iter=  1 NonCon=     1 RMS=1.13D-04 Max=9.59D-04 NDo=     1
 LinEq1:  Iter=  2 NonCon=     1 RMS=3.34D-05 Max=3.08D-04 NDo=     1
 LinEq1:  Iter=  3 NonCon=     1 RMS=4.28D-06 Max=3.89D-05 NDo=     1
 LinEq1:  Iter=  4 NonCon=     1 RMS=8.17D-07 Max=9.15D-06 NDo=     1
 LinEq1:  Iter=  5 NonCon=     1 RMS=1.69D-07 Max=1.93D-06 NDo=     1
 LinEq1:  Iter=  6 NonCon=     1 RMS=2.36D-08 Max=2.07D-07 NDo=     1
 LinEq1:  Iter=  7 NonCon=     1 RMS=3.78D-09 Max=5.66D-08 NDo=     1
 LinEq1:  Iter=  8 NonCon=     0 RMS=1.32D-09 Max=1.11D-08 NDo=     1
 Linear equations converged to 2.717D-09 2.717D-08 after     8 iterations.
 Angle between quadratic step and gradient=  58.61 degrees.
     ILin= 1 X=0.000D+00 Y=-2.503255009566D+01 DE= 0.00D+00 F= -7.95D-04
     ILin= 2 X=1.000D+00 Y=-2.503296229858D+01 DE=-4.12D-04 F= -3.74D-05
     Reject lnstep minimum 1.051D+00 FVal=-2.503296325389D+01 Lims=  0.00D+00  1.00D+00
     ILin= 3 X=1.800D+00 Y=-2.503274947212D+01 DE=-1.99D-04 F=  5.78D-04
     An  expanding polynomial of degree  3 produced  1.0470
     Minimum is close to point  2 DX=  4.70D-02 DF= -8.32D-07 DXR=  4.49D-02 DFR=  2.02D-03 which will be used.
 Iteration   5 EE= -25.0329622985843     Delta-E=       -0.000412202927 Grad=8.584D-04 Max rot=    0.0227 deg.
 QCNR:  CnvC1=2.72D-09 CnvC2=2.72D-08
 LinEq1:  Iter=  0 NonCon=     1 RMS=2.99D-05 Max=3.20D-04 NDo=     1
 LinEq1:  Iter=  1 NonCon=     1 RMS=9.11D-06 Max=8.33D-05 NDo=     1
 LinEq1:  Iter=  2 NonCon=     1 RMS=1.61D-06 Max=1.79D-05 NDo=     1
 LinEq1:  Iter=  3 NonCon=     1 RMS=2.55D-07 Max=2.47D-06 NDo=     1
 LinEq1:  Iter=  4 NonCon=     1 RMS=5.62D-08 Max=6.62D-07 NDo=     1
 LinEq1:  Iter=  5 NonCon=     1 RMS=1.92D-08 Max=1.87D-07 NDo=     1
 LinEq1:  Iter=  6 NonCon=     1 RMS=3.30D-09 Max=3.21D-08 NDo=     1
 LinEq1:  Iter=  7 NonCon=     0 RMS=4.54D-10 Max=4.33D-09 NDo=     1
 Linear equations converged to 2.717D-09 2.717D-08 after     7 iterations.
 Angle between quadratic step and gradient=  83.18 degrees.
     ILin= 1 X=0.000D+00 Y=-2.503296229858D+01 DE= 0.00D+00 F= -8.15D-06
     ILin= 2 X=1.000D+00 Y=-2.503296527689D+01 DE=-2.98D-06 F=  2.37D-06
     Accept linear search using points  1 and  2.
     An  expanding polynomial of degree  2 produced  0.7833
 Iteration   6 EE= -25.0329655320883     Delta-E=       -0.000003233504 Grad=2.974D-03 Max rot=    0.0853 deg.
 QCNR:  CnvC1=2.72D-09 CnvC2=2.72D-08
 LinEq1:  Iter=  0 NonCon=     1 RMS=2.44D-05 Max=2.50D-04 NDo=     1
 LinEq1:  Iter=  1 NonCon=     1 RMS=6.94D-06 Max=7.81D-05 NDo=     1
 LinEq1:  Iter=  2 NonCon=     1 RMS=1.60D-06 Max=1.74D-05 NDo=     1
 LinEq1:  Iter=  3 NonCon=     1 RMS=5.22D-07 Max=4.35D-06 NDo=     1
 LinEq1:  Iter=  4 NonCon=     1 RMS=1.09D-07 Max=1.29D-06 NDo=     1
 LinEq1:  Iter=  5 NonCon=     1 RMS=1.95D-08 Max=1.80D-07 NDo=     1
 LinEq1:  Iter=  6 NonCon=     1 RMS=6.18D-09 Max=5.69D-08 NDo=     1
 LinEq1:  Iter=  7 NonCon=     0 RMS=1.12D-09 Max=9.58D-09 NDo=     1
 Linear equations converged to 2.717D-09 2.717D-08 after     7 iterations.
 Angle between quadratic step and gradient=  87.48 degrees.
     ILin= 1 X=0.000D+00 Y=-2.503296553209D+01 DE= 0.00D+00 F= -3.83D-06
     ILin= 2 X=1.000D+00 Y=-2.503296695095D+01 DE=-1.42D-06 F=  9.67D-07
     Accept linear search using points  1 and  2.
     An  expanding polynomial of degree  2 produced  0.7960
 Iteration   7 EE= -25.0329670496981     Delta-E=       -0.000001517610 Grad=1.304D-03 Max rot=    0.0288 deg.
 QCNR:  CnvC1=2.72D-09 CnvC2=2.72D-08
 LinEq1:  Iter=  0 NonCon=     1 RMS=1.77D-05 Max=1.46D-04 NDo=     1
 LinEq1:  Iter=  1 NonCon=     1 RMS=4.57D-06 Max=3.65D-05 NDo=     1
 LinEq1:  Iter=  2 NonCon=     1 RMS=1.37D-06 Max=1.45D-05 NDo=     1
 LinEq1:  Iter=  3 NonCon=     1 RMS=3.37D-07 Max=3.10D-06 NDo=     1
 LinEq1:  Iter=  4 NonCon=     1 RMS=7.30D-08 Max=6.25D-07 NDo=     1
 LinEq1:  Iter=  5 NonCon=     1 RMS=1.89D-08 Max=1.73D-07 NDo=     1
 LinEq1:  Iter=  6 NonCon=     1 RMS=4.83D-09 Max=4.05D-08 NDo=     1
 LinEq1:  Iter=  7 NonCon=     0 RMS=1.15D-09 Max=1.01D-08 NDo=     1
 Linear equations converged to 2.717D-09 2.717D-08 after     7 iterations.
 Angle between quadratic step and gradient=  86.15 degrees.
     ILin= 1 X=0.000D+00 Y=-2.503296704970D+01 DE= 0.00D+00 F= -1.67D-06
     ILin= 2 X=1.000D+00 Y=-2.503296753432D+01 DE=-4.85D-07 F=  6.97D-07
     Accept linear search using points  1 and  2.
     An  expanding polynomial of degree  2 produced  0.7050
 Iteration   8 EE= -25.0329676370985     Delta-E=       -0.000000587400 Grad=1.421D-03 Max rot=    0.0333 deg.
 QCNR:  CnvC1=2.72D-09 CnvC2=2.72D-08
 LinEq1:  Iter=  0 NonCon=     1 RMS=1.30D-05 Max=1.13D-04 NDo=     1
 LinEq1:  Iter=  1 NonCon=     1 RMS=3.58D-06 Max=3.66D-05 NDo=     1
 LinEq1:  Iter=  2 NonCon=     1 RMS=9.25D-07 Max=1.13D-05 NDo=     1
 LinEq1:  Iter=  3 NonCon=     1 RMS=2.57D-07 Max=2.61D-06 NDo=     1
 LinEq1:  Iter=  4 NonCon=     1 RMS=4.57D-08 Max=4.07D-07 NDo=     1
 LinEq1:  Iter=  5 NonCon=     1 RMS=9.02D-09 Max=7.22D-08 NDo=     1
 LinEq1:  Iter=  6 NonCon=     0 RMS=2.07D-09 Max=2.20D-08 NDo=     1
 Linear equations converged to 2.717D-09 2.717D-08 after     6 iterations.
 Angle between quadratic step and gradient=  88.53 degrees.
     ILin= 1 X=0.000D+00 Y=-2.503296763710D+01 DE= 0.00D+00 F= -4.52D-06
     ILin= 2 X=1.000D+00 Y=-2.503296846187D+01 DE=-8.25D-07 F=  3.07D-06
     Accept linear search using points  1 and  2.
     An  expanding polynomial of degree  2 produced  0.6145
 Iteration   9 EE= -25.0329690374406     Delta-E=       -0.000001400342 Grad=1.675D-03 Max rot=    0.0517 deg.
 QCNR:  CnvC1=2.72D-09 CnvC2=2.72D-08
 LinEq1:  Iter=  0 NonCon=     1 RMS=1.60D-05 Max=1.29D-04 NDo=     1
 LinEq1:  Iter=  1 NonCon=     1 RMS=5.94D-06 Max=5.43D-05 NDo=     1
 LinEq1:  Iter=  2 NonCon=     1 RMS=1.30D-06 Max=1.38D-05 NDo=     1
 LinEq1:  Iter=  3 NonCon=     1 RMS=3.28D-07 Max=3.28D-06 NDo=     1
 LinEq1:  Iter=  4 NonCon=     1 RMS=5.83D-08 Max=5.37D-07 NDo=     1
 LinEq1:  Iter=  5 NonCon=     1 RMS=1.56D-08 Max=1.62D-07 NDo=     1
 LinEq1:  Iter=  6 NonCon=     1 RMS=3.87D-09 Max=3.91D-08 NDo=     1
 LinEq1:  Iter=  7 NonCon=     0 RMS=8.24D-10 Max=5.28D-09 NDo=     1
 Linear equations converged to 2.717D-09 2.717D-08 after     7 iterations.
 Angle between quadratic step and gradient=  85.62 degrees.
     ILin= 1 X=0.000D+00 Y=-2.503296903744D+01 DE= 0.00D+00 F= -3.00D-06
     ILin= 2 X=1.000D+00 Y=-2.503296917227D+01 DE=-1.35D-07 F=  2.73D-06
     Accept linear search using points  1 and  2.
     An  expanding polynomial of degree  2 produced  0.5236
 Iteration  10 EE= -25.0329698219995     Delta-E=       -0.000000784559 Grad=2.001D-03 Max rot=    0.0638 deg.
 QCNR:  CnvC1=2.72D-09 CnvC2=2.72D-08
 LinEq1:  Iter=  0 NonCon=     1 RMS=1.35D-05 Max=8.83D-05 NDo=     1
 LinEq1:  Iter=  1 NonCon=     1 RMS=4.28D-06 Max=3.09D-05 NDo=     1
 LinEq1:  Iter=  2 NonCon=     1 RMS=1.19D-06 Max=9.48D-06 NDo=     1
 LinEq1:  Iter=  3 NonCon=     1 RMS=2.61D-07 Max=2.90D-06 NDo=     1
 LinEq1:  Iter=  4 NonCon=     1 RMS=5.06D-08 Max=3.43D-07 NDo=     1
 LinEq1:  Iter=  5 NonCon=     1 RMS=1.38D-08 Max=1.33D-07 NDo=     1
 LinEq1:  Iter=  6 NonCon=     1 RMS=3.78D-09 Max=3.29D-08 NDo=     1
 LinEq1:  Iter=  7 NonCon=     0 RMS=8.76D-10 Max=7.34D-09 NDo=     1
 Linear equations converged to 2.717D-09 2.717D-08 after     7 iterations.
 Angle between quadratic step and gradient=  87.61 degrees.
     ILin= 1 X=0.000D+00 Y=-2.503296982200D+01 DE= 0.00D+00 F= -1.97D-06
     ILin= 2 X=1.000D+00 Y=-2.503297018459D+01 DE=-3.63D-07 F=  1.24D-06
     Accept linear search using points  1 and  2.
     An  expanding polynomial of degree  2 produced  0.6128
 Iteration  11 EE= -25.0329704248496     Delta-E=       -0.000000602850 Grad=1.825D-03 Max rot=    0.0460 deg.
 QCNR:  CnvC1=2.72D-09 CnvC2=2.72D-08
 LinEq1:  Iter=  0 NonCon=     1 RMS=1.29D-05 Max=9.70D-05 NDo=     1
 LinEq1:  Iter=  1 NonCon=     1 RMS=3.43D-06 Max=2.70D-05 NDo=     1
 LinEq1:  Iter=  2 NonCon=     1 RMS=9.35D-07 Max=1.20D-05 NDo=     1
 LinEq1:  Iter=  3 NonCon=     1 RMS=2.59D-07 Max=2.15D-06 NDo=     1
 LinEq1:  Iter=  4 NonCon=     1 RMS=5.36D-08 Max=5.47D-07 NDo=     1
 LinEq1:  Iter=  5 NonCon=     1 RMS=1.08D-08 Max=8.34D-08 NDo=     1
 LinEq1:  Iter=  6 NonCon=     0 RMS=1.52D-09 Max=1.88D-08 NDo=     1
 Linear equations converged to 2.717D-09 2.717D-08 after     6 iterations.
 Angle between quadratic step and gradient=  89.07 degrees.
     ILin= 1 X=0.000D+00 Y=-2.503297042485D+01 DE= 0.00D+00 F= -7.82D-06
     ILin= 2 X=1.000D+00 Y=-2.503296269353D+01 DE= 7.73D-06 F=  2.84D-05
     Reject lnstep minimum 3.032D-01 FVal=-2.503297167140D+01 Lims=  0.00D+00  1.00D+00
     ILin= 3 X=3.000D-01 Y=-2.503297153759D+01 DE=-1.11D-06 F=  4.12D-07
     A contracting polynomial of degree  3 produced  0.2635
 Iteration  12 EE= -25.0329715339358     Delta-E=       -0.000001109086 Grad=3.271D-03 Max rot=    0.1405 deg.
 QCNR:  CnvC1=2.72D-09 CnvC2=2.72D-08
 LinEq1:  Iter=  0 NonCon=     1 RMS=1.55D-05 Max=1.81D-04 NDo=     1
 LinEq1:  Iter=  1 NonCon=     1 RMS=4.83D-06 Max=5.53D-05 NDo=     1
 LinEq1:  Iter=  2 NonCon=     1 RMS=1.33D-06 Max=1.31D-05 NDo=     1
 LinEq1:  Iter=  3 NonCon=     1 RMS=3.57D-07 Max=3.03D-06 NDo=     1
 LinEq1:  Iter=  4 NonCon=     1 RMS=6.09D-08 Max=5.56D-07 NDo=     1
 LinEq1:  Iter=  5 NonCon=     1 RMS=1.66D-08 Max=1.84D-07 NDo=     1
 LinEq1:  Iter=  6 NonCon=     1 RMS=3.83D-09 Max=4.04D-08 NDo=     1
 LinEq1:  Iter=  7 NonCon=     0 RMS=9.85D-10 Max=7.89D-09 NDo=     1
 Linear equations converged to 2.717D-09 2.717D-08 after     7 iterations.
 Angle between quadratic step and gradient=  86.83 degrees.
     ILin= 1 X=0.000D+00 Y=-2.503297153394D+01 DE= 0.00D+00 F= -2.75D-06
     ILin= 2 X=1.000D+00 Y=-2.503297234396D+01 DE=-8.10D-07 F=  1.13D-06
     Accept linear search using points  1 and  2.
     An  expanding polynomial of degree  2 produced  0.7093
 Iteration  13 EE= -25.0329725075469     Delta-E=       -0.000000973611 Grad=1.590D-03 Max rot=    0.0349 deg.
 QCNR:  CnvC1=2.72D-09 CnvC2=2.72D-08
 LinEq1:  Iter=  0 NonCon=     1 RMS=1.11D-05 Max=9.35D-05 NDo=     1
 LinEq1:  Iter=  1 NonCon=     1 RMS=3.27D-06 Max=3.74D-05 NDo=     1
 LinEq1:  Iter=  2 NonCon=     1 RMS=8.13D-07 Max=8.15D-06 NDo=     1
 LinEq1:  Iter=  3 NonCon=     1 RMS=2.20D-07 Max=2.54D-06 NDo=     1
 LinEq1:  Iter=  4 NonCon=     1 RMS=4.14D-08 Max=2.50D-07 NDo=     1
 LinEq1:  Iter=  5 NonCon=     1 RMS=4.36D-09 Max=3.12D-08 NDo=     1
 LinEq1:  Iter=  6 NonCon=     0 RMS=1.02D-09 Max=1.22D-08 NDo=     1
 Linear equations converged to 2.717D-09 2.717D-08 after     6 iterations.
 Angle between quadratic step and gradient=  89.02 degrees.
     ILin= 1 X=0.000D+00 Y=-2.503297250755D+01 DE= 0.00D+00 F= -6.27D-06
     ILin= 2 X=1.000D+00 Y=-2.503297326169D+01 DE=-7.54D-07 F=  8.40D-06
     Accept linear search using points  1 and  2.
     An  expanding polynomial of degree  2 produced  0.6096
 Iteration  14 EE= -25.0329746934098     Delta-E=       -0.000002185863 Grad=1.311D-03 Max rot=    0.0322 deg.
 QCNR:  CnvC1=2.72D-09 CnvC2=2.72D-08
 LinEq1:  Iter=  0 NonCon=     1 RMS=1.93D-05 Max=1.24D-04 NDo=     1
 LinEq1:  Iter=  1 NonCon=     1 RMS=5.49D-06 Max=5.87D-05 NDo=     1
 LinEq1:  Iter=  2 NonCon=     1 RMS=1.42D-06 Max=1.20D-05 NDo=     1
 LinEq1:  Iter=  3 NonCon=     1 RMS=3.06D-07 Max=3.78D-06 NDo=     1
 LinEq1:  Iter=  4 NonCon=     1 RMS=7.33D-08 Max=6.10D-07 NDo=     1
 LinEq1:  Iter=  5 NonCon=     1 RMS=1.55D-08 Max=1.91D-07 NDo=     1
 LinEq1:  Iter=  6 NonCon=     1 RMS=4.86D-09 Max=5.60D-08 NDo=     1
 LinEq1:  Iter=  7 NonCon=     0 RMS=1.10D-09 Max=9.40D-09 NDo=     1
 Linear equations converged to 2.717D-09 2.717D-08 after     7 iterations.
 Angle between quadratic step and gradient=  80.60 degrees.
     ILin= 1 X=0.000D+00 Y=-2.503297469341D+01 DE= 0.00D+00 F= -2.69D-06
     ILin= 2 X=1.000D+00 Y=-2.503297596181D+01 DE=-1.27D-06 F=  1.51D-07
     Accept linear search using points  1 and  2.
     An  expanding polynomial of degree  2 produced  0.9469
     Minimum is close to point  2 DX= -5.31D-02 DF= -4.00D-09 DXR=  5.60D-02 DFR=  3.15D-03 which will be used.
 Iteration  15 EE= -25.0329759618102     Delta-E=       -0.000001268400 Grad=7.204D-04 Max rot=    0.0197 deg.
 QCNR:  CnvC1=2.72D-09 CnvC2=2.72D-08
 LinEq1:  Iter=  0 NonCon=     1 RMS=7.82D-06 Max=6.65D-05 NDo=     1
 LinEq1:  Iter=  1 NonCon=     1 RMS=2.09D-06 Max=2.14D-05 NDo=     1
 LinEq1:  Iter=  2 NonCon=     1 RMS=5.83D-07 Max=6.86D-06 NDo=     1
 LinEq1:  Iter=  3 NonCon=     1 RMS=1.32D-07 Max=1.07D-06 NDo=     1
 LinEq1:  Iter=  4 NonCon=     1 RMS=2.78D-08 Max=3.84D-07 NDo=     1
 LinEq1:  Iter=  5 NonCon=     1 RMS=6.20D-09 Max=6.43D-08 NDo=     1
 LinEq1:  Iter=  6 NonCon=     0 RMS=1.53D-09 Max=1.66D-08 NDo=     1
 Linear equations converged to 2.717D-09 2.717D-08 after     6 iterations.
 Angle between quadratic step and gradient=  88.01 degrees.
     ILin= 1 X=0.000D+00 Y=-2.503297596181D+01 DE= 0.00D+00 F= -1.10D-06
     ILin= 2 X=1.000D+00 Y=-2.503297613723D+01 DE=-1.75D-07 F=  7.50D-07
     Accept linear search using points  1 and  2.
     An  expanding polynomial of degree  2 produced  0.5942
 Iteration  16 EE= -25.0329762894219     Delta-E=       -0.000000327612 Grad=9.669D-04 Max rot=    0.0465 deg.
 QCNR:  CnvC1=2.72D-09 CnvC2=2.72D-08
 LinEq1:  Iter=  0 NonCon=     1 RMS=7.15D-06 Max=6.61D-05 NDo=     1
 LinEq1:  Iter=  1 NonCon=     1 RMS=2.74D-06 Max=3.39D-05 NDo=     1
 LinEq1:  Iter=  2 NonCon=     1 RMS=5.52D-07 Max=6.47D-06 NDo=     1
 LinEq1:  Iter=  3 NonCon=     1 RMS=1.57D-07 Max=1.66D-06 NDo=     1
 LinEq1:  Iter=  4 NonCon=     1 RMS=2.63D-08 Max=3.03D-07 NDo=     1
 LinEq1:  Iter=  5 NonCon=     1 RMS=6.44D-09 Max=6.34D-08 NDo=     1
 LinEq1:  Iter=  6 NonCon=     0 RMS=1.65D-09 Max=1.62D-08 NDo=     1
 Linear equations converged to 2.717D-09 2.717D-08 after     6 iterations.
 Angle between quadratic step and gradient=  85.27 degrees.
     ILin= 1 X=0.000D+00 Y=-2.503297628942D+01 DE= 0.00D+00 F= -6.78D-07
     ILin= 2 X=1.000D+00 Y=-2.503297652339D+01 DE=-2.34D-07 F=  2.10D-07
     Accept linear search using points  1 and  2.
     An  expanding polynomial of degree  2 produced  0.7637
 Iteration  17 EE= -25.0329765481606     Delta-E=       -0.000000258739 Grad=8.316D-04 Max rot=    0.0305 deg.
 QCNR:  CnvC1=2.72D-09 CnvC2=2.72D-08
 LinEq1:  Iter=  0 NonCon=     1 RMS=5.75D-06 Max=5.64D-05 NDo=     1
 LinEq1:  Iter=  1 NonCon=     1 RMS=1.85D-06 Max=1.56D-05 NDo=     1
 LinEq1:  Iter=  2 NonCon=     1 RMS=4.88D-07 Max=6.53D-06 NDo=     1
 LinEq1:  Iter=  3 NonCon=     1 RMS=1.36D-07 Max=1.23D-06 NDo=     1
 LinEq1:  Iter=  4 NonCon=     1 RMS=2.44D-08 Max=2.03D-07 NDo=     1
 LinEq1:  Iter=  5 NonCon=     1 RMS=5.34D-09 Max=4.95D-08 NDo=     1
 LinEq1:  Iter=  6 NonCon=     0 RMS=6.56D-10 Max=6.84D-09 NDo=     1
 Linear equations converged to 2.717D-09 2.717D-08 after     6 iterations.
 Angle between quadratic step and gradient=  88.68 degrees.
     ILin= 1 X=0.000D+00 Y=-2.503297654816D+01 DE= 0.00D+00 F= -3.13D-06
     ILin= 2 X=1.000D+00 Y=-2.503297722912D+01 DE=-6.81D-07 F=  3.07D-06
     Accept linear search using points  1 and  2.
     An  expanding polynomial of degree  2 produced  0.6522
 Iteration  18 EE= -25.0329777149939     Delta-E=       -0.000001166833 Grad=1.183D-03 Max rot=    0.0492 deg.
 QCNR:  CnvC1=2.72D-09 CnvC2=2.72D-08
 LinEq1:  Iter=  0 NonCon=     1 RMS=1.43D-05 Max=1.23D-04 NDo=     1
 LinEq1:  Iter=  1 NonCon=     1 RMS=3.94D-06 Max=4.82D-05 NDo=     1
 LinEq1:  Iter=  2 NonCon=     1 RMS=1.01D-06 Max=1.51D-05 NDo=     1
 LinEq1:  Iter=  3 NonCon=     1 RMS=1.67D-07 Max=1.84D-06 NDo=     1
 LinEq1:  Iter=  4 NonCon=     1 RMS=3.39D-08 Max=3.86D-07 NDo=     1
 LinEq1:  Iter=  5 NonCon=     1 RMS=9.55D-09 Max=9.90D-08 NDo=     1
 LinEq1:  Iter=  6 NonCon=     0 RMS=2.00D-09 Max=1.62D-08 NDo=     1
 Linear equations converged to 2.717D-09 2.717D-08 after     6 iterations.
 Angle between quadratic step and gradient=  82.28 degrees.
     ILin= 1 X=0.000D+00 Y=-2.503297771499D+01 DE= 0.00D+00 F= -1.35D-06
     ILin= 2 X=1.000D+00 Y=-2.503297835701D+01 DE=-6.42D-07 F=  6.14D-08
     Accept linear search using points  1 and  2.
     An  expanding polynomial of degree  2 produced  0.9564
     Minimum is close to point  2 DX= -4.36D-02 DF= -1.34D-09 DXR=  4.56D-02 DFR=  2.09D-03 which will be used.
 Iteration  19 EE= -25.0329783570114     Delta-E=       -0.000000642017 Grad=5.732D-04 Max rot=    0.0122 deg.
 QCNR:  CnvC1=2.72D-09 CnvC2=2.72D-08
 LinEq1:  Iter=  0 NonCon=     1 RMS=5.15D-06 Max=4.16D-05 NDo=     1
 LinEq1:  Iter=  1 NonCon=     1 RMS=1.43D-06 Max=1.24D-05 NDo=     1
 LinEq1:  Iter=  2 NonCon=     1 RMS=4.06D-07 Max=4.38D-06 NDo=     1
 LinEq1:  Iter=  3 NonCon=     1 RMS=1.17D-07 Max=1.11D-06 NDo=     1
 LinEq1:  Iter=  4 NonCon=     1 RMS=2.02D-08 Max=1.72D-07 NDo=     1
 LinEq1:  Iter=  5 NonCon=     1 RMS=5.02D-09 Max=4.90D-08 NDo=     1
 LinEq1:  Iter=  6 NonCon=     0 RMS=9.64D-10 Max=1.02D-08 NDo=     1
 Linear equations converged to 2.717D-09 2.717D-08 after     6 iterations.
 Angle between quadratic step and gradient=  88.30 degrees.
     ILin= 1 X=0.000D+00 Y=-2.503297835701D+01 DE= 0.00D+00 F= -7.29D-07
     ILin= 2 X=1.000D+00 Y=-2.503297847582D+01 DE=-1.19D-07 F=  5.04D-07
     Accept linear search using points  1 and  2.
     An  expanding polynomial of degree  2 produced  0.5985
 Iteration  20 EE= -25.0329785764513     Delta-E=       -0.000000219440 Grad=8.305D-04 Max rot=    0.0269 deg.
 QCNR:  CnvC1=2.72D-09 CnvC2=2.72D-08
 LinEq1:  Iter=  0 NonCon=     1 RMS=5.74D-06 Max=5.20D-05 NDo=     1
 LinEq1:  Iter=  1 NonCon=     1 RMS=2.18D-06 Max=2.15D-05 NDo=     1
 LinEq1:  Iter=  2 NonCon=     1 RMS=4.44D-07 Max=4.39D-06 NDo=     1
 LinEq1:  Iter=  3 NonCon=     1 RMS=1.09D-07 Max=1.29D-06 NDo=     1
 LinEq1:  Iter=  4 NonCon=     1 RMS=2.37D-08 Max=2.14D-07 NDo=     1
 LinEq1:  Iter=  5 NonCon=     1 RMS=6.65D-09 Max=6.92D-08 NDo=     1
 LinEq1:  Iter=  6 NonCon=     0 RMS=1.55D-09 Max=1.43D-08 NDo=     1
 Linear equations converged to 2.717D-09 2.717D-08 after     6 iterations.
 Angle between quadratic step and gradient=  84.91 degrees.
     ILin= 1 X=0.000D+00 Y=-2.503297857645D+01 DE= 0.00D+00 F= -4.17D-07
     ILin= 2 X=1.000D+00 Y=-2.503297875399D+01 DE=-1.78D-07 F=  6.22D-08
     Accept linear search using points  1 and  2.
     An  expanding polynomial of degree  2 produced  0.8703
 Iteration  21 EE= -25.0329787580225     Delta-E=       -0.000000181571 Grad=5.124D-04 Max rot=    0.0133 deg.
 QCNR:  CnvC1=2.72D-09 CnvC2=2.72D-08
 LinEq1:  Iter=  0 NonCon=     1 RMS=3.69D-06 Max=3.23D-05 NDo=     1
 LinEq1:  Iter=  1 NonCon=     1 RMS=1.10D-06 Max=1.19D-05 NDo=     1
 LinEq1:  Iter=  2 NonCon=     1 RMS=3.20D-07 Max=2.83D-06 NDo=     1
 LinEq1:  Iter=  3 NonCon=     1 RMS=8.24D-08 Max=9.13D-07 NDo=     1
 LinEq1:  Iter=  4 NonCon=     1 RMS=1.40D-08 Max=1.16D-07 NDo=     1
 LinEq1:  Iter=  5 NonCon=     1 RMS=2.97D-09 Max=3.21D-08 NDo=     1
 LinEq1:  Iter=  6 NonCon=     0 RMS=4.14D-10 Max=4.12D-09 NDo=     1
 Linear equations converged to 2.717D-09 2.717D-08 after     6 iterations.
 Angle between quadratic step and gradient=  88.55 degrees.
     ILin= 1 X=0.000D+00 Y=-2.503297875802D+01 DE= 0.00D+00 F= -3.01D-06
     ILin= 2 X=1.000D+00 Y=-2.503297716839D+01 DE= 1.59D-06 F=  1.09D-05
     Reject lnstep minimum 4.669D-01 FVal=-2.503297963046D+01 Lims=  0.00D+00  1.00D+00
     ILin= 3 X=5.000D-01 Y=-2.503297958275D+01 DE=-8.25D-07 F=  4.01D-07
     A contracting polynomial of degree  3 produced  0.3773
 Iteration  22 EE= -25.0329795502848     Delta-E=       -0.000000792262 Grad=9.170D-04 Max rot=    0.0327 deg.
 QCNR:  CnvC1=2.72D-09 CnvC2=2.72D-08
 LinEq1:  Iter=  0 NonCon=     1 RMS=1.02D-05 Max=8.15D-05 NDo=     1
 LinEq1:  Iter=  1 NonCon=     1 RMS=1.76D-06 Max=1.55D-05 NDo=     1
 LinEq1:  Iter=  2 NonCon=     1 RMS=6.27D-07 Max=6.15D-06 NDo=     1
 LinEq1:  Iter=  3 NonCon=     1 RMS=1.49D-07 Max=1.39D-06 NDo=     1
 LinEq1:  Iter=  4 NonCon=     1 RMS=3.18D-08 Max=2.54D-07 NDo=     1
 LinEq1:  Iter=  5 NonCon=     1 RMS=7.18D-09 Max=8.81D-08 NDo=     1
 LinEq1:  Iter=  6 NonCon=     0 RMS=1.87D-09 Max=1.55D-08 NDo=     1
 Linear equations converged to 2.717D-09 2.717D-08 after     6 iterations.
 Angle between quadratic step and gradient=  82.13 degrees.
     ILin= 1 X=0.000D+00 Y=-2.503297955028D+01 DE= 0.00D+00 F= -4.31D-07
     ILin= 2 X=1.000D+00 Y=-2.503297976275D+01 DE=-2.12D-07 F=  5.84D-09
     Accept linear search using points  1 and  2.
     An  expanding polynomial of degree  2 produced  0.9866
     Minimum is close to point  2 DX= -1.34D-02 DF= -3.91D-11 DXR=  1.36D-02 DFR=  1.84D-04 which will be used.
 Iteration  23 EE= -25.0329797627518     Delta-E=       -0.000000212467 Grad=1.804D-04 Max rot=    0.0051 deg.
 QCNR:  CnvC1=1.80D-09 CnvC2=1.80D-08
 LinEq1:  Iter=  0 NonCon=     1 RMS=2.34D-06 Max=1.94D-05 NDo=     1
 LinEq1:  Iter=  1 NonCon=     1 RMS=7.15D-07 Max=8.59D-06 NDo=     1
 LinEq1:  Iter=  2 NonCon=     1 RMS=1.80D-07 Max=1.62D-06 NDo=     1
 LinEq1:  Iter=  3 NonCon=     1 RMS=3.81D-08 Max=4.02D-07 NDo=     1
 LinEq1:  Iter=  4 NonCon=     1 RMS=8.75D-09 Max=7.19D-08 NDo=     1
 LinEq1:  Iter=  5 NonCon=     1 RMS=2.44D-09 Max=2.29D-08 NDo=     1
 LinEq1:  Iter=  6 NonCon=     0 RMS=6.62D-10 Max=5.04D-09 NDo=     1
 Linear equations converged to 1.804D-09 1.804D-08 after     6 iterations.
 Angle between quadratic step and gradient=  86.30 degrees.
     ILin= 1 X=0.000D+00 Y=-2.503297976275D+01 DE= 0.00D+00 F= -1.09D-07
     ILin= 2 X=1.000D+00 Y=-2.503297975133D+01 DE= 1.14D-08 F=  1.33D-07
     Reject lnstep minimum 4.534D-01 FVal=-2.503297978756D+01 Lims=  0.00D+00  1.00D+00
     ILin= 3 X=5.000D-01 Y=-2.503297978730D+01 DE=-2.45D-08 F=  1.13D-08
     A contracting polynomial of degree  3 produced  0.4528
 Iteration  24 EE= -25.0329797875588     Delta-E=       -0.000000024807 Grad=4.458D-04 Max rot=    0.0184 deg.
 QCNR:  CnvC1=2.72D-09 CnvC2=2.72D-08
 LinEq1:  Iter=  0 NonCon=     1 RMS=2.57D-06 Max=1.98D-05 NDo=     1
 LinEq1:  Iter=  1 NonCon=     1 RMS=8.40D-07 Max=8.58D-06 NDo=     1
 LinEq1:  Iter=  2 NonCon=     1 RMS=2.34D-07 Max=2.66D-06 NDo=     1
 LinEq1:  Iter=  3 NonCon=     1 RMS=7.03D-08 Max=8.30D-07 NDo=     1
 LinEq1:  Iter=  4 NonCon=     1 RMS=9.59D-09 Max=1.03D-07 NDo=     1
 LinEq1:  Iter=  5 NonCon=     0 RMS=2.44D-09 Max=2.49D-08 NDo=     1
 Linear equations converged to 2.717D-09 2.717D-08 after     5 iterations.
 Angle between quadratic step and gradient=  87.50 degrees.
     ILin= 1 X=0.000D+00 Y=-2.503297978756D+01 DE= 0.00D+00 F= -1.06D-07
     ILin= 2 X=1.000D+00 Y=-2.503297982423D+01 DE=-3.67D-08 F=  3.27D-08
     Accept linear search using points  1 and  2.
     An  expanding polynomial of degree  2 produced  0.7644
 Iteration  25 EE= -25.0329798280762     Delta-E=       -0.000000040517 Grad=1.194D-04 Max rot=    0.0029 deg.
 QCNR:  CnvC1=1.19D-09 CnvC2=1.19D-08
 LinEq1:  Iter=  0 NonCon=     1 RMS=1.87D-06 Max=1.61D-05 NDo=     1
 LinEq1:  Iter=  1 NonCon=     1 RMS=7.14D-07 Max=6.33D-06 NDo=     1
 LinEq1:  Iter=  2 NonCon=     1 RMS=1.07D-07 Max=1.24D-06 NDo=     1
 LinEq1:  Iter=  3 NonCon=     1 RMS=2.77D-08 Max=2.17D-07 NDo=     1
 LinEq1:  Iter=  4 NonCon=     1 RMS=6.56D-09 Max=6.16D-08 NDo=     1
 LinEq1:  Iter=  5 NonCon=     1 RMS=1.39D-09 Max=1.36D-08 NDo=     1
 LinEq1:  Iter=  6 NonCon=     0 RMS=3.41D-10 Max=2.95D-09 NDo=     1
 Linear equations converged to 1.194D-09 1.194D-08 after     6 iterations.
 Angle between quadratic step and gradient=  83.52 degrees.
     ILin= 1 X=0.000D+00 Y=-2.503297982808D+01 DE= 0.00D+00 F= -1.25D-07
     ILin= 2 X=1.000D+00 Y=-2.503297978519D+01 DE= 4.29D-08 F=  2.10D-07
     Reject lnstep minimum 3.721D-01 FVal=-2.503297985125D+01 Lims=  0.00D+00  1.00D+00
     ILin= 3 X=4.000D-01 Y=-2.503297985112D+01 DE=-2.30D-08 F=  9.36D-09
     A contracting polynomial of degree  3 produced  0.3720
     Minimum is close to point  3 DX= -2.80D-02 DF= -1.32D-10 DXR=  7.54D-02 DFR=  5.71D-03 which will be used.
 Iteration  26 EE= -25.0329798511174     Delta-E=       -0.000000023041 Grad=3.550D-04 Max rot=    0.0113 deg.
 QCNR:  CnvC1=2.72D-09 CnvC2=2.72D-08
 LinEq1:  Iter=  0 NonCon=     1 RMS=3.02D-06 Max=2.63D-05 NDo=     1
 LinEq1:  Iter=  1 NonCon=     1 RMS=9.64D-07 Max=8.96D-06 NDo=     1
 LinEq1:  Iter=  2 NonCon=     1 RMS=2.57D-07 Max=3.08D-06 NDo=     1
 LinEq1:  Iter=  3 NonCon=     1 RMS=6.68D-08 Max=5.69D-07 NDo=     1
 LinEq1:  Iter=  4 NonCon=     1 RMS=1.22D-08 Max=1.41D-07 NDo=     1
 LinEq1:  Iter=  5 NonCon=     0 RMS=2.05D-09 Max=1.96D-08 NDo=     1
 Linear equations converged to 2.717D-09 2.717D-08 after     5 iterations.
 Angle between quadratic step and gradient=  87.62 degrees.
     ILin= 1 X=0.000D+00 Y=-2.503297985112D+01 DE= 0.00D+00 F= -1.68D-07
     ILin= 2 X=1.000D+00 Y=-2.503297982570D+01 DE= 2.54D-08 F=  2.18D-07
     Reject lnstep minimum 4.340D-01 FVal=-2.503297988750D+01 Lims=  0.00D+00  1.00D+00
     ILin= 3 X=4.000D-01 Y=-2.503297988728D+01 DE=-3.62D-08 F= -1.31D-08
     A contracting polynomial of degree  3 produced  0.4342
     Minimum is close to point  3 DX=  3.42D-02 DF= -2.25D-10 DXR=  7.87D-02 DFR=  6.23D-03 which will be used.
 Iteration  27 EE= -25.0329798872759     Delta-E=       -0.000000036159 Grad=3.471D-04 Max rot=    0.0085 deg.
 QCNR:  CnvC1=2.72D-09 CnvC2=2.72D-08
 LinEq1:  Iter=  0 NonCon=     1 RMS=2.73D-06 Max=2.02D-05 NDo=     1
 LinEq1:  Iter=  1 NonCon=     1 RMS=9.46D-07 Max=9.06D-06 NDo=     1
 LinEq1:  Iter=  2 NonCon=     1 RMS=2.34D-07 Max=2.12D-06 NDo=     1
 LinEq1:  Iter=  3 NonCon=     1 RMS=4.91D-08 Max=3.80D-07 NDo=     1
 LinEq1:  Iter=  4 NonCon=     1 RMS=1.07D-08 Max=1.00D-07 NDo=     1
 LinEq1:  Iter=  5 NonCon=     1 RMS=2.89D-09 Max=2.13D-08 NDo=     1
 LinEq1:  Iter=  6 NonCon=     0 RMS=7.80D-10 Max=8.86D-09 NDo=     1
 Linear equations converged to 2.717D-09 2.717D-08 after     6 iterations.
 Angle between quadratic step and gradient=  86.81 degrees.
     ILin= 1 X=0.000D+00 Y=-2.503297988728D+01 DE= 0.00D+00 F= -9.79D-08
     ILin= 2 X=1.000D+00 Y=-2.503297991616D+01 DE=-2.89D-08 F=  4.01D-08
     Accept linear search using points  1 and  2.
     An  expanding polynomial of degree  2 produced  0.7092
[...]
 (Enter /apps/software/g16/l801.exe)
 Range of M.O.s used for correlation:     1   126
 NBasis=   126 NAE=     3 NBE=     3 NFC=     0 NFV=     0
 NROrb=    126 NOA=     3 NOB=     3 NVA=   123 NVB=   123
 Leave Link  801 at Sat May 21 19:01:44 2022, MaxMem=   104857600 cpu:               0.0 elap:               0.0
 (Enter /apps/software/g16/l914.exe)
 UHF ground state
 Doing stability rather than CIS.
 Keep R1 and R2 ints in memory in symmetry-blocked form, NReq=40144005.
 FoFCou: FMM=F IPFlag=           0 FMFlag=           0 FMFlg1=           0
         NFxFlg=           0 DoJE=F BraDBF=F KetDBF=F FulRan=T
         wScrn=  0.000000 ICntrl=       600 IOpCl=  0 I1Cent=           0 NGrid=           0
         NMat0=    1 NMatS0=   8001 NMatT0=    0 NMatD0=    1 NMtDS0=    0 NMtDT0=    0
 Petite list used in FoFCou.
 MDV=   104857600 DFT=F DoStab=T Mixed=F DoRPA=F DoScal=F NonHer=F
 Making orbital integer symmetry assigments:
 Orbital symmetries:
 Alpha Orbitals:
       Occupied  (SG) (SG) (SG)
       Virtual   (SG) (PI) (PI) (SG) (SG) (PI) (PI) (SG) (PI) (PI)
                 (DLTA) (DLTA) (SG) (PI) (PI) (SG) (PI) (PI) (SG)
                 (SG) (SG) (PHI) (PHI) (DLTA) (DLTA) (PI) (PI)
                 (PI) (PI) (SG) (DLTA) (DLTA) (SG) (DLTA) (DLTA)
                 (PI) (PI) (SG) (PI) (PI) (SG) (PI) (PI) (SG) (?A)
                 (?A) (PHI) (PHI) (DLTA) (DLTA) (SG) (PI) (PI)
                 (SG) (PI) (PI) (DLTA) (DLTA) (SG) (PHI) (PHI)
                 (DLTA) (DLTA) (PI) (PI) (SG) (PHI) (PHI) (DLTA)
                 (DLTA) (PI) (PI) (SG) (SG) (DLTA) (DLTA) (PI)
                 (PI) (SG) (PI) (PI) (SG) (PI) (PI) (SG) (?A) (?A)
                 (PHI) (PHI) (DLTA) (DLTA) (DLTA) (DLTA) (PI) (PI)
                 (PI) (PI) (SG) (SG) (PHI) (PHI) (DLTA) (DLTA)
                 (PI) (PI) (SG) (PHI) (PHI) (DLTA) (DLTA) (PI)
                 (PI) (SG) (SG) (PI) (PI) (SG) (DLTA) (DLTA) (PI)
                 (PI) (SG) (SG)
 Beta  Orbitals:
       Occupied  (SG) (SG) (SG)
       Virtual   (PI) (PI) (SG) (SG) (SG) (PI) (PI) (SG) (PI) (PI)
                 (DLTA) (DLTA) (SG) (PI) (PI) (SG) (PI) (PI) (SG)
                 (SG) (SG) (PHI) (PHI) (DLTA) (DLTA) (PI) (PI)
                 (DLTA) (DLTA) (SG) (PI) (PI) (SG) (DLTA) (DLTA)
                 (PI) (PI) (SG) (PI) (PI) (SG) (PI) (PI) (SG) (?A)
                 (?A) (PHI) (PHI) (DLTA) (DLTA) (PI) (PI) (SG)
                 (DLTA) (DLTA) (SG) (PHI) (PHI) (PI) (PI) (DLTA)
                 (DLTA) (SG) (PI) (PI) (SG) (PHI) (PHI) (DLTA)
                 (DLTA) (SG) (PI) (PI) (SG) (DLTA) (DLTA) (PI)
                 (PI) (SG) (PI) (PI) (SG) (PI) (PI) (SG) (?A) (?A)
                 (PHI) (PHI) (DLTA) (DLTA) (DLTA) (DLTA) (PI) (PI)
                 (SG) (PI) (PI) (SG) (PHI) (PHI) (DLTA) (DLTA)
                 (PI) (PI) (SG) (PHI) (PHI) (DLTA) (DLTA) (PI)
                 (PI) (SG) (SG) (PI) (PI) (SG) (DLTA) (DLTA) (PI)
                 (PI) (SG) (SG)
    12 initial guesses have been made.
 Convergence on wavefunction:    0.001000000000000
 Davidson Disk Diagonalization:  ConvIn= 1.00D-03 SkipCon=T Conv= 1.00D-03.
 Max sub-space:  1476 roots to seek:    12 dimension of matrix:          738
 Iteration     1 Dimension    12 NMult     0 NNew     12
 CISAX will form    12 AO SS matrices at one time.
 NMat=    12 NSing=    12 JSym2X= 2.
 Excitation Energies [eV] at current iteration:
 Root      1 :     0.482103835114181
 Root      2 :     0.482103857528754
 Root      3 :     1.265980076252577
 Root      4 :     1.265980083660919
 Root      5 :     5.410607002916136
 Root      6 :     6.316360127551278
 Root      7 :     6.564995372028765
 Root      8 :     6.564995373387812
 Root      9 :    11.612813219301380
 Root     10 :    11.612813230420050
 Root     11 :    12.713683066746396
 Root     12 :    12.713683089903657
 Iteration     2 Dimension    24 NMult    12 NNew     12
 CISAX will form    12 AO SS matrices at one time.
 NMat=    12 NSing=    12 JSym2X= 2.
 Root      1 not converged, maximum delta is    0.066368064887270
 Excitation Energies [eV] at current iteration:
 Root      1 :     0.008231238718656   Change is   -0.473872596395525
 Root      2 :     0.008231261868304   Change is   -0.473872595660450
 Root      3 :     0.831308923833083   Change is   -0.434671152419494
 Root      4 :     0.831308936947393   Change is   -0.434671146713526
 Root      5 :     5.120740548028533   Change is   -0.289866454887604
 Root      6 :     5.883830860400510   Change is   -0.432529267150769
 Root      7 :     6.489769112209250   Change is   -0.075226259819515
 Root      8 :     6.489769113608918   Change is   -0.075226259778894
 Root      9 :     8.475413848504012   Change is   -3.137399370797370
 Root     10 :     8.475413857896489   Change is   -3.137399372523561
 Root     11 :    11.225631320423876   Change is   -1.488051746322520
 Root     12 :    11.225631338911487   Change is   -1.488051750992170
 Iteration     3 Dimension    27 NMult    24 NNew      3
 CISAX will form     3 AO SS matrices at one time.
 NMat=     3 NSing=     3 JSym2X= 2.
 Root      1 not converged, maximum delta is    0.006358753284553
 Excitation Energies [eV] at current iteration:
 Root      1 :     0.002407871424451   Change is   -0.005823367294204
 Root      2 :     0.002407892077626   Change is   -0.005823369790678
 Root      3 :     0.818686888191447   Change is   -0.012622035641636
 Iteration     4 Dimension    30 NMult    27 NNew      3
 CISAX will form     3 AO SS matrices at one time.
 NMat=     3 NSing=     3 JSym2X= 2.
 Root      1 has converged.
 Excitation Energies [eV] at current iteration:
 Root      1 :     0.002346477205649   Change is   -0.000061394218802
 Root      2 :     0.002346499419038   Change is   -0.000061392658589
 Root      3 :     0.818526285759380   Change is   -0.000160602432066
 Convergence achieved on expansion vectors.
 ***********************************************************************
 Stability analysis using <AA,BB:AA,BB> singles matrix:
 ***********************************************************************
 1PDM for each excited state written to RWF  633
 Ground to excited state transition densities written to RWF  633

 Eigenvectors of the stability matrix:
 
 Excited state symmetry could not be determined.
 Eigenvector   1:  2.272-?Sym  Eigenvalue= 0.0000862  <S**2>=1.041
      3A ->  5A       -0.68608
      3A ->  9A        0.65316
      3A -> 20A        0.28855
 The wavefunction is stable under the perturbations considered.
 Leave Link  914 at Sat May 21 19:01:48 2022, MaxMem=   104857600 cpu:               3.9 elap:               3.9
 (Enter /apps/software/g16/l508.exe)
 The wavefunction is already stable.
 Leave Link  508 at Sat May 21 19:01:48 2022, MaxMem=   104857600 cpu:               0.0 elap:               0.0
 (Enter /apps/software/g16/l601.exe)
 Copying SCF densities to generalized density rwf, IOpCl= 1 IROHF=0.

 **********************************************************************

            Population analysis using the SCF density.

 **********************************************************************

 Orbital symmetries:
 Alpha Orbitals:
       Occupied  (SG) (SG) (SG)
       Virtual   (SG) (PI) (PI) (SG) (SG) (PI) (PI) (SG) (PI) (PI)
                 (DLTA) (DLTA) (SG) (PI) (PI) (SG) (PI) (PI) (SG)
                 (SG) (SG) (PHI) (PHI) (DLTA) (DLTA) (PI) (PI)
                 (PI) (PI) (SG) (DLTA) (DLTA) (SG) (DLTA) (DLTA)
                 (PI) (PI) (SG) (PI) (PI) (SG) (PI) (PI) (SG) (?A)
                 (?A) (PHI) (PHI) (DLTA) (DLTA) (SG) (PI) (PI)
                 (SG) (PI) (PI) (DLTA) (DLTA) (SG) (PHI) (PHI)
                 (DLTA) (DLTA) (PI) (PI) (SG) (PHI) (PHI) (DLTA)
                 (DLTA) (PI) (PI) (SG) (SG) (DLTA) (DLTA) (PI)
                 (PI) (SG) (PI) (PI) (SG) (PI) (PI) (SG) (?A) (?A)
                 (PHI) (PHI) (DLTA) (DLTA) (DLTA) (DLTA) (PI) (PI)
                 (PI) (PI) (SG) (SG) (PHI) (PHI) (DLTA) (DLTA)
                 (PI) (PI) (SG) (PHI) (PHI) (DLTA) (DLTA) (PI)
                 (PI) (SG) (SG) (PI) (PI) (SG) (DLTA) (DLTA) (PI)
                 (PI) (SG) (SG)
 Beta  Orbitals:
       Occupied  (SG) (SG) (SG)
       Virtual   (PI) (PI) (SG) (SG) (SG) (PI) (PI) (SG) (PI) (PI)
                 (DLTA) (DLTA) (SG) (PI) (PI) (SG) (PI) (PI) (SG)
                 (SG) (SG) (PHI) (PHI) (DLTA) (DLTA) (PI) (PI)
                 (DLTA) (DLTA) (SG) (PI) (PI) (SG) (DLTA) (DLTA)
                 (PI) (PI) (SG) (PI) (PI) (SG) (PI) (PI) (SG) (?A)
                 (?A) (PHI) (PHI) (DLTA) (DLTA) (PI) (PI) (SG)
                 (DLTA) (DLTA) (SG) (PHI) (PHI) (PI) (PI) (DLTA)
                 (DLTA) (SG) (PI) (PI) (SG) (PHI) (PHI) (DLTA)
                 (DLTA) (SG) (PI) (PI) (SG) (DLTA) (DLTA) (PI)
                 (PI) (SG) (PI) (PI) (SG) (PI) (PI) (SG) (?A) (?A)
                 (PHI) (PHI) (DLTA) (DLTA) (DLTA) (DLTA) (PI) (PI)
                 (SG) (PI) (PI) (SG) (PHI) (PHI) (DLTA) (DLTA)
                 (PI) (PI) (SG) (PHI) (PHI) (DLTA) (DLTA) (PI)
                 (PI) (SG) (SG) (PI) (PI) (SG) (DLTA) (DLTA) (PI)
                 (PI) (SG) (SG)
 The electronic state is 1-SG.
 Alpha  occ. eigenvalues --   -7.70185  -0.54552  -0.31891
 Alpha virt. eigenvalues --    0.02018   0.02351   0.02351   0.04986   0.07658
 Alpha virt. eigenvalues --    0.07713   0.07713   0.10805   0.14293   0.14293
 Alpha virt. eigenvalues --    0.14557   0.14557   0.18096   0.22253   0.22253
 Alpha virt. eigenvalues --    0.24340   0.31149   0.31149   0.32880   0.34361
 Alpha virt. eigenvalues --    0.46098   0.46175   0.46175   0.46496   0.46496
 Alpha virt. eigenvalues --    0.46622   0.46622   0.49930   0.49930   0.49957
 Alpha virt. eigenvalues --    0.50019   0.50019   0.56471   0.63574   0.63574
 Alpha virt. eigenvalues --    0.68826   0.68826   0.77103   0.83487   0.83487
 Alpha virt. eigenvalues --    0.92200   1.05194   1.05194   1.06679   1.36983
 Alpha virt. eigenvalues --    1.36983   1.37910   1.37910   1.38558   1.38558
 Alpha virt. eigenvalues --    1.38899   1.38953   1.38953   1.39857   1.40473
 Alpha virt. eigenvalues --    1.40473   1.41094   1.41094   1.43055   1.43890
 Alpha virt. eigenvalues --    1.43890   1.44598   1.44598   1.46023   1.46023
 Alpha virt. eigenvalues --    1.51799   1.57559   1.57559   1.58063   1.58063
 Alpha virt. eigenvalues --    1.61505   1.61505   1.65661   1.78406   2.49379
 Alpha virt. eigenvalues --    2.49379   2.51908   2.51908   2.58230   2.64141
 Alpha virt. eigenvalues --    2.64141   2.72043   3.73779   3.73779   3.76500
 Alpha virt. eigenvalues --    3.91941   3.91941   3.93452   3.93452   3.94545
 Alpha virt. eigenvalues --    3.94545   3.95579   3.95579   3.95590   3.95590
 Alpha virt. eigenvalues --    3.96592   3.96592   3.96650   4.00492   4.08580
 Alpha virt. eigenvalues --    4.08580   4.10023   4.10023   4.12084   4.12084
 Alpha virt. eigenvalues --    4.16723   6.58477   6.58477   6.58563   6.58563
 Alpha virt. eigenvalues --    6.59116   6.59116   6.60239   7.51654   7.99997
 Alpha virt. eigenvalues --    7.99997   8.04200   8.43486   8.43486   8.45124
 Alpha virt. eigenvalues --    8.45124   8.50673  13.06185
  Beta  occ. eigenvalues --   -7.68674  -0.49497  -0.44649
  Beta virt. eigenvalues --    0.02716   0.02716   0.04320   0.05257   0.07704
  Beta virt. eigenvalues --    0.08413   0.08413   0.11594   0.14223   0.14223
  Beta virt. eigenvalues --    0.14563   0.14563   0.17630   0.20773   0.20773
  Beta virt. eigenvalues --    0.25850   0.31958   0.31958   0.34628   0.36073
  Beta virt. eigenvalues --    0.41094   0.46167   0.46167   0.46869   0.46869
  Beta virt. eigenvalues --    0.47109   0.47109   0.50124   0.50124   0.50724
  Beta virt. eigenvalues --    0.52887   0.52887   0.57638   0.62270   0.62270
  Beta virt. eigenvalues --    0.67414   0.67414   0.74714   0.77242   0.77242
  Beta virt. eigenvalues --    0.88207   1.06109   1.06109   1.13571   1.36956
  Beta virt. eigenvalues --    1.36956   1.38425   1.38425   1.39447   1.39447
  Beta virt. eigenvalues --    1.39944   1.39944   1.40585   1.41582   1.41582
  Beta virt. eigenvalues --    1.43141   1.43954   1.43954   1.45212   1.45212
  Beta virt. eigenvalues --    1.46165   1.46165   1.46899   1.48382   1.48382
  Beta virt. eigenvalues --    1.54319   1.56302   1.56302   1.56874   1.56874
  Beta virt. eigenvalues --    1.59270   1.60782   1.60782   1.74018   2.45436
  Beta virt. eigenvalues --    2.45436   2.47921   2.47921   2.53567   2.56805
  Beta virt. eigenvalues --    2.56805   2.65833   3.74483   3.74483   3.81259
  Beta virt. eigenvalues --    3.92010   3.92010   3.94540   3.94540   3.96021
  Beta virt. eigenvalues --    3.96021   3.96484   3.96484   3.97830   3.97830
  Beta virt. eigenvalues --    3.99851   4.00292   4.00292   4.04475   4.08847
  Beta virt. eigenvalues --    4.08847   4.12164   4.12164   4.15405   4.15405
  Beta virt. eigenvalues --    4.20534   6.55593   6.55593   6.55681   6.55681
  Beta virt. eigenvalues --    6.56239   6.56239   6.57368   7.43528   7.94211
  Beta virt. eigenvalues --    7.94211   7.98464   8.39264   8.39264   8.40914
  Beta virt. eigenvalues --    8.40914   8.46490  13.07349
          Condensed to atoms (all electrons):
               1          2
     1  B    4.999880  -0.000596
     2  H   -0.000596   1.001312
          Atomic-Atomic Spin Densities.
               1          2
     1  B    0.999891   0.000667
     2  H    0.000667  -1.001225
 Mulliken charges and spin densities:
               1          2
     1  B    0.000716   1.000558
     2  H   -0.000716  -1.000558
 Sum of Mulliken charges =  -0.00000   0.00000
 Mulliken charges and spin densities with hydrogens summed into heavy atoms:
               1          2
     1  B   -0.000000   0.000000
 Electronic spatial extent (au):  <R**2>=             71.3983
 Charge=             -0.0000 electrons
 Dipole moment (field-independent basis, Debye):
    X=              0.0000    Y=              0.0000    Z=              0.0326  Tot=              0.0326
 Quadrupole moment (field-independent basis, Debye-Ang):
   XX=             -7.3081   YY=             -7.3081   ZZ=            -10.8098
   XY=              0.0000   XZ=              0.0000   YZ=              0.0000
 Traceless Quadrupole moment (field-independent basis, Debye-Ang):
   XX=              1.1672   YY=              1.1672   ZZ=             -2.3344
   XY=              0.0000   XZ=              0.0000   YZ=              0.0000
 Octapole moment (field-independent basis, Debye-Ang**2):
  XXX=              0.0000  YYY=              0.0000  ZZZ=             -4.5982  XYY=              0.0000
  XXY=              0.0000  XXZ=              0.5715  XZZ=              0.0000  YZZ=              0.0000
  YYZ=              0.5715  XYZ=              0.0000
 Hexadecapole moment (field-independent basis, Debye-Ang**3):
 XXXX=            -10.7386 YYYY=            -10.7386 ZZZZ=           -151.4847 XXXY=              0.0000
 XXXZ=              0.0000 YYYX=              0.0000 YYYZ=              0.0000 ZZZX=              0.0000
 ZZZY=              0.0000 XXYY=             -3.5795 XXZZ=            -24.8535 YYZZ=            -24.8535
 XXYZ=              0.0000 YYXZ=              0.0000 ZZXY=              0.0000
 N-N= 6.299728701429D-01 E-N=-5.916334086688D+01  KE= 2.503191742262D+01
 Symmetry A1   KE= 2.503191742262D+01
 Symmetry A2   KE= 0.000000000000D+00
 Symmetry B1   KE= 0.000000000000D+00
 Symmetry B2   KE= 0.000000000000D+00
 Symmetry A1   SP= 3.579428603826D-15
 Symmetry A2   SP= 0.000000000000D+00
 Symmetry B1   SP= 0.000000000000D+00
 Symmetry B2   SP= 0.000000000000D+00
                          Isotropic Fermi Contact Couplings
        Atom                 a.u.       MegaHertz       Gauss      10(-4) cm-1
     1  B(11)              0.00143       1.02711       0.36650       0.34261
     2  H(1)              -0.29839    -666.88445    -237.96095    -222.44871
 --------------------------------------------------------
       Center         ----  Spin Dipole Couplings  ----
                      3XX-RR        3YY-RR        3ZZ-RR
 --------------------------------------------------------
     1   Atom       -0.329304     -0.329304      0.658608
     2   Atom       -0.002703     -0.002703      0.005407
 --------------------------------------------------------
                        XY            XZ            YZ
 --------------------------------------------------------
     1   Atom        0.000000      0.000000      0.000000
     2   Atom        0.000000      0.000000      0.000000
 --------------------------------------------------------


 ---------------------------------------------------------------------------------
              Anisotropic Spin Dipole Couplings in Principal Axis System
 ---------------------------------------------------------------------------------

       Atom             a.u.   MegaHertz   Gauss  10(-4) cm-1        Axes

              Baa    -0.3293   -56.382   -20.118   -18.807 -0.0000  1.0000  0.0000
     1 B(11)  Bbb    -0.3293   -56.382   -20.118   -18.807  1.0000  0.0000  0.0000
              Bcc     0.6586   112.763    40.237    37.614  0.0000  0.0000  1.0000
 
              Baa    -0.0027    -1.442    -0.515    -0.481  1.0000  0.0000  0.0000
     2 H(1)   Bbb    -0.0027    -1.442    -0.515    -0.481 -0.0000  1.0000  0.0000
              Bcc     0.0054     2.885     1.029     0.962  0.0000  0.0000  1.0000
 

 ---------------------------------------------------------------------------------

 No NMR shielding tensors so no spin-rotation constants.
 Leave Link  601 at Sat May 21 19:01:48 2022, MaxMem=   104857600 cpu:               0.2 elap:               0.2
 (Enter /apps/software/g16/l9999.exe)
 1\1\GINC-CNODE08\Stability\UHF\Aug-CC-pVQZ\B1H1\LCZ\21-May-2022\0\\#p 
 UHF/aug-cc-pVQZ guess=mix stable=opt\\BH UHF at 4.2 Angstrom\\0,1\B,0,
 0.,0.,0.\H,0,4.2,0.,0.\\Version=ES64L-G16RevA.03\State=1-SG\HF=-25.032
 9807\S2=1.009067\S2-1=0.\S2A=0.089021\RMSD=5.452e-09\Dipole=-0.0128357
 ,0.,0.\Quadrupole=-1.7355732,0.8677866,0.8677866,0.,0.,0.\PG=C*V [C*(H
 1B1)]\\@


 HE THAT IS UNAWARE OF HIS IGNORANCE WILL BE MISLED BY HIS KNOWLEDGE.

                                        -- WHATLEY
 Job cpu time:       0 days  0 hours  0 minutes 51.1 seconds.
 Elapsed time:       0 days  0 hours  0 minutes 51.1 seconds.
 File lengths (MBytes):  RWF=     33 Int=      0 D2E=      0 Chk=      4 Scr=      1
 Normal termination of Gaussian 16 at Sat May 21 19:01:48 2022.

Sender: Unischeduler System <lcz@mgt01>
Subject: Job 133637: <#!/bin/bash
#BSUB -J intel
#BSUB -o BH-4.2-G.out
#BSUB -n 8
#BSUB -q cqueue
#BSUB -R span[hosts=1]
export g16root=/apps/software
source /apps/software/g16/bsd/g16.profile
export GAUSS_SCRDIR=/scratch
/apps/software/g16/g16 < BH-4.2-G.inp > BH-4.2-G.out> Done

Job <#!/bin/bash
#BSUB -J intel
#BSUB -o BH-4.2-G.out
#BSUB -n 8
#BSUB -q cqueue
#BSUB -R span[hosts=1]
export g16root=/apps/software
source /apps/software/g16/bsd/g16.profile
export GAUSS_SCRDIR=/scratch
/apps/software/g16/g16 < BH-4.2-G.inp > BH-4.2-G.out> was submitted from host <mgt01> by user <lcz>.
Job was executed on host(s) <8*cnode08>, in queue <cqueue>, as user <lcz>.
</apps/users/lcz> was used as the home directory.
</apps/users/lcz/exe13/UHF> was used as the working directory.
Started at 2022-05-21 19:00:56
Results reported at 2022-05-21 19:01:48

Your job looked like:

------------------------------------------------------------
# User input
#!/bin/bash
#BSUB -J intel
#BSUB -o BH-4.2-G.out
#BSUB -n 8
#BSUB -q cqueue
#BSUB -R span[hosts=1]
export g16root=/apps/software
source /apps/software/g16/bsd/g16.profile
export GAUSS_SCRDIR=/scratch
/apps/software/g16/g16 < BH-4.2-G.inp > BH-4.2-G.out
------------------------------------------------------------

Successfully completed.

Resource usage summary:

    CPU time   :           45.96 sec.
    Max Memory :               383 MB
    Max Processes  :               5


The output (if any) follows:

