 Entering Gaussian System, Link 0=/apps/software/g16/g16
 Initial command:
 /apps/software/g16/l1.exe "/scratch/Gau-347958.inp" -scrdir="/scratch/"
 Entering Link 1 = /apps/software/g16/l1.exe PID=    347959.
  
 Copyright (c) 1988,1990,1992,1993,1995,1998,2003,2009,2016,
            Gaussian, Inc.  All Rights Reserved.
  
 This is part of the Gaussian(R) 16 program.  It is based on
 the Gaussian(R) 09 system (copyright 2009, Gaussian, Inc.),
 the Gaussian(R) 03 system (copyright 2003, Gaussian, Inc.),
 the Gaussian(R) 98 system (copyright 1998, Gaussian, Inc.),
 the Gaussian(R) 94 system (copyright 1995, Gaussian, Inc.),
 the Gaussian 92(TM) system (copyright 1992, Gaussian, Inc.),
 the Gaussian 90(TM) system (copyright 1990, Gaussian, Inc.),
 the Gaussian 88(TM) system (copyright 1988, Gaussian, Inc.),
 the Gaussian 86(TM) system (copyright 1986, Carnegie Mellon
 University), and the Gaussian 82(TM) system (copyright 1983,
 Carnegie Mellon University). Gaussian is a federally registered
 trademark of Gaussian, Inc.
  
 This software contains proprietary and confidential information,
 including trade secrets, belonging to Gaussian, Inc.
  
 This software is provided under written license and may be
 used, copied, transmitted, or stored only in accord with that
 written license.
  
 The following legend is applicable only to US Government
 contracts under FAR:
  
                    RESTRICTED RIGHTS LEGEND
  
 Use, reproduction and disclosure by the US Government is
 subject to restrictions as set forth in subparagraphs (a)
 and (c) of the Commercial Computer Software - Restricted
 Rights clause in FAR 52.227-19.
  
 Gaussian, Inc.
 340 Quinnipiac St., Bldg. 40, Wallingford CT 06492
  
  
 ---------------------------------------------------------------
 Warning -- This program may not be used in any manner that
 competes with the business of Gaussian, Inc. or will provide
 assistance to any competitor of Gaussian, Inc.  The licensee
 of this program is prohibited from giving any competitor of
 Gaussian, Inc. access to this program.  By using this program,
 the user acknowledges that Gaussian, Inc. is engaged in the
 business of creating and licensing software in the field of
 computational chemistry and represents and warrants to the
 licensee that it is not a competitor of Gaussian, Inc. and that
 it will not use this program in any manner prohibited above.
 ---------------------------------------------------------------
  

 Cite this work as:
 Gaussian 16, Revision A.03,
 M. J. Frisch, G. W. Trucks, H. B. Schlegel, G. E. Scuseria, 
 M. A. Robb, J. R. Cheeseman, G. Scalmani, V. Barone, 
 G. A. Petersson, H. Nakatsuji, X. Li, M. Caricato, A. V. Marenich, 
 J. Bloino, B. G. Janesko, R. Gomperts, B. Mennucci, H. P. Hratchian, 
 J. V. Ortiz, A. F. Izmaylov, J. L. Sonnenberg, D. Williams-Young, 
 F. Ding, F. Lipparini, F. Egidi, J. Goings, B. Peng, A. Petrone, 
 T. Henderson, D. Ranasinghe, V. G. Zakrzewski, J. Gao, N. Rega, 
 G. Zheng, W. Liang, M. Hada, M. Ehara, K. Toyota, R. Fukuda, 
 J. Hasegawa, M. Ishida, T. Nakajima, Y. Honda, O. Kitao, H. Nakai, 
 T. Vreven, K. Throssell, J. A. Montgomery, Jr., J. E. Peralta, 
 F. Ogliaro, M. J. Bearpark, J. J. Heyd, E. N. Brothers, K. N. Kudin, 
 V. N. Staroverov, T. A. Keith, R. Kobayashi, J. Normand, 
 K. Raghavachari, A. P. Rendell, J. C. Burant, S. S. Iyengar, 
 J. Tomasi, M. Cossi, J. M. Millam, M. Klene, C. Adamo, R. Cammi, 
 J. W. Ochterski, R. L. Martin, K. Morokuma, O. Farkas, 
 J. B. Foresman, and D. J. Fox, Gaussian, Inc., Wallingford CT, 2016.
 
 ******************************************
 Gaussian 16:  ES64L-G16RevA.03 25-Dec-2016
                21-May-2022 
 ******************************************
 %chk=BH-4.8-G.chk
 ---------------------------------------
 #p UHF/aug-cc-pVQZ guess=mix stable=opt
 ---------------------------------------
 1/38=1,172=1/1;
 2/12=2,17=6,18=5,40=1/2;
 3/5=16,6=2,7=10,11=2,25=1,30=1,116=2/1,2,3;
 4/13=-1/1;
 5/5=2,38=5/2;
 6/7=2,8=2,9=2,10=2,28=1/1;
 8/6=1,10=90,11=11/1;
 9/8=-3,42=1,46=1/14;
 5/5=2,8=3,17=40,38=5/8(-2);
 6/7=2,8=2,9=2,10=2,28=1/1;
 99/5=1,9=1/99;
 Leave Link    1 at Sat May 21 19:11:50 2022, MaxMem=           0 cpu:               0.0 elap:               0.0
 (Enter /apps/software/g16/l101.exe)
 ----------------------
 BH UHF at 4.8 Angstrom
 ----------------------
 Symbolic Z-matrix:
 Charge =  0 Multiplicity = 1
 B                     0.        0.        0. 
 H                     4.8       0.        0. 
 
 ITRead=  0  0
 MicOpt= -1 -1
 NAtoms=      2 NQM=        2 NQMF=       0 NMMI=      0 NMMIF=      0
                NMic=       0 NMicF=      0.
                    Isotopes and Nuclear Properties:
 (Nuclear quadrupole moments (NQMom) in fm**2, nuclear magnetic moments (NMagM)
  in nuclear magnetons)

  Atom         1           2
 IAtWgt=          11           1
 AtmWgt=  11.0093053   1.0078250
 NucSpn=           3           1
 AtZEff=  -0.0000000  -0.0000000
 NQMom=    4.0590000   0.0000000
 NMagM=    2.6886370   2.7928460
 AtZNuc=   5.0000000   1.0000000
 Leave Link  101 at Sat May 21 19:11:50 2022, MaxMem=   104857600 cpu:               0.1 elap:               0.1
 (Enter /apps/software/g16/l202.exe)
                          Input orientation:                          
 ---------------------------------------------------------------------
 Center     Atomic      Atomic             Coordinates (Angstroms)
 Number     Number       Type             X           Y           Z
 ---------------------------------------------------------------------
      1          5           0        0.000000    0.000000    0.000000
      2          1           0        4.800000    0.000000    0.000000
 ---------------------------------------------------------------------
 Stoichiometry    BH
 Framework group  C*V[C*(HB)]
 Deg. of freedom     1
 Full point group                 C*V     NOp   4
 Largest Abelian subgroup         C2V     NOp   4
 Largest concise Abelian subgroup C1      NOp   1
                         Standard orientation:                         
 ---------------------------------------------------------------------
 Center     Atomic      Atomic             Coordinates (Angstroms)
 Number     Number       Type             X           Y           Z
 ---------------------------------------------------------------------
      1          5           0        0.000000    0.000000    0.800000
      2          1           0        0.000000    0.000000   -4.000000
 ---------------------------------------------------------------------
 Rotational constants (GHZ):           0.0000000          23.7569366          23.7569366
 Leave Link  202 at Sat May 21 19:11:50 2022, MaxMem=   104857600 cpu:               0.0 elap:               0.0
 (Enter /apps/software/g16/l301.exe)
 Standard basis: Aug-CC-pVQZ (5D, 7F)
 Ernie: Thresh=  0.10000D-02 Tol=  0.10000D-05 Strict=F.
 Ernie:  4 primitive shells out of 54 were deleted.
 There are    68 symmetry adapted cartesian basis functions of A1  symmetry.
 There are    18 symmetry adapted cartesian basis functions of A2  symmetry.
 There are    37 symmetry adapted cartesian basis functions of B1  symmetry.
 There are    37 symmetry adapted cartesian basis functions of B2  symmetry.
 There are    50 symmetry adapted basis functions of A1  symmetry.
 There are    16 symmetry adapted basis functions of A2  symmetry.
 There are    30 symmetry adapted basis functions of B1  symmetry.
 There are    30 symmetry adapted basis functions of B2  symmetry.
   126 basis functions,   180 primitive gaussians,   160 cartesian basis functions
     3 alpha electrons        3 beta electrons
       nuclear repulsion energy         0.5512262614 Hartrees.
 IExCor=    0 DFT=F Ex=HF Corr=None ExCW=0 ScaHFX=  1.000000
 ScaDFX=  1.000000  1.000000  1.000000  1.000000 ScalE2=  1.000000  1.000000
 IRadAn=      5 IRanWt=     -1 IRanGd=            0 ICorTp=0 IEmpDi=  4
 NAtoms=    2 NActive=    2 NUniq=    2 SFac= 1.00D+00 NAtFMM=   60 NAOKFM=F Big=F
 Integral buffers will be    131072 words long.
 Raffenetti 2 integral format.
 Two-electron integral symmetry is turned on.
 Leave Link  301 at Sat May 21 19:11:50 2022, MaxMem=   104857600 cpu:               0.1 elap:               0.1
 (Enter /apps/software/g16/l302.exe)
 NPDir=0 NMtPBC=     1 NCelOv=     1 NCel=       1 NClECP=     1 NCelD=      1
         NCelK=      1 NCelE2=     1 NClLst=     1 CellRange=     0.0.
 One-electron integrals computed using PRISM.
 One-electron integral symmetry used in STVInt
 NBasis=   126 RedAO= T EigKep=  1.20D-02  NBF=    50    16    30    30
 NBsUse=   126 1.00D-06 EigRej= -1.00D+00 NBFU=    50    16    30    30
 Leave Link  302 at Sat May 21 19:11:51 2022, MaxMem=   104857600 cpu:               0.1 elap:               0.1
 (Enter /apps/software/g16/l303.exe)
 DipDrv:  MaxL=1.
 Leave Link  303 at Sat May 21 19:11:51 2022, MaxMem=   104857600 cpu:               0.0 elap:               0.0
 (Enter /apps/software/g16/l401.exe)
 ExpMin= 1.88D-02 ExpMax= 2.39D+04 ExpMxC= 2.30D+02 IAcc=3 IRadAn=         5 AccDes= 0.00D+00
 Harris functional with IExCor=  205 and IRadAn=       5 diagonalized for initial guess.
 HarFok:  IExCor=  205 AccDes= 0.00D+00 IRadAn=         5 IDoV= 1 UseB2=F ITyADJ=14
 ICtDFT=  3500011 ScaDFX=  1.000000  1.000000  1.000000  1.000000
 FoFCou: FMM=F IPFlag=           0 FMFlag=      100000 FMFlg1=           0
         NFxFlg=           0 DoJE=T BraDBF=F KetDBF=T FulRan=T
         wScrn=  0.000000 ICntrl=       500 IOpCl=  0 I1Cent=   200000004 NGrid=           0
         NMat0=    1 NMatS0=      1 NMatT0=    0 NMatD0=    1 NMtDS0=    0 NMtDT0=    0
 Petite list used in FoFCou.
 Harris En= -24.9884042595512    
 JPrj=0 DoOrth=F DoCkMO=T.
 Mixing orbitals, IMix= 1 IMixAn=  0 NRI=1 NE=    3 Coef=  7.07106781D-01  7.07106781D-01
 Mixing orbitals, IMix= 1 IMixAn=  0 NRI=1 NE=    3 Coef= -7.07106781D-01  7.07106781D-01
 Initial guess orbital symmetries:
 Alpha Orbitals:
       Occupied  (SG) (SG) (SG)
       Virtual   (SG) (PI) (PI) (SG) (PI) (PI) (SG) (SG) (PI) (PI)
                 (SG) (DLTA) (DLTA) (PI) (PI) (SG) (PI) (PI) (SG)
                 (SG) (SG) (SG) (DLTA) (DLTA) (PI) (PI) (PI) (PI)
                 (DLTA) (DLTA) (PHI) (PHI) (SG) (DLTA) (DLTA) (PI)
                 (PI) (SG) (PI) (PI) (SG) (PI) (PI) (SG) (SG) (DLTA)
                 (DLTA) (PI) (PI) (SG) (DLTA) (DLTA) (?A) (PHI)
                 (PHI) (?A) (PI) (PI) (SG) (DLTA) (DLTA) (PHI)
                 (PHI) (PI) (PI) (SG) (SG) (PHI) (PHI) (DLTA) (DLTA)
                 (PI) (PI) (SG) (DLTA) (DLTA) (PI) (PI) (SG) (PI)
                 (PI) (SG) (PI) (PI) (SG) (DLTA) (DLTA) (PI) (PI)
                 (SG) (DLTA) (?A) (?B) (?B) (?A) (DLTA) (?B) (?B)
                 (SG) (PHI) (PHI) (DLTA) (DLTA) (PI) (PI) (SG)
                 (PHI) (PHI) (DLTA) (DLTA) (PI) (PI) (SG) (SG)
                 (PI) (PI) (SG) (DLTA) (DLTA) (PI) (PI) (SG) (SG)
 Beta  Orbitals:
       Occupied  (SG) (SG) (SG)
       Virtual   (SG) (PI) (PI) (SG) (PI) (PI) (SG) (SG) (PI) (PI)
                 (SG) (DLTA) (DLTA) (PI) (PI) (SG) (PI) (PI) (SG)
                 (SG) (SG) (SG) (DLTA) (DLTA) (PI) (PI) (PI) (PI)
                 (DLTA) (DLTA) (PHI) (PHI) (SG) (DLTA) (DLTA) (PI)
                 (PI) (SG) (PI) (PI) (SG) (PI) (PI) (SG) (SG) (DLTA)
                 (DLTA) (PI) (PI) (SG) (DLTA) (DLTA) (?A) (PHI)
                 (PHI) (?A) (PI) (PI) (SG) (DLTA) (DLTA) (PHI)
                 (PHI) (PI) (PI) (SG) (SG) (PHI) (PHI) (DLTA) (DLTA)
                 (PI) (PI) (SG) (DLTA) (DLTA) (PI) (PI) (SG) (PI)
                 (PI) (SG) (PI) (PI) (SG) (DLTA) (DLTA) (PI) (PI)
                 (SG) (DLTA) (?A) (?B) (?B) (?A) (DLTA) (?B) (?B)
                 (SG) (PHI) (PHI) (DLTA) (DLTA) (PI) (PI) (SG)
                 (PHI) (PHI) (DLTA) (DLTA) (PI) (PI) (SG) (SG)
                 (PI) (PI) (SG) (DLTA) (DLTA) (PI) (PI) (SG) (SG)
 The electronic state of the initial guess is 1-SG.
 Initial guess <Sx>= 0.0000 <Sy>= 0.0000 <Sz>= 0.0000 <S**2>= 1.0000 S= 0.6180
 Leave Link  401 at Sat May 21 19:11:51 2022, MaxMem=   104857600 cpu:               0.2 elap:               0.2
 (Enter /apps/software/g16/l502.exe)
 Keep R1 and R2 ints in memory in symmetry-blocked form, NReq=40143665.
 FoFCou: FMM=F IPFlag=           0 FMFlag=           0 FMFlg1=           0
         NFxFlg=           0 DoJE=F BraDBF=F KetDBF=F FulRan=T
         wScrn=  0.000000 ICntrl=       600 IOpCl=  0 I1Cent=           0 NGrid=           0
         NMat0=    1 NMatS0=   8001 NMatT0=    0 NMatD0=    1 NMtDS0=    0 NMtDT0=    0
 Petite list used in FoFCou.
 UHF open shell SCF:
 Using DIIS extrapolation, IDIIS=  1040.
 NGot=   104857600 LenX=    88563632 LenY=    88537591
 Requested convergence on RMS density matrix=1.00D-08 within 128 cycles.
 Requested convergence on MAX density matrix=1.00D-06.
 Requested convergence on             energy=1.00D-06.
 No special actions if energy rises.
 An orbital has undefined symmetry, so N**3 symmetry is turned off.

 Cycle   1  Pass 1  IDiag  1:
 E= -24.8294925905367    
 DIIS: error= 3.20D-02 at cycle   1 NSaved=   1.
 NSaved= 1 IEnMin= 1 EnMin= -24.8294925905367     IErMin= 1 ErrMin= 3.20D-02
 ErrMax= 3.20D-02  0.00D+00 EMaxC= 1.00D-01 BMatC= 1.48D-01 BMatP= 1.48D-01
 IDIUse=3 WtCom= 6.80D-01 WtEn= 3.20D-01
 Coeff-Com:  0.100D+01
 Coeff-En:   0.100D+01
 Coeff:      0.100D+01
 Gap=     0.114 Goal=   None    Shift=    0.000
 Gap=     0.120 Goal=   None    Shift=    0.000
 GapD=    0.114 DampG=1.000 DampE=0.500 DampFc=0.5000 IDamp=-1.
 Damping current iteration by 5.00D-01
 RMSDP=1.79D-03 MaxDP=8.34D-02              OVMax= 4.28D-01

 Cycle   2  Pass 1  IDiag  1:
 E= -24.8484421746622     Delta-E=       -0.018949584125 Rises=F Damp=T
 DIIS: error= 1.97D-02 at cycle   2 NSaved=   2.
 NSaved= 2 IEnMin= 2 EnMin= -24.8484421746622     IErMin= 2 ErrMin= 1.97D-02
 ErrMax= 1.97D-02  0.00D+00 EMaxC= 1.00D-01 BMatC= 5.06D-02 BMatP= 1.48D-01
 IDIUse=3 WtCom= 8.03D-01 WtEn= 1.97D-01
 Coeff-Com: -0.579D+00 0.158D+01
 Coeff-En:   0.000D+00 0.100D+01
 Coeff:     -0.465D+00 0.147D+01
 Gap=     0.096 Goal=   None    Shift=    0.000
 Gap=     0.071 Goal=   None    Shift=    0.000
 RMSDP=1.55D-03 MaxDP=6.35D-02 DE=-1.89D-02 OVMax= 4.77D-01

 Cycle   3  Pass 1  IDiag  1:
 E= -24.9138711427712     Delta-E=       -0.065428968109 Rises=F Damp=F
 DIIS: error= 2.68D-02 at cycle   3 NSaved=   3.
 NSaved= 3 IEnMin= 3 EnMin= -24.9138711427712     IErMin= 2 ErrMin= 1.97D-02
 ErrMax= 2.68D-02  0.00D+00 EMaxC= 1.00D-01 BMatC= 3.67D-02 BMatP= 5.06D-02
 IDIUse=3 WtCom= 7.32D-01 WtEn= 2.68D-01
 Coeff-Com: -0.388D+00 0.884D+00 0.504D+00
 Coeff-En:   0.000D+00 0.000D+00 0.100D+01
 Coeff:     -0.284D+00 0.647D+00 0.637D+00
 Gap=     0.232 Goal=   None    Shift=    0.000
 Gap=     0.157 Goal=   None    Shift=    0.000
 RMSDP=1.08D-03 MaxDP=4.94D-02 DE=-6.54D-02 OVMax= 2.63D-01

 Cycle   4  Pass 1  IDiag  1:
 E= -24.9872197426517     Delta-E=       -0.073348599880 Rises=F Damp=F
 DIIS: error= 1.84D-02 at cycle   4 NSaved=   4.
 NSaved= 4 IEnMin= 4 EnMin= -24.9872197426517     IErMin= 4 ErrMin= 1.84D-02
 ErrMax= 1.84D-02  0.00D+00 EMaxC= 1.00D-01 BMatC= 2.29D-02 BMatP= 3.67D-02
 IDIUse=3 WtCom= 8.16D-01 WtEn= 1.84D-01
 Coeff-Com: -0.212D+00 0.600D+00 0.202D-01 0.591D+00
 Coeff-En:   0.000D+00 0.000D+00 0.000D+00 0.100D+01
 Coeff:     -0.173D+00 0.490D+00 0.165D-01 0.666D+00
 Gap=     0.354 Goal=   None    Shift=    0.000
 Gap=     0.217 Goal=   None    Shift=    0.000
 RMSDP=6.14D-04 MaxDP=2.67D-02 DE=-7.33D-02 OVMax= 1.54D-01

 Cycle   5  Pass 1  IDiag  1:
 E= -25.0145011667112     Delta-E=       -0.027281424060 Rises=F Damp=F
 DIIS: error= 1.21D-02 at cycle   5 NSaved=   5.
 NSaved= 5 IEnMin= 5 EnMin= -25.0145011667112     IErMin= 5 ErrMin= 1.21D-02
 ErrMax= 1.21D-02  0.00D+00 EMaxC= 1.00D-01 BMatC= 1.25D-02 BMatP= 2.29D-02
 IDIUse=3 WtCom= 8.79D-01 WtEn= 1.21D-01
 Coeff-Com: -0.378D+00 0.710D+00 0.828D+00-0.278D+01 0.262D+01
 Coeff-En:   0.000D+00 0.000D+00 0.000D+00 0.000D+00 0.100D+01
 Coeff:     -0.332D+00 0.624D+00 0.728D+00-0.244D+01 0.242D+01
 Gap=     0.405 Goal=   None    Shift=    0.000
 Gap=     0.222 Goal=   None    Shift=    0.000
 RMSDP=5.76D-04 MaxDP=2.70D-02 DE=-2.73D-02 OVMax= 1.33D-01

 Cycle   6  Pass 1  IDiag  1:
 E= -25.0275609578133     Delta-E=       -0.013059791102 Rises=F Damp=F
 DIIS: error= 6.74D-03 at cycle   6 NSaved=   6.
 NSaved= 6 IEnMin= 6 EnMin= -25.0275609578133     IErMin= 6 ErrMin= 6.74D-03
 ErrMax= 6.74D-03  0.00D+00 EMaxC= 1.00D-01 BMatC= 5.17D-03 BMatP= 1.25D-02
 IDIUse=3 WtCom= 9.33D-01 WtEn= 6.74D-02
 Coeff-Com: -0.268D+00 0.496D+00 0.454D+00-0.149D+01 0.745D+00 0.106D+01
 Coeff-En:   0.000D+00 0.000D+00 0.000D+00 0.000D+00 0.000D+00 0.100D+01
 Coeff:     -0.250D+00 0.463D+00 0.423D+00-0.139D+01 0.695D+00 0.106D+01
 Gap=     0.445 Goal=   None    Shift=    0.000
 Gap=     0.274 Goal=   None    Shift=    0.000
 RMSDP=3.00D-04 MaxDP=1.70D-02 DE=-1.31D-02 OVMax= 5.70D-02

 Cycle   7  Pass 1  IDiag  1:
 E= -25.0311232967934     Delta-E=       -0.003562338980 Rises=F Damp=F
 DIIS: error= 4.57D-03 at cycle   7 NSaved=   7.
 NSaved= 7 IEnMin= 7 EnMin= -25.0311232967934     IErMin= 7 ErrMin= 4.57D-03
 ErrMax= 4.57D-03  0.00D+00 EMaxC= 1.00D-01 BMatC= 2.12D-03 BMatP= 5.17D-03
 IDIUse=3 WtCom= 9.54D-01 WtEn= 4.57D-02
 Coeff-Com:  0.622D-01-0.101D+00-0.230D+00 0.909D+00 0.121D+00-0.433D+01
 Coeff-Com:  0.456D+01
 Coeff-En:   0.000D+00 0.000D+00 0.000D+00 0.000D+00 0.000D+00 0.000D+00
 Coeff-En:   0.100D+01
 Coeff:      0.593D-01-0.961D-01-0.220D+00 0.868D+00 0.116D+00-0.413D+01
 Coeff:      0.440D+01
 Gap=     0.526 Goal=   None    Shift=    0.000
 Gap=     0.352 Goal=   None    Shift=    0.000
 RMSDP=4.42D-04 MaxDP=3.06D-02 DE=-3.56D-03 OVMax= 4.87D-02

 Cycle   8  Pass 1  IDiag  1:
 E= -25.0328770210734     Delta-E=       -0.001753724280 Rises=F Damp=F
 DIIS: error= 6.33D-04 at cycle   8 NSaved=   8.
 NSaved= 8 IEnMin= 8 EnMin= -25.0328770210734     IErMin= 8 ErrMin= 6.33D-04
 ErrMax= 6.33D-04  0.00D+00 EMaxC= 1.00D-01 BMatC= 5.00D-05 BMatP= 2.12D-03
 IDIUse=3 WtCom= 9.94D-01 WtEn= 6.33D-03
 Coeff-Com: -0.232D-01 0.374D-01 0.236D-01-0.475D-01-0.490D+00 0.187D+01
 Coeff-Com: -0.166D+01 0.130D+01
 Coeff-En:   0.000D+00 0.000D+00 0.000D+00 0.000D+00 0.000D+00 0.000D+00
 Coeff-En:   0.000D+00 0.100D+01
 Coeff:     -0.230D-01 0.372D-01 0.235D-01-0.472D-01-0.487D+00 0.185D+01
 Coeff:     -0.165D+01 0.130D+01
 Gap=     0.473 Goal=   None    Shift=    0.000
 Gap=     0.336 Goal=   None    Shift=    0.000
 RMSDP=5.80D-05 MaxDP=2.65D-03 DE=-1.75D-03 OVMax= 1.04D-02

 Cycle   9  Pass 1  IDiag  1:
 E= -25.0329367102140     Delta-E=       -0.000059689141 Rises=F Damp=F
 DIIS: error= 1.92D-04 at cycle   9 NSaved=   9.
 NSaved= 9 IEnMin= 9 EnMin= -25.0329367102140     IErMin= 9 ErrMin= 1.92D-04
 ErrMax= 1.92D-04  0.00D+00 EMaxC= 1.00D-01 BMatC= 5.56D-06 BMatP= 5.00D-05
 IDIUse=3 WtCom= 9.98D-01 WtEn= 1.92D-03
 Coeff-Com: -0.380D-02 0.725D-02 0.251D-01-0.133D+00 0.271D+00-0.319D+00
 Coeff-Com:  0.147D+00-0.432D+00 0.144D+01
 Coeff-En:   0.000D+00 0.000D+00 0.000D+00 0.000D+00 0.000D+00 0.000D+00
 Coeff-En:   0.000D+00 0.000D+00 0.100D+01
 Coeff:     -0.379D-02 0.723D-02 0.250D-01-0.133D+00 0.271D+00-0.319D+00
 Coeff:      0.147D+00-0.432D+00 0.144D+01
 Gap=     0.474 Goal=   None    Shift=    0.000
 Gap=     0.336 Goal=   None    Shift=    0.000
 RMSDP=2.83D-05 MaxDP=1.20D-03 DE=-5.97D-05 OVMax= 4.94D-03

 Cycle  10  Pass 1  IDiag  1:
 E= -25.0329433463622     Delta-E=       -0.000006636148 Rises=F Damp=F
 DIIS: error= 9.64D-05 at cycle  10 NSaved=  10.
 NSaved=10 IEnMin=10 EnMin= -25.0329433463622     IErMin=10 ErrMin= 9.64D-05
 ErrMax= 9.64D-05  0.00D+00 EMaxC= 1.00D-01 BMatC= 9.77D-07 BMatP= 5.56D-06
 IDIUse=1 WtCom= 1.00D+00 WtEn= 0.00D+00
 Coeff-Com:  0.578D-03-0.125D-02-0.465D-02 0.363D-01-0.102D+00 0.139D+00
 Coeff-Com: -0.816D-01 0.192D+00-0.639D+00 0.146D+01
 Coeff:      0.578D-03-0.125D-02-0.465D-02 0.363D-01-0.102D+00 0.139D+00
 Coeff:     -0.816D-01 0.192D+00-0.639D+00 0.146D+01
 Gap=     0.474 Goal=   None    Shift=    0.000
 Gap=     0.338 Goal=   None    Shift=    0.000
 RMSDP=1.10D-05 MaxDP=7.36D-04 DE=-6.64D-06 OVMax= 1.63D-03

 Cycle  11  Pass 1  IDiag  1:
 E= -25.0329443754826     Delta-E=       -0.000001029120 Rises=F Damp=F
 DIIS: error= 2.26D-05 at cycle  11 NSaved=  11.
 NSaved=11 IEnMin=11 EnMin= -25.0329443754826     IErMin=11 ErrMin= 2.26D-05
 ErrMax= 2.26D-05  0.00D+00 EMaxC= 1.00D-01 BMatC= 7.30D-08 BMatP= 9.77D-07
 IDIUse=1 WtCom= 1.00D+00 WtEn= 0.00D+00
 Coeff-Com: -0.374D-03 0.625D-03 0.947D-03-0.102D-01 0.218D-01-0.397D-02
 Coeff-Com: -0.503D-02-0.404D-01 0.138D+00-0.579D+00 0.148D+01
 Coeff:     -0.374D-03 0.625D-03 0.947D-03-0.102D-01 0.218D-01-0.397D-02
 Coeff:     -0.503D-02-0.404D-01 0.138D+00-0.579D+00 0.148D+01
 Gap=     0.474 Goal=   None    Shift=    0.000
 Gap=     0.337 Goal=   None    Shift=    0.000
 RMSDP=3.94D-06 MaxDP=2.32D-04 DE=-1.03D-06 OVMax= 4.86D-04

 Cycle  12  Pass 1  IDiag  1:
 E= -25.0329444721925     Delta-E=       -0.000000096710 Rises=F Damp=F
 DIIS: error= 6.51D-06 at cycle  12 NSaved=  12.
 NSaved=12 IEnMin=12 EnMin= -25.0329444721925     IErMin=12 ErrMin= 6.51D-06
 ErrMax= 6.51D-06  0.00D+00 EMaxC= 1.00D-01 BMatC= 3.84D-09 BMatP= 7.30D-08
 IDIUse=1 WtCom= 1.00D+00 WtEn= 0.00D+00
 Coeff-Com:  0.868D-05 0.290D-04 0.134D-03 0.976D-03-0.154D-02-0.794D-02
 Coeff-Com:  0.715D-02 0.203D-02-0.161D-02 0.136D+00-0.635D+00 0.150D+01
 Coeff:      0.868D-05 0.290D-04 0.134D-03 0.976D-03-0.154D-02-0.794D-02
 Coeff:      0.715D-02 0.203D-02-0.161D-02 0.136D+00-0.635D+00 0.150D+01
 Gap=     0.474 Goal=   None    Shift=    0.000
 Gap=     0.337 Goal=   None    Shift=    0.000
 RMSDP=5.72D-07 MaxDP=2.31D-05 DE=-9.67D-08 OVMax= 7.02D-05

 Cycle  13  Pass 1  IDiag  1:
 E= -25.0329444775396     Delta-E=       -0.000000005347 Rises=F Damp=F
 DIIS: error= 3.23D-06 at cycle  13 NSaved=  13.
 NSaved=13 IEnMin=13 EnMin= -25.0329444775396     IErMin=13 ErrMin= 3.23D-06
 ErrMax= 3.23D-06  0.00D+00 EMaxC= 1.00D-01 BMatC= 1.13D-09 BMatP= 3.84D-09
 IDIUse=1 WtCom= 1.00D+00 WtEn= 0.00D+00
 Coeff-Com: -0.519D-04 0.681D-04 0.790D-04-0.103D-02 0.134D-02 0.542D-02
 Coeff-Com: -0.550D-02-0.286D-03-0.509D-02-0.862D-01 0.453D+00-0.155D+01
 Coeff-Com:  0.219D+01
 Coeff:     -0.519D-04 0.681D-04 0.790D-04-0.103D-02 0.134D-02 0.542D-02
 Coeff:     -0.550D-02-0.286D-03-0.509D-02-0.862D-01 0.453D+00-0.155D+01
 Coeff:      0.219D+01
 Gap=     0.474 Goal=   None    Shift=    0.000
 Gap=     0.337 Goal=   None    Shift=    0.000
 RMSDP=4.34D-07 MaxDP=1.91D-05 DE=-5.35D-09 OVMax= 6.64D-05

 Cycle  14  Pass 1  IDiag  1:
 E= -25.0329444794960     Delta-E=       -0.000000001956 Rises=F Damp=F
 DIIS: error= 7.07D-07 at cycle  14 NSaved=  14.
 NSaved=14 IEnMin=14 EnMin= -25.0329444794960     IErMin=14 ErrMin= 7.07D-07
 ErrMax= 7.07D-07  0.00D+00 EMaxC= 1.00D-01 BMatC= 4.62D-11 BMatP= 1.13D-09
 IDIUse=1 WtCom= 1.00D+00 WtEn= 0.00D+00
 Coeff-Com:  0.132D-04-0.199D-04-0.428D-04 0.249D-03-0.367D-03-0.104D-02
 Coeff-Com:  0.127D-02-0.170D-03 0.296D-02 0.171D-01-0.105D+00 0.424D+00
 Coeff-Com: -0.838D+00 0.150D+01
 Coeff:      0.132D-04-0.199D-04-0.428D-04 0.249D-03-0.367D-03-0.104D-02
 Coeff:      0.127D-02-0.170D-03 0.296D-02 0.171D-01-0.105D+00 0.424D+00
 Coeff:     -0.838D+00 0.150D+01
 Gap=     0.474 Goal=   None    Shift=    0.000
 Gap=     0.337 Goal=   None    Shift=    0.000
 RMSDP=8.09D-08 MaxDP=4.26D-06 DE=-1.96D-09 OVMax= 1.60D-05

 Cycle  15  Pass 1  IDiag  1:
 E= -25.0329444795753     Delta-E=       -0.000000000079 Rises=F Damp=F
 DIIS: error= 2.18D-07 at cycle  15 NSaved=  15.
 NSaved=15 IEnMin=15 EnMin= -25.0329444795753     IErMin=15 ErrMin= 2.18D-07
 ErrMax= 2.18D-07  0.00D+00 EMaxC= 1.00D-01 BMatC= 6.77D-12 BMatP= 4.62D-11
 IDIUse=1 WtCom= 1.00D+00 WtEn= 0.00D+00
 Coeff-Com: -0.168D-06-0.784D-06 0.201D-05 0.148D-04-0.511D-04 0.294D-03
 Coeff-Com: -0.284D-03 0.361D-03-0.193D-02 0.730D-04 0.146D-01-0.760D-01
 Coeff-Com:  0.200D+00-0.588D+00 0.145D+01
 Coeff:     -0.168D-06-0.784D-06 0.201D-05 0.148D-04-0.511D-04 0.294D-03
 Coeff:     -0.284D-03 0.361D-03-0.193D-02 0.730D-04 0.146D-01-0.760D-01
 Coeff:      0.200D+00-0.588D+00 0.145D+01
 Gap=     0.474 Goal=   None    Shift=    0.000
 Gap=     0.337 Goal=   None    Shift=    0.000
 RMSDP=3.09D-08 MaxDP=1.63D-06 DE=-7.93D-11 OVMax= 4.56D-06

 Cycle  16  Pass 1  IDiag  1:
 E= -25.0329444795836     Delta-E=       -0.000000000008 Rises=F Damp=F
 DIIS: error= 3.52D-08 at cycle  16 NSaved=  16.
 NSaved=16 IEnMin=16 EnMin= -25.0329444795836     IErMin=16 ErrMin= 3.52D-08
 ErrMax= 3.52D-08  0.00D+00 EMaxC= 1.00D-01 BMatC= 2.30D-13 BMatP= 6.77D-12
 IDIUse=1 WtCom= 1.00D+00 WtEn= 0.00D+00
 Coeff-Com: -0.947D-07 0.379D-06-0.549D-06-0.933D-05 0.355D-04-0.971D-04
 Coeff-Com:  0.828D-04-0.148D-03 0.614D-03-0.990D-03 0.183D-03 0.520D-02
 Coeff-Com: -0.294D-01 0.149D+00-0.519D+00 0.139D+01
 Coeff:     -0.947D-07 0.379D-06-0.549D-06-0.933D-05 0.355D-04-0.971D-04
 Coeff:      0.828D-04-0.148D-03 0.614D-03-0.990D-03 0.183D-03 0.520D-02
 Coeff:     -0.294D-01 0.149D+00-0.519D+00 0.139D+01
 Gap=     0.474 Goal=   None    Shift=    0.000
 Gap=     0.337 Goal=   None    Shift=    0.000
 RMSDP=5.75D-09 MaxDP=3.57D-07 DE=-8.28D-12 OVMax= 6.94D-07

 SCF Done:  E(UHF) =  -25.0329444796     A.U. after   16 cycles
            NFock= 16  Conv=0.58D-08     -V/T= 2.0000
 <Sx>= 0.0000 <Sy>= 0.0000 <Sz>= 0.0000 <S**2>= 1.0108 S= 0.6229
 <L.S>=  0.00000000000    
 KE= 2.503224876941D+01 PE=-5.900548528167D+01 EE= 8.389065771306D+00
 Annihilation of the first spin contaminant:
 S**2 before annihilation     1.0108,   after     0.0895
 Leave Link  502 at Sat May 21 19:11:54 2022, MaxMem=   104857600 cpu:               3.6 elap:               3.6
 (Enter /apps/software/g16/l601.exe)
 Copying SCF densities to generalized density rwf, IOpCl= 1 IROHF=0.

 **********************************************************************

            Population analysis using the SCF density.

 **********************************************************************

 Orbital symmetries:
 Alpha Orbitals:
       Occupied  (SG) (SG) (SG)
       Virtual   (PI) (PI) (SG) (SG) (SG) (PI) (PI) (SG) (PI) (PI)
                 (DLTA) (DLTA) (SG) (PI) (PI) (SG) (PI) (PI) (SG)
                 (SG) (SG) (PHI) (PHI) (DLTA) (DLTA) (PI) (PI)
                 (SG) (DLTA) (DLTA) (PI) (PI) (SG) (DLTA) (DLTA)
                 (PI) (PI) (SG) (PI) (PI) (SG) (PI) (PI) (SG) (?A)
                 (?A) (PHI) (PHI) (DLTA) (DLTA) (PI) (PI) (SG)
                 (DLTA) (DLTA) (SG) (PHI) (PHI) (PI) (PI) (DLTA)
                 (DLTA) (SG) (PI) (PI) (SG) (PHI) (PHI) (DLTA)
                 (DLTA) (PI) (PI) (SG) (SG) (DLTA) (DLTA) (PI)
                 (PI) (SG) (PI) (PI) (SG) (PI) (PI) (SG) (?A) (?A)
                 (PHI) (PHI) (DLTA) (DLTA) (DLTA) (DLTA) (PI) (PI)
                 (SG) (PI) (PI) (SG) (PHI) (PHI) (DLTA) (DLTA)
                 (PI) (PI) (SG) (PHI) (PHI) (DLTA) (DLTA) (PI)
                 (PI) (SG) (SG) (PI) (PI) (SG) (DLTA) (DLTA) (PI)
                 (PI) (SG) (SG)
 Beta  Orbitals:
       Occupied  (SG) (SG) (SG)
       Virtual   (SG) (PI) (PI) (SG) (SG) (PI) (PI) (SG) (PI) (PI)
                 (DLTA) (DLTA) (SG) (PI) (PI) (SG) (SG) (PI) (PI)
                 (SG) (SG) (PHI) (PHI) (DLTA) (DLTA) (PI) (PI)
                 (PI) (PI) (SG) (DLTA) (DLTA) (SG) (DLTA) (DLTA)
                 (PI) (PI) (SG) (PI) (PI) (SG) (PI) (PI) (SG) (?A)
                 (?A) (PHI) (PHI) (DLTA) (DLTA) (PI) (PI) (SG)
                 (SG) (PI) (PI) (DLTA) (DLTA) (SG) (PHI) (PHI)
                 (DLTA) (DLTA) (PI) (PI) (SG) (PHI) (PHI) (DLTA)
                 (DLTA) (PI) (PI) (SG) (SG) (DLTA) (DLTA) (PI)
                 (PI) (SG) (PI) (PI) (SG) (PI) (PI) (SG) (?A) (?A)
                 (PHI) (PHI) (DLTA) (DLTA) (PI) (PI) (DLTA) (DLTA)
                 (SG) (PI) (PI) (SG) (PHI) (PHI) (DLTA) (DLTA)
                 (PI) (PI) (SG) (PHI) (PHI) (DLTA) (DLTA) (PI)
                 (PI) (SG) (SG) (PI) (PI) (SG) (DLTA) (DLTA) (PI)
                 (PI) (SG) (SG)
 The electronic state is 1-SG.
 Alpha  occ. eigenvalues --   -7.68642  -0.49660  -0.44633
 Alpha virt. eigenvalues --    0.02733   0.02733   0.04362   0.05124   0.07468
 Alpha virt. eigenvalues --    0.08425   0.08425   0.11734   0.14224   0.14224
 Alpha virt. eigenvalues --    0.14570   0.14570   0.16467   0.19690   0.19690
 Alpha virt. eigenvalues --    0.25120   0.31998   0.31998   0.34343   0.36032
 Alpha virt. eigenvalues --    0.38941   0.46176   0.46176   0.47068   0.47068
 Alpha virt. eigenvalues --    0.47256   0.47256   0.49532   0.50145   0.50145
 Alpha virt. eigenvalues --    0.52545   0.52545   0.56790   0.61733   0.61733
 Alpha virt. eigenvalues --    0.64222   0.64222   0.68387   0.75929   0.75929
 Alpha virt. eigenvalues --    0.84330   1.06035   1.06035   1.12825   1.36969
 Alpha virt. eigenvalues --    1.36969   1.38440   1.38440   1.39484   1.39484
 Alpha virt. eigenvalues --    1.40181   1.40181   1.40632   1.41591   1.41591
 Alpha virt. eigenvalues --    1.42554   1.43972   1.43972   1.45587   1.45587
 Alpha virt. eigenvalues --    1.46344   1.46344   1.46865   1.47946   1.47946
 Alpha virt. eigenvalues --    1.51670   1.56168   1.56168   1.56279   1.56279
 Alpha virt. eigenvalues --    1.57290   1.57290   1.57461   1.64349   2.45137
 Alpha virt. eigenvalues --    2.45137   2.46092   2.46092   2.48341   2.55799
 Alpha virt. eigenvalues --    2.55799   2.62592   3.74440   3.74440   3.80463
 Alpha virt. eigenvalues --    3.92029   3.92029   3.94562   3.94562   3.96046
 Alpha virt. eigenvalues --    3.96046   3.96491   3.96491   3.97518   3.97518
 Alpha virt. eigenvalues --    3.98297   4.00309   4.00309   4.02553   4.08869
 Alpha virt. eigenvalues --    4.08869   4.12140   4.12140   4.14541   4.14541
 Alpha virt. eigenvalues --    4.17913   6.55431   6.55431   6.55454   6.55454
 Alpha virt. eigenvalues --    6.55585   6.55585   6.55890   7.40914   7.93585
 Alpha virt. eigenvalues --    7.93585   7.97679   8.39017   8.39017   8.39600
 Alpha virt. eigenvalues --    8.39600   8.41955  13.05579
  Beta  occ. eigenvalues --   -7.70156  -0.54537  -0.31882
  Beta virt. eigenvalues --    0.01836   0.02361   0.02361   0.05090   0.07304
  Beta virt. eigenvalues --    0.07727   0.07727   0.10963   0.14240   0.14240
  Beta virt. eigenvalues --    0.14563   0.14563   0.16866   0.21184   0.21184
  Beta virt. eigenvalues --    0.24273   0.30720   0.31180   0.31180   0.34305
  Beta virt. eigenvalues --    0.45116   0.46184   0.46184   0.46669   0.46669
  Beta virt. eigenvalues --    0.46760   0.46760   0.49536   0.49536   0.49587
  Beta virt. eigenvalues --    0.50037   0.50037   0.54697   0.63066   0.63066
  Beta virt. eigenvalues --    0.65470   0.65470   0.70066   0.82449   0.82449
  Beta virt. eigenvalues --    0.89154   1.05102   1.05102   1.05828   1.36997
  Beta virt. eigenvalues --    1.36997   1.37924   1.37924   1.38588   1.38588
  Beta virt. eigenvalues --    1.39059   1.39059   1.39138   1.39583   1.40693
  Beta virt. eigenvalues --    1.40693   1.41103   1.41103   1.42174   1.43908
  Beta virt. eigenvalues --    1.43908   1.44723   1.44723   1.45499   1.45499
  Beta virt. eigenvalues --    1.49111   1.57426   1.57426   1.57527   1.57527
  Beta virt. eigenvalues --    1.58355   1.58355   1.60213   1.72770   2.49085
  Beta virt. eigenvalues --    2.49085   2.50039   2.50039   2.52539   2.63245
  Beta virt. eigenvalues --    2.63245   2.69476   3.73724   3.73724   3.75596
  Beta virt. eigenvalues --    3.91960   3.91960   3.93472   3.93472   3.94553
  Beta virt. eigenvalues --    3.94553   3.95256   3.95256   3.95598   3.95598
  Beta virt. eigenvalues --    3.95898   3.96619   3.96619   3.97763   4.08601
  Beta virt. eigenvalues --    4.08601   4.09996   4.09996   4.11210   4.11210
  Beta virt. eigenvalues --    4.14108   6.58316   6.58316   6.58338   6.58338
  Beta virt. eigenvalues --    6.58467   6.58467   6.58770   7.49091   7.99378
  Beta virt. eigenvalues --    7.99378   8.03425   8.43240   8.43240   8.43819
  Beta virt. eigenvalues --    8.43819   8.46162  13.04402
          Condensed to atoms (all electrons):
               1          2
     1  B    4.999976  -0.000186
     2  H   -0.000186   1.000396
          Atomic-Atomic Spin Densities.
               1          2
     1  B   -1.000188  -0.000093
     2  H   -0.000093   1.000374
 Mulliken charges and spin densities:
               1          2
     1  B    0.000210  -1.000281
     2  H   -0.000210   1.000281
 Sum of Mulliken charges =  -0.00000   0.00000
 Mulliken charges and spin densities with hydrogens summed into heavy atoms:
               1          2
     1  B   -0.000000   0.000000
 Electronic spatial extent (au):  <R**2>=             87.4253
 Charge=             -0.0000 electrons
 Dipole moment (field-independent basis, Debye):
    X=              0.0000    Y=             -0.0000    Z=              0.0156  Tot=              0.0156
 Quadrupole moment (field-independent basis, Debye-Ang):
   XX=             -7.3063   YY=             -7.3063   ZZ=            -10.7560
   XY=              0.0000   XZ=              0.0000   YZ=             -0.0000
 Traceless Quadrupole moment (field-independent basis, Debye-Ang):
   XX=              1.1499   YY=              1.1499   ZZ=             -2.2998
   XY=              0.0000   XZ=              0.0000   YZ=             -0.0000
 Octapole moment (field-independent basis, Debye-Ang**2):
  XXX=              0.0000  YYY=             -0.0000  ZZZ=             -5.5876  XYY=              0.0000
  XXY=             -0.0000  XXZ=              0.6348  XZZ=              0.0000  YZZ=             -0.0000
  YYZ=              0.6348  XYZ=              0.0000
 Hexadecapole moment (field-independent basis, Debye-Ang**3):
 XXXX=            -10.7326 YYYY=            -10.7326 ZZZZ=           -189.6443 XXXY=              0.0000
 XXXZ=              0.0000 YYYX=              0.0000 YYYZ=             -0.0000 ZZZX=              0.0000
 ZZZY=              0.0000 XXYY=             -3.5775 XXZZ=            -30.7575 YYZZ=            -30.7575
 XXYZ=              0.0000 YYXZ=              0.0000 ZZXY=              0.0000
 N-N= 5.512262613750D-01 E-N=-5.900548508164D+01  KE= 2.503224876941D+01
 Symmetry A1   KE= 2.503224876941D+01
 Symmetry A2   KE= 4.567878430259D-30
 Symmetry B1   KE= 7.902490748857D-30
 Symmetry B2   KE= 1.477412309405D-29
 Symmetry A1   SP= 3.351996903989D-15
 Symmetry A2   SP=-6.459184628049D-31
 Symmetry B1   SP= 6.819695027572D-31
 Symmetry B2   SP= 8.498496959674D-31
                          Isotropic Fermi Contact Couplings
        Atom                 a.u.       MegaHertz       Gauss      10(-4) cm-1
     1  B(11)             -0.00216      -1.54682      -0.55194      -0.51596
     2  H(1)               0.29852     667.16522     238.06114     222.54236
 --------------------------------------------------------
       Center         ----  Spin Dipole Couplings  ----
                      3XX-RR        3YY-RR        3ZZ-RR
 --------------------------------------------------------
     1   Atom        0.330282      0.330282     -0.660563
     2   Atom        0.001708      0.001708     -0.003417
 --------------------------------------------------------
                        XY            XZ            YZ
 --------------------------------------------------------
     1   Atom        0.000000      0.000000      0.000000
     2   Atom        0.000000      0.000000      0.000000
 --------------------------------------------------------


 ---------------------------------------------------------------------------------
              Anisotropic Spin Dipole Couplings in Principal Axis System
 ---------------------------------------------------------------------------------

       Atom             a.u.   MegaHertz   Gauss  10(-4) cm-1        Axes

              Baa    -0.6606  -113.098   -40.356   -37.725  0.0000  0.0000  1.0000
     1 B(11)  Bbb     0.3303    56.549    20.178    18.863 -0.0000  1.0000  0.0000
              Bcc     0.3303    56.549    20.178    18.863  1.0000  0.0000  0.0000
 
              Baa    -0.0034    -1.823    -0.651    -0.608  0.0000  0.0000  1.0000
     2 H(1)   Bbb     0.0017     0.912     0.325     0.304  1.0000  0.0000  0.0000
              Bcc     0.0017     0.912     0.325     0.304 -0.0000  1.0000  0.0000
 

 ---------------------------------------------------------------------------------

 No NMR shielding tensors so no spin-rotation constants.
 Leave Link  601 at Sat May 21 19:11:55 2022, MaxMem=   104857600 cpu:               0.2 elap:               0.2
 (Enter /apps/software/g16/l801.exe)
 Range of M.O.s used for correlation:     1   126
 NBasis=   126 NAE=     3 NBE=     3 NFC=     0 NFV=     0
 NROrb=    126 NOA=     3 NOB=     3 NVA=   123 NVB=   123
 Leave Link  801 at Sat May 21 19:11:55 2022, MaxMem=   104857600 cpu:               0.0 elap:               0.0
 (Enter /apps/software/g16/l914.exe)
 UHF ground state
 Doing stability rather than CIS.
 Keep R1 and R2 ints in memory in symmetry-blocked form, NReq=40144005.
 FoFCou: FMM=F IPFlag=           0 FMFlag=           0 FMFlg1=           0
         NFxFlg=           0 DoJE=F BraDBF=F KetDBF=F FulRan=T
         wScrn=  0.000000 ICntrl=       600 IOpCl=  0 I1Cent=           0 NGrid=           0
         NMat0=    1 NMatS0=   8001 NMatT0=    0 NMatD0=    1 NMtDS0=    0 NMtDT0=    0
 Petite list used in FoFCou.
 MDV=   104857600 DFT=F DoStab=T Mixed=F DoRPA=F DoScal=F NonHer=F
 Making orbital integer symmetry assigments:
 Orbital symmetries:
 Alpha Orbitals:
       Occupied  (SG) (SG) (SG)
       Virtual   (PI) (PI) (SG) (SG) (SG) (PI) (PI) (SG) (PI) (PI)
                 (DLTA) (DLTA) (SG) (PI) (PI) (SG) (PI) (PI) (SG)
                 (SG) (SG) (PHI) (PHI) (DLTA) (DLTA) (PI) (PI)
                 (SG) (DLTA) (DLTA) (PI) (PI) (SG) (DLTA) (DLTA)
                 (PI) (PI) (SG) (PI) (PI) (SG) (PI) (PI) (SG) (?A)
                 (?A) (PHI) (PHI) (DLTA) (DLTA) (PI) (PI) (SG)
                 (DLTA) (DLTA) (SG) (PHI) (PHI) (PI) (PI) (DLTA)
                 (DLTA) (SG) (PI) (PI) (SG) (PHI) (PHI) (DLTA)
                 (DLTA) (PI) (PI) (SG) (SG) (DLTA) (DLTA) (PI)
                 (PI) (SG) (PI) (PI) (SG) (PI) (PI) (SG) (?A) (?A)
                 (PHI) (PHI) (DLTA) (DLTA) (DLTA) (DLTA) (PI) (PI)
                 (SG) (PI) (PI) (SG) (PHI) (PHI) (DLTA) (DLTA)
                 (PI) (PI) (SG) (PHI) (PHI) (DLTA) (DLTA) (PI)
                 (PI) (SG) (SG) (PI) (PI) (SG) (DLTA) (DLTA) (PI)
                 (PI) (SG) (SG)
 Beta  Orbitals:
       Occupied  (SG) (SG) (SG)
       Virtual   (SG) (PI) (PI) (SG) (SG) (PI) (PI) (SG) (PI) (PI)
                 (DLTA) (DLTA) (SG) (PI) (PI) (SG) (SG) (PI) (PI)
                 (SG) (SG) (PHI) (PHI) (DLTA) (DLTA) (PI) (PI)
                 (PI) (PI) (SG) (DLTA) (DLTA) (SG) (DLTA) (DLTA)
                 (PI) (PI) (SG) (PI) (PI) (SG) (PI) (PI) (SG) (?A)
                 (?A) (PHI) (PHI) (DLTA) (DLTA) (PI) (PI) (SG)
                 (SG) (PI) (PI) (DLTA) (DLTA) (SG) (PHI) (PHI)
                 (DLTA) (DLTA) (PI) (PI) (SG) (PHI) (PHI) (DLTA)
                 (DLTA) (PI) (PI) (SG) (SG) (DLTA) (DLTA) (PI)
                 (PI) (SG) (PI) (PI) (SG) (PI) (PI) (SG) (?A) (?A)
                 (PHI) (PHI) (DLTA) (DLTA) (PI) (PI) (DLTA) (DLTA)
                 (SG) (PI) (PI) (SG) (PHI) (PHI) (DLTA) (DLTA)
                 (PI) (PI) (SG) (PHI) (PHI) (DLTA) (DLTA) (PI)
                 (PI) (SG) (SG) (PI) (PI) (SG) (DLTA) (DLTA) (PI)
                 (PI) (SG) (SG)
    12 initial guesses have been made.
 Convergence on wavefunction:    0.001000000000000
 Davidson Disk Diagonalization:  ConvIn= 1.00D-03 SkipCon=T Conv= 1.00D-03.
 Max sub-space:  1476 roots to seek:    12 dimension of matrix:          738
 Iteration     1 Dimension    12 NMult     0 NNew     12
 CISAX will form    12 AO SS matrices at one time.
 NMat=    12 NSing=    12 JSym2X= 2.
 Excitation Energies [eV] at current iteration:
 Root      1 :     0.480069045894516
 Root      2 :     0.480069045894564
 Root      3 :     1.267263297652911
 Root      4 :     1.267263297652953
 Root      5 :     5.482210247236966
 Root      6 :     6.423545841424116
 Root      7 :     6.563713334743278
 Root      8 :     6.563713334743326
 Root      9 :    11.611229863058263
 Root     10 :    11.611229863058306
 Root     11 :    13.166416836087315
 Root     12 :    13.166416836087356
 Iteration     2 Dimension    24 NMult    12 NNew     12
 CISAX will form    12 AO SS matrices at one time.
 NMat=    12 NSing=    12 JSym2X= 2.
 Root      1 not converged, maximum delta is    0.078917233842971
 Excitation Energies [eV] at current iteration:
 Root      1 :     0.006410709707978   Change is   -0.473658336186538
 Root      2 :     0.006410709708020   Change is   -0.473658336186544
 Root      3 :     0.832024412913944   Change is   -0.435238884738967
 Root      4 :     0.832024412913974   Change is   -0.435238884738979
 Root      5 :     5.187608184767048   Change is   -0.294602062469919
 Root      6 :     5.993912420343460   Change is   -0.429633421080656
 Root      7 :     6.488814467345475   Change is   -0.074898867397804
 Root      8 :     6.488814467345493   Change is   -0.074898867397834
 Root      9 :     8.473662342807904   Change is   -3.137567520250401
 Root     10 :     8.473662342807959   Change is   -3.137567520250305
 Root     11 :    11.604185264387182   Change is   -1.562231571700176
 Root     12 :    11.604185264387205   Change is   -1.562231571700109
 Iteration     3 Dimension    27 NMult    24 NNew      3
 CISAX will form     3 AO SS matrices at one time.
 NMat=     3 NSing=     3 JSym2X= 2.
 Root      1 not converged, maximum delta is    0.221185235291645
 Excitation Energies [eV] at current iteration:
 Root      1 :     0.000591693630386   Change is   -0.005819016077592
 Root      2 :     0.000591695739625   Change is   -0.005819013968395
 Root      3 :     0.819387747782068   Change is   -0.012636665131876
 Iteration     4 Dimension    30 NMult    27 NNew      3
 CISAX will form     3 AO SS matrices at one time.
 NMat=     3 NSing=     3 JSym2X= 2.
 Root      1 has converged.
 Excitation Energies [eV] at current iteration:
 Root      1 :     0.000530353029641   Change is   -0.000061340600744
 Root      2 :     0.000530353660562   Change is   -0.000061342079063
 Root      3 :     0.819231971041120   Change is   -0.000155776740948
 Convergence achieved on expansion vectors.
 ***********************************************************************
 Stability analysis using <AA,BB:AA,BB> singles matrix:
 ***********************************************************************
 1PDM for each excited state written to RWF  633
 Ground to excited state transition densities written to RWF  633

 Eigenvectors of the stability matrix:
 
 Excited state symmetry could not be determined.
 Eigenvector   1:  2.272-?Sym  Eigenvalue= 0.0000195  <S**2>=1.041
      3B ->  5B       -0.36899
      3B ->  6B        0.57767
      3B -> 10B       -0.64796
      3B -> 21B        0.16211
      3B -> 22B       -0.23911
 The wavefunction is stable under the perturbations considered.
 Leave Link  914 at Sat May 21 19:11:59 2022, MaxMem=   104857600 cpu:               3.8 elap:               3.8
 (Enter /apps/software/g16/l508.exe)
 The wavefunction is already stable.
 Leave Link  508 at Sat May 21 19:11:59 2022, MaxMem=   104857600 cpu:               0.0 elap:               0.0
 (Enter /apps/software/g16/l601.exe)
 Copying SCF densities to generalized density rwf, IOpCl= 1 IROHF=0.

 **********************************************************************

            Population analysis using the SCF density.

 **********************************************************************

 Orbital symmetries:
 Alpha Orbitals:
       Occupied  (SG) (SG) (SG)
       Virtual   (PI) (PI) (SG) (SG) (SG) (PI) (PI) (SG) (PI) (PI)
                 (DLTA) (DLTA) (SG) (PI) (PI) (SG) (PI) (PI) (SG)
                 (SG) (SG) (PHI) (PHI) (DLTA) (DLTA) (PI) (PI)
                 (SG) (DLTA) (DLTA) (PI) (PI) (SG) (DLTA) (DLTA)
                 (PI) (PI) (SG) (PI) (PI) (SG) (PI) (PI) (SG) (?A)
                 (?A) (PHI) (PHI) (DLTA) (DLTA) (PI) (PI) (SG)
                 (DLTA) (DLTA) (SG) (PHI) (PHI) (PI) (PI) (DLTA)
                 (DLTA) (SG) (PI) (PI) (SG) (PHI) (PHI) (DLTA)
                 (DLTA) (PI) (PI) (SG) (SG) (DLTA) (DLTA) (PI)
                 (PI) (SG) (PI) (PI) (SG) (PI) (PI) (SG) (?A) (?A)
                 (PHI) (PHI) (DLTA) (DLTA) (DLTA) (DLTA) (PI) (PI)
                 (SG) (PI) (PI) (SG) (PHI) (PHI) (DLTA) (DLTA)
                 (PI) (PI) (SG) (PHI) (PHI) (DLTA) (DLTA) (PI)
                 (PI) (SG) (SG) (PI) (PI) (SG) (DLTA) (DLTA) (PI)
                 (PI) (SG) (SG)
 Beta  Orbitals:
       Occupied  (SG) (SG) (SG)
       Virtual   (SG) (PI) (PI) (SG) (SG) (PI) (PI) (SG) (PI) (PI)
                 (DLTA) (DLTA) (SG) (PI) (PI) (SG) (SG) (PI) (PI)
                 (SG) (SG) (PHI) (PHI) (DLTA) (DLTA) (PI) (PI)
                 (PI) (PI) (SG) (DLTA) (DLTA) (SG) (DLTA) (DLTA)
                 (PI) (PI) (SG) (PI) (PI) (SG) (PI) (PI) (SG) (?A)
                 (?A) (PHI) (PHI) (DLTA) (DLTA) (PI) (PI) (SG)
                 (SG) (PI) (PI) (DLTA) (DLTA) (SG) (PHI) (PHI)
                 (DLTA) (DLTA) (PI) (PI) (SG) (PHI) (PHI) (DLTA)
                 (DLTA) (PI) (PI) (SG) (SG) (DLTA) (DLTA) (PI)
                 (PI) (SG) (PI) (PI) (SG) (PI) (PI) (SG) (?A) (?A)
                 (PHI) (PHI) (DLTA) (DLTA) (PI) (PI) (DLTA) (DLTA)
                 (SG) (PI) (PI) (SG) (PHI) (PHI) (DLTA) (DLTA)
                 (PI) (PI) (SG) (PHI) (PHI) (DLTA) (DLTA) (PI)
                 (PI) (SG) (SG) (PI) (PI) (SG) (DLTA) (DLTA) (PI)
                 (PI) (SG) (SG)
 The electronic state is 1-SG.
 Alpha  occ. eigenvalues --   -7.68642  -0.49660  -0.44633
 Alpha virt. eigenvalues --    0.02733   0.02733   0.04362   0.05124   0.07468
 Alpha virt. eigenvalues --    0.08425   0.08425   0.11734   0.14224   0.14224
 Alpha virt. eigenvalues --    0.14570   0.14570   0.16467   0.19690   0.19690
 Alpha virt. eigenvalues --    0.25120   0.31998   0.31998   0.34343   0.36032
 Alpha virt. eigenvalues --    0.38941   0.46176   0.46176   0.47068   0.47068
 Alpha virt. eigenvalues --    0.47256   0.47256   0.49532   0.50145   0.50145
 Alpha virt. eigenvalues --    0.52545   0.52545   0.56790   0.61733   0.61733
 Alpha virt. eigenvalues --    0.64222   0.64222   0.68387   0.75929   0.75929
 Alpha virt. eigenvalues --    0.84330   1.06035   1.06035   1.12825   1.36969
 Alpha virt. eigenvalues --    1.36969   1.38440   1.38440   1.39484   1.39484
 Alpha virt. eigenvalues --    1.40181   1.40181   1.40632   1.41591   1.41591
 Alpha virt. eigenvalues --    1.42554   1.43972   1.43972   1.45587   1.45587
 Alpha virt. eigenvalues --    1.46344   1.46344   1.46865   1.47946   1.47946
 Alpha virt. eigenvalues --    1.51670   1.56168   1.56168   1.56279   1.56279
 Alpha virt. eigenvalues --    1.57290   1.57290   1.57461   1.64349   2.45137
 Alpha virt. eigenvalues --    2.45137   2.46092   2.46092   2.48341   2.55799
 Alpha virt. eigenvalues --    2.55799   2.62592   3.74440   3.74440   3.80463
 Alpha virt. eigenvalues --    3.92029   3.92029   3.94562   3.94562   3.96046
 Alpha virt. eigenvalues --    3.96046   3.96491   3.96491   3.97518   3.97518
 Alpha virt. eigenvalues --    3.98297   4.00309   4.00309   4.02553   4.08869
 Alpha virt. eigenvalues --    4.08869   4.12140   4.12140   4.14541   4.14541
 Alpha virt. eigenvalues --    4.17913   6.55431   6.55431   6.55454   6.55454
 Alpha virt. eigenvalues --    6.55585   6.55585   6.55890   7.40914   7.93585
 Alpha virt. eigenvalues --    7.93585   7.97679   8.39017   8.39017   8.39600
 Alpha virt. eigenvalues --    8.39600   8.41955  13.05579
  Beta  occ. eigenvalues --   -7.70156  -0.54537  -0.31882
  Beta virt. eigenvalues --    0.01836   0.02361   0.02361   0.05090   0.07304
  Beta virt. eigenvalues --    0.07727   0.07727   0.10963   0.14240   0.14240
  Beta virt. eigenvalues --    0.14563   0.14563   0.16866   0.21184   0.21184
  Beta virt. eigenvalues --    0.24273   0.30720   0.31180   0.31180   0.34305
  Beta virt. eigenvalues --    0.45116   0.46184   0.46184   0.46669   0.46669
  Beta virt. eigenvalues --    0.46760   0.46760   0.49536   0.49536   0.49587
  Beta virt. eigenvalues --    0.50037   0.50037   0.54697   0.63066   0.63066
  Beta virt. eigenvalues --    0.65470   0.65470   0.70066   0.82449   0.82449
  Beta virt. eigenvalues --    0.89154   1.05102   1.05102   1.05828   1.36997
  Beta virt. eigenvalues --    1.36997   1.37924   1.37924   1.38588   1.38588
  Beta virt. eigenvalues --    1.39059   1.39059   1.39138   1.39583   1.40693
  Beta virt. eigenvalues --    1.40693   1.41103   1.41103   1.42174   1.43908
  Beta virt. eigenvalues --    1.43908   1.44723   1.44723   1.45499   1.45499
  Beta virt. eigenvalues --    1.49111   1.57426   1.57426   1.57527   1.57527
  Beta virt. eigenvalues --    1.58355   1.58355   1.60213   1.72770   2.49085
  Beta virt. eigenvalues --    2.49085   2.50039   2.50039   2.52539   2.63245
  Beta virt. eigenvalues --    2.63245   2.69476   3.73724   3.73724   3.75596
  Beta virt. eigenvalues --    3.91960   3.91960   3.93472   3.93472   3.94553
  Beta virt. eigenvalues --    3.94553   3.95256   3.95256   3.95598   3.95598
  Beta virt. eigenvalues --    3.95898   3.96619   3.96619   3.97763   4.08601
  Beta virt. eigenvalues --    4.08601   4.09996   4.09996   4.11210   4.11210
  Beta virt. eigenvalues --    4.14108   6.58316   6.58316   6.58338   6.58338
  Beta virt. eigenvalues --    6.58467   6.58467   6.58770   7.49091   7.99378
  Beta virt. eigenvalues --    7.99378   8.03425   8.43240   8.43240   8.43819
  Beta virt. eigenvalues --    8.43819   8.46162  13.04402
          Condensed to atoms (all electrons):
               1          2
     1  B    4.999976  -0.000186
     2  H   -0.000186   1.000396
          Atomic-Atomic Spin Densities.
               1          2
     1  B   -1.000188  -0.000093
     2  H   -0.000093   1.000374
 Mulliken charges and spin densities:
               1          2
     1  B    0.000210  -1.000281
     2  H   -0.000210   1.000281
 Sum of Mulliken charges =  -0.00000   0.00000
 Mulliken charges and spin densities with hydrogens summed into heavy atoms:
               1          2
     1  B   -0.000000   0.000000
 Electronic spatial extent (au):  <R**2>=             87.4253
 Charge=             -0.0000 electrons
 Dipole moment (field-independent basis, Debye):
    X=              0.0000    Y=             -0.0000    Z=              0.0156  Tot=              0.0156
 Quadrupole moment (field-independent basis, Debye-Ang):
   XX=             -7.3063   YY=             -7.3063   ZZ=            -10.7560
   XY=              0.0000   XZ=              0.0000   YZ=             -0.0000
 Traceless Quadrupole moment (field-independent basis, Debye-Ang):
   XX=              1.1499   YY=              1.1499   ZZ=             -2.2998
   XY=              0.0000   XZ=              0.0000   YZ=             -0.0000
 Octapole moment (field-independent basis, Debye-Ang**2):
  XXX=              0.0000  YYY=             -0.0000  ZZZ=             -5.5876  XYY=              0.0000
  XXY=             -0.0000  XXZ=              0.6348  XZZ=              0.0000  YZZ=             -0.0000
  YYZ=              0.6348  XYZ=              0.0000
 Hexadecapole moment (field-independent basis, Debye-Ang**3):
 XXXX=            -10.7326 YYYY=            -10.7326 ZZZZ=           -189.6443 XXXY=              0.0000
 XXXZ=              0.0000 YYYX=              0.0000 YYYZ=             -0.0000 ZZZX=              0.0000
 ZZZY=              0.0000 XXYY=             -3.5775 XXZZ=            -30.7575 YYZZ=            -30.7575
 XXYZ=              0.0000 YYXZ=              0.0000 ZZXY=              0.0000
 N-N= 5.512262613750D-01 E-N=-5.900548508164D+01  KE= 2.503224876941D+01
 Symmetry A1   KE= 2.503224876941D+01
 Symmetry A2   KE= 4.567878430259D-30
 Symmetry B1   KE= 7.902490748857D-30
 Symmetry B2   KE= 1.477412309405D-29
 Symmetry A1   SP= 3.351996903989D-15
 Symmetry A2   SP=-6.459184628049D-31
 Symmetry B1   SP= 6.819695027572D-31
 Symmetry B2   SP= 8.498496959674D-31
                          Isotropic Fermi Contact Couplings
        Atom                 a.u.       MegaHertz       Gauss      10(-4) cm-1
     1  B(11)             -0.00216      -1.54682      -0.55194      -0.51596
     2  H(1)               0.29852     667.16522     238.06114     222.54236
 --------------------------------------------------------
       Center         ----  Spin Dipole Couplings  ----
                      3XX-RR        3YY-RR        3ZZ-RR
 --------------------------------------------------------
     1   Atom        0.330282      0.330282     -0.660563
     2   Atom        0.001708      0.001708     -0.003417
 --------------------------------------------------------
                        XY            XZ            YZ
 --------------------------------------------------------
     1   Atom        0.000000      0.000000      0.000000
     2   Atom        0.000000      0.000000      0.000000
 --------------------------------------------------------


 ---------------------------------------------------------------------------------
              Anisotropic Spin Dipole Couplings in Principal Axis System
 ---------------------------------------------------------------------------------

       Atom             a.u.   MegaHertz   Gauss  10(-4) cm-1        Axes

              Baa    -0.6606  -113.098   -40.356   -37.725  0.0000  0.0000  1.0000
     1 B(11)  Bbb     0.3303    56.549    20.178    18.863 -0.0000  1.0000  0.0000
              Bcc     0.3303    56.549    20.178    18.863  1.0000  0.0000  0.0000
 
              Baa    -0.0034    -1.823    -0.651    -0.608  0.0000  0.0000  1.0000
     2 H(1)   Bbb     0.0017     0.912     0.325     0.304  1.0000  0.0000  0.0000
              Bcc     0.0017     0.912     0.325     0.304 -0.0000  1.0000  0.0000
 

 ---------------------------------------------------------------------------------

 No NMR shielding tensors so no spin-rotation constants.
 Leave Link  601 at Sat May 21 19:11:59 2022, MaxMem=   104857600 cpu:               0.2 elap:               0.2
 (Enter /apps/software/g16/l9999.exe)
 1\1\GINC-CNODE03\Stability\UHF\Aug-CC-pVQZ\B1H1\LCZ\21-May-2022\0\\#p 
 UHF/aug-cc-pVQZ guess=mix stable=opt\\BH UHF at 4.8 Angstrom\\0,1\B,0,
 0.,0.,0.\H,0,4.8,0.,0.\\Version=ES64L-G16RevA.03\State=1-SG\HF=-25.032
 9445\S2=1.010844\S2-1=0.\S2A=0.089486\RMSD=5.752e-09\Dipole=-0.0061419
 ,0.,0.\Quadrupole=-1.7098235,0.8549117,0.8549117,0.,0.,0.\PG=C*V [C*(H
 1B1)]\\@


 THE ONLY TROUBLE WITH A SURE THING IS THE UNCERTAINTY.
     -- FROM A TEABAG (BELONGING TO W.H.?)
 Job cpu time:       0 days  0 hours  0 minutes  8.6 seconds.
 Elapsed time:       0 days  0 hours  0 minutes  8.5 seconds.
 File lengths (MBytes):  RWF=     29 Int=      0 D2E=      0 Chk=      4 Scr=      1
 Normal termination of Gaussian 16 at Sat May 21 19:11:59 2022.

Sender: Unischeduler System <lcz@mgt01>
Subject: Job 133640: <#!/bin/bash
#BSUB -J intel
#BSUB -o BH-4.8-G.out
#BSUB -n 8
#BSUB -q cqueue
#BSUB -R span[hosts=1]
export g16root=/apps/software
source /apps/software/g16/bsd/g16.profile
export GAUSS_SCRDIR=/scratch
/apps/software/g16/g16 < BH-4.8-G.inp > BH-4.8-G.out> Done

Job <#!/bin/bash
#BSUB -J intel
#BSUB -o BH-4.8-G.out
#BSUB -n 8
#BSUB -q cqueue
#BSUB -R span[hosts=1]
export g16root=/apps/software
source /apps/software/g16/bsd/g16.profile
export GAUSS_SCRDIR=/scratch
/apps/software/g16/g16 < BH-4.8-G.inp > BH-4.8-G.out> was submitted from host <mgt01> by user <lcz>.
Job was executed on host(s) <8*cnode03>, in queue <cqueue>, as user <lcz>.
</apps/users/lcz> was used as the home directory.
</apps/users/lcz/exe13/UHF> was used as the working directory.
Started at 2022-05-21 19:11:50
Results reported at 2022-05-21 19:11:59

Your job looked like:

------------------------------------------------------------
# User input
#!/bin/bash
#BSUB -J intel
#BSUB -o BH-4.8-G.out
#BSUB -n 8
#BSUB -q cqueue
#BSUB -R span[hosts=1]
export g16root=/apps/software
source /apps/software/g16/bsd/g16.profile
export GAUSS_SCRDIR=/scratch
/apps/software/g16/g16 < BH-4.8-G.inp > BH-4.8-G.out
------------------------------------------------------------

Successfully completed.

Resource usage summary:

    CPU time   :            0.02 sec.
    Max Memory :                 7 MB
    Max Processes  :               2


The output (if any) follows:

