 Entering Gaussian System, Link 0=/apps/software/g16/g16
 Initial command:
 /apps/software/g16/l1.exe "/scratch/Gau-364799.inp" -scrdir="/scratch/"
 Entering Link 1 = /apps/software/g16/l1.exe PID=    364800.
  
 Copyright (c) 1988,1990,1992,1993,1995,1998,2003,2009,2016,
            Gaussian, Inc.  All Rights Reserved.
  
 This is part of the Gaussian(R) 16 program.  It is based on
 the Gaussian(R) 09 system (copyright 2009, Gaussian, Inc.),
 the Gaussian(R) 03 system (copyright 2003, Gaussian, Inc.),
 the Gaussian(R) 98 system (copyright 1998, Gaussian, Inc.),
 the Gaussian(R) 94 system (copyright 1995, Gaussian, Inc.),
 the Gaussian 92(TM) system (copyright 1992, Gaussian, Inc.),
 the Gaussian 90(TM) system (copyright 1990, Gaussian, Inc.),
 the Gaussian 88(TM) system (copyright 1988, Gaussian, Inc.),
 the Gaussian 86(TM) system (copyright 1986, Carnegie Mellon
 University), and the Gaussian 82(TM) system (copyright 1983,
 Carnegie Mellon University). Gaussian is a federally registered
 trademark of Gaussian, Inc.
  
 This software contains proprietary and confidential information,
 including trade secrets, belonging to Gaussian, Inc.
  
 This software is provided under written license and may be
 used, copied, transmitted, or stored only in accord with that
 written license.
  
 The following legend is applicable only to US Government
 contracts under FAR:
  
                    RESTRICTED RIGHTS LEGEND
  
 Use, reproduction and disclosure by the US Government is
 subject to restrictions as set forth in subparagraphs (a)
 and (c) of the Commercial Computer Software - Restricted
 Rights clause in FAR 52.227-19.
  
 Gaussian, Inc.
 340 Quinnipiac St., Bldg. 40, Wallingford CT 06492
  
  
 ---------------------------------------------------------------
 Warning -- This program may not be used in any manner that
 competes with the business of Gaussian, Inc. or will provide
 assistance to any competitor of Gaussian, Inc.  The licensee
 of this program is prohibited from giving any competitor of
 Gaussian, Inc. access to this program.  By using this program,
 the user acknowledges that Gaussian, Inc. is engaged in the
 business of creating and licensing software in the field of
 computational chemistry and represents and warrants to the
 licensee that it is not a competitor of Gaussian, Inc. and that
 it will not use this program in any manner prohibited above.
 ---------------------------------------------------------------
  

 Cite this work as:
 Gaussian 16, Revision A.03,
 M. J. Frisch, G. W. Trucks, H. B. Schlegel, G. E. Scuseria, 
 M. A. Robb, J. R. Cheeseman, G. Scalmani, V. Barone, 
 G. A. Petersson, H. Nakatsuji, X. Li, M. Caricato, A. V. Marenich, 
 J. Bloino, B. G. Janesko, R. Gomperts, B. Mennucci, H. P. Hratchian, 
 J. V. Ortiz, A. F. Izmaylov, J. L. Sonnenberg, D. Williams-Young, 
 F. Ding, F. Lipparini, F. Egidi, J. Goings, B. Peng, A. Petrone, 
 T. Henderson, D. Ranasinghe, V. G. Zakrzewski, J. Gao, N. Rega, 
 G. Zheng, W. Liang, M. Hada, M. Ehara, K. Toyota, R. Fukuda, 
 J. Hasegawa, M. Ishida, T. Nakajima, Y. Honda, O. Kitao, H. Nakai, 
 T. Vreven, K. Throssell, J. A. Montgomery, Jr., J. E. Peralta, 
 F. Ogliaro, M. J. Bearpark, J. J. Heyd, E. N. Brothers, K. N. Kudin, 
 V. N. Staroverov, T. A. Keith, R. Kobayashi, J. Normand, 
 K. Raghavachari, A. P. Rendell, J. C. Burant, S. S. Iyengar, 
 J. Tomasi, M. Cossi, J. M. Millam, M. Klene, C. Adamo, R. Cammi, 
 J. W. Ochterski, R. L. Martin, K. Morokuma, O. Farkas, 
 J. B. Foresman, and D. J. Fox, Gaussian, Inc., Wallingford CT, 2016.
 
 ******************************************
 Gaussian 16:  ES64L-G16RevA.03 25-Dec-2016
                21-May-2022 
 ******************************************
 %chk=BH-4.6-G.chk
 --------------------------------------------------------
 #p UHF/aug-cc-pVQZ guess=mix stable=opt SCF=MaxCycle=500
 --------------------------------------------------------
 1/38=1,172=1/1;
 2/12=2,17=6,18=5,40=1/2;
 3/5=16,6=2,7=10,11=2,25=1,30=1,116=2/1,2,3;
 4/13=-1/1;
 5/5=2,7=500,38=5/2;
 6/7=2,8=2,9=2,10=2,28=1/1;
 8/6=1,10=90,11=11/1;
 9/8=-3,42=1,46=1/14;
 5/5=2,7=500,8=3,17=40,38=5/8(-2);
 6/7=2,8=2,9=2,10=2,28=1/1;
 99/5=1,9=1/99;
 Leave Link    1 at Sat May 21 21:21:43 2022, MaxMem=           0 cpu:               0.0 elap:               0.0
 (Enter /apps/software/g16/l101.exe)
 ----------------------
 BH UHF at 4.6 Angstrom
 ----------------------
 Symbolic Z-matrix:
 Charge =  0 Multiplicity = 1
 B                     0.        0.        0. 
 H                     4.6       0.        0. 
 
 ITRead=  0  0
 MicOpt= -1 -1
 NAtoms=      2 NQM=        2 NQMF=       0 NMMI=      0 NMMIF=      0
                NMic=       0 NMicF=      0.
                    Isotopes and Nuclear Properties:
 (Nuclear quadrupole moments (NQMom) in fm**2, nuclear magnetic moments (NMagM)
  in nuclear magnetons)

  Atom         1           2
 IAtWgt=          11           1
 AtmWgt=  11.0093053   1.0078250
 NucSpn=           3           1
 AtZEff=  -0.0000000  -0.0000000
 NQMom=    4.0590000   0.0000000
 NMagM=    2.6886370   2.7928460
 AtZNuc=   5.0000000   1.0000000
 Leave Link  101 at Sat May 21 21:21:43 2022, MaxMem=   104857600 cpu:               0.1 elap:               0.1
 (Enter /apps/software/g16/l202.exe)
                          Input orientation:                          
 ---------------------------------------------------------------------
 Center     Atomic      Atomic             Coordinates (Angstroms)
 Number     Number       Type             X           Y           Z
 ---------------------------------------------------------------------
      1          5           0        0.000000    0.000000    0.000000
      2          1           0        4.600000    0.000000    0.000000
 ---------------------------------------------------------------------
 Stoichiometry    BH
 Framework group  C*V[C*(HB)]
 Deg. of freedom     1
 Full point group                 C*V     NOp   4
 Largest Abelian subgroup         C2V     NOp   4
 Largest concise Abelian subgroup C1      NOp   1
                         Standard orientation:                         
 ---------------------------------------------------------------------
 Center     Atomic      Atomic             Coordinates (Angstroms)
 Number     Number       Type             X           Y           Z
 ---------------------------------------------------------------------
      1          5           0        0.000000    0.000000    0.766667
      2          1           0        0.000000    0.000000   -3.833333
 ---------------------------------------------------------------------
 Rotational constants (GHZ):           0.0000000          25.8676663          25.8676663
 Leave Link  202 at Sat May 21 21:21:43 2022, MaxMem=   104857600 cpu:               0.0 elap:               0.0
 (Enter /apps/software/g16/l301.exe)
 Standard basis: Aug-CC-pVQZ (5D, 7F)
 Ernie: Thresh=  0.10000D-02 Tol=  0.10000D-05 Strict=F.
 Ernie:  4 primitive shells out of 54 were deleted.
 There are    68 symmetry adapted cartesian basis functions of A1  symmetry.
 There are    18 symmetry adapted cartesian basis functions of A2  symmetry.
 There are    37 symmetry adapted cartesian basis functions of B1  symmetry.
 There are    37 symmetry adapted cartesian basis functions of B2  symmetry.
 There are    50 symmetry adapted basis functions of A1  symmetry.
 There are    16 symmetry adapted basis functions of A2  symmetry.
 There are    30 symmetry adapted basis functions of B1  symmetry.
 There are    30 symmetry adapted basis functions of B2  symmetry.
   126 basis functions,   180 primitive gaussians,   160 cartesian basis functions
     3 alpha electrons        3 beta electrons
       nuclear repulsion energy         0.5751926206 Hartrees.
 IExCor=    0 DFT=F Ex=HF Corr=None ExCW=0 ScaHFX=  1.000000
 ScaDFX=  1.000000  1.000000  1.000000  1.000000 ScalE2=  1.000000  1.000000
 IRadAn=      5 IRanWt=     -1 IRanGd=            0 ICorTp=0 IEmpDi=  4
 NAtoms=    2 NActive=    2 NUniq=    2 SFac= 1.00D+00 NAtFMM=   60 NAOKFM=F Big=F
 Integral buffers will be    131072 words long.
 Raffenetti 2 integral format.
 Two-electron integral symmetry is turned on.
 Leave Link  301 at Sat May 21 21:21:43 2022, MaxMem=   104857600 cpu:               0.1 elap:               0.1
 (Enter /apps/software/g16/l302.exe)
 NPDir=0 NMtPBC=     1 NCelOv=     1 NCel=       1 NClECP=     1 NCelD=      1
         NCelK=      1 NCelE2=     1 NClLst=     1 CellRange=     0.0.
 One-electron integrals computed using PRISM.
 One-electron integral symmetry used in STVInt
 NBasis=   126 RedAO= T EigKep=  1.19D-02  NBF=    50    16    30    30
 NBsUse=   126 1.00D-06 EigRej= -1.00D+00 NBFU=    50    16    30    30
 Leave Link  302 at Sat May 21 21:21:43 2022, MaxMem=   104857600 cpu:               0.1 elap:               0.1
 (Enter /apps/software/g16/l303.exe)
 DipDrv:  MaxL=1.
 Leave Link  303 at Sat May 21 21:21:43 2022, MaxMem=   104857600 cpu:               0.0 elap:               0.0
 (Enter /apps/software/g16/l401.exe)
 ExpMin= 1.88D-02 ExpMax= 2.39D+04 ExpMxC= 2.30D+02 IAcc=3 IRadAn=         5 AccDes= 0.00D+00
 Harris functional with IExCor=  205 and IRadAn=       5 diagonalized for initial guess.
 HarFok:  IExCor=  205 AccDes= 0.00D+00 IRadAn=         5 IDoV= 1 UseB2=F ITyADJ=14
 ICtDFT=  3500011 ScaDFX=  1.000000  1.000000  1.000000  1.000000
 FoFCou: FMM=F IPFlag=           0 FMFlag=      100000 FMFlg1=           0
         NFxFlg=           0 DoJE=T BraDBF=F KetDBF=T FulRan=T
         wScrn=  0.000000 ICntrl=       500 IOpCl=  0 I1Cent=   200000004 NGrid=           0
         NMat0=    1 NMatS0=      1 NMatT0=    0 NMatD0=    1 NMtDS0=    0 NMtDT0=    0
 Petite list used in FoFCou.
 Harris En= -24.9885798187323    
 JPrj=0 DoOrth=F DoCkMO=T.
 Mixing orbitals, IMix= 1 IMixAn=  0 NRI=1 NE=    3 Coef=  7.07106781D-01  7.07106781D-01
 Mixing orbitals, IMix= 1 IMixAn=  0 NRI=1 NE=    3 Coef= -7.07106781D-01  7.07106781D-01
 Initial guess orbital symmetries:
 Alpha Orbitals:
       Occupied  (SG) (SG) (?A)
       Virtual   (?A) (?A) (SG) (SG) (PI) (PI) (SG) (SG) (PI) (PI)
                 (SG) (DLTA) (DLTA) (PI) (PI) (SG) (PI) (PI) (SG)
                 (SG) (SG) (SG) (PI) (PI) (DLTA) (DLTA) (PI) (PI)
                 (DLTA) (DLTA) (PHI) (PHI) (SG) (DLTA) (DLTA) (PI)
                 (PI) (SG) (PI) (PI) (SG) (PI) (PI) (SG) (SG) (DLTA)
                 (DLTA) (PI) (PI) (SG) (DLTA) (?B) (DLTA) (PHI)
                 (PHI) (?B) (PI) (PI) (SG) (DLTA) (DLTA) (PHI)
                 (PHI) (PI) (PI) (SG) (SG) (PHI) (PHI) (DLTA) (DLTA)
                 (PI) (PI) (SG) (DLTA) (DLTA) (PI) (PI) (SG) (PI)
                 (PI) (SG) (PI) (PI) (SG) (DLTA) (DLTA) (PI) (PI)
                 (SG) (DLTA) (?B) (?C) (?C) (?B) (DLTA) (?C) (?C)
                 (SG) (PHI) (PHI) (DLTA) (DLTA) (PI) (PI) (SG)
                 (PHI) (PHI) (DLTA) (DLTA) (PI) (PI) (SG) (SG)
                 (PI) (PI) (SG) (DLTA) (DLTA) (PI) (PI) (SG) (SG)
 Beta  Orbitals:
       Occupied  (SG) (SG) (?A)
       Virtual   (?A) (?A) (SG) (SG) (PI) (PI) (SG) (SG) (PI) (PI)
                 (SG) (DLTA) (DLTA) (PI) (PI) (SG) (PI) (PI) (SG)
                 (SG) (SG) (SG) (PI) (PI) (DLTA) (DLTA) (PI) (PI)
                 (DLTA) (DLTA) (PHI) (PHI) (SG) (DLTA) (DLTA) (PI)
                 (PI) (SG) (PI) (PI) (SG) (PI) (PI) (SG) (SG) (DLTA)
                 (DLTA) (PI) (PI) (SG) (DLTA) (?B) (DLTA) (PHI)
                 (PHI) (?B) (PI) (PI) (SG) (DLTA) (DLTA) (PHI)
                 (PHI) (PI) (PI) (SG) (SG) (PHI) (PHI) (DLTA) (DLTA)
                 (PI) (PI) (SG) (DLTA) (DLTA) (PI) (PI) (SG) (PI)
                 (PI) (SG) (PI) (PI) (SG) (DLTA) (DLTA) (PI) (PI)
                 (SG) (DLTA) (?B) (?C) (?C) (?B) (DLTA) (?C) (?C)
                 (SG) (PHI) (PHI) (DLTA) (DLTA) (PI) (PI) (SG)
                 (PHI) (PHI) (DLTA) (DLTA) (PI) (PI) (SG) (SG)
                 (PI) (PI) (SG) (DLTA) (DLTA) (PI) (PI) (SG) (SG)
 Initial guess <Sx>= 0.0000 <Sy>= 0.0000 <Sz>= 0.0000 <S**2>= 1.0000 S= 0.6180
 Leave Link  401 at Sat May 21 21:21:43 2022, MaxMem=   104857600 cpu:               0.2 elap:               0.2
 (Enter /apps/software/g16/l502.exe)
 Keep R1 and R2 ints in memory in symmetry-blocked form, NReq=40143665.
 FoFCou: FMM=F IPFlag=           0 FMFlag=           0 FMFlg1=           0
         NFxFlg=           0 DoJE=F BraDBF=F KetDBF=F FulRan=T
         wScrn=  0.000000 ICntrl=       600 IOpCl=  0 I1Cent=           0 NGrid=           0
         NMat0=    1 NMatS0=   8001 NMatT0=    0 NMatD0=    1 NMtDS0=    0 NMtDT0=    0
 Petite list used in FoFCou.
 UHF open shell SCF:
 Using DIIS extrapolation, IDIIS=  1040.
 NGot=   104857600 LenX=    88563632 LenY=    88537591
 Requested convergence on RMS density matrix=1.00D-08 within 500 cycles.
 Requested convergence on MAX density matrix=1.00D-06.
 Requested convergence on             energy=1.00D-06.
 No special actions if energy rises.
 An orbital has undefined symmetry, so N**3 symmetry is turned off.

 Cycle   1  Pass 1  IDiag  1:
 Density matrix breaks symmetry, PCut= 1.00D-07
 Density matrix has no symmetry -- integrals replicated.
 E= -24.8280472335762    
 DIIS: error= 3.24D-02 at cycle   1 NSaved=   1.
 NSaved= 1 IEnMin= 1 EnMin= -24.8280472335762     IErMin= 1 ErrMin= 3.24D-02
 ErrMax= 3.24D-02  0.00D+00 EMaxC= 1.00D-01 BMatC= 1.48D-01 BMatP= 1.48D-01
 IDIUse=3 WtCom= 6.76D-01 WtEn= 3.24D-01
 Coeff-Com:  0.100D+01
 Coeff-En:   0.100D+01
 Coeff:      0.100D+01
 Gap=     0.114 Goal=   None    Shift=    0.000
 Gap=     0.114 Goal=   None    Shift=    0.000
 GapD=    0.114 DampG=1.000 DampE=0.500 DampFc=0.5000 IDamp=-1.
 Damping current iteration by 5.00D-01
 RMSDP=1.85D-03 MaxDP=8.93D-02              OVMax= 3.91D-01

 Cycle   2  Pass 1  IDiag  1:
 Density matrix breaks symmetry, PCut= 1.00D-07
 Density matrix has no symmetry -- integrals replicated.
 E= -24.8458685925991     Delta-E=       -0.017821359023 Rises=F Damp=T
 DIIS: error= 1.97D-02 at cycle   2 NSaved=   2.
 NSaved= 2 IEnMin= 2 EnMin= -24.8458685925991     IErMin= 2 ErrMin= 1.97D-02
 ErrMax= 1.97D-02  0.00D+00 EMaxC= 1.00D-01 BMatC= 5.01D-02 BMatP= 1.48D-01
 IDIUse=3 WtCom= 8.03D-01 WtEn= 1.97D-01
 Coeff-Com: -0.542D+00 0.154D+01
 Coeff-En:   0.000D+00 0.100D+01
 Coeff:     -0.435D+00 0.144D+01
 Gap=     0.066 Goal=   None    Shift=    0.000
 Gap=     0.066 Goal=   None    Shift=    0.000
 RMSDP=1.38D-03 MaxDP=5.86D-02 DE=-1.78D-02 OVMax= 3.64D-01

 Cycle   3  Pass 1  IDiag  1:
 Density matrix breaks symmetry, PCut= 1.00D-07
 Density matrix has no symmetry -- integrals replicated.
 E= -24.8456045502754     Delta-E=        0.000264042324 Rises=F Damp=F
 DIIS: error= 2.13D-02 at cycle   3 NSaved=   3.
 NSaved= 3 IEnMin= 2 EnMin= -24.8458685925991     IErMin= 2 ErrMin= 1.97D-02
 ErrMax= 2.13D-02  0.00D+00 EMaxC= 1.00D-01 BMatC= 2.43D-02 BMatP= 5.01D-02
 IDIUse=3 WtCom= 7.87D-01 WtEn= 2.13D-01
 Coeff-Com: -0.489D+00 0.864D+00 0.625D+00
 Coeff-En:   0.000D+00 0.509D+00 0.491D+00
 Coeff:     -0.385D+00 0.789D+00 0.596D+00
 Gap=     0.108 Goal=   None    Shift=    0.000
 Gap=     0.108 Goal=   None    Shift=    0.000
 RMSDP=1.19D-03 MaxDP=4.90D-02 DE= 2.64D-04 OVMax= 2.66D-01

 Cycle   4  Pass 1  IDiag  1:
 Density matrix breaks symmetry, PCut= 1.00D-07
 Density matrix has no symmetry -- integrals replicated.
 E= -24.8702853295149     Delta-E=       -0.024680779239 Rises=F Damp=F
 DIIS: error= 5.37D-03 at cycle   4 NSaved=   4.
 NSaved= 4 IEnMin= 4 EnMin= -24.8702853295149     IErMin= 4 ErrMin= 5.37D-03
 ErrMax= 5.37D-03  0.00D+00 EMaxC= 1.00D-01 BMatC= 4.81D-03 BMatP= 2.43D-02
 IDIUse=3 WtCom= 9.46D-01 WtEn= 5.37D-02
 Coeff-Com:  0.284D+00-0.568D+00 0.934D-01 0.119D+01
 Coeff-En:   0.000D+00 0.000D+00 0.553D-01 0.945D+00
 Coeff:      0.269D+00-0.537D+00 0.913D-01 0.118D+01
 Gap=     0.115 Goal=   None    Shift=    0.000
 Gap=     0.115 Goal=   None    Shift=    0.000
 RMSDP=5.33D-04 MaxDP=1.87D-02 DE=-2.47D-02 OVMax= 8.90D-02

 Cycle   5  Pass 1  IDiag  1:
 Density matrix breaks symmetry, PCut= 1.00D-07
 Density matrix has no symmetry -- integrals replicated.
 E= -24.8759389098487     Delta-E=       -0.005653580334 Rises=F Damp=F
 DIIS: error= 2.52D-03 at cycle   5 NSaved=   5.
 NSaved= 5 IEnMin= 5 EnMin= -24.8759389098487     IErMin= 5 ErrMin= 2.52D-03
 ErrMax= 2.52D-03  0.00D+00 EMaxC= 1.00D-01 BMatC= 4.87D-04 BMatP= 4.81D-03
 IDIUse=3 WtCom= 9.75D-01 WtEn= 2.52D-02
 Coeff-Com: -0.195D+00 0.374D+00-0.170D-01-0.505D+00 0.134D+01
 Coeff-En:   0.000D+00 0.000D+00 0.000D+00 0.000D+00 0.100D+01
 Coeff:     -0.190D+00 0.364D+00-0.165D-01-0.492D+00 0.133D+01
 Gap=     0.122 Goal=   None    Shift=    0.000
 Gap=     0.122 Goal=   None    Shift=    0.000
 RMSDP=2.90D-04 MaxDP=9.13D-03 DE=-5.65D-03 OVMax= 6.39D-02

 Cycle   6  Pass 1  IDiag  1:
 Density matrix breaks symmetry, PCut= 1.00D-07
 Density matrix has no symmetry -- integrals replicated.
 E= -24.8783829742018     Delta-E=       -0.002444064353 Rises=F Damp=F
 DIIS: error= 2.20D-03 at cycle   6 NSaved=   6.
 NSaved= 6 IEnMin= 6 EnMin= -24.8783829742018     IErMin= 6 ErrMin= 2.20D-03
 ErrMax= 2.20D-03  0.00D+00 EMaxC= 1.00D-01 BMatC= 4.41D-04 BMatP= 4.87D-04
 IDIUse=3 WtCom= 9.78D-01 WtEn= 2.20D-02
 Coeff-Com: -0.196D+00 0.376D+00-0.121D-01-0.511D+00 0.124D+01 0.100D+00
 Coeff-En:   0.000D+00 0.000D+00 0.000D+00 0.000D+00 0.000D+00 0.100D+01
 Coeff:     -0.192D+00 0.367D+00-0.119D-01-0.500D+00 0.122D+01 0.120D+00
 Gap=     0.122 Goal=   None    Shift=    0.000
 Gap=     0.122 Goal=   None    Shift=    0.000
 RMSDP=3.22D-05 MaxDP=1.11D-03 DE=-2.44D-03 OVMax= 7.09D-03

 Cycle   7  Pass 1  IDiag  1:
 Density matrix breaks symmetry, PCut= 1.00D-07
 Density matrix has no symmetry -- integrals replicated.
 E= -24.8786545678141     Delta-E=       -0.000271593612 Rises=F Damp=F
 DIIS: error= 2.16D-03 at cycle   7 NSaved=   7.
 NSaved= 7 IEnMin= 7 EnMin= -24.8786545678141     IErMin= 7 ErrMin= 2.16D-03
 ErrMax= 2.16D-03  0.00D+00 EMaxC= 1.00D-01 BMatC= 4.34D-04 BMatP= 4.41D-04
 IDIUse=3 WtCom= 9.78D-01 WtEn= 2.16D-02
 Large coefficients: NSaved=  7 BigCof=  117.83 CofMax=   10.00 Det=-1.82D-08
 Inversion failed.  Reducing to  6 matrices.
 Large coefficients: NSaved=  6 BigCof=   94.45 CofMax=   10.00 Det=-3.03D-08
 Inversion failed.  Reducing to  5 matrices.
 Large coefficients: NSaved=  5 BigCof=   75.05 CofMax=   10.00 Det=-3.51D-08
 Inversion failed.  Reducing to  4 matrices.
 Large coefficients: NSaved=  4 BigCof=   72.19 CofMax=   10.00 Det=-3.64D-08
 Inversion failed.  Reducing to  3 matrices.
 Large coefficients: NSaved=  3 BigCof=   24.48 CofMax=   10.00 Det=-1.18D-07
 Inversion failed.  Reducing to  2 matrices.
 Large coefficients: NSaved=  2 BigCof=   11.49 CofMax=   10.00 Det=-3.14D-07
 Coeff-Com: -0.105D+02 0.115D+02
 Coeff-En:   0.000D+00 0.100D+01
 Coeff:     -0.103D+02 0.113D+02
 Gap=     0.125 Goal=   None    Shift=    0.000
 Gap=     0.125 Goal=   None    Shift=    0.000
 RMSDP=5.11D-04 MaxDP=1.69D-02 DE=-2.72D-04 OVMax= 1.13D-01

 Cycle   8  Pass 1  IDiag  1:
 Density matrix breaks symmetry, PCut= 1.00D-07
 Density matrix has no symmetry -- integrals replicated.
 E= -24.8824565558293     Delta-E=       -0.003801988015 Rises=F Damp=F
 DIIS: error= 2.49D-03 at cycle   8 NSaved=   3.
 NSaved= 3 IEnMin= 3 EnMin= -24.8824565558293     IErMin= 2 ErrMin= 2.16D-03
 ErrMax= 2.49D-03  0.00D+00 EMaxC= 1.00D-01 BMatC= 3.02D-04 BMatP= 4.34D-04
 IDIUse=3 WtCom= 9.78D-01 WtEn= 2.16D-02
 Large coefficients: NSaved=  3 BigCof=   64.40 CofMax=   10.00 Det=-4.16D-08
 Inversion failed.  Reducing to  2 matrices.
 Coeff-Com:  0.164D+00 0.836D+00
 Coeff-En:   0.000D+00 0.100D+01
 Coeff:      0.160D+00 0.840D+00
 Gap=     0.128 Goal=   None    Shift=    0.000
 Gap=     0.128 Goal=   None    Shift=    0.000
 RMSDP=1.20D-04 MaxDP=3.71D-03 DE=-3.80D-03 OVMax= 2.66D-02

 Cycle   9  Pass 1  IDiag  1:
 Density matrix breaks symmetry, PCut= 1.00D-07
 Density matrix has no symmetry -- integrals replicated.
 E= -24.8830095311472     Delta-E=       -0.000552975318 Rises=F Damp=F
 DIIS: error= 1.73D-03 at cycle   9 NSaved=   3.
 NSaved= 3 IEnMin= 3 EnMin= -24.8830095311472     IErMin= 3 ErrMin= 1.73D-03
 ErrMax= 1.73D-03  0.00D+00 EMaxC= 1.00D-01 BMatC= 2.43D-04 BMatP= 3.02D-04
 IDIUse=3 WtCom= 9.83D-01 WtEn= 1.73D-02
 Coeff-Com: -0.168D+01 0.533D+00 0.215D+01
 Coeff-En:   0.000D+00 0.000D+00 0.100D+01
 Coeff:     -0.166D+01 0.524D+00 0.213D+01
 Gap=     0.133 Goal=   None    Shift=    0.000
 Gap=     0.133 Goal=   None    Shift=    0.000
 RMSDP=8.45D-04 MaxDP=2.45D-02 DE=-5.53D-04 OVMax= 1.85D-01

 Cycle  10  Pass 1  IDiag  1:
 Density matrix breaks symmetry, PCut= 1.00D-07
 Density matrix has no symmetry -- integrals replicated.
 E= -24.8819045276240     Delta-E=        0.001105003523 Rises=F Damp=F
 DIIS: error= 5.52D-03 at cycle  10 NSaved=   4.
 NSaved= 4 IEnMin= 3 EnMin= -24.8830095311472     IErMin= 3 ErrMin= 1.73D-03
 ErrMax= 5.52D-03  0.00D+00 EMaxC= 1.00D-01 BMatC= 2.85D-03 BMatP= 2.43D-04
 IDIUse=3 WtCom= 9.83D-01 WtEn= 1.73D-02
 Rare condition: small coef for last iteration:  0.000D+00
 Coeff-Com:  0.124D+00-0.955D+00 0.148D+01 0.351D+00
 Coeff-En:   0.000D+00 0.000D+00 0.000D+00 0.100D+01
 Coeff:      0.124D+00-0.955D+00 0.148D+01 0.351D+00
 Gap=     0.127 Goal=   None    Shift=    0.000
 Gap=     0.127 Goal=   None    Shift=    0.000
 RMSDP=5.21D-04 MaxDP=1.98D-02 DE= 1.11D-03 OVMax= 1.14D-01

 Cycle  11  Pass 1  IDiag  1:
 Density matrix breaks symmetry, PCut= 1.00D-07
 Density matrix has no symmetry -- integrals replicated.
 E= -24.8848044125572     Delta-E=       -0.002899884933 Rises=F Damp=F
 DIIS: error= 1.23D-03 at cycle  11 NSaved=   5.
 NSaved= 5 IEnMin= 5 EnMin= -24.8848044125572     IErMin= 5 ErrMin= 1.23D-03
 ErrMax= 1.23D-03  0.00D+00 EMaxC= 1.00D-01 BMatC= 1.18D-04 BMatP= 2.43D-04
 IDIUse=3 WtCom= 9.88D-01 WtEn= 1.23D-02
 Coeff-Com:  0.746D+00 0.277D+00-0.248D+01 0.647D-01 0.239D+01
 Coeff-En:   0.000D+00 0.000D+00 0.000D+00 0.000D+00 0.100D+01
 Coeff:      0.737D+00 0.274D+00-0.245D+01 0.639D-01 0.237D+01
 Gap=     0.131 Goal=   None    Shift=    0.000
 Gap=     0.131 Goal=   None    Shift=    0.000
 RMSDP=2.28D-04 MaxDP=7.18D-03 DE=-2.90D-03 OVMax= 5.17D-02

 Cycle  12  Pass 1  IDiag  1:
 Density matrix breaks symmetry, PCut= 1.00D-07
 Density matrix has no symmetry -- integrals replicated.
 E= -24.8851006938125     Delta-E=       -0.000296281255 Rises=F Damp=F
 DIIS: error= 1.77D-03 at cycle  12 NSaved=   6.
 NSaved= 6 IEnMin= 6 EnMin= -24.8851006938125     IErMin= 5 ErrMin= 1.23D-03
 ErrMax= 1.77D-03  0.00D+00 EMaxC= 1.00D-01 BMatC= 2.50D-04 BMatP= 1.18D-04
 IDIUse=3 WtCom= 9.88D-01 WtEn= 1.23D-02
 Coeff-Com: -0.629D+00 0.338D+00 0.105D+01 0.327D+00-0.234D+01 0.226D+01
 Coeff-En:   0.000D+00 0.000D+00 0.000D+00 0.000D+00 0.000D+00 0.100D+01
 Coeff:     -0.621D+00 0.334D+00 0.104D+01 0.323D+00-0.232D+01 0.224D+01
 Gap=     0.133 Goal=   None    Shift=    0.000
 Gap=     0.133 Goal=   None    Shift=    0.000
 RMSDP=3.83D-04 MaxDP=1.19D-02 DE=-2.96D-04 OVMax= 8.40D-02

 Cycle  13  Pass 1  IDiag  1:
 Density matrix breaks symmetry, PCut= 1.00D-07
 Density matrix has no symmetry -- integrals replicated.
 E= -24.8849386172439     Delta-E=        0.000162076569 Rises=F Damp=F
 DIIS: error= 2.50D-03 at cycle  13 NSaved=   7.
 NSaved= 7 IEnMin= 6 EnMin= -24.8851006938125     IErMin= 5 ErrMin= 1.23D-03
 ErrMax= 2.50D-03  0.00D+00 EMaxC= 1.00D-01 BMatC= 4.85D-04 BMatP= 1.18D-04
 IDIUse=3 WtCom= 9.88D-01 WtEn= 1.23D-02
 Rare condition: small coef for last iteration:  0.000D+00
 Coeff-Com: -0.379D+00 0.321D+00 0.312D+00-0.104D+00-0.629D+00 0.913D+00
 Coeff-Com:  0.565D+00
 Coeff-En:   0.000D+00 0.000D+00 0.000D+00 0.000D+00 0.000D+00 0.000D+00
 Coeff-En:   0.100D+01
 Coeff:     -0.379D+00 0.321D+00 0.312D+00-0.104D+00-0.629D+00 0.913D+00
 Coeff:      0.565D+00
 Gap=     0.134 Goal=   None    Shift=    0.000
 Gap=     0.134 Goal=   None    Shift=    0.000
 RMSDP=6.98D-05 MaxDP=2.81D-03 DE= 1.62D-04 OVMax= 1.54D-02

 Cycle  14  Pass 1  IDiag  1:
 Density matrix breaks symmetry, PCut= 1.00D-07
 Density matrix has no symmetry -- integrals replicated.
 E= -24.8853638949056     Delta-E=       -0.000425277662 Rises=F Damp=F
 DIIS: error= 1.39D-03 at cycle  14 NSaved=   8.
 NSaved= 8 IEnMin= 8 EnMin= -24.8853638949056     IErMin= 5 ErrMin= 1.23D-03
 ErrMax= 1.39D-03  0.00D+00 EMaxC= 1.00D-01 BMatC= 1.50D-04 BMatP= 1.18D-04
 IDIUse=3 WtCom= 9.88D-01 WtEn= 1.23D-02
 Coeff-Com:  0.185D+00-0.130D+00-0.717D-01 0.343D-01-0.211D-01-0.238D+00
 Coeff-Com: -0.197D+01 0.321D+01
 Coeff-En:   0.000D+00 0.000D+00 0.000D+00 0.000D+00 0.000D+00 0.000D+00
 Coeff-En:   0.000D+00 0.100D+01
 Coeff:      0.183D+00-0.128D+00-0.708D-01 0.338D-01-0.209D-01-0.235D+00
 Coeff:     -0.194D+01 0.318D+01
 Gap=     0.133 Goal=   None    Shift=    0.000
 Gap=     0.133 Goal=   None    Shift=    0.000
 RMSDP=1.41D-04 MaxDP=5.93D-03 DE=-4.25D-04 OVMax= 3.11D-02

 Cycle  15  Pass 1  IDiag  1:
 Density matrix breaks symmetry, PCut= 1.00D-07
 Density matrix has no symmetry -- integrals replicated.
 E= -24.8855030085780     Delta-E=       -0.000139113672 Rises=F Damp=F
 DIIS: error= 7.57D-04 at cycle  15 NSaved=   9.
 NSaved= 9 IEnMin= 9 EnMin= -24.8855030085780     IErMin= 9 ErrMin= 7.57D-04
 ErrMax= 7.57D-04  0.00D+00 EMaxC= 1.00D-01 BMatC= 4.92D-05 BMatP= 1.18D-04
 IDIUse=3 WtCom= 9.92D-01 WtEn= 7.57D-03
 Coeff-Com:  0.207D+00-0.207D-01-0.597D+00-0.442D-01 0.114D+01-0.114D+01
 Coeff-Com:  0.104D+01-0.152D+01 0.193D+01
 Coeff-En:   0.000D+00 0.000D+00 0.000D+00 0.000D+00 0.000D+00 0.000D+00
 Coeff-En:   0.000D+00 0.118D+00 0.882D+00
 Coeff:      0.205D+00-0.206D-01-0.592D+00-0.439D-01 0.113D+01-0.113D+01
 Coeff:      0.104D+01-0.151D+01 0.192D+01
 Gap=     0.133 Goal=   None    Shift=    0.000
 Gap=     0.133 Goal=   None    Shift=    0.000
 RMSDP=2.32D-05 MaxDP=9.14D-04 DE=-1.39D-04 OVMax= 3.09D-03

 Cycle  16  Pass 1  IDiag  1:
 Density matrix breaks symmetry, PCut= 1.00D-07
 Density matrix has no symmetry -- integrals replicated.
 E= -24.8855298810765     Delta-E=       -0.000026872498 Rises=F Damp=F
 DIIS: error= 5.87D-04 at cycle  16 NSaved=  10.
 NSaved=10 IEnMin=10 EnMin= -24.8855298810765     IErMin=10 ErrMin= 5.87D-04
 ErrMax= 5.87D-04  0.00D+00 EMaxC= 1.00D-01 BMatC= 2.91D-05 BMatP= 4.92D-05
 IDIUse=3 WtCom= 9.94D-01 WtEn= 5.87D-03
 Coeff-Com:  0.267D+00-0.311D+00 0.723D-01 0.213D+00-0.359D+00 0.212D+00
 Coeff-Com: -0.279D+01 0.390D+01-0.364D+01 0.344D+01
 Coeff-En:   0.000D+00 0.000D+00 0.000D+00 0.000D+00 0.000D+00 0.000D+00
 Coeff-En:   0.000D+00 0.000D+00 0.000D+00 0.100D+01
 Coeff:      0.266D+00-0.309D+00 0.719D-01 0.211D+00-0.357D+00 0.211D+00
 Coeff:     -0.278D+01 0.388D+01-0.362D+01 0.342D+01
 Gap=     0.133 Goal=   None    Shift=    0.000
 Gap=     0.133 Goal=   None    Shift=    0.000
 RMSDP=4.83D-05 MaxDP=1.28D-03 DE=-2.69D-05 OVMax= 9.22D-03

 Cycle  17  Pass 1  IDiag  1:
 Density matrix breaks symmetry, PCut= 1.00D-07
 Density matrix has no symmetry -- integrals replicated.
 E= -24.8854772521241     Delta-E=        0.000052628952 Rises=F Damp=F
 DIIS: error= 9.23D-04 at cycle  17 NSaved=  11.
 NSaved=11 IEnMin=10 EnMin= -24.8855298810765     IErMin=10 ErrMin= 5.87D-04
 ErrMax= 9.23D-04  0.00D+00 EMaxC= 1.00D-01 BMatC= 6.85D-05 BMatP= 2.91D-05
 IDIUse=3 WtCom= 9.94D-01 WtEn= 5.87D-03
 Rare condition: small coef for last iteration:  0.000D+00
 Coeff-Com:  0.369D-01-0.114D-01-0.116D+00-0.201D-02 0.192D+00-0.275D+00
 Coeff-Com: -0.389D+00 0.110D+01 0.137D+00-0.151D+01 0.185D+01
 Coeff-En:   0.000D+00 0.000D+00 0.000D+00 0.000D+00 0.000D+00 0.000D+00
 Coeff-En:   0.000D+00 0.000D+00 0.000D+00 0.000D+00 0.100D+01
 Coeff:      0.369D-01-0.114D-01-0.116D+00-0.201D-02 0.192D+00-0.275D+00
 Coeff:     -0.389D+00 0.110D+01 0.137D+00-0.151D+01 0.185D+01
 Gap=     0.133 Goal=   None    Shift=    0.000
 Gap=     0.133 Goal=   None    Shift=    0.000
 RMSDP=6.52D-05 MaxDP=2.68D-03 DE= 5.26D-05 OVMax= 1.38D-02

 Cycle  18  Pass 1  IDiag  1:
 Density matrix breaks symmetry, PCut= 1.00D-07
 Density matrix has no symmetry -- integrals replicated.
 E= -24.8855749572788     Delta-E=       -0.000097705155 Rises=F Damp=F
 DIIS: error= 1.99D-05 at cycle  18 NSaved=  12.
 NSaved=12 IEnMin=12 EnMin= -24.8855749572788     IErMin=12 ErrMin= 1.99D-05
 ErrMax= 1.99D-05  0.00D+00 EMaxC= 1.00D-01 BMatC= 2.56D-08 BMatP= 2.91D-05
 IDIUse=1 WtCom= 1.00D+00 WtEn= 0.00D+00
 Coeff-Com:  0.744D-02-0.210D-01 0.401D-01 0.184D-01-0.916D-01 0.848D-01
 Coeff-Com: -0.119D+00 0.245D-01-0.133D+00 0.424D+00-0.471D+00 0.124D+01
 Coeff:      0.744D-02-0.210D-01 0.401D-01 0.184D-01-0.916D-01 0.848D-01
 Coeff:     -0.119D+00 0.245D-01-0.133D+00 0.424D+00-0.471D+00 0.124D+01
 Gap=     0.133 Goal=   None    Shift=    0.000
 Gap=     0.133 Goal=   None    Shift=    0.000
 RMSDP=3.56D-06 MaxDP=1.12D-04 DE=-9.77D-05 OVMax= 7.92D-04

 Cycle  19  Pass 1  IDiag  1:
 Density matrix breaks symmetry, PCut= 1.00D-07
 Density matrix has no symmetry -- integrals replicated.
 E= -24.8855748824225     Delta-E=        0.000000074856 Rises=F Damp=F
 DIIS: error= 3.71D-05 at cycle  19 NSaved=  13.
 NSaved=13 IEnMin=12 EnMin= -24.8855749572788     IErMin=12 ErrMin= 1.99D-05
 ErrMax= 3.71D-05  0.00D+00 EMaxC= 1.00D-01 BMatC= 1.11D-07 BMatP= 2.56D-08
 IDIUse=1 WtCom= 1.00D+00 WtEn= 0.00D+00
 Coeff-Com: -0.135D-03 0.112D-02-0.187D-02-0.106D-03 0.511D-02-0.399D-02
 Coeff-Com:  0.623D-02-0.206D-02-0.295D-01 0.937D-02-0.116D-01-0.271D+00
 Coeff-Com:  0.130D+01
 Coeff:     -0.135D-03 0.112D-02-0.187D-02-0.106D-03 0.511D-02-0.399D-02
 Coeff:      0.623D-02-0.206D-02-0.295D-01 0.937D-02-0.116D-01-0.271D+00
 Coeff:      0.130D+01
 Gap=     0.133 Goal=   None    Shift=    0.000
 Gap=     0.133 Goal=   None    Shift=    0.000
 RMSDP=2.67D-06 MaxDP=9.74D-05 DE= 7.49D-08 OVMax= 5.26D-04

 Cycle  20  Pass 1  IDiag  1:
 Density matrix breaks symmetry, PCut= 1.00D-07
 Density matrix has no symmetry -- integrals replicated.
 E= -24.8855750353013     Delta-E=       -0.000000152879 Rises=F Damp=F
 DIIS: error= 1.77D-06 at cycle  20 NSaved=  14.
 NSaved=14 IEnMin=14 EnMin= -24.8855750353013     IErMin=14 ErrMin= 1.77D-06
 ErrMax= 1.77D-06  0.00D+00 EMaxC= 1.00D-01 BMatC= 3.49D-10 BMatP= 2.56D-08
 IDIUse=1 WtCom= 1.00D+00 WtEn= 0.00D+00
 Coeff-Com:  0.497D-03-0.598D-04-0.319D-03 0.697D-05-0.675D-03 0.559D-03
 Coeff-Com: -0.652D-02 0.109D-01 0.232D-02-0.539D-02 0.114D-01 0.524D-01
 Coeff-Com: -0.380D+00 0.132D+01
 Coeff:      0.497D-03-0.598D-04-0.319D-03 0.697D-05-0.675D-03 0.559D-03
 Coeff:     -0.652D-02 0.109D-01 0.232D-02-0.539D-02 0.114D-01 0.524D-01
 Coeff:     -0.380D+00 0.132D+01
 Gap=     0.133 Goal=   None    Shift=    0.000
 Gap=     0.133 Goal=   None    Shift=    0.000
 RMSDP=3.26D-07 MaxDP=1.08D-05 DE=-1.53D-07 OVMax= 7.29D-05

 Cycle  21  Pass 1  IDiag  1:
 Density matrix breaks symmetry, PCut= 1.00D-07
 Density matrix has no symmetry -- integrals replicated.
 E= -24.8855750352967     Delta-E=        0.000000000005 Rises=F Damp=F
 DIIS: error= 2.44D-06 at cycle  21 NSaved=  15.
 NSaved=15 IEnMin=14 EnMin= -24.8855750353013     IErMin=14 ErrMin= 1.77D-06
 ErrMax= 2.44D-06  0.00D+00 EMaxC= 1.00D-01 BMatC= 4.88D-10 BMatP= 3.49D-10
 IDIUse=1 WtCom= 1.00D+00 WtEn= 0.00D+00
 Coeff-Com:  0.164D-03-0.470D-03 0.300D-03 0.294D-03-0.204D-03 0.180D-03
 Coeff-Com:  0.119D-02-0.415D-02-0.430D-02 0.104D-01-0.134D-01-0.806D-02
 Coeff-Com:  0.144D+00-0.732D+00 0.161D+01
 Coeff:      0.164D-03-0.470D-03 0.300D-03 0.294D-03-0.204D-03 0.180D-03
 Coeff:      0.119D-02-0.415D-02-0.430D-02 0.104D-01-0.134D-01-0.806D-02
 Coeff:      0.144D+00-0.732D+00 0.161D+01
 Gap=     0.133 Goal=   None    Shift=    0.000
 Gap=     0.133 Goal=   None    Shift=    0.000
 RMSDP=1.47D-07 MaxDP=6.26D-06 DE= 4.54D-12 OVMax= 3.13D-05

 Cycle  22  Pass 1  IDiag  1:
 Density matrix breaks symmetry, PCut= 1.00D-07
 Density matrix has no symmetry -- integrals replicated.
 E= -24.8855750359455     Delta-E=       -0.000000000649 Rises=F Damp=F
 DIIS: error= 3.11D-07 at cycle  22 NSaved=  16.
 NSaved=16 IEnMin=16 EnMin= -24.8855750359455     IErMin=16 ErrMin= 3.11D-07
 ErrMax= 3.11D-07  0.00D+00 EMaxC= 1.00D-01 BMatC= 7.36D-12 BMatP= 3.49D-10
 IDIUse=1 WtCom= 1.00D+00 WtEn= 0.00D+00
 Coeff-Com:  0.480D-04-0.357D-04 0.965D-04 0.300D-04-0.337D-03 0.230D-03
 Coeff-Com: -0.140D-02 0.233D-02-0.426D-03-0.561D-03 0.220D-02 0.731D-03
 Coeff-Com: -0.260D-01 0.162D+00-0.612D+00 0.147D+01
 Coeff:      0.480D-04-0.357D-04 0.965D-04 0.300D-04-0.337D-03 0.230D-03
 Coeff:     -0.140D-02 0.233D-02-0.426D-03-0.561D-03 0.220D-02 0.731D-03
 Coeff:     -0.260D-01 0.162D+00-0.612D+00 0.147D+01
 Gap=     0.133 Goal=   None    Shift=    0.000
 Gap=     0.133 Goal=   None    Shift=    0.000
 RMSDP=1.24D-08 MaxDP=3.30D-07 DE=-6.49D-10 OVMax= 2.47D-06

 Cycle  23  Pass 1  IDiag  1:
 Density matrix breaks symmetry, PCut= 1.00D-07
 Density matrix has no symmetry -- integrals replicated.
 E= -24.8855750359468     Delta-E=       -0.000000000001 Rises=F Damp=F
 DIIS: error= 2.95D-07 at cycle  23 NSaved=  17.
 NSaved=17 IEnMin=17 EnMin= -24.8855750359468     IErMin=17 ErrMin= 2.95D-07
 ErrMax= 2.95D-07  0.00D+00 EMaxC= 1.00D-01 BMatC= 6.96D-12 BMatP= 7.36D-12
 IDIUse=1 WtCom= 1.00D+00 WtEn= 0.00D+00
 Large coefficients: NSaved= 17 BigCof=    0.00 CofMax=   10.00 Det=-9.66D-15
 Inversion failed.  Reducing to 16 matrices.
 Large coefficients: NSaved= 16 BigCof=    0.00 CofMax=   10.00 Det=-9.80D-15
 Inversion failed.  Reducing to 15 matrices.
 Coeff-Com:  0.484D-06-0.212D-04 0.554D-04-0.308D-04 0.222D-03-0.383D-03
 Coeff-Com:  0.169D-03 0.761D-04-0.514D-03 0.134D-02-0.234D-02-0.142D-02
 Coeff-Com:  0.559D-01-0.379D+00 0.133D+01
 Coeff:      0.484D-06-0.212D-04 0.554D-04-0.308D-04 0.222D-03-0.383D-03
 Coeff:      0.169D-03 0.761D-04-0.514D-03 0.134D-02-0.234D-02-0.142D-02
 Coeff:      0.559D-01-0.379D+00 0.133D+01
 Gap=     0.133 Goal=   None    Shift=    0.000
 Gap=     0.133 Goal=   None    Shift=    0.000
 RMSDP=2.21D-08 MaxDP=9.12D-07 DE=-1.31D-12 OVMax= 4.78D-06

 Cycle  24  Pass 1  IDiag  1:
 Density matrix breaks symmetry, PCut= 1.00D-07
 Density matrix has no symmetry -- integrals replicated.
 E= -24.8855750359563     Delta-E=       -0.000000000010 Rises=F Damp=F
 DIIS: error= 1.88D-08 at cycle  24 NSaved=  16.
 NSaved=16 IEnMin=16 EnMin= -24.8855750359563     IErMin=16 ErrMin= 1.88D-08
 ErrMax= 1.88D-08  0.00D+00 EMaxC= 1.00D-01 BMatC= 2.88D-14 BMatP= 6.96D-12
 IDIUse=1 WtCom= 1.00D+00 WtEn= 0.00D+00
 Large coefficients: NSaved= 16 BigCof=    0.00 CofMax=   10.00 Det=-3.93D-16
 Inversion failed.  Reducing to 15 matrices.
 Coeff-Com:  0.208D-05-0.575D-05 0.105D-05-0.298D-04 0.534D-04-0.264D-04
 Coeff-Com: -0.287D-04 0.995D-04-0.346D-03 0.107D-02-0.318D-02 0.376D-02
 Coeff-Com:  0.436D-01-0.273D+00 0.123D+01
 Coeff:      0.208D-05-0.575D-05 0.105D-05-0.298D-04 0.534D-04-0.264D-04
 Coeff:     -0.287D-04 0.995D-04-0.346D-03 0.107D-02-0.318D-02 0.376D-02
 Coeff:      0.436D-01-0.273D+00 0.123D+01
 Gap=     0.133 Goal=   None    Shift=    0.000
 Gap=     0.133 Goal=   None    Shift=    0.000
 RMSDP=1.40D-09 MaxDP=6.26D-08 DE=-9.57D-12 OVMax= 3.03D-07

 Density matrix breaks symmetry, PCut= 1.00D-07
 Density matrix has no symmetry -- integrals replicated.
 SCF Done:  E(UHF) =  -24.8855750360     A.U. after   24 cycles
            NFock= 24  Conv=0.14D-08     -V/T= 2.0046
 <Sx>= 0.0000 <Sy>= 0.0000 <Sz>= 0.0000 <S**2>= 0.2974 S= 0.2399
 <L.S>=  0.00000000000    
 KE= 2.477137620332D+01 PE=-5.823585899416D+01 EE= 8.003715134316D+00
 Annihilation of the first spin contaminant:
 S**2 before annihilation     0.2974,   after     0.0050
 Leave Link  502 at Sat May 21 21:21:47 2022, MaxMem=   104857600 cpu:               3.8 elap:               3.8
 (Enter /apps/software/g16/l601.exe)
 Copying SCF densities to generalized density rwf, IOpCl= 1 IROHF=0.
 SCF density gives NOpUse=  1 NOpAll=  4.
 Marking SCF density as not fully symmetric.

 **********************************************************************

            Population analysis using the SCF density.

 **********************************************************************

 Orbital symmetries:
 Alpha Orbitals:
       Occupied  (SG) (?A) (?A)
       Virtual   (?A) (?A) (?A) (?A) (?A) (?A) (SG) (SG) (?B) (?B)
                 (?B) (?B) (SG) (?C) (?C) (?C) (?C) (?C) (?C) (SG)
                 (?D) (?D) (?D) (?D) (?D) (?D) (?D) (?D) (?D) (?D)
                 (?D) (?D) (SG) (DLTA) (DLTA) (PI) (PI) (SG) (PI)
                 (PI) (?E) (?E) (?E) (?E) (?F) (?F) (?F) (?F) (?F)
                 (?F) (?F) (?F) (?F) (?F) (?F) (?F) (?F) (?F) (?F)
                 (?G) (?G) (?G) (?G) (?G) (?G) (SG) (PHI) (PHI)
                 (DLTA) (DLTA) (PI) (PI) (SG) (SG) (DLTA) (DLTA)
                 (PI) (PI) (SG) (PI) (PI) (SG) (?H) (?H) (?H) (?I)
                 (?I) (?I) (?I) (?I) (?I) (?I) (?I) (?I) (?I) (?I)
                 (?I) (?I) (?I) (?J) (?J) (?J) (?J) (?J) (?J) (?J)
                 (PHI) (PHI) (DLTA) (DLTA) (PI) (PI) (SG) (SG)
                 (PI) (PI) (SG) (DLTA) (DLTA) (PI) (PI) (SG) (SG)
 Beta  Orbitals:
       Occupied  (SG) (?A) (?A)
       Virtual   (?A) (?A) (?A) (?A) (?A) (?A) (SG) (SG) (?B) (?B)
                 (?B) (?B) (SG) (?C) (?C) (?C) (?C) (?C) (?C) (SG)
                 (?D) (?D) (?D) (?D) (?D) (?D) (?D) (?D) (?D) (?D)
                 (?D) (?D) (SG) (DLTA) (DLTA) (PI) (PI) (SG) (PI)
                 (PI) (?E) (?E) (?E) (?E) (?F) (?F) (?F) (?F) (?F)
                 (?F) (?F) (?F) (?F) (?F) (?F) (?F) (?F) (?F) (?F)
                 (?G) (?G) (?G) (?G) (?G) (?G) (SG) (PHI) (PHI)
                 (DLTA) (DLTA) (PI) (PI) (SG) (SG) (DLTA) (DLTA)
                 (PI) (PI) (SG) (PI) (PI) (SG) (?H) (?H) (?H) (?I)
                 (?I) (?I) (?I) (?I) (?I) (?I) (?I) (?I) (?I) (?I)
                 (?I) (?I) (?I) (?J) (?J) (?J) (?J) (?J) (?J) (?J)
                 (PHI) (PHI) (DLTA) (DLTA) (PI) (PI) (SG) (SG)
                 (PI) (PI) (SG) (DLTA) (DLTA) (PI) (PI) (SG) (SG)
 Unable to determine electronic state:  an orbital has unidentified symmetry.
 Alpha  occ. eigenvalues --   -7.88075  -0.61830  -0.22948
 Alpha virt. eigenvalues --   -0.09599  -0.04420  -0.03277   0.02410   0.04249
 Alpha virt. eigenvalues --    0.04299   0.06032   0.09786   0.11865   0.11867
 Alpha virt. eigenvalues --    0.12518   0.12581   0.15007   0.23187   0.24055
 Alpha virt. eigenvalues --    0.24110   0.24825   0.25010   0.29221   0.32118
 Alpha virt. eigenvalues --    0.41735   0.41735   0.42343   0.42345   0.42849
 Alpha virt. eigenvalues --    0.43246   0.43361   0.43540   0.43597   0.44680
 Alpha virt. eigenvalues --    0.44799   0.46534   0.53634   0.68693   0.68693
 Alpha virt. eigenvalues --    0.70994   0.71009   0.74811   0.86049   0.86056
 Alpha virt. eigenvalues --    0.91995   0.94559   0.94698   1.00700   1.29443
 Alpha virt. eigenvalues --    1.29985   1.29985   1.30507   1.30535   1.30669
 Alpha virt. eigenvalues --    1.30696   1.31128   1.31145   1.31497   1.31766
 Alpha virt. eigenvalues --    1.31915   1.32129   1.32592   1.33729   1.35343
 Alpha virt. eigenvalues --    1.35345   1.36202   1.36204   1.37323   1.37635
 Alpha virt. eigenvalues --    1.42396   1.64272   1.64272   1.64358   1.64358
 Alpha virt. eigenvalues --    1.65253   1.65261   1.66587   1.75462   2.55029
 Alpha virt. eigenvalues --    2.55029   2.56317   2.56320   2.59397   2.67317
 Alpha virt. eigenvalues --    2.67319   2.74254   3.58753   3.59018   3.62282
 Alpha virt. eigenvalues --    3.81031   3.81031   3.81695   3.81699   3.81776
 Alpha virt. eigenvalues --    3.81792   3.82256   3.82310   3.82513   3.82777
 Alpha virt. eigenvalues --    3.82927   3.83098   3.83534   3.84244   3.96039
 Alpha virt. eigenvalues --    3.96042   3.96935   3.96941   3.97797   3.98215
 Alpha virt. eigenvalues --    4.01413   6.64759   6.64759   6.64804   6.64804
 Alpha virt. eigenvalues --    6.65017   6.65018   6.65490   7.52031   8.03437
 Alpha virt. eigenvalues --    8.03438   8.07700   8.48312   8.48312   8.49140
 Alpha virt. eigenvalues --    8.49141   8.52272  12.87816
  Beta  occ. eigenvalues --   -7.88075  -0.61830  -0.22948
  Beta virt. eigenvalues --   -0.09599  -0.04420  -0.03277   0.02410   0.04249
  Beta virt. eigenvalues --    0.04299   0.06032   0.09786   0.11865   0.11867
  Beta virt. eigenvalues --    0.12518   0.12581   0.15007   0.23187   0.24055
  Beta virt. eigenvalues --    0.24110   0.24825   0.25010   0.29221   0.32118
  Beta virt. eigenvalues --    0.41735   0.41735   0.42343   0.42345   0.42849
  Beta virt. eigenvalues --    0.43246   0.43361   0.43540   0.43597   0.44680
  Beta virt. eigenvalues --    0.44799   0.46534   0.53634   0.68693   0.68693
  Beta virt. eigenvalues --    0.70994   0.71009   0.74811   0.86049   0.86056
  Beta virt. eigenvalues --    0.91995   0.94559   0.94698   1.00700   1.29443
  Beta virt. eigenvalues --    1.29985   1.29985   1.30507   1.30535   1.30669
  Beta virt. eigenvalues --    1.30696   1.31128   1.31145   1.31497   1.31766
  Beta virt. eigenvalues --    1.31915   1.32129   1.32592   1.33729   1.35343
  Beta virt. eigenvalues --    1.35345   1.36202   1.36204   1.37323   1.37635
  Beta virt. eigenvalues --    1.42396   1.64272   1.64272   1.64358   1.64358
  Beta virt. eigenvalues --    1.65253   1.65261   1.66587   1.75462   2.55029
  Beta virt. eigenvalues --    2.55029   2.56317   2.56320   2.59397   2.67317
  Beta virt. eigenvalues --    2.67319   2.74254   3.58753   3.59018   3.62282
  Beta virt. eigenvalues --    3.81031   3.81031   3.81695   3.81699   3.81776
  Beta virt. eigenvalues --    3.81792   3.82256   3.82310   3.82513   3.82777
  Beta virt. eigenvalues --    3.82927   3.83098   3.83534   3.84244   3.96039
  Beta virt. eigenvalues --    3.96042   3.96935   3.96941   3.97797   3.98215
  Beta virt. eigenvalues --    4.01413   6.64759   6.64759   6.64804   6.64804
  Beta virt. eigenvalues --    6.65017   6.65018   6.65490   7.52031   8.03437
  Beta virt. eigenvalues --    8.03438   8.07700   8.48312   8.48312   8.49140
  Beta virt. eigenvalues --    8.49141   8.52272  12.87816
          Condensed to atoms (all electrons):
               1          2
     1  B    4.545850   0.081226
     2  H    0.081226   1.291698
          Atomic-Atomic Spin Densities.
               1          2
     1  B    0.000000   0.000000
     2  H    0.000000   0.000000
 Mulliken charges and spin densities:
               1          2
     1  B    0.372924   0.000000
     2  H   -0.372924   0.000000
 Sum of Mulliken charges =  -0.00000   0.00000
 Mulliken charges and spin densities with hydrogens summed into heavy atoms:
               1          2
     1  B   -0.000000   0.000000
 Electronic spatial extent (au):  <R**2>=            102.1036
 Charge=             -0.0000 electrons
 Dipole moment (field-independent basis, Debye):
    X=             -0.0000    Y=              0.0000    Z=              8.7503  Tot=              8.7503
 Quadrupole moment (field-independent basis, Debye-Ang):
   XX=             -9.1310   YY=             -9.8038   ZZ=            -33.7015
   XY=              0.0000   XZ=             -0.0000   YZ=              0.0000
 Traceless Quadrupole moment (field-independent basis, Debye-Ang):
   XX=              8.4145   YY=              7.7416   ZZ=            -16.1561
   XY=              0.0000   XZ=             -0.0000   YZ=              0.0000
 Octapole moment (field-independent basis, Debye-Ang**2):
  XXX=             -0.0000  YYY=              0.0000  ZZZ=            112.0684  XYY=             -0.0000
  XXY=              0.0000  XXZ=             10.4481  XZZ=              0.0000  YZZ=              0.0000
  YYZ=              9.9325  XYZ=              0.0000
 Hexadecapole moment (field-independent basis, Debye-Ang**3):
 XXXX=            -20.7176 YYYY=            -23.5547 ZZZZ=           -648.9283 XXXY=              0.0000
 XXXZ=             -0.0000 YYYX=              0.0000 YYYZ=              0.0000 ZZZX=             -0.0000
 ZZZY=              0.0000 XXYY=             -7.3803 XXZZ=            -61.3916 YYZZ=            -62.2946
 XXYZ=              0.0000 YYXZ=              0.0000 ZZXY=              0.0000
 N-N= 5.751926205652D-01 E-N=-5.823585837376D+01  KE= 2.477137620332D+01
 Symmetry A1   KE= 2.466506367756D+01
 Symmetry A2   KE= 3.533138352305D-30
 Symmetry B1   KE= 2.749521964254D-29
 Symmetry B2   KE= 1.063125257638D-01
 Symmetry A1   SP= 0.000000000000D+00
 Symmetry A2   SP= 0.000000000000D+00
 Symmetry B1   SP= 0.000000000000D+00
 Symmetry B2   SP= 0.000000000000D+00
                          Isotropic Fermi Contact Couplings
        Atom                 a.u.       MegaHertz       Gauss      10(-4) cm-1
     1  B(11)              0.00000       0.00000       0.00000       0.00000
     2  H(1)               0.00000       0.00000       0.00000       0.00000
 --------------------------------------------------------
       Center         ----  Spin Dipole Couplings  ----
                      3XX-RR        3YY-RR        3ZZ-RR
 --------------------------------------------------------
     1   Atom        0.000000      0.000000      0.000000
     2   Atom        0.000000      0.000000      0.000000
 --------------------------------------------------------
                        XY            XZ            YZ
 --------------------------------------------------------
     1   Atom        0.000000      0.000000     -0.197725
     2   Atom        0.000000      0.000000      0.000731
 --------------------------------------------------------


 ---------------------------------------------------------------------------------
              Anisotropic Spin Dipole Couplings in Principal Axis System
 ---------------------------------------------------------------------------------

       Atom             a.u.   MegaHertz   Gauss  10(-4) cm-1        Axes

              Baa    -0.1977   -33.853   -12.080   -11.292 -0.0000  0.7071  0.7071
     1 B(11)  Bbb     0.0000     0.000     0.000     0.000  1.0000 -0.0000  0.0000
              Bcc     0.1977    33.853    12.080    11.292  0.0000  0.7071 -0.7071
 
              Baa    -0.0007    -0.390    -0.139    -0.130 -0.0000  0.7071 -0.7071
     2 H(1)   Bbb     0.0000     0.000     0.000     0.000  1.0000  0.0000 -0.0000
              Bcc     0.0007     0.390     0.139     0.130  0.0000  0.7071  0.7071
 

 ---------------------------------------------------------------------------------

 No NMR shielding tensors so no spin-rotation constants.
 Leave Link  601 at Sat May 21 21:21:47 2022, MaxMem=   104857600 cpu:               0.2 elap:               0.2
 (Enter /apps/software/g16/l801.exe)
 Range of M.O.s used for correlation:     1   126
 NBasis=   126 NAE=     3 NBE=     3 NFC=     0 NFV=     0
 NROrb=    126 NOA=     3 NOB=     3 NVA=   123 NVB=   123
 Leave Link  801 at Sat May 21 21:21:47 2022, MaxMem=   104857600 cpu:               0.0 elap:               0.0
 (Enter /apps/software/g16/l914.exe)
 UHF ground state
 Doing stability rather than CIS.
 Keep R1 and R2 ints in memory in symmetry-blocked form, NReq=40144005.
 FoFCou: FMM=F IPFlag=           0 FMFlag=           0 FMFlg1=           0
         NFxFlg=           0 DoJE=F BraDBF=F KetDBF=F FulRan=T
         wScrn=  0.000000 ICntrl=       600 IOpCl=  0 I1Cent=           0 NGrid=           0
         NMat0=    1 NMatS0=   8001 NMatT0=    0 NMatD0=    1 NMtDS0=    0 NMtDT0=    0
 Petite list used in FoFCou.
 MDV=   104857600 DFT=F DoStab=T Mixed=F DoRPA=F DoScal=F NonHer=F
 Making orbital integer symmetry assigments:
 Orbital symmetries:
 Alpha Orbitals:
       Occupied  (SG) (?A) (?A)
       Virtual   (?A) (?A) (?A) (?A) (?A) (?A) (SG) (SG) (?B) (?B)
                 (?B) (?B) (SG) (?C) (?C) (?C) (?C) (?C) (?C) (SG)
                 (?D) (?D) (?D) (?D) (?D) (?D) (?D) (?D) (?D) (?D)
                 (?D) (?D) (SG) (DLTA) (DLTA) (PI) (PI) (SG) (PI)
                 (PI) (?E) (?E) (?E) (?E) (?F) (?F) (?F) (?F) (?F)
                 (?F) (?F) (?F) (?F) (?F) (?F) (?F) (?F) (?F) (?F)
                 (?G) (?G) (?G) (?G) (?G) (?G) (SG) (PHI) (PHI)
                 (DLTA) (DLTA) (PI) (PI) (SG) (SG) (DLTA) (DLTA)
                 (PI) (PI) (SG) (PI) (PI) (SG) (?H) (?H) (?H) (?I)
                 (?I) (?I) (?I) (?I) (?I) (?I) (?I) (?I) (?I) (?I)
                 (?I) (?I) (?I) (?J) (?J) (?J) (?J) (?J) (?J) (?J)
                 (PHI) (PHI) (DLTA) (DLTA) (PI) (PI) (SG) (SG)
                 (PI) (PI) (SG) (DLTA) (DLTA) (PI) (PI) (SG) (SG)
 Beta  Orbitals:
       Occupied  (SG) (?A) (?A)
       Virtual   (?A) (?A) (?A) (?A) (?A) (?A) (SG) (SG) (?B) (?B)
                 (?B) (?B) (SG) (?C) (?C) (?C) (?C) (?C) (?C) (SG)
                 (?D) (?D) (?D) (?D) (?D) (?D) (?D) (?D) (?D) (?D)
                 (?D) (?D) (SG) (DLTA) (DLTA) (PI) (PI) (SG) (PI)
                 (PI) (?E) (?E) (?E) (?E) (?F) (?F) (?F) (?F) (?F)
                 (?F) (?F) (?F) (?F) (?F) (?F) (?F) (?F) (?F) (?F)
                 (?G) (?G) (?G) (?G) (?G) (?G) (SG) (PHI) (PHI)
                 (DLTA) (DLTA) (PI) (PI) (SG) (SG) (DLTA) (DLTA)
                 (PI) (PI) (SG) (PI) (PI) (SG) (?H) (?H) (?H) (?I)
                 (?I) (?I) (?I) (?I) (?I) (?I) (?I) (?I) (?I) (?I)
                 (?I) (?I) (?I) (?J) (?J) (?J) (?J) (?J) (?J) (?J)
                 (PHI) (PHI) (DLTA) (DLTA) (PI) (PI) (SG) (SG)
                 (PI) (PI) (SG) (DLTA) (DLTA) (PI) (PI) (SG) (SG)
    12 initial guesses have been made.
 Convergence on wavefunction:    0.001000000000000
 Davidson Disk Diagonalization:  ConvIn= 1.00D-03 SkipCon=T Conv= 1.00D-03.
 Max sub-space:  1476 roots to seek:    12 dimension of matrix:          738
 Iteration     1 Dimension    12 NMult     0 NNew     12
 CISAX will form    12 AO SS matrices at one time.
 NMat=    12 NSing=    12 JSym2X= 2.
 New state      1 was old state      6
 Excitation Energies [eV] at current iteration:
 Root      1 :    -5.568531746160339
 Root      2 :     0.538724754949657
 Root      3 :     0.810243714295136
 Root      4 :     0.938315561854479
 Root      5 :     1.262385768456910
 Root      6 :     4.092694057552347
 Root      7 :     4.212775213283586
 Root      8 :     4.971591696556250
 Root      9 :     5.016555552913796
 Root     10 :     5.088088349964031
 Root     11 :     5.111829013084018
 Root     12 :     7.923804906816729
 Iteration     2 Dimension    24 NMult    12 NNew     12
 CISAX will form    12 AO SS matrices at one time.
 NMat=    12 NSing=    12 JSym2X= 2.
 Root      1 not converged, maximum delta is    0.121692582981719
 Excitation Energies [eV] at current iteration:
 Root      1 :    -7.134056263797385   Change is   -1.565524517637046
 Root      2 :     0.051163183607585   Change is   -0.487561571342072
 Root      3 :     0.328304509152660   Change is   -0.610011052701819
 Root      4 :     0.401566043494674   Change is   -0.408677670800463
 Root      5 :     0.726512848604938   Change is   -0.535872919851972
 Root      6 :     3.429630467068755   Change is   -0.663063590483591
 Root      7 :     3.819795849944277   Change is   -0.392979363339309
 Root      8 :     4.486613838621532   Change is   -0.484977857934718
 Root      9 :     4.511863737436002   Change is   -0.576224612528029
 Root     10 :     4.583721897769547   Change is   -0.432833655144249
 Root     11 :     4.727625816624832   Change is   -0.384203196459185
 Root     12 :     5.152450614729005
 Iteration     3 Dimension    27 NMult    24 NNew      3
 CISAX will form     3 AO SS matrices at one time.
 NMat=     3 NSing=     3 JSym2X= 2.
 Root      1 not converged, maximum delta is    0.016556535607281
 Excitation Energies [eV] at current iteration:
 Root      1 :    -7.194278267121484   Change is   -0.060222003324098
 Root      2 :     0.038733563103121   Change is   -0.012429620504463
 Root      3 :     0.294498357342990   Change is   -0.033806151809670
 Iteration     4 Dimension    30 NMult    27 NNew      3
 CISAX will form     3 AO SS matrices at one time.
 NMat=     3 NSing=     3 JSym2X= 2.
 Root      1 not converged, maximum delta is    0.001010011590706
 Excitation Energies [eV] at current iteration:
 Root      1 :    -7.194874117596205   Change is   -0.000595850474722
 Root      2 :     0.010687598372506   Change is   -0.028045964730615
 Root      3 :     0.272556295939957   Change is   -0.021942061403033
 Iteration     5 Dimension    33 NMult    30 NNew      3
 CISAX will form     3 AO SS matrices at one time.
 NMat=     3 NSing=     3 JSym2X= 2.
 Root      1 has converged.
 Excitation Energies [eV] at current iteration:
 Root      1 :    -7.194882212531496   Change is   -0.000008094935290
 Root      2 :     0.000134017909142   Change is   -0.010553580463365
 Root      3 :     0.266434853565902   Change is   -0.006121442374055
 Convergence achieved on expansion vectors.
 ***********************************************************************
 Stability analysis using <AA,BB:AA,BB> singles matrix:
 ***********************************************************************
 1PDM for each excited state written to RWF  633
 Ground to excited state transition densities written to RWF  633

 Eigenvectors of the stability matrix:
 
 Excited state symmetry could not be determined.
 Eigenvector   1:  2.681-?Sym  Eigenvalue=-0.2644071  <S**2>=1.547
      3A ->  4A       -0.67149
      3A -> 11A        0.10496
      3B ->  4B        0.67149
      3B -> 11B       -0.10496
 The wavefunction has an internal instability.
 Leave Link  914 at Sat May 21 21:21:51 2022, MaxMem=   104857600 cpu:               3.9 elap:               3.9
 (Enter /apps/software/g16/l508.exe)
 Keep R1 and R2 ints in memory in symmetry-blocked form, NReq=40144065.
 FoFCou: FMM=F IPFlag=           0 FMFlag=           0 FMFlg1=           0
         NFxFlg=           0 DoJE=F BraDBF=F KetDBF=F FulRan=T
         wScrn=  0.000000 ICntrl=       600 IOpCl=  0 I1Cent=           0 NGrid=           0
         NMat0=    1 NMatS0=   8001 NMatT0=    0 NMatD0=    1 NMtDS0=    0 NMtDT0=    0
 Petite list used in FoFCou.
 Tight linear equation convergence will be used.
 UHF wavefunction.
 Quadratic Convergence SCF Method.
 Line search only if initial step raises energy.
 Perform preliminary linear searches along instability eigenvector.
     ILin= 1 X=0.000D+00 Y=-2.488557503596D+01 DE= 0.00D+00
     ILin= 2 X=1.000D-01 Y=-2.488819833729D+01 DE=-2.62D-03
     ILin= 3 X=1.414D-01 Y=-2.489078034377D+01 DE=-5.21D-03
     ILin= 4 X=2.000D-01 Y=-2.489582183800D+01 DE=-1.02D-02
     ILin= 5 X=2.828D-01 Y=-2.490542419021D+01 DE=-1.98D-02
     ILin= 6 X=4.000D-01 Y=-2.492278024981D+01 DE=-3.72D-02
     ILin= 7 X=5.657D-01 Y=-2.495066378403D+01 DE=-6.51D-02
     ILin= 8 X=8.000D-01 Y=-2.498326293026D+01 DE=-9.77D-02
     ILin= 9 X=1.131D+00 Y=-2.498350278175D+01 DE=-9.79D-02
     ILin=10 X=1.600D+00 Y=-2.487623465932D+01 DE= 9.34D-03
     An  expanding polynomial of degree 10 produced  0.9709
 Iteration F X= 9.709D-01 EE=-2.499191397678267D+01
     ILin= 1 X=0.000D+00 Y=-2.488557503596D+01 DE= 0.00D+00
     ILin= 2 X=1.000D-01 Y=-2.488819833799D+01 DE=-2.62D-03
     ILin= 3 X=1.414D-01 Y=-2.489078034574D+01 DE=-5.21D-03
 The two search directions are symmetric.
 Iteration B X= 9.709D-01 EE=-2.499191397678267D+01
 Take forward step, X= 9.709D-01 Step= 9.709D-01
 Iteration   1 EE= -24.9919139787986                                    Grad=1.141D-01 Max rot=    2.7570 deg.
 Gradient too large for Newton-Raphson -- use scaled steepest descent instead.
 Alpha Gap=     0.496 HL deriv= 8.65D-02
  Beta Gap=     0.286 HL deriv= 1.68D-01
     ILin= 1 X=0.000D+00 Y=-2.499191397880D+01 DE= 0.00D+00 F= -4.47D-02
     ILin= 2 X=3.000D-01 Y=-2.500428508677D+01 DE=-1.24D-02 F= -3.76D-02
     ILin= 3 X=4.000D-01 Y=-2.500791717057D+01 DE=-1.60D-02 F= -3.50D-02
     ILin= 4 X=6.000D-01 Y=-2.501437555785D+01 DE=-2.25D-02 F= -2.95D-02
     ILin= 5 X=9.000D-01 Y=-2.502189669607D+01 DE=-3.00D-02 F= -2.05D-02
     ILin= 6 X=1.300D+00 Y=-2.502752456700D+01 DE=-3.56D-02 F= -7.46D-03
     ILin= 7 X=1.900D+00 Y=-2.502580418006D+01 DE=-3.39D-02 F=  1.33D-02
     An  expanding polynomial of degree  7 produced  1.5182
 Iteration   2 EE= -25.0283422468014     Delta-E=       -0.036428268003 Grad=4.652D-02 Max rot=    0.9561 deg.
 Gradient too large for Newton-Raphson -- use scaled steepest descent instead.
 Alpha Gap=     0.561 HL deriv= 2.98D-02
  Beta Gap=     0.355 HL deriv= 3.04D-02
     ILin= 1 X=0.000D+00 Y=-2.502834224680D+01 DE= 0.00D+00 F= -5.63D-03
     ILin= 2 X=7.000D-01 Y=-2.503125145386D+01 DE=-2.91D-03 F= -2.67D-03
     ILin= 3 X=1.300D+00 Y=-2.503207329259D+01 DE=-3.73D-03 F= -6.03D-05
     Reject lnstep minimum 1.597D+00 FVal=-2.503209505407D+01 Lims=  7.00D-01  1.30D+00
     ILin= 4 X=2.500D+00 Y=-2.502894729664D+01 DE=-6.05D-04 F=  5.29D-03
     An  expanding polynomial of degree  4 produced  1.3145
     Minimum is close to point  3 DX=  1.45D-02 DF= -4.60D-07 DXR=  1.10D-02 DFR=  1.23D-04 which will be used.
 Iteration   3 EE= -25.0320732925948     Delta-E=       -0.003731045793 Grad=1.763D-02 Max rot=    0.3336 deg.
 Gradient too large for Newton-Raphson -- use scaled steepest descent instead.
 Alpha Gap=     0.570 HL deriv= 5.92D-03
  Beta Gap=     0.365 HL deriv= 8.97D-03
     ILin= 1 X=0.000D+00 Y=-2.503207329259D+01 DE= 0.00D+00 F= -7.67D-04
     ILin= 2 X=1.400D+00 Y=-2.503264070497D+01 DE=-5.67D-04 F= -4.16D-05
     Reject lnstep minimum 1.429D+00 FVal=-2.503264113670D+01 Lims=  0.00D+00  1.40D+00
     ILin= 3 X=2.800D+00 Y=-2.503218446568D+01 DE=-1.11D-04 F=  6.95D-04
     An  expanding polynomial of degree  3 produced  1.4760
     Minimum is close to point  2 DX=  7.60D-02 DF= -1.51D-06 DXR=  5.15D-02 DFR=  2.66D-03 which will be used.
 Iteration   4 EE= -25.0326407049708     Delta-E=       -0.000567412376 Grad=7.845D-03 Max rot=    0.1457 deg.
 QCNR:  CnvC1=2.72D-09 CnvC2=2.72D-08
 LinEq1:  Iter=  0 NonCon=     1 RMS=3.86D-04 Max=4.38D-03 NDo=     1
 AX will form     1 AO Fock derivatives at one time.
 LinEq1:  Iter=  1 NonCon=     1 RMS=1.02D-04 Max=8.61D-04 NDo=     1
 LinEq1:  Iter=  2 NonCon=     1 RMS=3.01D-05 Max=2.95D-04 NDo=     1
 LinEq1:  Iter=  3 NonCon=     1 RMS=4.20D-06 Max=4.13D-05 NDo=     1
 LinEq1:  Iter=  4 NonCon=     1 RMS=8.17D-07 Max=9.34D-06 NDo=     1
 LinEq1:  Iter=  5 NonCon=     1 RMS=1.71D-07 Max=1.82D-06 NDo=     1
 LinEq1:  Iter=  6 NonCon=     1 RMS=2.16D-08 Max=1.68D-07 NDo=     1
 LinEq1:  Iter=  7 NonCon=     1 RMS=4.20D-09 Max=5.03D-08 NDo=     1
 LinEq1:  Iter=  8 NonCon=     0 RMS=1.52D-09 Max=2.19D-08 NDo=     1
 Linear equations converged to 2.717D-09 2.717D-08 after     8 iterations.
 Angle between quadratic step and gradient=  61.02 degrees.
     ILin= 1 X=0.000D+00 Y=-2.503264070497D+01 DE= 0.00D+00 F= -5.90D-04
     ILin= 2 X=1.000D+00 Y=-2.503294249850D+01 DE=-3.02D-04 F= -1.70D-05
     Reject lnstep minimum 1.030D+00 FVal=-2.503294275630D+01 Lims=  0.00D+00  1.00D+00
     ILin= 3 X=1.900D+00 Y=-2.503272310862D+01 DE=-8.24D-05 F=  5.12D-04
     An  expanding polynomial of degree  3 produced  1.0255
     Minimum is close to point  2 DX=  2.55D-02 DF= -1.87D-07 DXR=  2.49D-02 DFR=  6.20D-04 which will be used.
 Iteration   5 EE= -25.0329424984978     Delta-E=       -0.000301793527 Grad=6.303D-04 Max rot=    0.0168 deg.
 QCNR:  CnvC1=2.72D-09 CnvC2=2.72D-08
 LinEq1:  Iter=  0 NonCon=     1 RMS=2.06D-05 Max=2.16D-04 NDo=     1
 LinEq1:  Iter=  1 NonCon=     1 RMS=5.64D-06 Max=5.73D-05 NDo=     1
 LinEq1:  Iter=  2 NonCon=     1 RMS=1.16D-06 Max=1.14D-05 NDo=     1
 LinEq1:  Iter=  3 NonCon=     1 RMS=1.90D-07 Max=1.91D-06 NDo=     1
 LinEq1:  Iter=  4 NonCon=     1 RMS=3.46D-08 Max=3.31D-07 NDo=     1
 LinEq1:  Iter=  5 NonCon=     1 RMS=1.08D-08 Max=1.41D-07 NDo=     1
 LinEq1:  Iter=  6 NonCon=     1 RMS=2.57D-09 Max=2.81D-08 NDo=     1
 LinEq1:  Iter=  7 NonCon=     0 RMS=3.30D-10 Max=2.55D-09 NDo=     1
 Linear equations converged to 2.717D-09 2.717D-08 after     7 iterations.
 Angle between quadratic step and gradient=  78.82 degrees.
     ILin= 1 X=0.000D+00 Y=-2.503294249850D+01 DE= 0.00D+00 F= -2.28D-06
     ILin= 2 X=1.000D+00 Y=-2.503294352143D+01 DE=-1.02D-06 F=  2.30D-07
     Accept linear search using points  1 and  2.
     An  expanding polynomial of degree  2 produced  0.9082
 Iteration   6 EE= -25.0329435319632     Delta-E=       -0.000001033465 Grad=1.069D-03 Max rot=    0.0297 deg.
 QCNR:  CnvC1=2.72D-09 CnvC2=2.72D-08
 LinEq1:  Iter=  0 NonCon=     1 RMS=8.97D-06 Max=7.05D-05 NDo=     1
 LinEq1:  Iter=  1 NonCon=     1 RMS=1.87D-06 Max=1.76D-05 NDo=     1
 LinEq1:  Iter=  2 NonCon=     1 RMS=6.39D-07 Max=8.36D-06 NDo=     1
 LinEq1:  Iter=  3 NonCon=     1 RMS=1.60D-07 Max=1.40D-06 NDo=     1
 LinEq1:  Iter=  4 NonCon=     1 RMS=2.84D-08 Max=2.47D-07 NDo=     1
 LinEq1:  Iter=  5 NonCon=     1 RMS=8.13D-09 Max=8.09D-08 NDo=     1
 LinEq1:  Iter=  6 NonCon=     0 RMS=2.19D-09 Max=1.86D-08 NDo=     1
 Linear equations converged to 2.717D-09 2.717D-08 after     6 iterations.
 Angle between quadratic step and gradient=  87.05 degrees.
     ILin= 1 X=0.000D+00 Y=-2.503294353196D+01 DE= 0.00D+00 F= -4.96D-07
     ILin= 2 X=1.000D+00 Y=-2.503294373232D+01 DE=-2.00D-07 F=  9.47D-08
     Accept linear search using points  1 and  2.
     An  expanding polynomial of degree  2 produced  0.8395
 Iteration   7 EE= -25.0329437399222     Delta-E=       -0.000000207959 Grad=2.360D-04 Max rot=    0.0085 deg.
 QCNR:  CnvC1=2.36D-09 CnvC2=2.36D-08
 LinEq1:  Iter=  0 NonCon=     1 RMS=4.70D-06 Max=4.18D-05 NDo=     1
 LinEq1:  Iter=  1 NonCon=     1 RMS=1.43D-06 Max=1.22D-05 NDo=     1
 LinEq1:  Iter=  2 NonCon=     1 RMS=3.48D-07 Max=3.62D-06 NDo=     1
 LinEq1:  Iter=  3 NonCon=     1 RMS=8.76D-08 Max=1.03D-06 NDo=     1
 LinEq1:  Iter=  4 NonCon=     1 RMS=1.95D-08 Max=2.31D-07 NDo=     1
 LinEq1:  Iter=  5 NonCon=     1 RMS=4.50D-09 Max=3.73D-08 NDo=     1
 LinEq1:  Iter=  6 NonCon=     0 RMS=1.14D-09 Max=1.11D-08 NDo=     1
 Linear equations converged to 2.360D-09 2.360D-08 after     6 iterations.
 Angle between quadratic step and gradient=  81.60 degrees.
     ILin= 1 X=0.000D+00 Y=-2.503294373992D+01 DE= 0.00D+00 F= -1.86D-07
     ILin= 2 X=1.000D+00 Y=-2.503294381440D+01 DE=-7.45D-08 F=  3.67D-08
     Accept linear search using points  1 and  2.
     An  expanding polynomial of degree  2 produced  0.8352
 Iteration   8 EE= -25.0329438174182     Delta-E=       -0.000000077496 Grad=2.955D-04 Max rot=    0.0091 deg.
 QCNR:  CnvC1=2.72D-09 CnvC2=2.72D-08
 LinEq1:  Iter=  0 NonCon=     1 RMS=3.37D-06 Max=3.58D-05 NDo=     1
 LinEq1:  Iter=  1 NonCon=     1 RMS=1.06D-06 Max=9.96D-06 NDo=     1
 LinEq1:  Iter=  2 NonCon=     1 RMS=2.80D-07 Max=3.10D-06 NDo=     1
 LinEq1:  Iter=  3 NonCon=     1 RMS=8.72D-08 Max=9.68D-07 NDo=     1
 LinEq1:  Iter=  4 NonCon=     1 RMS=1.14D-08 Max=9.38D-08 NDo=     1
 LinEq1:  Iter=  5 NonCon=     1 RMS=3.15D-09 Max=3.04D-08 NDo=     1
 LinEq1:  Iter=  6 NonCon=     0 RMS=8.11D-10 Max=6.82D-09 NDo=     1
 Linear equations converged to 2.717D-09 2.717D-08 after     6 iterations.
 Angle between quadratic step and gradient=  87.12 degrees.
     ILin= 1 X=0.000D+00 Y=-2.503294381742D+01 DE= 0.00D+00 F= -4.61D-07
     ILin= 2 X=1.000D+00 Y=-2.503294383441D+01 DE=-1.70D-08 F=  4.31D-07
     Accept linear search using points  1 and  2.
     An  expanding polynomial of degree  2 produced  0.5199
 Iteration   9 EE= -25.0329439375429     Delta-E=       -0.000000120125 Grad=2.800D-04 Max rot=    0.0086 deg.
 QCNR:  CnvC1=2.72D-09 CnvC2=2.72D-08
 LinEq1:  Iter=  0 NonCon=     1 RMS=4.93D-06 Max=3.91D-05 NDo=     1
 LinEq1:  Iter=  1 NonCon=     1 RMS=1.56D-06 Max=1.37D-05 NDo=     1
 LinEq1:  Iter=  2 NonCon=     1 RMS=4.00D-07 Max=3.52D-06 NDo=     1
 LinEq1:  Iter=  3 NonCon=     1 RMS=9.19D-08 Max=8.50D-07 NDo=     1
 LinEq1:  Iter=  4 NonCon=     1 RMS=2.06D-08 Max=2.35D-07 NDo=     1
 LinEq1:  Iter=  5 NonCon=     1 RMS=5.22D-09 Max=4.80D-08 NDo=     1
 LinEq1:  Iter=  6 NonCon=     0 RMS=1.62D-09 Max=1.36D-08 NDo=     1
 Linear equations converged to 2.717D-09 2.717D-08 after     6 iterations.
 Angle between quadratic step and gradient=  79.43 degrees.
     ILin= 1 X=0.000D+00 Y=-2.503294393754D+01 DE= 0.00D+00 F= -2.49D-07
     ILin= 2 X=1.000D+00 Y=-2.503294404831D+01 DE=-1.11D-07 F=  2.77D-08
     Accept linear search using points  1 and  2.
     An  expanding polynomial of degree  2 produced  0.9000
 Iteration  10 EE= -25.0329440496922     Delta-E=       -0.000000112149 Grad=3.014D-04 Max rot=    0.0090 deg.
 QCNR:  CnvC1=2.72D-09 CnvC2=2.72D-08
 LinEq1:  Iter=  0 NonCon=     1 RMS=2.70D-06 Max=2.51D-05 NDo=     1
 LinEq1:  Iter=  1 NonCon=     1 RMS=9.59D-07 Max=9.29D-06 NDo=     1
 LinEq1:  Iter=  2 NonCon=     1 RMS=2.56D-07 Max=2.99D-06 NDo=     1
 LinEq1:  Iter=  3 NonCon=     1 RMS=6.60D-08 Max=6.75D-07 NDo=     1
 LinEq1:  Iter=  4 NonCon=     1 RMS=1.06D-08 Max=7.94D-08 NDo=     1
 LinEq1:  Iter=  5 NonCon=     0 RMS=2.62D-09 Max=1.97D-08 NDo=     1
 Linear equations converged to 2.717D-09 2.717D-08 after     5 iterations.
 Angle between quadratic step and gradient=  87.26 degrees.
     ILin= 1 X=0.000D+00 Y=-2.503294404969D+01 DE= 0.00D+00 F= -4.50D-07
     ILin= 2 X=1.000D+00 Y=-2.503294406330D+01 DE=-1.36D-08 F=  4.25D-07
     Accept linear search using points  1 and  2.
     An  expanding polynomial of degree  2 produced  0.5161
 Iteration  11 EE= -25.0329441659734     Delta-E=       -0.000000116281 Grad=4.900D-04 Max rot=    0.0125 deg.
 QCNR:  CnvC1=2.72D-09 CnvC2=2.72D-08
 LinEq1:  Iter=  0 NonCon=     1 RMS=5.46D-06 Max=4.67D-05 NDo=     1
 LinEq1:  Iter=  1 NonCon=     1 RMS=1.88D-06 Max=2.05D-05 NDo=     1
 LinEq1:  Iter=  2 NonCon=     1 RMS=4.56D-07 Max=4.58D-06 NDo=     1
 LinEq1:  Iter=  3 NonCon=     1 RMS=7.67D-08 Max=9.09D-07 NDo=     1
 LinEq1:  Iter=  4 NonCon=     1 RMS=1.63D-08 Max=1.83D-07 NDo=     1
 LinEq1:  Iter=  5 NonCon=     1 RMS=6.36D-09 Max=6.98D-08 NDo=     1
 LinEq1:  Iter=  6 NonCon=     0 RMS=5.04D-10 Max=3.83D-09 NDo=     1
 Linear equations converged to 2.717D-09 2.717D-08 after     6 iterations.
 Angle between quadratic step and gradient=  88.37 degrees.
     ILin= 1 X=0.000D+00 Y=-2.503294416597D+01 DE= 0.00D+00 F= -9.39D-07
     ILin= 2 X=1.000D+00 Y=-2.503294286903D+01 DE= 1.30D-06 F=  3.49D-06
     Reject lnstep minimum 2.075D-01 FVal=-2.503294426320D+01 Lims=  0.00D+00  1.00D+00
     ILin= 3 X=2.000D-01 Y=-2.503294426270D+01 DE=-9.67D-08 F= -3.10D-08
     A contracting polynomial of degree  3 produced  0.2086
     Minimum is close to point  3 DX=  8.65D-03 DF= -1.67D-10 DXR=  4.15D-02 DFR=  1.72D-03 which will be used.
 Iteration  12 EE= -25.0329442627034     Delta-E=       -0.000000096730 Grad=8.080D-04 Max rot=    0.0355 deg.
 QCNR:  CnvC1=2.72D-09 CnvC2=2.72D-08
 LinEq1:  Iter=  0 NonCon=     1 RMS=9.16D-06 Max=6.43D-05 NDo=     1
 LinEq1:  Iter=  1 NonCon=     1 RMS=2.11D-06 Max=1.79D-05 NDo=     1
 LinEq1:  Iter=  2 NonCon=     1 RMS=6.96D-07 Max=6.85D-06 NDo=     1
 LinEq1:  Iter=  3 NonCon=     1 RMS=1.52D-07 Max=1.62D-06 NDo=     1
 LinEq1:  Iter=  4 NonCon=     1 RMS=3.52D-08 Max=3.45D-07 NDo=     1
 LinEq1:  Iter=  5 NonCon=     1 RMS=8.58D-09 Max=7.54D-08 NDo=     1
 LinEq1:  Iter=  6 NonCon=     0 RMS=2.59D-09 Max=2.31D-08 NDo=     1
 Linear equations converged to 2.717D-09 2.717D-08 after     6 iterations.
 Angle between quadratic step and gradient=  83.94 degrees.
     ILin= 1 X=0.000D+00 Y=-2.503294426270D+01 DE= 0.00D+00 F= -3.78D-07
     ILin= 2 X=1.000D+00 Y=-2.503294444380D+01 DE=-1.81D-07 F=  1.54D-08
     Accept linear search using points  1 and  2.
     An  expanding polynomial of degree  2 produced  0.9608
     Minimum is close to point  2 DX= -3.92D-02 DF= -3.03D-10 DXR=  4.08D-02 DFR=  1.67D-03 which will be used.
 Iteration  13 EE= -25.0329444438015     Delta-E=       -0.000000181098 Grad=1.815D-04 Max rot=    0.0074 deg.
 QCNR:  CnvC1=1.81D-09 CnvC2=1.81D-08
 LinEq1:  Iter=  0 NonCon=     1 RMS=2.37D-06 Max=2.12D-05 NDo=     1
 LinEq1:  Iter=  1 NonCon=     1 RMS=8.34D-07 Max=7.00D-06 NDo=     1
 LinEq1:  Iter=  2 NonCon=     1 RMS=2.03D-07 Max=1.73D-06 NDo=     1
 LinEq1:  Iter=  3 NonCon=     1 RMS=4.65D-08 Max=5.33D-07 NDo=     1
 LinEq1:  Iter=  4 NonCon=     1 RMS=1.11D-08 Max=1.16D-07 NDo=     1
 LinEq1:  Iter=  5 NonCon=     1 RMS=3.08D-09 Max=2.77D-08 NDo=     1
 LinEq1:  Iter=  6 NonCon=     0 RMS=8.93D-10 Max=6.79D-09 NDo=     1
 Linear equations converged to 1.815D-09 1.815D-08 after     6 iterations.
 Angle between quadratic step and gradient=  84.60 degrees.
     ILin= 1 X=0.000D+00 Y=-2.503294444380D+01 DE= 0.00D+00 F= -1.76D-07
     ILin= 2 X=1.000D+00 Y=-2.503294441120D+01 DE= 3.26D-08 F=  2.41D-07
     Reject lnstep minimum 4.218D-01 FVal=-2.503294448098D+01 Lims=  0.00D+00  1.00D+00
     ILin= 3 X=4.000D-01 Y=-2.503294448088D+01 DE=-3.71D-08 F= -9.10D-09
     A contracting polynomial of degree  3 produced  0.4219
     Minimum is close to point  3 DX=  2.19D-02 DF= -1.01D-10 DXR=  5.20D-02 DFR=  2.71D-03 which will be used.
 Iteration  14 EE= -25.0329444808807     Delta-E=       -0.000000037079 Grad=4.395D-04 Max rot=    0.0214 deg.
 QCNR:  CnvC1=2.72D-09 CnvC2=2.72D-08
 LinEq1:  Iter=  0 NonCon=     1 RMS=3.19D-06 Max=2.76D-05 NDo=     1
 LinEq1:  Iter=  1 NonCon=     1 RMS=1.03D-06 Max=1.17D-05 NDo=     1
 LinEq1:  Iter=  2 NonCon=     1 RMS=2.85D-07 Max=3.50D-06 NDo=     1
 LinEq1:  Iter=  3 NonCon=     1 RMS=8.87D-08 Max=9.51D-07 NDo=     1
 LinEq1:  Iter=  4 NonCon=     1 RMS=1.25D-08 Max=1.03D-07 NDo=     1
 LinEq1:  Iter=  5 NonCon=     1 RMS=2.82D-09 Max=3.18D-08 NDo=     1
 LinEq1:  Iter=  6 NonCon=     0 RMS=8.21D-10 Max=8.36D-09 NDo=     1
 Linear equations converged to 2.717D-09 2.717D-08 after     6 iterations.
 Angle between quadratic step and gradient=  88.15 degrees.
     ILin= 1 X=0.000D+00 Y=-2.503294448088D+01 DE= 0.00D+00 F= -4.22D-07
     ILin= 2 X=1.000D+00 Y=-2.503294460492D+01 DE=-1.24D-07 F=  1.75D-07
     Accept linear search using points  1 and  2.
     An  expanding polynomial of degree  2 produced  0.7080
 Iteration  15 EE= -25.0329446303867     Delta-E=       -0.000000149506 Grad=3.869D-04 Max rot=    0.0165 deg.
 QCNR:  CnvC1=2.72D-09 CnvC2=2.72D-08
 LinEq1:  Iter=  0 NonCon=     1 RMS=4.74D-06 Max=4.47D-05 NDo=     1
 LinEq1:  Iter=  1 NonCon=     1 RMS=1.59D-06 Max=1.53D-05 NDo=     1
 LinEq1:  Iter=  2 NonCon=     1 RMS=3.67D-07 Max=3.86D-06 NDo=     1
 LinEq1:  Iter=  3 NonCon=     1 RMS=7.17D-08 Max=8.38D-07 NDo=     1
 LinEq1:  Iter=  4 NonCon=     1 RMS=2.00D-08 Max=2.13D-07 NDo=     1
 LinEq1:  Iter=  5 NonCon=     1 RMS=5.22D-09 Max=4.82D-08 NDo=     1
 LinEq1:  Iter=  6 NonCon=     0 RMS=1.56D-09 Max=1.14D-08 NDo=     1
 Linear equations converged to 2.717D-09 2.717D-08 after     6 iterations.
 Angle between quadratic step and gradient=  81.34 degrees.
     ILin= 1 X=0.000D+00 Y=-2.503294463039D+01 DE= 0.00D+00 F= -3.09D-07
     ILin= 2 X=1.000D+00 Y=-2.503294475043D+01 DE=-1.20D-07 F=  6.88D-08
     Accept linear search using points  1 and  2.
     An  expanding polynomial of degree  2 produced  0.8178
 Iteration  16 EE= -25.0329447566958     Delta-E=       -0.000000126309 Grad=4.718D-04 Max rot=    0.0209 deg.
 QCNR:  CnvC1=2.72D-09 CnvC2=2.72D-08
 LinEq1:  Iter=  0 NonCon=     1 RMS=3.26D-06 Max=2.69D-05 NDo=     1
 LinEq1:  Iter=  1 NonCon=     1 RMS=1.04D-06 Max=1.06D-05 NDo=     1
 LinEq1:  Iter=  2 NonCon=     1 RMS=2.72D-07 Max=3.07D-06 NDo=     1
 LinEq1:  Iter=  3 NonCon=     1 RMS=8.34D-08 Max=9.22D-07 NDo=     1
 LinEq1:  Iter=  4 NonCon=     1 RMS=1.24D-08 Max=1.33D-07 NDo=     1
 LinEq1:  Iter=  5 NonCon=     0 RMS=2.46D-09 Max=1.87D-08 NDo=     1
 Linear equations converged to 2.717D-09 2.717D-08 after     5 iterations.
 Angle between quadratic step and gradient=  88.37 degrees.
     ILin= 1 X=0.000D+00 Y=-2.503294475670D+01 DE= 0.00D+00 F= -1.26D-06
     ILin= 2 X=1.000D+00 Y=-2.503294395605D+01 DE= 8.01D-07 F=  3.03D-06
     Reject lnstep minimum 3.193D-01 FVal=-2.503294496109D+01 Lims=  0.00D+00  1.00D+00
     ILin= 3 X=3.000D-01 Y=-2.503294495805D+01 DE=-2.01D-07 F= -7.08D-08
     A contracting polynomial of degree  3 produced  0.3096
     Minimum is close to point  3 DX=  9.61D-03 DF= -1.94D-10 DXR=  3.10D-02 DFR=  9.64D-04 which will be used.
 Iteration  17 EE= -25.0329449580484     Delta-E=       -0.000000201353 Grad=9.470D-04 Max rot=    0.0305 deg.
 QCNR:  CnvC1=2.72D-09 CnvC2=2.72D-08
 LinEq1:  Iter=  0 NonCon=     1 RMS=8.06D-06 Max=5.97D-05 NDo=     1
 LinEq1:  Iter=  1 NonCon=     1 RMS=2.04D-06 Max=1.45D-05 NDo=     1
 LinEq1:  Iter=  2 NonCon=     1 RMS=6.36D-07 Max=7.09D-06 NDo=     1
 LinEq1:  Iter=  3 NonCon=     1 RMS=7.68D-08 Max=1.29D-06 NDo=     1
 LinEq1:  Iter=  4 NonCon=     1 RMS=2.05D-08 Max=2.18D-07 NDo=     1
 LinEq1:  Iter=  5 NonCon=     1 RMS=5.92D-09 Max=4.27D-08 NDo=     1
 LinEq1:  Iter=  6 NonCon=     0 RMS=1.16D-09 Max=1.29D-08 NDo=     1
 Linear equations converged to 2.717D-09 2.717D-08 after     6 iterations.
 Angle between quadratic step and gradient=  86.60 degrees.
     ILin= 1 X=0.000D+00 Y=-2.503294495805D+01 DE= 0.00D+00 F= -4.42D-07
     ILin= 2 X=1.000D+00 Y=-2.503294511703D+01 DE=-1.59D-07 F=  1.23D-07
     Accept linear search using points  1 and  2.
     An  expanding polynomial of degree  2 produced  0.7813
 Iteration  18 EE= -25.0329451305286     Delta-E=       -0.000000172480 Grad=5.234D-04 Max rot=    0.0227 deg.
 QCNR:  CnvC1=2.72D-09 CnvC2=2.72D-08
 LinEq1:  Iter=  0 NonCon=     1 RMS=5.67D-06 Max=6.92D-05 NDo=     1
 LinEq1:  Iter=  1 NonCon=     1 RMS=1.31D-06 Max=1.32D-05 NDo=     1
 LinEq1:  Iter=  2 NonCon=     1 RMS=3.84D-07 Max=5.02D-06 NDo=     1
 LinEq1:  Iter=  3 NonCon=     1 RMS=1.17D-07 Max=1.57D-06 NDo=     1
 LinEq1:  Iter=  4 NonCon=     1 RMS=1.55D-08 Max=1.92D-07 NDo=     1
 LinEq1:  Iter=  5 NonCon=     1 RMS=3.85D-09 Max=2.83D-08 NDo=     1
 LinEq1:  Iter=  6 NonCon=     0 RMS=1.05D-09 Max=1.17D-08 NDo=     1
 Linear equations converged to 2.717D-09 2.717D-08 after     6 iterations.
 Angle between quadratic step and gradient=  87.89 degrees.
     ILin= 1 X=0.000D+00 Y=-2.503294513053D+01 DE= 0.00D+00 F= -2.85D-07
     ILin= 2 X=1.000D+00 Y=-2.503294522484D+01 DE=-9.43D-08 F=  9.61D-08
     Accept linear search using points  1 and  2.
     An  expanding polynomial of degree  2 produced  0.7475
 Iteration  19 EE= -25.0329452369712     Delta-E=       -0.000000106443 Grad=3.887D-04 Max rot=    0.0157 deg.
 QCNR:  CnvC1=2.72D-09 CnvC2=2.72D-08
 LinEq1:  Iter=  0 NonCon=     1 RMS=3.78D-06 Max=3.44D-05 NDo=     1
 LinEq1:  Iter=  1 NonCon=     1 RMS=1.28D-06 Max=1.33D-05 NDo=     1
 LinEq1:  Iter=  2 NonCon=     1 RMS=2.92D-07 Max=3.11D-06 NDo=     1
 LinEq1:  Iter=  3 NonCon=     1 RMS=7.94D-08 Max=7.88D-07 NDo=     1
 LinEq1:  Iter=  4 NonCon=     1 RMS=1.21D-08 Max=1.09D-07 NDo=     1
 LinEq1:  Iter=  5 NonCon=     1 RMS=4.44D-09 Max=4.26D-08 NDo=     1
 LinEq1:  Iter=  6 NonCon=     0 RMS=9.36D-10 Max=1.35D-08 NDo=     1
 Linear equations converged to 2.717D-09 2.717D-08 after     6 iterations.
 Angle between quadratic step and gradient=  85.05 degrees.
     ILin= 1 X=0.000D+00 Y=-2.503294523697D+01 DE= 0.00D+00 F= -2.13D-07
     ILin= 2 X=1.000D+00 Y=-2.503294530708D+01 DE=-7.01D-08 F=  7.24D-08
     Accept linear search using points  1 and  2.
     An  expanding polynomial of degree  2 produced  0.7460
 Iteration  20 EE= -25.0329453162767     Delta-E=       -0.000000079306 Grad=4.932D-04 Max rot=    0.0199 deg.
 QCNR:  CnvC1=2.72D-09 CnvC2=2.72D-08
 LinEq1:  Iter=  0 NonCon=     1 RMS=4.37D-06 Max=6.30D-05 NDo=     1
 LinEq1:  Iter=  1 NonCon=     1 RMS=1.07D-06 Max=1.18D-05 NDo=     1
 LinEq1:  Iter=  2 NonCon=     1 RMS=3.45D-07 Max=3.42D-06 NDo=     1
 LinEq1:  Iter=  3 NonCon=     1 RMS=8.27D-08 Max=7.93D-07 NDo=     1
 LinEq1:  Iter=  4 NonCon=     1 RMS=1.64D-08 Max=1.92D-07 NDo=     1
 LinEq1:  Iter=  5 NonCon=     1 RMS=3.05D-09 Max=2.29D-08 NDo=     1
 LinEq1:  Iter=  6 NonCon=     0 RMS=5.21D-10 Max=4.77D-09 NDo=     1
 Linear equations converged to 2.717D-09 2.717D-08 after     6 iterations.
 Angle between quadratic step and gradient=  88.66 degrees.
     ILin= 1 X=0.000D+00 Y=-2.503294531628D+01 DE= 0.00D+00 F= -2.22D-06
     ILin= 2 X=1.000D+00 Y=-2.503294561320D+01 DE=-2.97D-07 F=  3.37D-06
     Accept linear search using points  1 and  2.
     An  expanding polynomial of degree  2 produced  0.6258
 Iteration  21 EE= -25.0329461551082     Delta-E=       -0.000000838832 Grad=1.767D-03 Max rot=    0.0568 deg.
 QCNR:  CnvC1=2.72D-09 CnvC2=2.72D-08
 LinEq1:  Iter=  0 NonCon=     1 RMS=1.63D-05 Max=1.21D-04 NDo=     1
 LinEq1:  Iter=  1 NonCon=     1 RMS=2.76D-06 Max=2.23D-05 NDo=     1
 LinEq1:  Iter=  2 NonCon=     1 RMS=7.19D-07 Max=8.31D-06 NDo=     1
 LinEq1:  Iter=  3 NonCon=     1 RMS=2.25D-07 Max=1.82D-06 NDo=     1
 LinEq1:  Iter=  4 NonCon=     1 RMS=4.98D-08 Max=5.52D-07 NDo=     1
 LinEq1:  Iter=  5 NonCon=     1 RMS=9.69D-09 Max=9.03D-08 NDo=     1
 LinEq1:  Iter=  6 NonCon=     1 RMS=3.42D-09 Max=2.99D-08 NDo=     1
 LinEq1:  Iter=  7 NonCon=     0 RMS=6.79D-10 Max=6.84D-09 NDo=     1
 Linear equations converged to 2.717D-09 2.717D-08 after     7 iterations.
 Angle between quadratic step and gradient=  85.33 degrees.
     ILin= 1 X=0.000D+00 Y=-2.503294615511D+01 DE= 0.00D+00 F= -1.19D-06
     ILin= 2 X=1.000D+00 Y=-2.503294669831D+01 DE=-5.43D-07 F=  9.83D-08
     Accept linear search using points  1 and  2.
     An  expanding polynomial of degree  2 produced  0.9233
     Minimum is close to point  2 DX= -7.67D-02 DF= -3.77D-09 DXR=  8.31D-02 DFR=  6.94D-03 which will be used.
 Iteration  22 EE= -25.0329466983129     Delta-E=       -0.000000543205 Grad=3.404D-04 Max rot=    0.0108 deg.
 QCNR:  CnvC1=2.72D-09 CnvC2=2.72D-08
 LinEq1:  Iter=  0 NonCon=     1 RMS=4.57D-06 Max=4.68D-05 NDo=     1
 LinEq1:  Iter=  1 NonCon=     1 RMS=1.36D-06 Max=1.03D-05 NDo=     1
 LinEq1:  Iter=  2 NonCon=     1 RMS=3.56D-07 Max=3.27D-06 NDo=     1
 LinEq1:  Iter=  3 NonCon=     1 RMS=1.01D-07 Max=8.19D-07 NDo=     1
 LinEq1:  Iter=  4 NonCon=     1 RMS=1.70D-08 Max=1.61D-07 NDo=     1
 LinEq1:  Iter=  5 NonCon=     1 RMS=4.82D-09 Max=4.19D-08 NDo=     1
 LinEq1:  Iter=  6 NonCon=     0 RMS=1.46D-09 Max=1.12D-08 NDo=     1
 Linear equations converged to 2.717D-09 2.717D-08 after     6 iterations.
 Angle between quadratic step and gradient=  82.99 degrees.
     ILin= 1 X=0.000D+00 Y=-2.503294669831D+01 DE= 0.00D+00 F= -1.65D-07
     ILin= 2 X=1.000D+00 Y=-2.503294676535D+01 DE=-6.70D-08 F=  3.08D-08
     Accept linear search using points  1 and  2.
     An  expanding polynomial of degree  2 produced  0.8427
 Iteration  23 EE= -25.0329467677761     Delta-E=       -0.000000069463 Grad=4.127D-04 Max rot=    0.0147 deg.
 QCNR:  CnvC1=2.72D-09 CnvC2=2.72D-08
 LinEq1:  Iter=  0 NonCon=     1 RMS=2.26D-06 Max=1.87D-05 NDo=     1
 LinEq1:  Iter=  1 NonCon=     1 RMS=8.17D-07 Max=8.20D-06 NDo=     1
 LinEq1:  Iter=  2 NonCon=     1 RMS=2.35D-07 Max=2.28D-06 NDo=     1
 LinEq1:  Iter=  3 NonCon=     1 RMS=5.19D-08 Max=5.42D-07 NDo=     1
 LinEq1:  Iter=  4 NonCon=     1 RMS=9.06D-09 Max=7.90D-08 NDo=     1
 LinEq1:  Iter=  5 NonCon=     0 RMS=2.18D-09 Max=1.88D-08 NDo=     1
 Linear equations converged to 2.717D-09 2.717D-08 after     5 iterations.
 Angle between quadratic step and gradient=  88.05 degrees.
     ILin= 1 X=0.000D+00 Y=-2.503294676778D+01 DE= 0.00D+00 F= -3.20D-07
     ILin= 2 X=1.000D+00 Y=-2.503294672769D+01 DE= 4.01D-08 F=  3.99D-07
     Reject lnstep minimum 4.439D-01 FVal=-2.503294683873D+01 Lims=  0.00D+00  1.00D+00
     ILin= 3 X=4.000D-01 Y=-2.503294683802D+01 DE=-7.02D-08 F= -3.15D-08
     A contracting polynomial of degree  3 produced  0.4442
     Minimum is close to point  3 DX=  4.42D-02 DF= -7.04D-10 DXR=  9.96D-02 DFR=  1.00D-02 which will be used.
 Iteration  24 EE= -25.0329468380178     Delta-E=       -0.000000070242 Grad=3.510D-04 Max rot=    0.0085 deg.
 QCNR:  CnvC1=2.72D-09 CnvC2=2.72D-08
 LinEq1:  Iter=  0 NonCon=     1 RMS=3.44D-06 Max=3.37D-05 NDo=     1
 LinEq1:  Iter=  1 NonCon=     1 RMS=1.30D-06 Max=1.21D-05 NDo=     1
 LinEq1:  Iter=  2 NonCon=     1 RMS=2.77D-07 Max=2.50D-06 NDo=     1
 LinEq1:  Iter=  3 NonCon=     1 RMS=3.96D-08 Max=3.20D-07 NDo=     1
[...]
                 (SG) (SG) (PHI) (PHI) (DLTA) (DLTA) (PI) (PI)
                 (SG) (DLTA) (DLTA) (PI) (PI) (SG) (DLTA) (DLTA)
                 (PI) (PI) (SG) (PI) (PI) (SG) (PI) (PI) (SG) (?A)
                 (?A) (PHI) (PHI) (DLTA) (DLTA) (PI) (PI) (SG)
                 (DLTA) (DLTA) (SG) (PHI) (PHI) (PI) (PI) (DLTA)
                 (DLTA) (SG) (PI) (PI) (SG) (PHI) (PHI) (DLTA)
                 (DLTA) (SG) (PI) (PI) (SG) (DLTA) (DLTA) (PI)
                 (PI) (SG) (PI) (PI) (SG) (PI) (PI) (SG) (?A) (?A)
                 (PHI) (PHI) (DLTA) (DLTA) (DLTA) (DLTA) (PI) (PI)
                 (SG) (PI) (PI) (SG) (PHI) (PHI) (DLTA) (DLTA)
                 (PI) (PI) (SG) (PHI) (PHI) (DLTA) (DLTA) (PI)
                 (PI) (SG) (SG) (PI) (PI) (SG) (DLTA) (DLTA) (PI)
                 (PI) (SG) (SG)
 Beta  Orbitals:
       Occupied  (SG) (SG) (SG)
       Virtual   (SG) (PI) (PI) (SG) (SG) (PI) (PI) (SG) (PI) (PI)
                 (DLTA) (DLTA) (SG) (PI) (PI) (SG) (PI) (PI) (SG)
                 (SG) (SG) (PHI) (PHI) (DLTA) (DLTA) (PI) (PI)
                 (PI) (PI) (SG) (DLTA) (DLTA) (SG) (DLTA) (DLTA)
                 (PI) (PI) (SG) (PI) (PI) (SG) (PI) (PI) (SG) (?A)
                 (?A) (PHI) (PHI) (DLTA) (DLTA) (PI) (PI) (SG)
                 (SG) (PI) (PI) (DLTA) (DLTA) (SG) (PHI) (PHI)
                 (DLTA) (DLTA) (PI) (PI) (SG) (PHI) (PHI) (DLTA)
                 (DLTA) (PI) (PI) (SG) (SG) (DLTA) (DLTA) (PI)
                 (PI) (SG) (PI) (PI) (SG) (PI) (PI) (SG) (?A) (?A)
                 (PHI) (PHI) (DLTA) (DLTA) (PI) (PI) (DLTA) (DLTA)
                 (SG) (PI) (PI) (SG) (PHI) (PHI) (DLTA) (DLTA)
                 (PI) (PI) (SG) (PHI) (PHI) (DLTA) (DLTA) (PI)
                 (PI) (SG) (SG) (PI) (PI) (SG) (DLTA) (DLTA) (PI)
                 (PI) (SG) (SG)
    12 initial guesses have been made.
 Convergence on wavefunction:    0.001000000000000
 Davidson Disk Diagonalization:  ConvIn= 1.00D-03 SkipCon=T Conv= 1.00D-03.
 Max sub-space:  1476 roots to seek:    12 dimension of matrix:          738
 Iteration     1 Dimension    12 NMult     0 NNew     12
 CISAX will form    12 AO SS matrices at one time.
 NMat=    12 NSing=    12 JSym2X= 2.
 Excitation Energies [eV] at current iteration:
 Root      1 :     0.480431694938193
 Root      2 :     0.480431696927006
 Root      3 :     1.266997310825124
 Root      4 :     1.266997326105373
 Root      5 :     5.463627642631153
 Root      6 :     6.386125495376091
 Root      7 :     6.563939713146176
 Root      8 :     6.563939732095593
 Root      9 :    11.611811338792501
 Root     10 :    11.611811357060256
 Root     11 :    13.029692508949458
 Root     12 :    13.029692527220893
 Iteration     2 Dimension    24 NMult    12 NNew     12
 CISAX will form    12 AO SS matrices at one time.
 NMat=    12 NSing=    12 JSym2X= 2.
 Root      1 not converged, maximum delta is    0.068716675814445
 Excitation Energies [eV] at current iteration:
 Root      1 :     0.006733632945544   Change is   -0.473698061992649
 Root      2 :     0.006733634614927   Change is   -0.473698062312079
 Root      3 :     0.831897376663458   Change is   -0.435099934161666
 Root      4 :     0.831897387585305   Change is   -0.435099938520068
 Root      5 :     5.171352555848471   Change is   -0.292275086782682
 Root      6 :     5.958594237173962   Change is   -0.427531258202129
 Root      7 :     6.488972857323263   Change is   -0.074966874772330
 Root      8 :     6.488972871053232   Change is   -0.074966842092944
 Root      9 :     8.472703235405481   Change is   -3.139108103387020
 Root     10 :     8.472704339341330   Change is   -3.139107017718925
 Root     11 :    11.487586852772152   Change is   -1.542105656177307
 Root     12 :    11.487586881339872   Change is   -1.542105645881021
 Iteration     3 Dimension    27 NMult    24 NNew      3
 CISAX will form     3 AO SS matrices at one time.
 NMat=     3 NSing=     3 JSym2X= 2.
 New state      1 was old state      2
 Root      1 not converged, maximum delta is    0.040062608484591
 Excitation Energies [eV] at current iteration:
 Root      1 :     0.000913952713413   Change is   -0.005819681901515
 Root      2 :     0.000913953416156   Change is   -0.005819679529388
 Root      3 :     0.819272026178640   Change is   -0.012625350484818
 Iteration     4 Dimension    30 NMult    27 NNew      3
 CISAX will form     3 AO SS matrices at one time.
 NMat=     3 NSing=     3 JSym2X= 2.
 New state      1 was old state      2
 Root      1 not converged, maximum delta is    0.050923347164755
 Excitation Energies [eV] at current iteration:
 Root      1 :     0.000852612371489   Change is   -0.000061341044666
 Root      2 :     0.000852613237630   Change is   -0.000061339475782
 Root      3 :     0.819115324500415   Change is   -0.000156701678225
 Iteration     5 Dimension    33 NMult    30 NNew      3
 CISAX will form     3 AO SS matrices at one time.
 NMat=     3 NSing=     3 JSym2X= 2.
 Root      1 not converged, maximum delta is    0.010007744004007
 Excitation Energies [eV] at current iteration:
 Root      1 :     0.000852129342901   Change is   -0.000000483028589
 Root      2 :     0.000852130885773   Change is   -0.000000482351857
 Root      3 :     0.819113548821326   Change is   -0.000001775679089
 Iteration     6 Dimension    36 NMult    33 NNew      3
 CISAX will form     3 AO SS matrices at one time.
 NMat=     3 NSing=     3 JSym2X= 2.
 Root      1 has converged.
 Excitation Energies [eV] at current iteration:
 Root      1 :     0.000852127788457   Change is   -0.000000001554444
 Root      2 :     0.000852129343191   Change is   -0.000000001542583
 Root      3 :     0.819113513452825   Change is   -0.000000035368502
 Convergence achieved on expansion vectors.
 ***********************************************************************
 Stability analysis using <AA,BB:AA,BB> singles matrix:
 ***********************************************************************
 1PDM for each excited state written to RWF  633
 Ground to excited state transition densities written to RWF  633

 Eigenvectors of the stability matrix:
 
 Excited state symmetry could not be determined.
 Eigenvector   1:  2.272-?Sym  Eigenvalue= 0.0000313  <S**2>=1.041
      3B ->  5B       -0.68547
      3B ->  9B        0.65361
      3B -> 21B        0.28890
 The wavefunction is stable under the perturbations considered.
 Leave Link  914 at Sat May 21 21:23:20 2022, MaxMem=   104857600 cpu:               3.9 elap:               3.9
 (Enter /apps/software/g16/l508.exe)
 The wavefunction is already stable.
 Leave Link  508 at Sat May 21 21:23:20 2022, MaxMem=   104857600 cpu:               0.0 elap:               0.0
 (Enter /apps/software/g16/l601.exe)
 Copying SCF densities to generalized density rwf, IOpCl= 1 IROHF=0.
 SCF density gives NOpUse=  1 NOpAll=  4.
 Marking SCF density as not fully symmetric.

 **********************************************************************

            Population analysis using the SCF density.

 **********************************************************************

 Orbital symmetries:
 Alpha Orbitals:
       Occupied  (SG) (SG) (SG)
       Virtual   (PI) (PI) (SG) (SG) (SG) (PI) (PI) (SG) (PI) (PI)
                 (DLTA) (DLTA) (SG) (PI) (PI) (SG) (PI) (PI) (SG)
                 (SG) (SG) (PHI) (PHI) (DLTA) (DLTA) (PI) (PI)
                 (SG) (DLTA) (DLTA) (PI) (PI) (SG) (DLTA) (DLTA)
                 (PI) (PI) (SG) (PI) (PI) (SG) (PI) (PI) (SG) (?A)
                 (?A) (PHI) (PHI) (DLTA) (DLTA) (PI) (PI) (SG)
                 (DLTA) (DLTA) (SG) (PHI) (PHI) (PI) (PI) (DLTA)
                 (DLTA) (SG) (PI) (PI) (SG) (PHI) (PHI) (DLTA)
                 (DLTA) (SG) (PI) (PI) (SG) (DLTA) (DLTA) (PI)
                 (PI) (SG) (PI) (PI) (SG) (PI) (PI) (SG) (?A) (?A)
                 (PHI) (PHI) (DLTA) (DLTA) (DLTA) (DLTA) (PI) (PI)
                 (SG) (PI) (PI) (SG) (PHI) (PHI) (DLTA) (DLTA)
                 (PI) (PI) (SG) (PHI) (PHI) (DLTA) (DLTA) (PI)
                 (PI) (SG) (SG) (PI) (PI) (SG) (DLTA) (DLTA) (PI)
                 (PI) (SG) (SG)
 Beta  Orbitals:
       Occupied  (SG) (SG) (SG)
       Virtual   (SG) (PI) (PI) (SG) (SG) (PI) (PI) (SG) (PI) (PI)
                 (DLTA) (DLTA) (SG) (PI) (PI) (SG) (PI) (PI) (SG)
                 (SG) (SG) (PHI) (PHI) (DLTA) (DLTA) (PI) (PI)
                 (PI) (PI) (SG) (DLTA) (DLTA) (SG) (DLTA) (DLTA)
                 (PI) (PI) (SG) (PI) (PI) (SG) (PI) (PI) (SG) (?A)
                 (?A) (PHI) (PHI) (DLTA) (DLTA) (PI) (PI) (SG)
                 (SG) (PI) (PI) (DLTA) (DLTA) (SG) (PHI) (PHI)
                 (DLTA) (DLTA) (PI) (PI) (SG) (PHI) (PHI) (DLTA)
                 (DLTA) (PI) (PI) (SG) (SG) (DLTA) (DLTA) (PI)
                 (PI) (SG) (PI) (PI) (SG) (PI) (PI) (SG) (?A) (?A)
                 (PHI) (PHI) (DLTA) (DLTA) (PI) (PI) (DLTA) (DLTA)
                 (SG) (PI) (PI) (SG) (PHI) (PHI) (DLTA) (DLTA)
                 (PI) (PI) (SG) (PHI) (PHI) (DLTA) (DLTA) (PI)
                 (PI) (SG) (SG) (PI) (PI) (SG) (DLTA) (DLTA) (PI)
                 (PI) (SG) (SG)
 The electronic state is 1-SG.
 Alpha  occ. eigenvalues --   -7.68649  -0.49615  -0.44637
 Alpha virt. eigenvalues --    0.02729   0.02729   0.04359   0.05161   0.07538
 Alpha virt. eigenvalues --    0.08423   0.08423   0.11684   0.14207   0.14207
 Alpha virt. eigenvalues --    0.14568   0.14568   0.16879   0.20029   0.20029
 Alpha virt. eigenvalues --    0.25375   0.31980   0.31980   0.34317   0.36059
 Alpha virt. eigenvalues --    0.39578   0.46174   0.46174   0.47028   0.47028
 Alpha virt. eigenvalues --    0.47127   0.47127   0.49887   0.50137   0.50137
 Alpha virt. eigenvalues --    0.52666   0.52666   0.57157   0.61851   0.61851
 Alpha virt. eigenvalues --    0.65094   0.65094   0.70143   0.76306   0.76306
 Alpha virt. eigenvalues --    0.85506   1.06052   1.06052   1.13302   1.36966
 Alpha virt. eigenvalues --    1.36966   1.38437   1.38437   1.39480   1.39480
 Alpha virt. eigenvalues --    1.40193   1.40193   1.40753   1.41589   1.41589
 Alpha virt. eigenvalues --    1.42674   1.43969   1.43969   1.45550   1.45550
 Alpha virt. eigenvalues --    1.46312   1.46312   1.46656   1.47943   1.47943
 Alpha virt. eigenvalues --    1.52346   1.56204   1.56204   1.56391   1.56391
 Alpha virt. eigenvalues --    1.57904   1.58042   1.58042   1.66879   2.45206
 Alpha virt. eigenvalues --    2.45206   2.46533   2.46533   2.49569   2.56085
 Alpha virt. eigenvalues --    2.56085   2.63655   3.74451   3.74451   3.80887
 Alpha virt. eigenvalues --    3.92025   3.92025   3.94557   3.94557   3.96041
 Alpha virt. eigenvalues --    3.96041   3.96488   3.96488   3.97550   3.97550
 Alpha virt. eigenvalues --    3.98709   4.00316   4.00316   4.02655   4.08865
 Alpha virt. eigenvalues --    4.08865   4.12142   4.12142   4.14756   4.14756
 Alpha virt. eigenvalues --    4.18785   6.55475   6.55475   6.55509   6.55509
 Alpha virt. eigenvalues --    6.55721   6.55721   6.56198   7.41651   7.93778
 Alpha virt. eigenvalues --    7.93778   7.98030   8.39077   8.39077   8.39909
 Alpha virt. eigenvalues --    8.39909   8.43100  13.05907
  Beta  occ. eigenvalues --   -7.70162  -0.54540  -0.31884
  Beta virt. eigenvalues --    0.01889   0.02359   0.02359   0.05058   0.07422
  Beta virt. eigenvalues --    0.07724   0.07724   0.10906   0.14245   0.14245
  Beta virt. eigenvalues --    0.14561   0.14561   0.17313   0.21512   0.21512
  Beta virt. eigenvalues --    0.24198   0.31164   0.31164   0.31552   0.34228
  Beta virt. eigenvalues --    0.45288   0.46182   0.46182   0.46635   0.46635
  Beta virt. eigenvalues --    0.46664   0.46664   0.49648   0.49648   0.49721
  Beta virt. eigenvalues --    0.50030   0.50030   0.55330   0.63178   0.63178
  Beta virt. eigenvalues --    0.66374   0.66374   0.71978   0.82758   0.82758
  Beta virt. eigenvalues --    0.90080   1.05123   1.05123   1.06441   1.36994
  Beta virt. eigenvalues --    1.36994   1.37921   1.37921   1.38585   1.38585
  Beta virt. eigenvalues --    1.39095   1.39095   1.39137   1.39778   1.40671
  Beta virt. eigenvalues --    1.40671   1.41101   1.41101   1.42192   1.43904
  Beta virt. eigenvalues --    1.43904   1.44702   1.44702   1.45574   1.45574
  Beta virt. eigenvalues --    1.49781   1.57462   1.57462   1.57630   1.57630
  Beta virt. eigenvalues --    1.58999   1.58999   1.61627   1.74119   2.49153
  Beta virt. eigenvalues --    2.49153   2.50486   2.50486   2.53874   2.63507
  Beta virt. eigenvalues --    2.63507   2.70375   3.73738   3.73738   3.76071
  Beta virt. eigenvalues --    3.91956   3.91956   3.93468   3.93468   3.94550
  Beta virt. eigenvalues --    3.94550   3.95300   3.95300   3.95595   3.95595
  Beta virt. eigenvalues --    3.96244   3.96616   3.96616   3.97929   4.08597
  Beta virt. eigenvalues --    4.08597   4.09999   4.09999   4.11427   4.11427
  Beta virt. eigenvalues --    4.14967   6.58360   6.58360   6.58393   6.58393
  Beta virt. eigenvalues --    6.58602   6.58602   6.59077   7.49815   7.99570
  Beta virt. eigenvalues --    7.99570   8.03772   8.43300   8.43300   8.44126
  Beta virt. eigenvalues --    8.44126   8.47302  13.04732
          Condensed to atoms (all electrons):
               1          2
     1  B    5.000049  -0.000330
     2  H   -0.000330   1.000611
          Atomic-Atomic Spin Densities.
               1          2
     1  B   -1.000226  -0.000176
     2  H   -0.000176   1.000578
 Mulliken charges and spin densities:
               1          2
     1  B    0.000281  -1.000402
     2  H   -0.000281   1.000402
 Sum of Mulliken charges =   0.00000   0.00000
 Mulliken charges and spin densities with hydrogens summed into heavy atoms:
               1          2
     1  B    0.000000   0.000000
 Electronic spatial extent (au):  <R**2>=             81.8418
 Charge=              0.0000 electrons
 Dipole moment (field-independent basis, Debye):
    X=              0.0000    Y=             -0.0000    Z=              0.0195  Tot=              0.0195
 Quadrupole moment (field-independent basis, Debye-Ang):
   XX=             -7.3068   YY=             -7.3068   ZZ=            -10.7699
   XY=             -0.0000   XZ=              0.0000   YZ=             -0.0008
 Traceless Quadrupole moment (field-independent basis, Debye-Ang):
   XX=              1.1543   YY=              1.1543   ZZ=             -2.3087
   XY=             -0.0000   XZ=              0.0000   YZ=             -0.0008
 Octapole moment (field-independent basis, Debye-Ang**2):
  XXX=              0.0000  YYY=             -0.0000  ZZZ=             -5.2722  XYY=              0.0000
  XXY=             -0.0000  XXZ=              0.6127  XZZ=              0.0000  YZZ=             -0.0013
  YYZ=              0.6127  XYZ=             -0.0000
 Hexadecapole moment (field-independent basis, Debye-Ang**3):
 XXXX=            -10.7346 YYYY=            -10.7346 ZZZZ=           -176.3185 XXXY=             -0.0000
 XXXZ=              0.0000 YYYX=              0.0000 YYYZ=             -0.0013 ZZZX=              0.0000
 ZZZY=             -0.0026 XXYY=             -3.5782 XXZZ=            -28.6989 YYZZ=            -28.6989
 XXYZ=             -0.0004 YYXZ=              0.0000 ZZXY=             -0.0000
 N-N= 5.751926205652D-01 E-N=-5.905360657413D+01  KE= 2.503218490155D+01
 Symmetry A1   KE= 2.503218485451D+01
 Symmetry A2   KE= 1.473436733126D-20
 Symmetry B1   KE= 1.192086708404D-22
 Symmetry B2   KE= 4.703745443717D-08
 Symmetry A1   SP= 6.204389221078D-08
 Symmetry A2   SP=-2.974906252758D-21
 Symmetry B1   SP=-4.774158842691D-23
 Symmetry B2   SP=-6.132220528324D-08
                          Isotropic Fermi Contact Couplings
        Atom                 a.u.       MegaHertz       Gauss      10(-4) cm-1
     1  B(11)             -0.00203      -1.45288      -0.51843      -0.48463
     2  H(1)               0.29849     667.11089     238.04176     222.52424
 --------------------------------------------------------
       Center         ----  Spin Dipole Couplings  ----
                      3XX-RR        3YY-RR        3ZZ-RR
 --------------------------------------------------------
     1   Atom        0.330037      0.330037     -0.660074
     2   Atom        0.001975      0.001975     -0.003950
 --------------------------------------------------------
                        XY            XZ            YZ
 --------------------------------------------------------
     1   Atom        0.000000      0.000000     -0.000246
     2   Atom        0.000000      0.000000      0.000000
 --------------------------------------------------------


 ---------------------------------------------------------------------------------
              Anisotropic Spin Dipole Couplings in Principal Axis System
 ---------------------------------------------------------------------------------

       Atom             a.u.   MegaHertz   Gauss  10(-4) cm-1        Axes

              Baa    -0.6601  -113.014   -40.326   -37.698 -0.0000  0.0002  1.0000
     1 B(11)  Bbb     0.3300    56.507    20.163    18.849 -0.0097  1.0000 -0.0002
              Bcc     0.3300    56.507    20.163    18.849  1.0000  0.0097 -0.0000
 
              Baa    -0.0039    -2.107    -0.752    -0.703 -0.0000 -0.0000  1.0000
     2 H(1)   Bbb     0.0020     1.054     0.376     0.351 -0.0002  1.0000  0.0000
              Bcc     0.0020     1.054     0.376     0.351  1.0000  0.0002  0.0000
 

 ---------------------------------------------------------------------------------

 No NMR shielding tensors so no spin-rotation constants.
 Leave Link  601 at Sat May 21 21:23:21 2022, MaxMem=   104857600 cpu:               0.2 elap:               0.2
 (Enter /apps/software/g16/l9999.exe)
 1\1\GINC-CNODE03\Stability\UHF\Aug-CC-pVQZ\B1H1\LCZ\21-May-2022\0\\#p 
 UHF/aug-cc-pVQZ guess=mix stable=opt SCF=MaxCycle=500\\BH UHF at 4.6 A
 ngstrom\\0,1\B,0,0.,0.,0.\H,0,4.6,0.,0.\\Version=ES64L-G16RevA.03\Stat
 e=1-SG\HF=-25.0329512\S2=1.010517\S2-1=0.\S2A=0.0894\RMSD=8.812e-09\Di
 pole=-0.0076854,-0.0000015,0.\Quadrupole=-1.7164522,0.858226,0.8582262
 ,0.0006071,0.,0.\PG=C*V [C*(H1B1)]\\@


 I CLAIM NOT TO HAVE CONTROLLED EVENTS,
 BUT CONFESS PLAINLY THAT EVENTS HAVE CONTROLLED ME.

                                         A. LINCOLN
 Job cpu time:       0 days  0 hours  1 minutes 37.7 seconds.
 Elapsed time:       0 days  0 hours  1 minutes 38.0 seconds.
 File lengths (MBytes):  RWF=     33 Int=      0 D2E=      0 Chk=      4 Scr=      1
 Normal termination of Gaussian 16 at Sat May 21 21:23:21 2022.

Sender: Unischeduler System <lcz@mgt01>
Subject: Job 133658: <#!/bin/bash
#BSUB -J intel
#BSUB -o BH-4.6-G.out
#BSUB -n 8
#BSUB -q cqueue
#BSUB -R span[hosts=1]
export g16root=/apps/software
source /apps/software/g16/bsd/g16.profile
export GAUSS_SCRDIR=/scratch
/apps/software/g16/g16 < BH-4.6-G.inp > BH-4.6-G.out> Done

Job <#!/bin/bash
#BSUB -J intel
#BSUB -o BH-4.6-G.out
#BSUB -n 8
#BSUB -q cqueue
#BSUB -R span[hosts=1]
export g16root=/apps/software
source /apps/software/g16/bsd/g16.profile
export GAUSS_SCRDIR=/scratch
/apps/software/g16/g16 < BH-4.6-G.inp > BH-4.6-G.out> was submitted from host <mgt01> by user <lcz>.
Job was executed on host(s) <8*cnode03>, in queue <cqueue>, as user <lcz>.
</apps/users/lcz> was used as the home directory.
</apps/users/lcz/exe13/UHF> was used as the working directory.
Started at 2022-05-21 21:21:43
Results reported at 2022-05-21 21:23:21

Your job looked like:

------------------------------------------------------------
# User input
#!/bin/bash
#BSUB -J intel
#BSUB -o BH-4.6-G.out
#BSUB -n 8
#BSUB -q cqueue
#BSUB -R span[hosts=1]
export g16root=/apps/software
source /apps/software/g16/bsd/g16.profile
export GAUSS_SCRDIR=/scratch
/apps/software/g16/g16 < BH-4.6-G.inp > BH-4.6-G.out
------------------------------------------------------------

Successfully completed.

Resource usage summary:

    CPU time   :           96.56 sec.
    Max Memory :               482 MB
    Max Processes  :               5


The output (if any) follows:

