 Entering Gaussian System, Link 0=/apps/software/g16/g16
 Initial command:
 /apps/software/g16/l1.exe "/scratch/Gau-441215.inp" -scrdir="/scratch/"
 Entering Link 1 = /apps/software/g16/l1.exe PID=    441216.
  
 Copyright (c) 1988,1990,1992,1993,1995,1998,2003,2009,2016,
            Gaussian, Inc.  All Rights Reserved.
  
 This is part of the Gaussian(R) 16 program.  It is based on
 the Gaussian(R) 09 system (copyright 2009, Gaussian, Inc.),
 the Gaussian(R) 03 system (copyright 2003, Gaussian, Inc.),
 the Gaussian(R) 98 system (copyright 1998, Gaussian, Inc.),
 the Gaussian(R) 94 system (copyright 1995, Gaussian, Inc.),
 the Gaussian 92(TM) system (copyright 1992, Gaussian, Inc.),
 the Gaussian 90(TM) system (copyright 1990, Gaussian, Inc.),
 the Gaussian 88(TM) system (copyright 1988, Gaussian, Inc.),
 the Gaussian 86(TM) system (copyright 1986, Carnegie Mellon
 University), and the Gaussian 82(TM) system (copyright 1983,
 Carnegie Mellon University). Gaussian is a federally registered
 trademark of Gaussian, Inc.
  
 This software contains proprietary and confidential information,
 including trade secrets, belonging to Gaussian, Inc.
  
 This software is provided under written license and may be
 used, copied, transmitted, or stored only in accord with that
 written license.
  
 The following legend is applicable only to US Government
 contracts under FAR:
  
                    RESTRICTED RIGHTS LEGEND
  
 Use, reproduction and disclosure by the US Government is
 subject to restrictions as set forth in subparagraphs (a)
 and (c) of the Commercial Computer Software - Restricted
 Rights clause in FAR 52.227-19.
  
 Gaussian, Inc.
 340 Quinnipiac St., Bldg. 40, Wallingford CT 06492
  
  
 ---------------------------------------------------------------
 Warning -- This program may not be used in any manner that
 competes with the business of Gaussian, Inc. or will provide
 assistance to any competitor of Gaussian, Inc.  The licensee
 of this program is prohibited from giving any competitor of
 Gaussian, Inc. access to this program.  By using this program,
 the user acknowledges that Gaussian, Inc. is engaged in the
 business of creating and licensing software in the field of
 computational chemistry and represents and warrants to the
 licensee that it is not a competitor of Gaussian, Inc. and that
 it will not use this program in any manner prohibited above.
 ---------------------------------------------------------------
  

 Cite this work as:
 Gaussian 16, Revision A.03,
 M. J. Frisch, G. W. Trucks, H. B. Schlegel, G. E. Scuseria, 
 M. A. Robb, J. R. Cheeseman, G. Scalmani, V. Barone, 
 G. A. Petersson, H. Nakatsuji, X. Li, M. Caricato, A. V. Marenich, 
 J. Bloino, B. G. Janesko, R. Gomperts, B. Mennucci, H. P. Hratchian, 
 J. V. Ortiz, A. F. Izmaylov, J. L. Sonnenberg, D. Williams-Young, 
 F. Ding, F. Lipparini, F. Egidi, J. Goings, B. Peng, A. Petrone, 
 T. Henderson, D. Ranasinghe, V. G. Zakrzewski, J. Gao, N. Rega, 
 G. Zheng, W. Liang, M. Hada, M. Ehara, K. Toyota, R. Fukuda, 
 J. Hasegawa, M. Ishida, T. Nakajima, Y. Honda, O. Kitao, H. Nakai, 
 T. Vreven, K. Throssell, J. A. Montgomery, Jr., J. E. Peralta, 
 F. Ogliaro, M. J. Bearpark, J. J. Heyd, E. N. Brothers, K. N. Kudin, 
 V. N. Staroverov, T. A. Keith, R. Kobayashi, J. Normand, 
 K. Raghavachari, A. P. Rendell, J. C. Burant, S. S. Iyengar, 
 J. Tomasi, M. Cossi, J. M. Millam, M. Klene, C. Adamo, R. Cammi, 
 J. W. Ochterski, R. L. Martin, K. Morokuma, O. Farkas, 
 J. B. Foresman, and D. J. Fox, Gaussian, Inc., Wallingford CT, 2016.
 
 ******************************************
 Gaussian 16:  ES64L-G16RevA.03 25-Dec-2016
                21-May-2022 
 ******************************************
 %chk=BH-5.0-G.chk
 ---------------------------------------
 #p UHF/aug-cc-pVQZ guess=mix stable=opt
 ---------------------------------------
 1/38=1,172=1/1;
 2/12=2,17=6,18=5,40=1/2;
 3/5=16,6=2,7=10,11=2,25=1,30=1,116=2/1,2,3;
 4/13=-1/1;
 5/5=2,38=5/2;
 6/7=2,8=2,9=2,10=2,28=1/1;
 8/6=1,10=90,11=11/1;
 9/8=-3,42=1,46=1/14;
 5/5=2,8=3,17=40,38=5/8(-2);
 6/7=2,8=2,9=2,10=2,28=1/1;
 99/5=1,9=1/99;
 Leave Link    1 at Sat May 21 19:01:43 2022, MaxMem=           0 cpu:               0.0 elap:               0.0
 (Enter /apps/software/g16/l101.exe)
 ----------------------
 BH UHF at 5.0 Angstrom
 ----------------------
 Symbolic Z-matrix:
 Charge =  0 Multiplicity = 1
 B                     0.        0.        0. 
 H                     5.        0.        0. 
 
 ITRead=  0  0
 MicOpt= -1 -1
 NAtoms=      2 NQM=        2 NQMF=       0 NMMI=      0 NMMIF=      0
                NMic=       0 NMicF=      0.
                    Isotopes and Nuclear Properties:
 (Nuclear quadrupole moments (NQMom) in fm**2, nuclear magnetic moments (NMagM)
  in nuclear magnetons)

  Atom         1           2
 IAtWgt=          11           1
 AtmWgt=  11.0093053   1.0078250
 NucSpn=           3           1
 AtZEff=  -0.0000000  -0.0000000
 NQMom=    4.0590000   0.0000000
 NMagM=    2.6886370   2.7928460
 AtZNuc=   5.0000000   1.0000000
 Leave Link  101 at Sat May 21 19:01:43 2022, MaxMem=   104857600 cpu:               0.1 elap:               0.1
 (Enter /apps/software/g16/l202.exe)
                          Input orientation:                          
 ---------------------------------------------------------------------
 Center     Atomic      Atomic             Coordinates (Angstroms)
 Number     Number       Type             X           Y           Z
 ---------------------------------------------------------------------
      1          5           0        0.000000    0.000000    0.000000
      2          1           0        5.000000    0.000000    0.000000
 ---------------------------------------------------------------------
 Stoichiometry    BH
 Framework group  C*V[C*(HB)]
 Deg. of freedom     1
 Full point group                 C*V     NOp   4
 Largest Abelian subgroup         C2V     NOp   4
 Largest concise Abelian subgroup C1      NOp   1
                         Standard orientation:                         
 ---------------------------------------------------------------------
 Center     Atomic      Atomic             Coordinates (Angstroms)
 Number     Number       Type             X           Y           Z
 ---------------------------------------------------------------------
      1          5           0        0.000000    0.000000    0.833333
      2          1           0        0.000000    0.000000   -4.166667
 ---------------------------------------------------------------------
 Rotational constants (GHZ):           0.0000000          21.8943927          21.8943927
 Leave Link  202 at Sat May 21 19:01:43 2022, MaxMem=   104857600 cpu:               0.0 elap:               0.0
 (Enter /apps/software/g16/l301.exe)
 Standard basis: Aug-CC-pVQZ (5D, 7F)
 Ernie: Thresh=  0.10000D-02 Tol=  0.10000D-05 Strict=F.
 Ernie:  4 primitive shells out of 54 were deleted.
 There are    68 symmetry adapted cartesian basis functions of A1  symmetry.
 There are    18 symmetry adapted cartesian basis functions of A2  symmetry.
 There are    37 symmetry adapted cartesian basis functions of B1  symmetry.
 There are    37 symmetry adapted cartesian basis functions of B2  symmetry.
 There are    50 symmetry adapted basis functions of A1  symmetry.
 There are    16 symmetry adapted basis functions of A2  symmetry.
 There are    30 symmetry adapted basis functions of B1  symmetry.
 There are    30 symmetry adapted basis functions of B2  symmetry.
   126 basis functions,   180 primitive gaussians,   160 cartesian basis functions
     3 alpha electrons        3 beta electrons
       nuclear repulsion energy         0.5291772109 Hartrees.
 IExCor=    0 DFT=F Ex=HF Corr=None ExCW=0 ScaHFX=  1.000000
 ScaDFX=  1.000000  1.000000  1.000000  1.000000 ScalE2=  1.000000  1.000000
 IRadAn=      5 IRanWt=     -1 IRanGd=            0 ICorTp=0 IEmpDi=  4
 NAtoms=    2 NActive=    2 NUniq=    2 SFac= 1.00D+00 NAtFMM=   60 NAOKFM=F Big=F
 Integral buffers will be    131072 words long.
 Raffenetti 2 integral format.
 Two-electron integral symmetry is turned on.
 Leave Link  301 at Sat May 21 19:01:43 2022, MaxMem=   104857600 cpu:               0.1 elap:               0.1
 (Enter /apps/software/g16/l302.exe)
 NPDir=0 NMtPBC=     1 NCelOv=     1 NCel=       1 NClECP=     1 NCelD=      1
         NCelK=      1 NCelE2=     1 NClLst=     1 CellRange=     0.0.
 One-electron integrals computed using PRISM.
 One-electron integral symmetry used in STVInt
 NBasis=   126 RedAO= T EigKep=  1.21D-02  NBF=    50    16    30    30
 NBsUse=   126 1.00D-06 EigRej= -1.00D+00 NBFU=    50    16    30    30
 Leave Link  302 at Sat May 21 19:01:43 2022, MaxMem=   104857600 cpu:               0.1 elap:               0.1
 (Enter /apps/software/g16/l303.exe)
 DipDrv:  MaxL=1.
 Leave Link  303 at Sat May 21 19:01:43 2022, MaxMem=   104857600 cpu:               0.0 elap:               0.0
 (Enter /apps/software/g16/l401.exe)
 ExpMin= 1.88D-02 ExpMax= 2.39D+04 ExpMxC= 2.30D+02 IAcc=3 IRadAn=         5 AccDes= 0.00D+00
 Harris functional with IExCor=  205 and IRadAn=       5 diagonalized for initial guess.
 HarFok:  IExCor=  205 AccDes= 0.00D+00 IRadAn=         5 IDoV= 1 UseB2=F ITyADJ=14
 ICtDFT=  3500011 ScaDFX=  1.000000  1.000000  1.000000  1.000000
 FoFCou: FMM=F IPFlag=           0 FMFlag=      100000 FMFlg1=           0
         NFxFlg=           0 DoJE=T BraDBF=F KetDBF=T FulRan=T
         wScrn=  0.000000 ICntrl=       500 IOpCl=  0 I1Cent=   200000004 NGrid=           0
         NMat0=    1 NMatS0=      1 NMatT0=    0 NMatD0=    1 NMtDS0=    0 NMtDT0=    0
 Petite list used in FoFCou.
 Harris En= -24.9882840465869    
 JPrj=0 DoOrth=F DoCkMO=T.
 Mixing orbitals, IMix= 1 IMixAn=  0 NRI=1 NE=    3 Coef=  7.07106781D-01  7.07106781D-01
 Mixing orbitals, IMix= 1 IMixAn=  0 NRI=1 NE=    3 Coef= -7.07106781D-01  7.07106781D-01
 Initial guess orbital symmetries:
 Alpha Orbitals:
       Occupied  (SG) (SG) (SG)
       Virtual   (SG) (PI) (PI) (SG) (SG) (PI) (PI) (SG) (PI) (PI)
                 (SG) (DLTA) (DLTA) (PI) (PI) (SG) (PI) (PI) (SG)
                 (SG) (SG) (SG) (DLTA) (DLTA) (PI) (PI) (PI) (PI)
                 (DLTA) (DLTA) (PHI) (PHI) (SG) (DLTA) (DLTA) (PI)
                 (PI) (SG) (PI) (PI) (SG) (PI) (PI) (SG) (SG) (DLTA)
                 (DLTA) (PI) (PI) (SG) (DLTA) (DLTA) (?A) (?B)
                 (?B) (?A) (?B) (?B) (SG) (DLTA) (DLTA) (PHI) (PHI)
                 (PI) (PI) (SG) (SG) (PHI) (PHI) (DLTA) (DLTA)
                 (PI) (PI) (SG) (DLTA) (DLTA) (PI) (PI) (SG) (PI)
                 (PI) (SG) (PI) (PI) (SG) (DLTA) (DLTA) (PI) (PI)
                 (SG) (DLTA) (?A) (?B) (?B) (?A) (DLTA) (?B) (?B)
                 (SG) (DLTA) (PHI) (PHI) (DLTA) (PI) (PI) (SG)
                 (PHI) (PHI) (DLTA) (DLTA) (PI) (PI) (SG) (SG)
                 (PI) (PI) (SG) (DLTA) (DLTA) (PI) (PI) (SG) (SG)
 Beta  Orbitals:
       Occupied  (SG) (SG) (SG)
       Virtual   (SG) (PI) (PI) (SG) (SG) (PI) (PI) (SG) (PI) (PI)
                 (SG) (DLTA) (DLTA) (PI) (PI) (SG) (PI) (PI) (SG)
                 (SG) (SG) (SG) (DLTA) (DLTA) (PI) (PI) (PI) (PI)
                 (DLTA) (DLTA) (PHI) (PHI) (SG) (DLTA) (DLTA) (PI)
                 (PI) (SG) (PI) (PI) (SG) (PI) (PI) (SG) (SG) (DLTA)
                 (DLTA) (PI) (PI) (SG) (DLTA) (DLTA) (?A) (?B)
                 (?B) (?A) (?B) (?B) (SG) (DLTA) (DLTA) (PHI) (PHI)
                 (PI) (PI) (SG) (SG) (PHI) (PHI) (DLTA) (DLTA)
                 (PI) (PI) (SG) (DLTA) (DLTA) (PI) (PI) (SG) (PI)
                 (PI) (SG) (PI) (PI) (SG) (DLTA) (DLTA) (PI) (PI)
                 (SG) (DLTA) (?A) (?B) (?B) (?A) (DLTA) (?B) (?B)
                 (SG) (DLTA) (PHI) (PHI) (DLTA) (PI) (PI) (SG)
                 (PHI) (PHI) (DLTA) (DLTA) (PI) (PI) (SG) (SG)
                 (PI) (PI) (SG) (DLTA) (DLTA) (PI) (PI) (SG) (SG)
 The electronic state of the initial guess is 1-SG.
 Initial guess <Sx>= 0.0000 <Sy>= 0.0000 <Sz>= 0.0000 <S**2>= 1.0000 S= 0.6180
 Leave Link  401 at Sat May 21 19:01:43 2022, MaxMem=   104857600 cpu:               0.2 elap:               0.2
 (Enter /apps/software/g16/l502.exe)
 Keep R1 and R2 ints in memory in symmetry-blocked form, NReq=40143665.
 FoFCou: FMM=F IPFlag=           0 FMFlag=           0 FMFlg1=           0
         NFxFlg=           0 DoJE=F BraDBF=F KetDBF=F FulRan=T
         wScrn=  0.000000 ICntrl=       600 IOpCl=  0 I1Cent=           0 NGrid=           0
         NMat0=    1 NMatS0=   8001 NMatT0=    0 NMatD0=    1 NMtDS0=    0 NMtDT0=    0
 Petite list used in FoFCou.
 UHF open shell SCF:
 Using DIIS extrapolation, IDIIS=  1040.
 NGot=   104857600 LenX=    88563632 LenY=    88537591
 Requested convergence on RMS density matrix=1.00D-08 within 128 cycles.
 Requested convergence on MAX density matrix=1.00D-06.
 Requested convergence on             energy=1.00D-06.
 No special actions if energy rises.
 An orbital has undefined symmetry, so N**3 symmetry is turned off.

 Cycle   1  Pass 1  IDiag  1:
 E= -24.8266915470268    
 DIIS: error= 2.86D-02 at cycle   1 NSaved=   1.
 NSaved= 1 IEnMin= 1 EnMin= -24.8266915470268     IErMin= 1 ErrMin= 2.86D-02
 ErrMax= 2.86D-02  0.00D+00 EMaxC= 1.00D-01 BMatC= 1.47D-01 BMatP= 1.47D-01
 IDIUse=3 WtCom= 7.14D-01 WtEn= 2.86D-01
 Coeff-Com:  0.100D+01
 Coeff-En:   0.100D+01
 Coeff:      0.100D+01
 Gap=     0.108 Goal=   None    Shift=    0.000
 Gap=     0.114 Goal=   None    Shift=    0.000
 GapD=    0.108 DampG=1.000 DampE=0.500 DampFc=0.5000 IDamp=-1.
 Damping current iteration by 5.00D-01
 RMSDP=1.83D-03 MaxDP=8.61D-02              OVMax= 4.30D-01

 Cycle   2  Pass 1  IDiag  1:
 E= -24.8444463884535     Delta-E=       -0.017754841427 Rises=F Damp=T
 DIIS: error= 2.09D-02 at cycle   2 NSaved=   2.
 NSaved= 2 IEnMin= 2 EnMin= -24.8444463884535     IErMin= 2 ErrMin= 2.09D-02
 ErrMax= 2.09D-02  0.00D+00 EMaxC= 1.00D-01 BMatC= 5.06D-02 BMatP= 1.47D-01
 IDIUse=3 WtCom= 7.91D-01 WtEn= 2.09D-01
 Coeff-Com: -0.546D+00 0.155D+01
 Coeff-En:   0.000D+00 0.100D+01
 Coeff:     -0.432D+00 0.143D+01
 Gap=     0.080 Goal=   None    Shift=    0.000
 Gap=     0.060 Goal=   None    Shift=    0.000
 RMSDP=1.54D-03 MaxDP=6.52D-02 DE=-1.78D-02 OVMax= 4.98D-01

 Cycle   3  Pass 1  IDiag  1:
 E= -24.8913951045086     Delta-E=       -0.046948716055 Rises=F Damp=F
 DIIS: error= 3.38D-02 at cycle   3 NSaved=   3.
 NSaved= 3 IEnMin= 3 EnMin= -24.8913951045086     IErMin= 2 ErrMin= 2.09D-02
 ErrMax= 3.38D-02  0.00D+00 EMaxC= 1.00D-01 BMatC= 4.11D-02 BMatP= 5.06D-02
 IDIUse=3 WtCom= 6.62D-01 WtEn= 3.38D-01
 Coeff-Com: -0.428D+00 0.927D+00 0.502D+00
 Coeff-En:   0.000D+00 0.000D+00 0.100D+01
 Coeff:     -0.284D+00 0.614D+00 0.670D+00
 Gap=     0.204 Goal=   None    Shift=    0.000
 Gap=     0.138 Goal=   None    Shift=    0.000
 RMSDP=1.20D-03 MaxDP=5.79D-02 DE=-4.69D-02 OVMax= 3.24D-01

 Cycle   4  Pass 1  IDiag  1:
 E= -24.9773886653631     Delta-E=       -0.085993560855 Rises=F Damp=F
 DIIS: error= 2.24D-02 at cycle   4 NSaved=   4.
 NSaved= 4 IEnMin= 4 EnMin= -24.9773886653631     IErMin= 2 ErrMin= 2.09D-02
 ErrMax= 2.24D-02  0.00D+00 EMaxC= 1.00D-01 BMatC= 2.49D-02 BMatP= 4.11D-02
 IDIUse=3 WtCom= 7.76D-01 WtEn= 2.24D-01
 Coeff-Com: -0.435D+00 0.937D+00 0.513D+00-0.147D-01
 Coeff-En:   0.000D+00 0.000D+00 0.000D+00 0.100D+01
 Coeff:     -0.337D+00 0.727D+00 0.398D+00 0.213D+00
 Gap=     0.257 Goal=   None    Shift=    0.000
 Gap=     0.164 Goal=   None    Shift=    0.000
 RMSDP=2.96D-04 MaxDP=1.65D-02 DE=-8.60D-02 OVMax= 8.74D-02

 Cycle   5  Pass 1  IDiag  1:
 E= -24.9922415945780     Delta-E=       -0.014852929215 Rises=F Damp=F
 DIIS: error= 1.83D-02 at cycle   5 NSaved=   5.
 NSaved= 5 IEnMin= 5 EnMin= -24.9922415945780     IErMin= 5 ErrMin= 1.83D-02
 ErrMax= 1.83D-02  0.00D+00 EMaxC= 1.00D-01 BMatC= 2.28D-02 BMatP= 2.49D-02
 IDIUse=3 WtCom= 8.17D-01 WtEn= 1.83D-01
 Coeff-Com: -0.758D+00 0.147D+01 0.608D+00-0.473D+01 0.441D+01
 Coeff-En:   0.000D+00 0.000D+00 0.000D+00 0.000D+00 0.100D+01
 Coeff:     -0.620D+00 0.120D+01 0.497D+00-0.387D+01 0.379D+01
 Gap=     0.308 Goal=   None    Shift=    0.000
 Gap=     0.155 Goal=   None    Shift=    0.000
 RMSDP=6.16D-04 MaxDP=3.18D-02 DE=-1.49D-02 OVMax= 1.78D-01

 Cycle   6  Pass 1  IDiag  1:
 E= -25.0143767365820     Delta-E=       -0.022135142004 Rises=F Damp=F
 DIIS: error= 1.29D-02 at cycle   6 NSaved=   6.
 NSaved= 6 IEnMin= 6 EnMin= -25.0143767365820     IErMin= 6 ErrMin= 1.29D-02
 ErrMax= 1.29D-02  0.00D+00 EMaxC= 1.00D-01 BMatC= 1.64D-02 BMatP= 2.28D-02
 IDIUse=3 WtCom= 8.71D-01 WtEn= 1.29D-01
 Coeff-Com: -0.662D+00 0.127D+01 0.515D+00-0.293D+01 0.187D+01 0.940D+00
 Coeff-En:   0.000D+00 0.000D+00 0.000D+00 0.000D+00 0.000D+00 0.100D+01
 Coeff:     -0.577D+00 0.110D+01 0.449D+00-0.255D+01 0.163D+01 0.947D+00
 Gap=     0.339 Goal=   None    Shift=    0.000
 Gap=     0.183 Goal=   None    Shift=    0.000
 RMSDP=2.74D-04 MaxDP=1.36D-02 DE=-2.21D-02 OVMax= 6.97D-02

 Cycle   7  Pass 1  IDiag  1:
 E= -25.0208158274457     Delta-E=       -0.006439090864 Rises=F Damp=F
 DIIS: error= 1.20D-02 at cycle   7 NSaved=   7.
 NSaved= 7 IEnMin= 7 EnMin= -25.0208158274457     IErMin= 7 ErrMin= 1.20D-02
 ErrMax= 1.20D-02  0.00D+00 EMaxC= 1.00D-01 BMatC= 1.25D-02 BMatP= 1.64D-02
 IDIUse=3 WtCom= 8.80D-01 WtEn= 1.20D-01
 Large coefficients: NSaved=  7 BigCof=   14.99 CofMax=   10.00 Det=-7.58D-06
 Inversion failed.  Reducing to  6 matrices.
 Large coefficients: NSaved=  6 BigCof=   14.09 CofMax=   10.00 Det=-2.12D-05
 Inversion failed.  Reducing to  5 matrices.
 Large coefficients: NSaved=  5 BigCof=   14.35 CofMax=   10.00 Det=-2.14D-05
 Inversion failed.  Reducing to  4 matrices.
 Large coefficients: NSaved=  4 BigCof=   14.45 CofMax=   10.00 Det=-2.15D-05
 Inversion failed.  Reducing to  3 matrices.
 Large coefficients: NSaved=  3 BigCof=   12.62 CofMax=   10.00 Det=-5.86D-05
 Inversion failed.  Reducing to  2 matrices.
 Coeff-Com: -0.316D+01 0.416D+01
 Coeff-En:   0.000D+00 0.100D+01
 Coeff:     -0.278D+01 0.378D+01
 Gap=     0.589 Goal=   None    Shift=    0.000
 Gap=     0.341 Goal=   None    Shift=    0.000
 RMSDP=9.05D-04 MaxDP=6.38D-02 DE=-6.44D-03 OVMax= 1.17D-01

 Cycle   8  Pass 1  IDiag  1:
 E= -25.0321066838333     Delta-E=       -0.011290856388 Rises=F Damp=F
 DIIS: error= 2.83D-03 at cycle   8 NSaved=   3.
 NSaved= 3 IEnMin= 3 EnMin= -25.0321066838333     IErMin= 3 ErrMin= 2.83D-03
 ErrMax= 2.83D-03  0.00D+00 EMaxC= 1.00D-01 BMatC= 6.76D-04 BMatP= 1.25D-02
 IDIUse=3 WtCom= 9.72D-01 WtEn= 2.83D-02
 Coeff-Com:  0.121D+01-0.153D+01 0.132D+01
 Coeff-En:   0.000D+00 0.000D+00 0.100D+01
 Coeff:      0.118D+01-0.149D+01 0.131D+01
 Gap=     0.481 Goal=   None    Shift=    0.000
 Gap=     0.331 Goal=   None    Shift=    0.000
 RMSDP=2.18D-04 MaxDP=1.39D-02 DE=-1.13D-02 OVMax= 4.05D-02

 Cycle   9  Pass 1  IDiag  1:
 E= -25.0328810209240     Delta-E=       -0.000774337091 Rises=F Damp=F
 DIIS: error= 8.17D-04 at cycle   9 NSaved=   4.
 NSaved= 4 IEnMin= 4 EnMin= -25.0328810209240     IErMin= 4 ErrMin= 8.17D-04
 ErrMax= 8.17D-04  0.00D+00 EMaxC= 1.00D-01 BMatC= 5.48D-05 BMatP= 6.76D-04
 IDIUse=3 WtCom= 9.92D-01 WtEn= 8.17D-03
 Coeff-Com:  0.878D-01-0.156D+00-0.258D-03 0.107D+01
 Coeff-En:   0.000D+00 0.000D+00 0.000D+00 0.100D+01
 Coeff:      0.870D-01-0.155D+00-0.256D-03 0.107D+01
 Gap=     0.475 Goal=   None    Shift=    0.000
 Gap=     0.336 Goal=   None    Shift=    0.000
 RMSDP=6.57D-05 MaxDP=5.15D-03 DE=-7.74D-04 OVMax= 6.89D-03

 Cycle  10  Pass 1  IDiag  1:
 E= -25.0329339991315     Delta-E=       -0.000052978207 Rises=F Damp=F
 DIIS: error= 2.59D-04 at cycle  10 NSaved=   5.
 NSaved= 5 IEnMin= 5 EnMin= -25.0329339991315     IErMin= 5 ErrMin= 2.59D-04
 ErrMax= 2.59D-04  0.00D+00 EMaxC= 1.00D-01 BMatC= 3.92D-06 BMatP= 5.48D-05
 IDIUse=3 WtCom= 9.97D-01 WtEn= 2.59D-03
 Coeff-Com: -0.559D-01 0.900D-01-0.179D-01-0.585D+00 0.157D+01
 Coeff-En:   0.000D+00 0.000D+00 0.000D+00 0.000D+00 0.100D+01
 Coeff:     -0.557D-01 0.898D-01-0.178D-01-0.583D+00 0.157D+01
 Gap=     0.474 Goal=   None    Shift=    0.000
 Gap=     0.337 Goal=   None    Shift=    0.000
 RMSDP=2.52D-05 MaxDP=1.17D-03 DE=-5.30D-05 OVMax= 3.03D-03

 Cycle  11  Pass 1  IDiag  1:
 E= -25.0329394753452     Delta-E=       -0.000005476214 Rises=F Damp=F
 DIIS: error= 7.60D-05 at cycle  11 NSaved=   6.
 NSaved= 6 IEnMin= 6 EnMin= -25.0329394753452     IErMin= 6 ErrMin= 7.60D-05
 ErrMax= 7.60D-05  0.00D+00 EMaxC= 1.00D-01 BMatC= 4.33D-07 BMatP= 3.92D-06
 IDIUse=1 WtCom= 1.00D+00 WtEn= 0.00D+00
 Coeff-Com:  0.162D-01-0.272D-01-0.281D-02 0.301D+00-0.979D+00 0.169D+01
 Coeff:      0.162D-01-0.272D-01-0.281D-02 0.301D+00-0.979D+00 0.169D+01
 Gap=     0.474 Goal=   None    Shift=    0.000
 Gap=     0.337 Goal=   None    Shift=    0.000
 RMSDP=9.65D-06 MaxDP=4.90D-04 DE=-5.48D-06 OVMax= 1.11D-03

 Cycle  12  Pass 1  IDiag  1:
 E= -25.0329401174816     Delta-E=       -0.000000642136 Rises=F Damp=F
 DIIS: error= 2.33D-05 at cycle  12 NSaved=   7.
 NSaved= 7 IEnMin= 7 EnMin= -25.0329401174816     IErMin= 7 ErrMin= 2.33D-05
 ErrMax= 2.33D-05  0.00D+00 EMaxC= 1.00D-01 BMatC= 3.07D-08 BMatP= 4.33D-07
 IDIUse=1 WtCom= 1.00D+00 WtEn= 0.00D+00
 Coeff-Com:  0.817D-04 0.764D-03 0.376D-02-0.627D-01 0.198D+00-0.509D+00
 Coeff-Com:  0.137D+01
 Coeff:      0.817D-04 0.764D-03 0.376D-02-0.627D-01 0.198D+00-0.509D+00
 Coeff:      0.137D+01
 Gap=     0.474 Goal=   None    Shift=    0.000
 Gap=     0.337 Goal=   None    Shift=    0.000
 RMSDP=2.00D-06 MaxDP=9.66D-05 DE=-6.42D-07 OVMax= 2.14D-04

 Cycle  13  Pass 1  IDiag  1:
 E= -25.0329401653341     Delta-E=       -0.000000047852 Rises=F Damp=F
 DIIS: error= 1.05D-05 at cycle  13 NSaved=   8.
 NSaved= 8 IEnMin= 8 EnMin= -25.0329401653341     IErMin= 8 ErrMin= 1.05D-05
 ErrMax= 1.05D-05  0.00D+00 EMaxC= 1.00D-01 BMatC= 7.54D-09 BMatP= 3.07D-08
 IDIUse=1 WtCom= 1.00D+00 WtEn= 0.00D+00
 Coeff-Com: -0.227D-02 0.252D-02-0.440D-02 0.427D-01-0.130D+00 0.442D+00
 Coeff-Com: -0.179D+01 0.244D+01
 Coeff:     -0.227D-02 0.252D-02-0.440D-02 0.427D-01-0.130D+00 0.442D+00
 Coeff:     -0.179D+01 0.244D+01
 Gap=     0.474 Goal=   None    Shift=    0.000
 Gap=     0.337 Goal=   None    Shift=    0.000
 RMSDP=1.04D-06 MaxDP=5.80D-05 DE=-4.79D-08 OVMax= 2.17D-04

 Cycle  14  Pass 1  IDiag  1:
 E= -25.0329401814326     Delta-E=       -0.000000016099 Rises=F Damp=F
 DIIS: error= 1.87D-06 at cycle  14 NSaved=   9.
 NSaved= 9 IEnMin= 9 EnMin= -25.0329401814326     IErMin= 9 ErrMin= 1.87D-06
 ErrMax= 1.87D-06  0.00D+00 EMaxC= 1.00D-01 BMatC= 3.90D-10 BMatP= 7.54D-09
 IDIUse=1 WtCom= 1.00D+00 WtEn= 0.00D+00
 Coeff-Com:  0.173D-03-0.520D-04 0.726D-03-0.118D-01 0.398D-01-0.135D+00
 Coeff-Com:  0.532D+00-0.893D+00 0.147D+01
 Coeff:      0.173D-03-0.520D-04 0.726D-03-0.118D-01 0.398D-01-0.135D+00
 Coeff:      0.532D+00-0.893D+00 0.147D+01
 Gap=     0.474 Goal=   None    Shift=    0.000
 Gap=     0.337 Goal=   None    Shift=    0.000
 RMSDP=2.33D-07 MaxDP=1.24D-05 DE=-1.61D-08 OVMax= 4.48D-05

 Cycle  15  Pass 1  IDiag  1:
 E= -25.0329401820604     Delta-E=       -0.000000000628 Rises=F Damp=F
 DIIS: error= 2.06D-07 at cycle  15 NSaved=  10.
 NSaved=10 IEnMin=10 EnMin= -25.0329401820604     IErMin=10 ErrMin= 2.06D-07
 ErrMax= 2.06D-07  0.00D+00 EMaxC= 1.00D-01 BMatC= 6.97D-12 BMatP= 3.90D-10
 IDIUse=1 WtCom= 1.00D+00 WtEn= 0.00D+00
 Coeff-Com: -0.213D-04-0.363D-04-0.207D-03 0.384D-02-0.134D-01 0.442D-01
 Coeff-Com: -0.164D+00 0.276D+00-0.525D+00 0.138D+01
 Coeff:     -0.213D-04-0.363D-04-0.207D-03 0.384D-02-0.134D-01 0.442D-01
 Coeff:     -0.164D+00 0.276D+00-0.525D+00 0.138D+01
 Gap=     0.474 Goal=   None    Shift=    0.000
 Gap=     0.337 Goal=   None    Shift=    0.000
 RMSDP=2.70D-08 MaxDP=1.46D-06 DE=-6.28D-10 OVMax= 2.59D-06

 Cycle  16  Pass 1  IDiag  1:
 E= -25.0329401820679     Delta-E=       -0.000000000008 Rises=F Damp=F
 DIIS: error= 7.36D-08 at cycle  16 NSaved=  11.
 NSaved=11 IEnMin=11 EnMin= -25.0329401820679     IErMin=11 ErrMin= 7.36D-08
 ErrMax= 7.36D-08  0.00D+00 EMaxC= 1.00D-01 BMatC= 6.07D-13 BMatP= 6.97D-12
 IDIUse=1 WtCom= 1.00D+00 WtEn= 0.00D+00
 Coeff-Com: -0.630D-05 0.306D-04 0.400D-04-0.110D-02 0.415D-02-0.138D-01
 Coeff-Com:  0.490D-01-0.817D-01 0.172D+00-0.665D+00 0.154D+01
 Coeff:     -0.630D-05 0.306D-04 0.400D-04-0.110D-02 0.415D-02-0.138D-01
 Coeff:      0.490D-01-0.817D-01 0.172D+00-0.665D+00 0.154D+01
 Gap=     0.474 Goal=   None    Shift=    0.000
 Gap=     0.337 Goal=   None    Shift=    0.000
 RMSDP=1.02D-08 MaxDP=5.82D-07 DE=-7.50D-12 OVMax= 1.11D-06

 Cycle  17  Pass 1  IDiag  1:
 E= -25.0329401820687     Delta-E=       -0.000000000001 Rises=F Damp=F
 DIIS: error= 1.64D-08 at cycle  17 NSaved=  12.
 NSaved=12 IEnMin=12 EnMin= -25.0329401820687     IErMin=12 ErrMin= 1.64D-08
 ErrMax= 1.64D-08  0.00D+00 EMaxC= 1.00D-01 BMatC= 2.62D-14 BMatP= 6.07D-13
 IDIUse=1 WtCom= 1.00D+00 WtEn= 0.00D+00
 Coeff-Com:  0.215D-05-0.864D-05-0.623D-05 0.245D-03-0.968D-03 0.323D-02
 Coeff-Com: -0.110D-01 0.178D-01-0.400D-01 0.185D+00-0.617D+00 0.146D+01
 Coeff:      0.215D-05-0.864D-05-0.623D-05 0.245D-03-0.968D-03 0.323D-02
 Coeff:     -0.110D-01 0.178D-01-0.400D-01 0.185D+00-0.617D+00 0.146D+01
 Gap=     0.474 Goal=   None    Shift=    0.000
 Gap=     0.337 Goal=   None    Shift=    0.000
 RMSDP=2.47D-09 MaxDP=1.56D-07 DE=-7.89D-13 OVMax= 2.08D-07

 SCF Done:  E(UHF) =  -25.0329401821     A.U. after   17 cycles
            NFock= 17  Conv=0.25D-08     -V/T= 2.0000
 <Sx>= 0.0000 <Sy>= 0.0000 <Sz>= 0.0000 <S**2>= 1.0110 S= 0.6230
 <L.S>=  0.00000000000    
 KE= 2.503228878549D+01 PE=-5.896117901258D+01 EE= 8.366772834102D+00
 Annihilation of the first spin contaminant:
 S**2 before annihilation     1.0110,   after     0.0895
 Leave Link  502 at Sat May 21 19:01:47 2022, MaxMem=   104857600 cpu:               3.6 elap:               3.6
 (Enter /apps/software/g16/l601.exe)
 Copying SCF densities to generalized density rwf, IOpCl= 1 IROHF=0.

 **********************************************************************

            Population analysis using the SCF density.

 **********************************************************************

 Orbital symmetries:
 Alpha Orbitals:
       Occupied  (SG) (SG) (SG)
       Virtual   (PI) (PI) (SG) (SG) (SG) (PI) (PI) (SG) (PI) (PI)
                 (DLTA) (DLTA) (SG) (PI) (PI) (SG) (PI) (PI) (SG)
                 (SG) (SG) (PHI) (PHI) (DLTA) (DLTA) (PI) (PI)
                 (SG) (DLTA) (DLTA) (PI) (PI) (SG) (DLTA) (DLTA)
                 (PI) (PI) (SG) (PI) (PI) (SG) (PI) (PI) (SG) (?A)
                 (?A) (PHI) (PHI) (DLTA) (DLTA) (PI) (PI) (SG)
                 (DLTA) (DLTA) (SG) (PHI) (PHI) (PI) (PI) (DLTA)
                 (DLTA) (SG) (PI) (PI) (SG) (PHI) (PHI) (DLTA)
                 (DLTA) (PI) (PI) (SG) (SG) (DLTA) (DLTA) (PI)
                 (PI) (SG) (PI) (PI) (SG) (PI) (PI) (SG) (?A) (?A)
                 (PHI) (PHI) (DLTA) (DLTA) (DLTA) (DLTA) (PI) (PI)
                 (SG) (PI) (PI) (SG) (PHI) (PHI) (DLTA) (DLTA)
                 (PI) (PI) (SG) (PHI) (PHI) (DLTA) (DLTA) (PI)
                 (PI) (SG) (SG) (PI) (PI) (SG) (DLTA) (DLTA) (PI)
                 (PI) (SG) (SG)
 Beta  Orbitals:
       Occupied  (SG) (SG) (SG)
       Virtual   (SG) (PI) (PI) (SG) (SG) (PI) (PI) (SG) (PI) (PI)
                 (DLTA) (DLTA) (SG) (PI) (PI) (SG) (SG) (PI) (PI)
                 (SG) (SG) (PHI) (PHI) (DLTA) (DLTA) (PI) (PI)
                 (SG) (PI) (PI) (DLTA) (DLTA) (SG) (DLTA) (DLTA)
                 (PI) (PI) (SG) (PI) (PI) (SG) (SG) (PI) (PI) (?A)
                 (?A) (PHI) (PHI) (DLTA) (DLTA) (PI) (PI) (SG)
                 (SG) (PI) (PI) (DLTA) (DLTA) (SG) (PHI) (PHI)
                 (DLTA) (DLTA) (PI) (PI) (SG) (PHI) (PHI) (DLTA)
                 (DLTA) (PI) (PI) (SG) (SG) (DLTA) (DLTA) (PI)
                 (PI) (SG) (PI) (PI) (SG) (PI) (PI) (SG) (?A) (?A)
                 (PHI) (PHI) (DLTA) (DLTA) (PI) (PI) (DLTA) (DLTA)
                 (SG) (PI) (PI) (SG) (PHI) (PHI) (DLTA) (DLTA)
                 (PI) (PI) (SG) (PHI) (PHI) (DLTA) (DLTA) (PI)
                 (PI) (SG) (SG) (PI) (PI) (SG) (DLTA) (DLTA) (PI)
                 (PI) (SG) (SG)
 The electronic state is 1-SG.
 Alpha  occ. eigenvalues --   -7.68638  -0.49698  -0.44630
 Alpha virt. eigenvalues --    0.02737   0.02737   0.04353   0.05098   0.07403
 Alpha virt. eigenvalues --    0.08426   0.08426   0.11787   0.14262   0.14262
 Alpha virt. eigenvalues --    0.14572   0.14572   0.16045   0.19370   0.19370
 Alpha virt. eigenvalues --    0.24842   0.32016   0.32016   0.34492   0.35994
 Alpha virt. eigenvalues --    0.38388   0.46178   0.46178   0.47091   0.47091
 Alpha virt. eigenvalues --    0.47396   0.47396   0.49206   0.50152   0.50152
 Alpha virt. eigenvalues --    0.52442   0.52442   0.56350   0.61653   0.61653
 Alpha virt. eigenvalues --    0.63528   0.63528   0.66980   0.75605   0.75605
 Alpha virt. eigenvalues --    0.83244   1.06028   1.06028   1.12275   1.36971
 Alpha virt. eigenvalues --    1.36971   1.38442   1.38442   1.39486   1.39486
 Alpha virt. eigenvalues --    1.40166   1.40166   1.40521   1.41592   1.41592
 Alpha virt. eigenvalues --    1.42499   1.43975   1.43975   1.45569   1.45569
 Alpha virt. eigenvalues --    1.46359   1.46359   1.47110   1.47963   1.47963
 Alpha virt. eigenvalues --    1.51106   1.56137   1.56137   1.56207   1.56207
 Alpha virt. eigenvalues --    1.56811   1.56811   1.57119   1.62420   2.45086
 Alpha virt. eigenvalues --    2.45086   2.45768   2.45768   2.47454   2.55556
 Alpha virt. eigenvalues --    2.55556   2.61585   3.74435   3.74435   3.80006
 Alpha virt. eigenvalues --    3.92032   3.92032   3.94565   3.94565   3.96048
 Alpha virt. eigenvalues --    3.96048   3.96493   3.96493   3.97507   3.97507
 Alpha virt. eigenvalues --    3.98072   4.00287   4.00287   4.02582   4.08872
 Alpha virt. eigenvalues --    4.08872   4.12140   4.12140   4.14396   4.14396
 Alpha virt. eigenvalues --    4.17129   6.55394   6.55394   6.55410   6.55410
 Alpha virt. eigenvalues --    6.55493   6.55493   6.55686   7.40318   7.93411
 Alpha virt. eigenvalues --    7.93411   7.97250   8.38970   8.38970   8.39377
 Alpha virt. eigenvalues --    8.39377   8.41103  13.05418
  Beta  occ. eigenvalues --   -7.70152  -0.54535  -0.31881
  Beta virt. eigenvalues --    0.01790   0.02363   0.02363   0.05121   0.07185
  Beta virt. eigenvalues --    0.07729   0.07729   0.11026   0.14251   0.14251
  Beta virt. eigenvalues --    0.14564   0.14564   0.16406   0.20884   0.20884
  Beta virt. eigenvalues --    0.24409   0.29895   0.31198   0.31198   0.34393
  Beta virt. eigenvalues --    0.45091   0.46185   0.46185   0.46689   0.46689
  Beta virt. eigenvalues --    0.46859   0.46859   0.49397   0.49445   0.49445
  Beta virt. eigenvalues --    0.50043   0.50043   0.54050   0.62989   0.62989
  Beta virt. eigenvalues --    0.64762   0.64762   0.68534   0.82178   0.82178
  Beta virt. eigenvalues --    0.88320   1.05077   1.05091   1.05091   1.36999
  Beta virt. eigenvalues --    1.36999   1.37926   1.37926   1.38590   1.38590
  Beta virt. eigenvalues --    1.39029   1.39029   1.39108   1.39412   1.40677
  Beta virt. eigenvalues --    1.40677   1.41104   1.41104   1.42282   1.43910
  Beta virt. eigenvalues --    1.43910   1.44734   1.44734   1.45440   1.45440
  Beta virt. eigenvalues --    1.48511   1.57395   1.57395   1.57460   1.57460
  Beta virt. eigenvalues --    1.57954   1.57954   1.59192   1.71777   2.49034
  Beta virt. eigenvalues --    2.49034   2.49712   2.49712   2.51577   2.63020
  Beta virt. eigenvalues --    2.63020   2.68597   3.73717   3.73717   3.75089
  Beta virt. eigenvalues --    3.91963   3.91963   3.93475   3.93475   3.94556
  Beta virt. eigenvalues --    3.94556   3.95234   3.95234   3.95600   3.95600
  Beta virt. eigenvalues --    3.95680   3.96606   3.96606   3.97787   4.08604
  Beta virt. eigenvalues --    4.08604   4.09995   4.09995   4.11063   4.11063
  Beta virt. eigenvalues --    4.13339   6.58279   6.58279   6.58294   6.58294
  Beta virt. eigenvalues --    6.58376   6.58376   6.58568   7.48505   7.99207
  Beta virt. eigenvalues --    7.99207   8.03002   8.43194   8.43194   8.43597
  Beta virt. eigenvalues --    8.43597   8.45315  13.04241
          Condensed to atoms (all electrons):
               1          2
     1  B    4.999891  -0.000067
     2  H   -0.000067   1.000242
          Atomic-Atomic Spin Densities.
               1          2
     1  B   -1.000111  -0.000058
     2  H   -0.000058   1.000228
 Mulliken charges and spin densities:
               1          2
     1  B    0.000176  -1.000169
     2  H   -0.000176   1.000169
 Sum of Mulliken charges =  -0.00000  -0.00000
 Mulliken charges and spin densities with hydrogens summed into heavy atoms:
               1          2
     1  B   -0.000000  -0.000000
 Electronic spatial extent (au):  <R**2>=             93.2491
 Charge=             -0.0000 electrons
 Dipole moment (field-independent basis, Debye):
    X=              0.0000    Y=              0.0000    Z=              0.0127  Tot=              0.0127
 Quadrupole moment (field-independent basis, Debye-Ang):
   XX=             -7.3058   YY=             -7.3058   ZZ=            -10.7449
   XY=             -0.0000   XZ=              0.0000   YZ=              0.0000
 Traceless Quadrupole moment (field-independent basis, Debye-Ang):
   XX=              1.1463   YY=              1.1463   ZZ=             -2.2927
   XY=             -0.0000   XZ=              0.0000   YZ=              0.0000
 Octapole moment (field-independent basis, Debye-Ang**2):
  XXX=              0.0000  YYY=              0.0000  ZZZ=             -5.8937  XYY=              0.0000
  XXY=              0.0000  XXZ=              0.6575  XZZ=              0.0000  YZZ=             -0.0000
  YYZ=              0.6575  XYZ=             -0.0000
 Hexadecapole moment (field-independent basis, Debye-Ang**3):
 XXXX=            -10.7304 YYYY=            -10.7304 ZZZZ=           -203.5678 XXXY=             -0.0000
 XXXZ=              0.0000 YYYX=             -0.0000 YYYZ=              0.0000 ZZZX=              0.0000
 ZZZY=              0.0000 XXYY=             -3.5768 XXZZ=            -32.9057 YYZZ=            -32.9057
 XXYZ=             -0.0000 YYXZ=              0.0000 ZZXY=             -0.0000
 N-N= 5.291772109200D-01 E-N=-5.896117891775D+01  KE= 2.503228878549D+01
 Symmetry A1   KE= 2.503228878549D+01
 Symmetry A2   KE= 5.092417015214D-30
 Symmetry B1   KE= 1.189637685499D-29
 Symmetry B2   KE= 1.810981904768D-29
 Symmetry A1   SP=-1.041891234497D-14
 Symmetry A2   SP= 6.556174122673D-31
 Symmetry B1   SP= 1.297955973931D-30
 Symmetry B2   SP=-2.036698475819D-30
                          Isotropic Fermi Contact Couplings
        Atom                 a.u.       MegaHertz       Gauss      10(-4) cm-1
     1  B(11)             -0.00223      -1.60261      -0.57185      -0.53457
     2  H(1)               0.29853     667.19950     238.07337     222.55380
 --------------------------------------------------------
       Center         ----  Spin Dipole Couplings  ----
                      3XX-RR        3YY-RR        3ZZ-RR
 --------------------------------------------------------
     1   Atom        0.330475      0.330475     -0.660950
     2   Atom        0.001488      0.001488     -0.002977
 --------------------------------------------------------
                        XY            XZ            YZ
 --------------------------------------------------------
     1   Atom        0.000000      0.000000      0.000000
     2   Atom        0.000000      0.000000      0.000000
 --------------------------------------------------------


 ---------------------------------------------------------------------------------
              Anisotropic Spin Dipole Couplings in Principal Axis System
 ---------------------------------------------------------------------------------

       Atom             a.u.   MegaHertz   Gauss  10(-4) cm-1        Axes

              Baa    -0.6610  -113.164   -40.380   -37.748  0.0000  0.0000  1.0000
     1 B(11)  Bbb     0.3305    56.582    20.190    18.874  1.0000  0.0000  0.0000
              Bcc     0.3305    56.582    20.190    18.874 -0.0000  1.0000  0.0000
 
              Baa    -0.0030    -1.588    -0.567    -0.530  0.0000  0.0000  1.0000
     2 H(1)   Bbb     0.0015     0.794     0.283     0.265  1.0000  0.0000  0.0000
              Bcc     0.0015     0.794     0.283     0.265 -0.0000  1.0000  0.0000
 

 ---------------------------------------------------------------------------------

 No NMR shielding tensors so no spin-rotation constants.
 Leave Link  601 at Sat May 21 19:01:47 2022, MaxMem=   104857600 cpu:               0.2 elap:               0.2
 (Enter /apps/software/g16/l801.exe)
 Range of M.O.s used for correlation:     1   126
 NBasis=   126 NAE=     3 NBE=     3 NFC=     0 NFV=     0
 NROrb=    126 NOA=     3 NOB=     3 NVA=   123 NVB=   123
 Leave Link  801 at Sat May 21 19:01:47 2022, MaxMem=   104857600 cpu:               0.0 elap:               0.0
 (Enter /apps/software/g16/l914.exe)
 UHF ground state
 Doing stability rather than CIS.
 Keep R1 and R2 ints in memory in symmetry-blocked form, NReq=40144005.
 FoFCou: FMM=F IPFlag=           0 FMFlag=           0 FMFlg1=           0
         NFxFlg=           0 DoJE=F BraDBF=F KetDBF=F FulRan=T
         wScrn=  0.000000 ICntrl=       600 IOpCl=  0 I1Cent=           0 NGrid=           0
         NMat0=    1 NMatS0=   8001 NMatT0=    0 NMatD0=    1 NMtDS0=    0 NMtDT0=    0
 Petite list used in FoFCou.
 MDV=   104857600 DFT=F DoStab=T Mixed=F DoRPA=F DoScal=F NonHer=F
 Making orbital integer symmetry assigments:
 Orbital symmetries:
 Alpha Orbitals:
       Occupied  (SG) (SG) (SG)
       Virtual   (PI) (PI) (SG) (SG) (SG) (PI) (PI) (SG) (PI) (PI)
                 (DLTA) (DLTA) (SG) (PI) (PI) (SG) (PI) (PI) (SG)
                 (SG) (SG) (PHI) (PHI) (DLTA) (DLTA) (PI) (PI)
                 (SG) (DLTA) (DLTA) (PI) (PI) (SG) (DLTA) (DLTA)
                 (PI) (PI) (SG) (PI) (PI) (SG) (PI) (PI) (SG) (?A)
                 (?A) (PHI) (PHI) (DLTA) (DLTA) (PI) (PI) (SG)
                 (DLTA) (DLTA) (SG) (PHI) (PHI) (PI) (PI) (DLTA)
                 (DLTA) (SG) (PI) (PI) (SG) (PHI) (PHI) (DLTA)
                 (DLTA) (PI) (PI) (SG) (SG) (DLTA) (DLTA) (PI)
                 (PI) (SG) (PI) (PI) (SG) (PI) (PI) (SG) (?A) (?A)
                 (PHI) (PHI) (DLTA) (DLTA) (DLTA) (DLTA) (PI) (PI)
                 (SG) (PI) (PI) (SG) (PHI) (PHI) (DLTA) (DLTA)
                 (PI) (PI) (SG) (PHI) (PHI) (DLTA) (DLTA) (PI)
                 (PI) (SG) (SG) (PI) (PI) (SG) (DLTA) (DLTA) (PI)
                 (PI) (SG) (SG)
 Beta  Orbitals:
       Occupied  (SG) (SG) (SG)
       Virtual   (SG) (PI) (PI) (SG) (SG) (PI) (PI) (SG) (PI) (PI)
                 (DLTA) (DLTA) (SG) (PI) (PI) (SG) (SG) (PI) (PI)
                 (SG) (SG) (PHI) (PHI) (DLTA) (DLTA) (PI) (PI)
                 (SG) (PI) (PI) (DLTA) (DLTA) (SG) (DLTA) (DLTA)
                 (PI) (PI) (SG) (PI) (PI) (SG) (SG) (PI) (PI) (?A)
                 (?A) (PHI) (PHI) (DLTA) (DLTA) (PI) (PI) (SG)
                 (SG) (PI) (PI) (DLTA) (DLTA) (SG) (PHI) (PHI)
                 (DLTA) (DLTA) (PI) (PI) (SG) (PHI) (PHI) (DLTA)
                 (DLTA) (PI) (PI) (SG) (SG) (DLTA) (DLTA) (PI)
                 (PI) (SG) (PI) (PI) (SG) (PI) (PI) (SG) (?A) (?A)
                 (PHI) (PHI) (DLTA) (DLTA) (PI) (PI) (DLTA) (DLTA)
                 (SG) (PI) (PI) (SG) (PHI) (PHI) (DLTA) (DLTA)
                 (PI) (PI) (SG) (PHI) (PHI) (DLTA) (DLTA) (PI)
                 (PI) (SG) (SG) (PI) (PI) (SG) (DLTA) (DLTA) (PI)
                 (PI) (SG) (SG)
    12 initial guesses have been made.
 Convergence on wavefunction:    0.001000000000000
 Davidson Disk Diagonalization:  ConvIn= 1.00D-03 SkipCon=T Conv= 1.00D-03.
 Max sub-space:  1476 roots to seek:    12 dimension of matrix:          738
 Iteration     1 Dimension    12 NMult     0 NNew     12
 CISAX will form    12 AO SS matrices at one time.
 NMat=    12 NSing=    12 JSym2X= 2.
 Excitation Energies [eV] at current iteration:
 Root      1 :     0.479844348207636
 Root      2 :     0.479844348207709
 Root      3 :     1.267450075814329
 Root      4 :     1.267450075814341
 Root      5 :     5.496670789287886
 Root      6 :     6.460592930887695
 Root      7 :     6.563571622466367
 Root      8 :     6.563571622466378
 Root      9 :    11.610698758152578
 Root     10 :    11.610698758152584
 Root     11 :    13.291488853598580
 Root     12 :    13.291488853598617
 Iteration     2 Dimension    24 NMult    12 NNew     12
 CISAX will form    12 AO SS matrices at one time.
 NMat=    12 NSing=    12 JSym2X= 2.
 Root      1 not converged, maximum delta is    0.069081686758370
 Excitation Energies [eV] at current iteration:
 Root      1 :     0.006210666574923   Change is   -0.473633681632713
 Root      2 :     0.006210666574984   Change is   -0.473633681632725
 Root      3 :     0.832091387824403   Change is   -0.435358687989926
 Root      4 :     0.832091387824409   Change is   -0.435358687989933
 Root      5 :     5.199706959978251   Change is   -0.296963829309635
 Root      6 :     6.026468108874213   Change is   -0.434124822013483
 Root      7 :     6.488717378152103   Change is   -0.074854244314276
 Root      8 :     6.488717378152127   Change is   -0.074854244314240
 Root      9 :     8.476080351230426   Change is   -3.134618406922158
 Root     10 :     8.476080351230461   Change is   -3.134618406922116
 Root     11 :    11.704880752324611   Change is   -1.586608101274006
 Root     12 :    11.704880752324653   Change is   -1.586608101273927
 Iteration     3 Dimension    27 NMult    24 NNew      3
 CISAX will form     3 AO SS matrices at one time.
 NMat=     3 NSing=     3 JSym2X= 2.
 New state      1 was old state      2
 Root      1 not converged, maximum delta is    0.300106055023621
 Excitation Energies [eV] at current iteration:
 Root      1 :     0.000391989353736   Change is   -0.005818677221248
 Root      2 :     0.000391991219543   Change is   -0.005818675355381
 Root      3 :     0.819450106663884   Change is   -0.012641281160518
 Iteration     4 Dimension    30 NMult    27 NNew      3
 CISAX will form     3 AO SS matrices at one time.
 NMat=     3 NSing=     3 JSym2X= 2.
 Root      1 has converged.
 Excitation Energies [eV] at current iteration:
 Root      1 :     0.000330642269025   Change is   -0.000061347084711
 Root      2 :     0.000330642842460   Change is   -0.000061348377083
 Root      3 :     0.819295025473275   Change is   -0.000155081190609
 Convergence achieved on expansion vectors.
 ***********************************************************************
 Stability analysis using <AA,BB:AA,BB> singles matrix:
 ***********************************************************************
 1PDM for each excited state written to RWF  633
 Ground to excited state transition densities written to RWF  633

 Eigenvectors of the stability matrix:
 
 Excited state symmetry could not be determined.
 Eigenvector   1:  2.272-?Sym  Eigenvalue= 0.0000122  <S**2>=1.041
      3B ->  5B       -0.59823
      3B ->  6B        0.33449
      3B ->  9B       -0.34609
      3B -> 10B        0.55474
      3B -> 21B        0.20928
      3B -> 22B        0.19891
 The wavefunction is stable under the perturbations considered.
 Leave Link  914 at Sat May 21 19:01:51 2022, MaxMem=   104857600 cpu:               4.0 elap:               4.0
 (Enter /apps/software/g16/l508.exe)
 The wavefunction is already stable.
 Leave Link  508 at Sat May 21 19:01:51 2022, MaxMem=   104857600 cpu:               0.0 elap:               0.0
 (Enter /apps/software/g16/l601.exe)
 Copying SCF densities to generalized density rwf, IOpCl= 1 IROHF=0.

 **********************************************************************

            Population analysis using the SCF density.

 **********************************************************************

 Orbital symmetries:
 Alpha Orbitals:
       Occupied  (SG) (SG) (SG)
       Virtual   (PI) (PI) (SG) (SG) (SG) (PI) (PI) (SG) (PI) (PI)
                 (DLTA) (DLTA) (SG) (PI) (PI) (SG) (PI) (PI) (SG)
                 (SG) (SG) (PHI) (PHI) (DLTA) (DLTA) (PI) (PI)
                 (SG) (DLTA) (DLTA) (PI) (PI) (SG) (DLTA) (DLTA)
                 (PI) (PI) (SG) (PI) (PI) (SG) (PI) (PI) (SG) (?A)
                 (?A) (PHI) (PHI) (DLTA) (DLTA) (PI) (PI) (SG)
                 (DLTA) (DLTA) (SG) (PHI) (PHI) (PI) (PI) (DLTA)
                 (DLTA) (SG) (PI) (PI) (SG) (PHI) (PHI) (DLTA)
                 (DLTA) (PI) (PI) (SG) (SG) (DLTA) (DLTA) (PI)
                 (PI) (SG) (PI) (PI) (SG) (PI) (PI) (SG) (?A) (?A)
                 (PHI) (PHI) (DLTA) (DLTA) (DLTA) (DLTA) (PI) (PI)
                 (SG) (PI) (PI) (SG) (PHI) (PHI) (DLTA) (DLTA)
                 (PI) (PI) (SG) (PHI) (PHI) (DLTA) (DLTA) (PI)
                 (PI) (SG) (SG) (PI) (PI) (SG) (DLTA) (DLTA) (PI)
                 (PI) (SG) (SG)
 Beta  Orbitals:
       Occupied  (SG) (SG) (SG)
       Virtual   (SG) (PI) (PI) (SG) (SG) (PI) (PI) (SG) (PI) (PI)
                 (DLTA) (DLTA) (SG) (PI) (PI) (SG) (SG) (PI) (PI)
                 (SG) (SG) (PHI) (PHI) (DLTA) (DLTA) (PI) (PI)
                 (SG) (PI) (PI) (DLTA) (DLTA) (SG) (DLTA) (DLTA)
                 (PI) (PI) (SG) (PI) (PI) (SG) (SG) (PI) (PI) (?A)
                 (?A) (PHI) (PHI) (DLTA) (DLTA) (PI) (PI) (SG)
                 (SG) (PI) (PI) (DLTA) (DLTA) (SG) (PHI) (PHI)
                 (DLTA) (DLTA) (PI) (PI) (SG) (PHI) (PHI) (DLTA)
                 (DLTA) (PI) (PI) (SG) (SG) (DLTA) (DLTA) (PI)
                 (PI) (SG) (PI) (PI) (SG) (PI) (PI) (SG) (?A) (?A)
                 (PHI) (PHI) (DLTA) (DLTA) (PI) (PI) (DLTA) (DLTA)
                 (SG) (PI) (PI) (SG) (PHI) (PHI) (DLTA) (DLTA)
                 (PI) (PI) (SG) (PHI) (PHI) (DLTA) (DLTA) (PI)
                 (PI) (SG) (SG) (PI) (PI) (SG) (DLTA) (DLTA) (PI)
                 (PI) (SG) (SG)
 The electronic state is 1-SG.
 Alpha  occ. eigenvalues --   -7.68638  -0.49698  -0.44630
 Alpha virt. eigenvalues --    0.02737   0.02737   0.04353   0.05098   0.07403
 Alpha virt. eigenvalues --    0.08426   0.08426   0.11787   0.14262   0.14262
 Alpha virt. eigenvalues --    0.14572   0.14572   0.16045   0.19370   0.19370
 Alpha virt. eigenvalues --    0.24842   0.32016   0.32016   0.34492   0.35994
 Alpha virt. eigenvalues --    0.38388   0.46178   0.46178   0.47091   0.47091
 Alpha virt. eigenvalues --    0.47396   0.47396   0.49206   0.50152   0.50152
 Alpha virt. eigenvalues --    0.52442   0.52442   0.56350   0.61653   0.61653
 Alpha virt. eigenvalues --    0.63528   0.63528   0.66980   0.75605   0.75605
 Alpha virt. eigenvalues --    0.83244   1.06028   1.06028   1.12275   1.36971
 Alpha virt. eigenvalues --    1.36971   1.38442   1.38442   1.39486   1.39486
 Alpha virt. eigenvalues --    1.40166   1.40166   1.40521   1.41592   1.41592
 Alpha virt. eigenvalues --    1.42499   1.43975   1.43975   1.45569   1.45569
 Alpha virt. eigenvalues --    1.46359   1.46359   1.47110   1.47963   1.47963
 Alpha virt. eigenvalues --    1.51106   1.56137   1.56137   1.56207   1.56207
 Alpha virt. eigenvalues --    1.56811   1.56811   1.57119   1.62420   2.45086
 Alpha virt. eigenvalues --    2.45086   2.45768   2.45768   2.47454   2.55556
 Alpha virt. eigenvalues --    2.55556   2.61585   3.74435   3.74435   3.80006
 Alpha virt. eigenvalues --    3.92032   3.92032   3.94565   3.94565   3.96048
 Alpha virt. eigenvalues --    3.96048   3.96493   3.96493   3.97507   3.97507
 Alpha virt. eigenvalues --    3.98072   4.00287   4.00287   4.02582   4.08872
 Alpha virt. eigenvalues --    4.08872   4.12140   4.12140   4.14396   4.14396
 Alpha virt. eigenvalues --    4.17129   6.55394   6.55394   6.55410   6.55410
 Alpha virt. eigenvalues --    6.55493   6.55493   6.55686   7.40318   7.93411
 Alpha virt. eigenvalues --    7.93411   7.97250   8.38970   8.38970   8.39377
 Alpha virt. eigenvalues --    8.39377   8.41103  13.05418
  Beta  occ. eigenvalues --   -7.70152  -0.54535  -0.31881
  Beta virt. eigenvalues --    0.01790   0.02363   0.02363   0.05121   0.07185
  Beta virt. eigenvalues --    0.07729   0.07729   0.11026   0.14251   0.14251
  Beta virt. eigenvalues --    0.14564   0.14564   0.16406   0.20884   0.20884
  Beta virt. eigenvalues --    0.24409   0.29895   0.31198   0.31198   0.34393
  Beta virt. eigenvalues --    0.45091   0.46185   0.46185   0.46689   0.46689
  Beta virt. eigenvalues --    0.46859   0.46859   0.49397   0.49445   0.49445
  Beta virt. eigenvalues --    0.50043   0.50043   0.54050   0.62989   0.62989
  Beta virt. eigenvalues --    0.64762   0.64762   0.68534   0.82178   0.82178
  Beta virt. eigenvalues --    0.88320   1.05077   1.05091   1.05091   1.36999
  Beta virt. eigenvalues --    1.36999   1.37926   1.37926   1.38590   1.38590
  Beta virt. eigenvalues --    1.39029   1.39029   1.39108   1.39412   1.40677
  Beta virt. eigenvalues --    1.40677   1.41104   1.41104   1.42282   1.43910
  Beta virt. eigenvalues --    1.43910   1.44734   1.44734   1.45440   1.45440
  Beta virt. eigenvalues --    1.48511   1.57395   1.57395   1.57460   1.57460
  Beta virt. eigenvalues --    1.57954   1.57954   1.59192   1.71777   2.49034
  Beta virt. eigenvalues --    2.49034   2.49712   2.49712   2.51577   2.63020
  Beta virt. eigenvalues --    2.63020   2.68597   3.73717   3.73717   3.75089
  Beta virt. eigenvalues --    3.91963   3.91963   3.93475   3.93475   3.94556
  Beta virt. eigenvalues --    3.94556   3.95234   3.95234   3.95600   3.95600
  Beta virt. eigenvalues --    3.95680   3.96606   3.96606   3.97787   4.08604
  Beta virt. eigenvalues --    4.08604   4.09995   4.09995   4.11063   4.11063
  Beta virt. eigenvalues --    4.13339   6.58279   6.58279   6.58294   6.58294
  Beta virt. eigenvalues --    6.58376   6.58376   6.58568   7.48505   7.99207
  Beta virt. eigenvalues --    7.99207   8.03002   8.43194   8.43194   8.43597
  Beta virt. eigenvalues --    8.43597   8.45315  13.04241
          Condensed to atoms (all electrons):
               1          2
     1  B    4.999891  -0.000067
     2  H   -0.000067   1.000242
          Atomic-Atomic Spin Densities.
               1          2
     1  B   -1.000111  -0.000058
     2  H   -0.000058   1.000228
 Mulliken charges and spin densities:
               1          2
     1  B    0.000176  -1.000169
     2  H   -0.000176   1.000169
 Sum of Mulliken charges =  -0.00000  -0.00000
 Mulliken charges and spin densities with hydrogens summed into heavy atoms:
               1          2
     1  B   -0.000000  -0.000000
 Electronic spatial extent (au):  <R**2>=             93.2491
 Charge=             -0.0000 electrons
 Dipole moment (field-independent basis, Debye):
    X=              0.0000    Y=              0.0000    Z=              0.0127  Tot=              0.0127
 Quadrupole moment (field-independent basis, Debye-Ang):
   XX=             -7.3058   YY=             -7.3058   ZZ=            -10.7449
   XY=             -0.0000   XZ=              0.0000   YZ=              0.0000
 Traceless Quadrupole moment (field-independent basis, Debye-Ang):
   XX=              1.1463   YY=              1.1463   ZZ=             -2.2927
   XY=             -0.0000   XZ=              0.0000   YZ=              0.0000
 Octapole moment (field-independent basis, Debye-Ang**2):
  XXX=              0.0000  YYY=              0.0000  ZZZ=             -5.8937  XYY=              0.0000
  XXY=              0.0000  XXZ=              0.6575  XZZ=              0.0000  YZZ=             -0.0000
  YYZ=              0.6575  XYZ=             -0.0000
 Hexadecapole moment (field-independent basis, Debye-Ang**3):
 XXXX=            -10.7304 YYYY=            -10.7304 ZZZZ=           -203.5678 XXXY=             -0.0000
 XXXZ=              0.0000 YYYX=             -0.0000 YYYZ=              0.0000 ZZZX=              0.0000
 ZZZY=              0.0000 XXYY=             -3.5768 XXZZ=            -32.9057 YYZZ=            -32.9057
 XXYZ=             -0.0000 YYXZ=              0.0000 ZZXY=             -0.0000
 N-N= 5.291772109200D-01 E-N=-5.896117891775D+01  KE= 2.503228878549D+01
 Symmetry A1   KE= 2.503228878549D+01
 Symmetry A2   KE= 5.092417015214D-30
 Symmetry B1   KE= 1.189637685499D-29
 Symmetry B2   KE= 1.810981904768D-29
 Symmetry A1   SP=-1.041891234497D-14
 Symmetry A2   SP= 6.556174122673D-31
 Symmetry B1   SP= 1.297955973931D-30
 Symmetry B2   SP=-2.036698475819D-30
                          Isotropic Fermi Contact Couplings
        Atom                 a.u.       MegaHertz       Gauss      10(-4) cm-1
     1  B(11)             -0.00223      -1.60261      -0.57185      -0.53457
     2  H(1)               0.29853     667.19950     238.07337     222.55380
 --------------------------------------------------------
       Center         ----  Spin Dipole Couplings  ----
                      3XX-RR        3YY-RR        3ZZ-RR
 --------------------------------------------------------
     1   Atom        0.330475      0.330475     -0.660950
     2   Atom        0.001488      0.001488     -0.002977
 --------------------------------------------------------
                        XY            XZ            YZ
 --------------------------------------------------------
     1   Atom        0.000000      0.000000      0.000000
     2   Atom        0.000000      0.000000      0.000000
 --------------------------------------------------------


 ---------------------------------------------------------------------------------
              Anisotropic Spin Dipole Couplings in Principal Axis System
 ---------------------------------------------------------------------------------

       Atom             a.u.   MegaHertz   Gauss  10(-4) cm-1        Axes

              Baa    -0.6610  -113.164   -40.380   -37.748  0.0000  0.0000  1.0000
     1 B(11)  Bbb     0.3305    56.582    20.190    18.874  1.0000  0.0000  0.0000
              Bcc     0.3305    56.582    20.190    18.874 -0.0000  1.0000  0.0000
 
              Baa    -0.0030    -1.588    -0.567    -0.530  0.0000  0.0000  1.0000
     2 H(1)   Bbb     0.0015     0.794     0.283     0.265  1.0000  0.0000  0.0000
              Bcc     0.0015     0.794     0.283     0.265 -0.0000  1.0000  0.0000
 

 ---------------------------------------------------------------------------------

 No NMR shielding tensors so no spin-rotation constants.
 Leave Link  601 at Sat May 21 19:01:51 2022, MaxMem=   104857600 cpu:               0.2 elap:               0.2
 (Enter /apps/software/g16/l9999.exe)
 1\1\GINC-CNODE16\Stability\UHF\Aug-CC-pVQZ\B1H1\LCZ\21-May-2022\0\\#p 
 UHF/aug-cc-pVQZ guess=mix stable=opt\\BH UHF at 5.0 Angstrom\\0,1\B,0,
 0.,0.,0.\H,0,5.,0.,0.\\Version=ES64L-G16RevA.03\State=1-SG\HF=-25.0329
 402\S2=1.01104\S2-1=0.\S2A=0.089537\RMSD=2.465e-09\Dipole=-0.0050017,0
 .,0.\Quadrupole=-1.7045601,0.8522801,0.8522801,0.,0.,0.\PG=C*V [C*(H1B
 1)]\\@


 There are more things in heaven and earth, Horatio,
 than are dreamt of in your philosophy.
                   -- Hamlet, Act I, Scene 5
 Job cpu time:       0 days  0 hours  0 minutes  8.9 seconds.
 Elapsed time:       0 days  0 hours  0 minutes  8.8 seconds.
 File lengths (MBytes):  RWF=     29 Int=      0 D2E=      0 Chk=      4 Scr=      1
 Normal termination of Gaussian 16 at Sat May 21 19:01:51 2022.

Sender: Unischeduler System <lcz@mgt01>
Subject: Job 133641: <#!/bin/bash
#BSUB -J intel
#BSUB -o BH-5.0-G.out
#BSUB -n 8
#BSUB -q cqueue
#BSUB -R span[hosts=1]
export g16root=/apps/software
source /apps/software/g16/bsd/g16.profile
export GAUSS_SCRDIR=/scratch
/apps/software/g16/g16 < BH-5.0-G.inp > BH-5.0-G.out> Done

Job <#!/bin/bash
#BSUB -J intel
#BSUB -o BH-5.0-G.out
#BSUB -n 8
#BSUB -q cqueue
#BSUB -R span[hosts=1]
export g16root=/apps/software
source /apps/software/g16/bsd/g16.profile
export GAUSS_SCRDIR=/scratch
/apps/software/g16/g16 < BH-5.0-G.inp > BH-5.0-G.out> was submitted from host <mgt01> by user <lcz>.
Job was executed on host(s) <8*cnode16>, in queue <cqueue>, as user <lcz>.
</apps/users/lcz> was used as the home directory.
</apps/users/lcz/exe13/UHF> was used as the working directory.
Started at 2022-05-21 19:01:42
Results reported at 2022-05-21 19:01:51

Your job looked like:

------------------------------------------------------------
# User input
#!/bin/bash
#BSUB -J intel
#BSUB -o BH-5.0-G.out
#BSUB -n 8
#BSUB -q cqueue
#BSUB -R span[hosts=1]
export g16root=/apps/software
source /apps/software/g16/bsd/g16.profile
export GAUSS_SCRDIR=/scratch
/apps/software/g16/g16 < BH-5.0-G.inp > BH-5.0-G.out
------------------------------------------------------------

Successfully completed.

Resource usage summary:

    CPU time   :            4.51 sec.
    Max Memory :               227 MB
    Max Processes  :               5


The output (if any) follows:

