[Molden Format]
[N_ATOMS]
            8
[Atoms]  AU
C     1    6      -2.186061        2.809142        1.071215
H     2    1      -4.200693        2.816180        0.898813
C     3    6      -0.915475        5.017362        1.331738
H     4    1      -1.926912        6.767904        1.365027
H     5    1       1.099156        5.010323        1.504146
N     6    7      -0.796515        0.404192        1.025476
H     7    1      -0.633404       -0.262641        2.786099
H     8    1      -1.734985       -0.845428       -0.036970
[5D7F9G]
[GTO]
    1
    s    8
   0.823600000E+04   0.542430189E-03
   0.123500000E+04   0.419642790E-02
   0.280800000E+03   0.215409141E-01
   0.792700000E+02   0.836149496E-01
   0.255900000E+02   0.239871619E+00
   0.899700000E+01   0.443751820E+00
   0.331900000E+01   0.353579696E+00
   0.364300000E+00  -0.917636608E-02
    s    8
   0.823600000E+04  -0.196392234E-03
   0.123500000E+04  -0.152595027E-02
   0.280800000E+03  -0.789044903E-02
   0.792700000E+02  -0.315148705E-01
   0.255900000E+02  -0.969100083E-01
   0.899700000E+01  -0.220541526E+00
   0.331900000E+01  -0.296069113E+00
   0.364300000E+00   0.104050343E+01
    s    1
   0.905900000E+00   0.100000000E+01
    s    1
   0.128500000E+00   0.100000000E+01
    p    3
   0.187100000E+02   0.394263872E-01
   0.413300000E+01   0.244088985E+00
   0.120000000E+01   0.815492009E+00
    p    1
   0.382700000E+00   0.100000000E+01
    p    1
   0.120900000E+00   0.100000000E+01
    d    1
   0.109700000E+01   0.100000000E+01
    d    1
   0.318000000E+00   0.100000000E+01
    f    1
   0.761000000E+00   0.100000000E+01
 
    2
    s    3
   0.338700000E+02   0.254948632E-01
   0.509500000E+01   0.190362766E+00
   0.115900000E+01   0.852162022E+00
    s    1
   0.325800000E+00   0.100000000E+01
    s    1
   0.102700000E+00   0.100000000E+01
    p    1
   0.140700000E+01   0.100000000E+01
    p    1
   0.388000000E+00   0.100000000E+01
    d    1
   0.105700000E+01   0.100000000E+01
 
    3
    s    8
   0.823600000E+04   0.542430189E-03
   0.123500000E+04   0.419642790E-02
   0.280800000E+03   0.215409141E-01
   0.792700000E+02   0.836149496E-01
   0.255900000E+02   0.239871619E+00
   0.899700000E+01   0.443751820E+00
   0.331900000E+01   0.353579696E+00
   0.364300000E+00  -0.917636608E-02
    s    8
   0.823600000E+04  -0.196392234E-03
   0.123500000E+04  -0.152595027E-02
   0.280800000E+03  -0.789044903E-02
   0.792700000E+02  -0.315148705E-01
   0.255900000E+02  -0.969100083E-01
   0.899700000E+01  -0.220541526E+00
   0.331900000E+01  -0.296069113E+00
   0.364300000E+00   0.104050343E+01
    s    1
   0.905900000E+00   0.100000000E+01
    s    1
   0.128500000E+00   0.100000000E+01
    p    3
   0.187100000E+02   0.394263872E-01
   0.413300000E+01   0.244088985E+00
   0.120000000E+01   0.815492009E+00
    p    1
   0.382700000E+00   0.100000000E+01
    p    1
   0.120900000E+00   0.100000000E+01
    d    1
   0.109700000E+01   0.100000000E+01
    d    1
   0.318000000E+00   0.100000000E+01
    f    1
   0.761000000E+00   0.100000000E+01
 
    4
    s    3
   0.338700000E+02   0.254948632E-01
   0.509500000E+01   0.190362766E+00
   0.115900000E+01   0.852162022E+00
    s    1
   0.325800000E+00   0.100000000E+01
    s    1
   0.102700000E+00   0.100000000E+01
    p    1
   0.140700000E+01   0.100000000E+01
    p    1
   0.388000000E+00   0.100000000E+01
    d    1
   0.105700000E+01   0.100000000E+01
 
    5
    s    3
   0.338700000E+02   0.254948632E-01
   0.509500000E+01   0.190362766E+00
   0.115900000E+01   0.852162022E+00
    s    1
   0.325800000E+00   0.100000000E+01
    s    1
   0.102700000E+00   0.100000000E+01
    p    1
   0.140700000E+01   0.100000000E+01
    p    1
   0.388000000E+00   0.100000000E+01
    d    1
   0.105700000E+01   0.100000000E+01
 
    6
    s    8
   0.114200000E+05   0.534980914E-03
   0.171200000E+04   0.413766310E-02
   0.389300000E+03   0.212509149E-01
   0.110000000E+03   0.825762988E-01
   0.355700000E+02   0.238413273E+00
   0.125400000E+02   0.443431666E+00
   0.464400000E+01   0.355431909E+00
   0.511800000E+00  -0.870290176E-02
    s    8
   0.114200000E+05  -0.198776985E-03
   0.171200000E+04  -0.154700349E-02
   0.389300000E+03  -0.799256330E-02
   0.110000000E+03  -0.320255651E-01
   0.355700000E+02  -0.991102048E-01
   0.125400000E+02  -0.228292775E+00
   0.464400000E+01  -0.298182763E+00
   0.511800000E+00   0.103700052E+01
    s    1
   0.129300000E+01   0.100000000E+01
    s    1
   0.178700000E+00   0.100000000E+01
    p    3
   0.266300000E+02   0.398072123E-01
   0.594800000E+01   0.249002660E+00
   0.174200000E+01   0.810479727E+00
    p    1
   0.555000000E+00   0.100000000E+01
    p    1
   0.172500000E+00   0.100000000E+01
    d    1
   0.165400000E+01   0.100000000E+01
    d    1
   0.469000000E+00   0.100000000E+01
    f    1
   0.109300000E+01   0.100000000E+01
 
    7
    s    3
   0.338700000E+02   0.254948632E-01
   0.509500000E+01   0.190362766E+00
   0.115900000E+01   0.852162022E+00
    s    1
   0.325800000E+00   0.100000000E+01
    s    1
   0.102700000E+00   0.100000000E+01
    p    1
   0.140700000E+01   0.100000000E+01
    p    1
   0.388000000E+00   0.100000000E+01
    d    1
   0.105700000E+01   0.100000000E+01
 
    8
    s    3
   0.338700000E+02   0.254948632E-01
   0.509500000E+01   0.190362766E+00
   0.115900000E+01   0.852162022E+00
    s    1
   0.325800000E+00   0.100000000E+01
    s    1
   0.102700000E+00   0.100000000E+01
    p    1
   0.140700000E+01   0.100000000E+01
    p    1
   0.388000000E+00   0.100000000E+01
    d    1
   0.105700000E+01   0.100000000E+01
 
[MO]
 Sym= A   
 Ene=        -0.802461
 Spin= Alpha
 Occup=       2.000000
   1       -0.000510932
   2        0.021592398
   3        0.004018118
   4        0.041710191
   5        0.010862162
   6       -0.013858104
   7       -0.013982233
   8        0.019982346
   9       -0.023487910
  10       -0.018801002
  11        0.020651215
  12       -0.010327063
  13        0.009044493
  14        0.000355511
  15       -0.002602620
  16        0.006282928
  17        0.001192172
  18       -0.000324030
  19       -0.000787778
  20       -0.004057813
  21        0.013310011
  22       -0.005073798
  23       -0.005553294
  24        0.001635960
  25       -0.000622894
  26        0.000233180
  27        0.001228188
  28        0.002019887
  29       -0.000674292
  30       -0.000498430
  31       -0.002113318
  32        0.004768459
  33        0.000429955
  34        0.000051385
  35       -0.000219650
  36       -0.000106007
  37        0.003497166
  38       -0.003310646
  39        0.000340145
  40       -0.000184367
  41        0.000045522
  42       -0.000000117
  43        0.000127143
  44       -0.000475295
  45       -0.000509642
  46       -0.003898198
  47       -0.000834447
  48       -0.028705700
  49       -0.000068347
  50        0.000182626
  51        0.015824125
  52        0.000097291
  53        0.000609543
  54        0.019999354
  55       -0.004109702
  56        0.006485822
  57        0.028326919
  58       -0.000100060
  59       -0.000338732
  60        0.000339180
  61       -0.000747557
  62       -0.000625615
  63        0.001249312
  64        0.000079975
  65       -0.000466137
  66       -0.005859602
  67       -0.001383423
  68       -0.000082537
  69        0.000118425
  70        0.000138478
  71        0.000374196
  72        0.000308942
  73       -0.000184702
  74        0.000523618
  75        0.001616534
  76        0.003470076
  77        0.006033060
  78        0.000107679
  79        0.000027026
  80        0.000612352
  81       -0.001061003
  82       -0.000420251
  83        0.001846530
  84       -0.000031829
  85        0.000213126
  86       -0.000386555
  87       -0.000020628
  88        0.000046213
  89       -0.001197294
  90        0.003367824
  91        0.004052129
  92       -0.000020331
  93       -0.000051780
  94        0.000500259
  95       -0.001917483
  96       -0.000221474
  97        0.000072485
  98        0.000014960
  99       -0.000058849
 100       -0.000006969
 101        0.000040700
 102        0.000065645
 103       -0.019049234
 104       -0.226513955
 105       -0.054827170
 106       -0.088304825
 107       -0.013792394
 108        0.077250991
 109       -0.208473473
 110       -0.007162920
 111        0.099808907
 112       -0.251977358
 113        0.020010308
 114        0.049880126
 115       -0.127743394
 116       -0.009741567
 117        0.001560234
 118        0.006861001
 119        0.000874289
 120       -0.001134341
 121       -0.013654999
 122        0.005927681
 123        0.003847602
 124        0.000862518
 125       -0.004478332
 126       -0.001592801
 127       -0.001073710
 128        0.000804446
 129        0.001193633
 130        0.002490938
 131       -0.000803935
 132       -0.000514626
 133       -0.191805684
 134       -0.276296093
 135       -0.078987136
 136        0.002082256
 137       -0.007412897
 138        0.019383495
 139        0.007022989
 140       -0.007293293
 141        0.026955926
 142       -0.005842013
 143       -0.001431777
 144        0.003547490
 145        0.000705559
 146        0.000432758
 147        0.013559273
 148        0.061361152
 149        0.029327086
 150        0.001499751
 151        0.003781663
 152       -0.002857472
 153        0.007565786
 154        0.016044659
 155       -0.004485887
 156       -0.001785091
 157        0.000652155
 158        0.001297053
 159       -0.001144855
 160        0.002100724
 Sym= A   
 Ene=        -0.620804
 Spin= Alpha
 Occup=       2.000000
   1        0.021879107
   2        0.213107546
   3        0.045960734
   4        0.048702731
   5        0.082272401
   6        0.126149985
   7       -0.128724371
   8        0.090414569
   9        0.147628498
  10       -0.182392960
  11        0.023262593
  12        0.051587212
  13       -0.150126186
  14       -0.007796959
  15       -0.003373238
  16       -0.006789208
  17       -0.006418531
  18        0.012506691
  19       -0.005252948
  20       -0.005844861
  21       -0.014773265
  22        0.000441135
  23        0.013739986
  24        0.002917781
  25       -0.001669365
  26       -0.003260058
  27        0.001154913
  28       -0.001462914
  29       -0.006128836
  30       -0.000215386
  31       -0.008562729
  32       -0.042495157
  33       -0.033832041
  34       -0.000425170
  35        0.002334595
  36       -0.003537584
  37       -0.006320583
  38        0.004053351
  39       -0.010015468
  40       -0.000100840
  41       -0.001561089
  42       -0.000287267
  43       -0.001117414
  44        0.001358335
  45        0.021173708
  46        0.208740924
  47        0.043128480
  48        0.084649650
  49       -0.053782326
  50       -0.106248405
  51       -0.159666529
  52       -0.056436681
  53       -0.114949788
  54       -0.214979305
  55       -0.008434506
  56       -0.027659381
  57       -0.170625039
  58       -0.005250365
  59        0.005804960
  60        0.010143601
  61       -0.006042498
  62        0.009268179
  63       -0.002329124
  64        0.013240438
  65        0.017134685
  66       -0.001770202
  67        0.006201639
  68        0.004329352
  69        0.000138787
  70        0.000560139
  71        0.002343766
  72       -0.003704582
  73        0.005953630
  74        0.000382108
  75       -0.005874165
  76       -0.030878466
  77       -0.025859948
  78       -0.001786644
  79       -0.000261329
  80       -0.004038285
  81       -0.004645347
  82        0.003949952
  83       -0.010108551
  84        0.000388415
  85       -0.000453781
  86        0.001650916
  87       -0.000215072
  88        0.001308207
  89       -0.006001732
  90       -0.031310993
  91       -0.030461113
  92        0.000748792
  93       -0.001906171
  94       -0.004063928
  95        0.007676800
  96       -0.003244417
  97       -0.009472456
  98        0.000473907
  99        0.001725338
 100        0.000415178
 101       -0.001157376
 102        0.001145584
 103       -0.000100802
 104       -0.020398400
 105       -0.005261418
 106       -0.025807098
 107       -0.007537916
 108       -0.011467972
 109        0.007953178
 110       -0.005745095
 111       -0.015216758
 112        0.010286007
 113       -0.033225389
 114       -0.023642104
 115        0.039545010
 116        0.000156749
 117        0.001066884
 118       -0.003240495
 119       -0.001972936
 120        0.000944166
 121        0.002708684
 122        0.003118691
 123       -0.009870857
 124       -0.002240579
 125        0.002146018
 126        0.001103424
 127       -0.000201056
 128       -0.000182678
 129        0.000216648
 130        0.001001551
 131       -0.000512356
 132       -0.000878678
 133        0.011740172
 134        0.015698844
 135        0.027367740
 136       -0.000040720
 137       -0.000833004
 138       -0.000578939
 139       -0.000433561
 140       -0.004624708
 141        0.003827524
 142        0.000314195
 143        0.000176006
 144        0.000284200
 145       -0.000099232
 146        0.000160769
 147       -0.001114816
 148       -0.001330764
 149       -0.005751717
 150       -0.000289668
 151       -0.000334850
 152        0.000568689
 153        0.001512291
 154       -0.000171262
 155        0.001606016
 156        0.000216846
 157        0.000544333
 158       -0.000064388
 159       -0.000026544
 160        0.000087779
 Sym= A   
 Ene=        -0.704093
 Spin= Alpha
 Occup=       2.000000
   1        0.022090477
   2        0.252460567
   3        0.053919835
   4        0.157601502
   5       -0.203574636
   6       -0.015298558
   7       -0.021753182
   8       -0.251585773
   9       -0.019560723
  10       -0.026684011
  11       -0.095087221
  12       -0.005653368
  13       -0.013276337
  14       -0.006297891
  15        0.002389280
  16       -0.000011115
  17        0.016352579
  18       -0.000020558
  19       -0.012307901
  20        0.004206340
  21        0.001228633
  22        0.025074168
  23        0.007485561
  24        0.000765359
  25        0.002818922
  26       -0.000393675
  27       -0.000789343
  28       -0.000212802
  29       -0.002982343
  30       -0.000104113
  31        0.194746697
  32        0.264525661
  33        0.090143551
  34        0.017697873
  35       -0.000485276
  36        0.001417725
  37        0.009075383
  38       -0.000019322
  39        0.000441683
  40       -0.001599459
  41        0.000471269
  42        0.000063324
  43        0.003343008
  44       -0.000118610
  45       -0.004008919
  46       -0.046997874
  47       -0.010072872
  48       -0.055230672
  49        0.009994680
  50        0.023239507
  51        0.003793886
  52        0.020582421
  53        0.033805018
  54        0.005801247
  55        0.028759180
  56        0.011818421
  57        0.007897316
  58        0.000842117
  59        0.000649497
  60       -0.000286272
  61        0.006832750
  62        0.001580272
  63        0.002022537
  64        0.000704304
  65       -0.000549524
  66        0.013300988
  67        0.005192469
  68       -0.000332311
  69       -0.000716129
  70       -0.001000950
  71       -0.000407083
  72       -0.000017576
  73       -0.001088907
  74       -0.003466493
  75       -0.007376416
  76       -0.005028894
  77       -0.004699672
  78       -0.000473533
  79       -0.000027335
  80        0.000023563
  81        0.001442832
  82       -0.000919418
  83        0.000110828
  84       -0.000141103
  85       -0.000001990
  86        0.000090610
  87       -0.000712909
  88        0.000414178
  89        0.008995100
  90        0.009776552
  91        0.029245466
  92        0.000558771
  93        0.001185758
  94        0.000202751
  95        0.004104117
  96        0.001420063
  97        0.000672444
  98        0.000397331
  99       -0.000234831
 100       -0.000106154
 101       -0.000457941
 102       -0.001123337
 103       -0.002327899
 104       -0.023812437
 105       -0.005291972
 106       -0.043489792
 107        0.020938751
 108       -0.013680827
 109       -0.003433342
 110        0.026623886
 111       -0.016395612
 112       -0.004335502
 113        0.058441918
 114       -0.018661171
 115       -0.009747793
 116       -0.000245302
 117        0.000120764
 118       -0.000583688
 119        0.002157113
 120       -0.001636946
 121        0.000976554
 122       -0.000425633
 123       -0.002636974
 124        0.004956655
 125       -0.003483725
 126       -0.000197541
 127        0.000247151
 128        0.000534213
 129        0.000430336
 130        0.000327464
 131       -0.001116479
 132        0.001627783
 133       -0.000837939
 134        0.009563833
 135        0.009093755
 136        0.000919567
 137       -0.000698120
 138        0.000085220
 139        0.001074794
 140        0.001235395
 141       -0.002815431
 142        0.000266992
 143       -0.000222217
 144       -0.000174424
 145        0.000027875
 146       -0.000225217
 147       -0.007707060
 148       -0.001863904
 149       -0.008240278
 150        0.000152946
 151       -0.000396400
 152       -0.000395031
 153        0.002118396
 154        0.003309660
 155        0.001858683
 156       -0.000313670
 157        0.000086785
 158        0.000221344
 159       -0.000035948
 160       -0.000385594
 Sym= A   
 Ene=        -0.682463
 Spin= Alpha
 Occup=       2.000000
   1        0.003616552
   2        0.037071058
   3        0.007569332
   4        0.044591222
   5        0.007760994
   6        0.025603456
   7        0.002548985
   8        0.013399030
   9        0.034846785
  10        0.004247698
  11        0.031507021
  12        0.007773094
  13        0.004604533
  14       -0.000383962
  15       -0.000693162
  16        0.000388750
  17       -0.007125744
  18       -0.002234458
  19       -0.004201174
  20       -0.000782260
  21        0.000876952
  22       -0.011000780
  23       -0.006410816
  24       -0.000318376
  25       -0.000555396
  26       -0.001041158
  27       -0.000495028
  28        0.000054845
  29       -0.001490835
  30       -0.003182815
  31       -0.009704426
  32       -0.018180350
  33       -0.023922380
  34        0.000173286
  35        0.001144671
  36        0.000114838
  37        0.001751858
  38        0.002941879
  39        0.000246596
  40       -0.000326493
  41        0.000130358
  42        0.000113551
  43        0.000245345
  44        0.001104208
  45       -0.021971111
  46       -0.249653817
  47       -0.052502260
  48       -0.139428784
  49       -0.202535859
  50       -0.010446616
  51       -0.018136975
  52       -0.248382881
  53       -0.012471446
  54       -0.022194918
  55       -0.113361990
  56        0.005169928
  57       -0.010855896
  58        0.007157123
  59       -0.002423605
  60        0.000076834
  61       -0.014412624
  62        0.000693742
  63        0.012100318
  64       -0.004202692
  65        0.000981927
  66       -0.020424459
  67        0.001204258
  68        0.000694861
  69        0.002820648
  70        0.000133425
  71       -0.000823932
  72       -0.000065060
  73       -0.003526866
  74       -0.000992282
  75        0.014188459
  76        0.044153595
  77        0.030630894
  78       -0.002850899
  79       -0.002132057
  80       -0.000401344
  81       -0.005238327
  82       -0.007721302
  83       -0.001188272
  84       -0.000463404
  85       -0.000110286
  86        0.000267261
  87       -0.002038061
  88        0.000382183
  89       -0.193485703
  90       -0.261536288
  91       -0.084235149
  92        0.017306446
  93        0.000004833
  94        0.001532936
  95        0.010884016
  96       -0.003565344
  97       -0.000291004
  98        0.001656276
  99       -0.000496625
 100        0.000133323
 101       -0.003364618
 102        0.000133086
 103        0.000262564
 104        0.013968563
 105        0.003906579
 106        0.000321986
 107       -0.000737376
 108        0.007648542
 109       -0.000404518
 110       -0.001090693
 111        0.009108926
 112       -0.000731203
 113        0.003121951
 114        0.007278447
 115       -0.001684640
 116        0.000116049
 117       -0.000049072
 118        0.000064219
 119       -0.000269239
 120       -0.000356880
 121        0.001183701
 122       -0.000037880
 123       -0.000248361
 124        0.000594216
 125       -0.001486293
 126        0.000080231
 127        0.000022836
 128        0.000181074
 129       -0.000005621
 130       -0.000025961
 131        0.000170113
 132        0.000185493
 133        0.000058091
 134        0.001431771
 135       -0.003201537
 136        0.000014508
 137        0.000286521
 138       -0.000096357
 139       -0.000744865
 140       -0.000108365
 141       -0.000450613
 142        0.000032346
 143        0.000095088
 144       -0.000014462
 145       -0.000103978
 146        0.000048171
 147       -0.000994634
 148       -0.000156850
 149       -0.001320392
 150        0.000037787
 151        0.000207965
 152       -0.000118595
 153        0.000552366
 154       -0.000888581
 155        0.000663649
 156        0.000181441
 157       -0.000021837
 158       -0.000128596
 159        0.000156197
 160        0.000106718
 Sym= A   
 Ene=        -0.684825
 Spin= Alpha
 Occup=       2.000000
   1        0.003520894
   2        0.046129090
   3        0.009696354
   4        0.058891667
   5        0.017937858
   6        0.015819798
   7        0.002266033
   8        0.023398889
   9        0.025141039
  10        0.002862899
  11        0.001377759
  12        0.044296646
  13        0.002767002
  14       -0.000418091
  15        0.000908189
  16       -0.000027485
  17        0.005458130
  18        0.005344708
  19       -0.002440969
  20        0.002015739
  21        0.000475753
  22        0.009349815
  23        0.006692552
  24       -0.000316968
  25       -0.000651011
  26       -0.001015409
  27        0.000169789
  28        0.000636131
  29       -0.001103239
  30        0.003012261
  31        0.006282016
  32        0.007117662
  33        0.008423213
  34        0.000023063
  35       -0.000385844
  36       -0.000030103
  37       -0.000189391
  38       -0.001588313
  39       -0.000146017
  40        0.000181275
  41       -0.000069623
  42       -0.000120424
  43        0.000049474
  44       -0.000824291
  45       -0.021363596
  46       -0.245306796
  47       -0.051145832
  48       -0.159288194
  49        0.093603576
  50       -0.180416167
  51       -0.006172243
  52        0.113731502
  53       -0.222622427
  54       -0.008371543
  55        0.070383534
  56       -0.080507521
  57       -0.002141756
  58        0.007206703
  59        0.000490472
  60       -0.000325577
  61        0.006523561
  62        0.013234945
  63        0.014714384
  64        0.000360133
  65       -0.001162721
  66        0.008106041
  67        0.018400947
  68        0.000166678
  69       -0.001389824
  70        0.002623113
  71        0.000154103
  72        0.000192007
  73       -0.003758329
  74        0.001204050
  75       -0.193793504
  76       -0.261988883
  77       -0.091300306
  78       -0.008484516
  79        0.014994558
  80        0.000252084
  81       -0.006336701
  82        0.007487579
  83       -0.000282727
  84        0.001713920
  85        0.000064463
  86       -0.000058198
  87        0.001617716
  88        0.002791464
  89        0.015129937
  90        0.048608590
  91        0.023996844
  92       -0.000657911
  93       -0.003510433
  94       -0.000371380
  95       -0.005548086
  96       -0.007790754
  97       -0.000925706
  98       -0.000491479
  99        0.000299729
 100        0.000143951
 101        0.000814025
 102        0.001926119
 103       -0.001126490
 104       -0.019407492
 105       -0.005370237
 106       -0.009611954
 107        0.001689615
 108       -0.010926414
 109        0.000738153
 110        0.003290606
 111       -0.016555722
 112        0.000961995
 113       -0.008175931
 114       -0.017540755
 115        0.004771024
 116       -0.000090844
 117        0.000083742
 118        0.000029897
 119       -0.000530815
 120        0.000639621
 121       -0.000398762
 122        0.000422803
 123        0.000919205
 124       -0.003165719
 125        0.002282261
 126        0.000054572
 127       -0.000106888
 128       -0.000260478
 129       -0.000054996
 130       -0.000195484
 131        0.000013217
 132       -0.000607411
 133        0.000503929
 134       -0.004010276
 135        0.003035537
 136       -0.000001001
 137       -0.000345997
 138        0.000220261
 139        0.000928000
 140       -0.002021905
 141        0.001591413
 142       -0.000117928
 143       -0.000085884
 144        0.000205038
 145        0.000117133
 146       -0.000033127
 147        0.003002463
 148        0.000514380
 149        0.010888590
 150       -0.000045039
 151       -0.000476459
 152        0.000049635
 153       -0.000836019
 154       -0.001968779
 155       -0.001619568
 156       -0.000028727
 157       -0.000042619
 158       -0.000137766
 159        0.000037156
 160       -0.000159450
 Sym= A   
 Ene=        -0.565976
 Spin= Alpha
 Occup=       2.000000
   1        0.001755540
   2        0.021006716
   3        0.006935652
   4       -0.042748611
   5       -0.004645398
   6       -0.014891473
   7        0.018073638
   8       -0.013429101
   9       -0.017108166
  10        0.022240808
  11       -0.021312195
  12       -0.016120152
  13        0.006952807
  14        0.000349988
  15        0.001856281
  16       -0.004231434
  17       -0.008564587
  18        0.007746613
  19        0.004850457
  20        0.003341435
  21       -0.008698201
  22       -0.007296630
  23        0.008196640
  24       -0.001192877
  25        0.001849723
  26        0.000734691
  27       -0.000561699
  28       -0.001631479
  29        0.000572529
  30        0.005322532
  31       -0.011102377
  32       -0.040628042
  33       -0.040245947
  34       -0.000247654
  35       -0.001556113
  36        0.000337985
  37       -0.002714934
  38       -0.002632112
  39       -0.000638332
  40       -0.000134685
  41       -0.000009000
  42       -0.000277070
  43       -0.000245395
  44       -0.001465472
  45        0.003214582
  46        0.026458379
  47        0.005864515
  48        0.100115320
  49        0.001060819
  50       -0.006746324
  51       -0.014567522
  52       -0.004434096
  53       -0.014943026
  54       -0.020487180
  55        0.011959978
  56       -0.009368980
  57       -0.033287778
  58       -0.000072550
  59        0.000018437
  60       -0.000722827
  61        0.000153491
  62        0.001731470
  63       -0.000976583
  64       -0.000046379
  65        0.001929041
  66       -0.000640966
  67       -0.001611039
  68        0.000147672
  69        0.000152700
  70       -0.000565582
  71       -0.000409955
  72       -0.000306089
  73        0.000328268
  74       -0.001231728
  75       -0.001517186
  76       -0.013771299
  77       -0.012088274
  78        0.000049474
  79       -0.000121355
  80       -0.000546669
  81       -0.001319950
  82        0.002607858
  83       -0.002068842
  84        0.000098775
  85       -0.000264955
  86        0.000323691
  87       -0.000075580
  88        0.000003639
  89        0.002063770
  90        0.001283419
  91       -0.039913782
  92       -0.000946392
  93        0.000292325
  94       -0.000571753
  95        0.001043040
  96        0.003408426
  97       -0.000096340
  98       -0.000086573
  99        0.000102568
 100       -0.000126077
 101        0.000190369
 102       -0.000468489
 103       -0.052686248
 104       -0.302219716
 105       -0.079856680
 106       -0.234609652
 107       -0.248806254
 108       -0.047597344
 109        0.106007870
 110       -0.321095238
 111       -0.063630125
 112        0.136846222
 113       -0.322833410
 114       -0.030132492
 115        0.127835344
 116       -0.001307512
 117       -0.003144283
 118       -0.000385173
 119        0.003176923
 120        0.001658429
 121       -0.004222291
 122       -0.009761758
 123        0.001856727
 124        0.013887379
 125       -0.001039524
 126        0.000754332
 127       -0.000413339
 128        0.000624159
 129       -0.002372256
 130       -0.001023926
 131        0.001416231
 132        0.002123714
 133        0.006611490
 134        0.024214388
 135        0.019742798
 136       -0.008043251
 137       -0.000518323
 138        0.002214684
 139       -0.019492101
 140       -0.007744169
 141        0.003955236
 142       -0.000560361
 143        0.003556221
 144        0.001106069
 145        0.000118165
 146       -0.001016250
 147        0.007969846
 148        0.023031498
 149        0.017174109
 150       -0.007184988
 151       -0.000101469
 152        0.003855402
 153       -0.015989524
 154       -0.007398508
 155        0.012782064
 156        0.002725807
 157       -0.000188501
 158        0.000968064
 159       -0.001389747
 160       -0.002169977
 Sym= A   
 Ene=       -15.470017
 Spin= Alpha
 Occup=       2.000000
   1        0.000375953
   2       -0.002546487
   3       -0.000622597
   4       -0.000906816
   5       -0.001993234
   6        0.002259833
   7        0.000583254
   8       -0.002147868
   9        0.001434483
  10        0.000655624
  11       -0.000922999
  12        0.000822541
  13        0.000199841
  14        0.000170946
  15        0.000063385
  16       -0.000169736
  17       -0.000061565
  18        0.000526984
  19        0.000270523
  20        0.000077059
  21       -0.000292711
  22       -0.000555322
  23       -0.000359054
  24       -0.000059874
  25        0.000071431
  26        0.000012655
  27        0.000008376
  28       -0.000080856
  29        0.000190977
  30        0.000258321
  31        0.000312165
  32        0.000139341
  33       -0.000898452
  34        0.000101691