
                                        *****************
                                        * O   R   C   A *
                                        *****************

                                            #,                                       
                                            ###                                      
                                            ####                                     
                                            #####                                    
                                            ######                                   
                                           ########,                                 
                                     ,,################,,,,,                         
                               ,,#################################,,                 
                          ,,##########################################,,             
                       ,#########################################, ''#####,          
                    ,#############################################,,   '####,        
                  ,##################################################,,,,####,       
                ,###########''''           ''''###############################       
              ,#####''   ,,,,##########,,,,          '''####'''          '####       
            ,##' ,,,,###########################,,,                        '##       
           ' ,,###''''                  '''############,,,                           
         ,,##''                                '''############,,,,        ,,,,,,###''
      ,#''                                            '''#######################'''  
     '                                                          ''''####''''         
             ,#######,   #######,   ,#######,      ##                                
            ,#'     '#,  ##    ##  ,#'     '#,    #''#        ######   ,####,        
            ##       ##  ##   ,#'  ##            #'  '#       #        #'  '#        
            ##       ##  #######   ##           ,######,      #####,   #    #        
            '#,     ,#'  ##    ##  '#,     ,#' ,#      #,         ##   #,  ,#        
             '#######'   ##     ##  '#######'  #'      '#     #####' # '####'        



                  #######################################################
                  #                        -***-                        #
                  #          Department of theory and spectroscopy      #
                  #    Directorship and core code : Frank Neese         #
                  #        Max Planck Institute fuer Kohlenforschung    #
                  #                Kaiser Wilhelm Platz 1               #
                  #                 D-45470 Muelheim/Ruhr               #
                  #                      Germany                        #
                  #                                                     #
                  #                  All rights reserved                #
                  #                        -***-                        #
                  #######################################################


                         Program Version 5.0.0 -  RELEASE  -
                                (SVN: $Rev: 19529$)
                ($Date: 2021-06-28 11:36:33 +0200 (Mo, 28 Jun 2021) $)


 With contributions from (in alphabetic order):
   Daniel Aravena         : Magnetic Suceptibility
   Michael Atanasov       : Ab Initio Ligand Field Theory (pilot matlab implementation)
   Alexander A. Auer      : GIAO ZORA, VPT2 properties, NMR spectrum
   Ute Becker             : Parallelization
   Giovanni Bistoni       : ED, misc. LED, open-shell LED, HFLD
   Martin Brehm           : Molecular dynamics
   Dmytro Bykov           : SCF Hessian
   Vijay G. Chilkuri      : MRCI spin determinant printing, contributions to CSF-ICE
   Dipayan Datta          : RHF DLPNO-CCSD density
   Achintya Kumar Dutta   : EOM-CC, STEOM-CC
   Dmitry Ganyushin       : Spin-Orbit,Spin-Spin,Magnetic field MRCI
   Miquel Garcia          : C-PCM Hessian, Gaussian charge scheme
   Yang Guo               : DLPNO-NEVPT2, F12-NEVPT2, CIM, IAO-localization
   Andreas Hansen         : Spin unrestricted coupled pair/coupled cluster methods
   Benjamin Helmich-Paris : MC-RPA, TRAH-SCF, COSX integrals
   Lee Huntington         : MR-EOM, pCC
   Robert Izsak           : Overlap fitted RIJCOSX, COSX-SCS-MP3, EOM
   Marcus Kettner         : VPT2
   Christian Kollmar      : KDIIS, OOCD, Brueckner-CCSD(T), CCSD density, CASPT2, CASPT2-K
   Simone Kossmann        : Meta GGA functionals, TD-DFT gradient, OOMP2, MP2 Hessian
   Martin Krupicka        : Initial AUTO-CI
   Lucas Lang             : DCDCAS
   Marvin Lechner         : AUTO-CI (C++ implementation), FIC-MRCC
   Dagmar Lenk            : GEPOL surface, SMD
   Dimitrios Liakos       : Extrapolation schemes; Compound Job, initial MDCI parallelization
   Dimitrios Manganas     : Further ROCIS development; embedding schemes
   Dimitrios Pantazis     : SARC Basis sets
   Anastasios Papadopoulos: AUTO-CI, single reference methods and gradients
   Taras Petrenko         : DFT Hessian,TD-DFT gradient, ASA, ECA, R-Raman, ABS, FL, XAS/XES, NRVS
   Peter Pinski           : DLPNO-MP2, DLPNO-MP2 Gradient
   Christoph Reimann      : Effective Core Potentials
   Marius Retegan         : Local ZFS, SOC
   Christoph Riplinger    : Optimizer, TS searches, QM/MM, DLPNO-CCSD(T), (RO)-DLPNO pert. Triples
   Tobias Risthaus        : Range-separated hybrids, TD-DFT gradient, RPA, STAB
   Michael Roemelt        : Original ROCIS implementation
   Masaaki Saitow         : Open-shell DLPNO-CCSD energy and density
   Barbara Sandhoefer     : DKH picture change effects
   Avijit Sen             : IP-ROCIS
   Kantharuban Sivalingam : CASSCF convergence, NEVPT2, FIC-MRCI
   Bernardo de Souza      : ESD, SOC TD-DFT
   Georgi Stoychev        : AutoAux, RI-MP2 NMR
   Willem Van den Heuvel  : Paramagnetic NMR
   Boris Wezisla          : Elementary symmetry handling
   Frank Wennmohs         : Technical directorship


 We gratefully acknowledge several colleagues who have allowed us to
 interface, adapt or use parts of their codes:
   Stefan Grimme, W. Hujo, H. Kruse, P. Pracht,  : VdW corrections, initial TS optimization,
                  C. Bannwarth, S. Ehlert          DFT functionals, gCP, sTDA/sTD-DF
   Ed Valeev, F. Pavosevic, A. Kumar             : LibInt (2-el integral package), F12 methods
   Garnet Chan, S. Sharma, J. Yang, R. Olivares  : DMRG
   Ulf Ekstrom                                   : XCFun DFT Library
   Mihaly Kallay                                 : mrcc  (arbitrary order and MRCC methods)
   Jiri Pittner, Ondrej Demel                    : Mk-CCSD
   Frank Weinhold                                : gennbo (NPA and NBO analysis)
   Christopher J. Cramer and Donald G. Truhlar   : smd solvation model
   Lars Goerigk                                  : TD-DFT with DH, B97 family of functionals
   V. Asgeirsson, H. Jonsson                     : NEB implementation
   FAccTs GmbH                                   : IRC, NEB, NEB-TS, DLPNO-Multilevel, CI-OPT
                                                   MM, QMMM, 2- and 3-layer-ONIOM, Crystal-QMMM,
                                                   LR-CPCM, SF, NACMEs, symmetry and pop. for TD-DFT,
                                                   nearIR, NL-DFT gradient (VV10), updates on ESD,
                                                   ML-optimized integration grids
   S Lehtola, MJT Oliveira, MAL Marques          : LibXC Library
   Liviu Ungur et al                             : ANISO software


 Your calculation uses the libint2 library for the computation of 2-el integrals
 For citations please refer to: http://libint.valeyev.net

 Your ORCA version has been built with support for libXC version: 5.1.0
 For citations please refer to: https://tddft.org/programs/libxc/

 This ORCA versions uses:
   CBLAS   interface :  Fast vector & matrix operations
   LAPACKE interface :  Fast linear algebra routines
   SCALAPACK package :  Parallel linear algebra routines
   Shared memory     :  Shared parallel matrices
   BLAS/LAPACK       :  OpenBLAS 0.3.15  USE64BITINT DYNAMIC_ARCH NO_AFFINITY SkylakeX SINGLE_THREADED
        Core in use  :  SkylakeX
   Copyright (c) 2011-2014, The OpenBLAS Project


================================================================================

----- Orbital basis set information -----
Your calculation utilizes the basis: def2-TZVP
   F. Weigend and R. Ahlrichs, Phys. Chem. Chem. Phys. 7, 3297 (2005).

================================================================================
                                        WARNINGS
                       Please study these warnings very carefully!
================================================================================


INFO   : the flag for use of the SHARK integral package has been found!

================================================================================
                                       INPUT FILE
================================================================================
NAME = /scratch/RC-highspin_872/RC-highspin.inp
|  1> ! UKS B3LYP def2-TZVP NoRI VeryTightSCF
|  2> 
|  3> %pal
|  4>     nprocs  16
|  5> end
|  6> 
|  7> %scf
|  8>     MaxIter         500
|  9> end
| 10> 
| 11> *xyz +1 12
| 12>  C		41.75403		53.28594		36.47089
| 13>  N		42.78753		53.11575		35.57581
| 14>  H		43.16994		53.82901		34.93449
| 15>  C		43.13114		51.81325		35.56784
| 16>  H		43.90950		51.37773		34.94414
| 17>  N		42.37607		51.13571		36.42691
| 18>  C		41.50665		52.03904		37.00144
| 19>  H		40.82544		51.73164		37.79505
| 20>  C		40.09202		47.27196		33.79593
| 21>  N		40.01563		48.58847		33.38565
| 22>  H		39.43866		49.00474		32.64677
| 23>  C		40.81932		49.32188		34.18498
| 24>  H		40.95055		50.39694		34.07925
| 25>  N		41.40562		48.54888		35.08628
| 26>  C		40.96397		47.26826		34.85989
| 27>  H		41.28483		46.44894		35.49587
| 28>  C		38.24865		48.45183		37.81335
| 29>  H		38.06635		49.38048		37.25970
| 30>  H		37.98920		48.64643		38.86583
| 31>  C		39.73354		48.12878		37.79602
| 32>  O		40.09424		46.93213		38.07281
| 33>  O		40.52803		49.07737		37.61504
| 34>  C		38.64939		43.85153		40.73232
| 35>  N		39.75318		43.46223		41.46909
| 36>  H		39.79405		42.88321		42.31374
| 37>  C		40.85619		43.95040		40.87085
| 38>  H		41.86208		43.73437		41.21668
| 39>  N		40.53337		44.65182		39.79100
| 40>  C		39.15956		44.58428		39.68656
| 41>  H		38.64310		45.07085		38.86947
| 42>  C		42.78301		43.20389		35.50791
| 43>  N		41.70402		42.56435		36.07633
| 44>  H		41.38662		41.60923		35.87328
| 45>  C		41.22751		43.34662		37.06020
| 46>  H		40.41347		43.06024		37.71905
| 47>  N		41.93585		44.46949		37.14463
| 48>  C		42.92016		44.39135		36.18173
| 49>  H		43.65411		45.17925		36.03284
| 50>  C		45.76587		48.09327		34.01347
| 51>  H		45.12996		47.64758		33.22625
| 52>  H		46.66030		47.46138		34.10695
| 53>  C		44.95577		48.01686		35.29973
| 54>  O		44.14613		48.94934		35.56215
| 55>  O		45.08740		46.97457		36.01411
| 56>  Fe		42.54033		49.05049		36.87039
| 57>  Fe		41.81627		46.03465		38.62397
| 58>  O		42.83867		47.18229		37.39246
| 59>  H		43.73492		46.94286		37.02348
| 60>  C		43.49167		47.06037		40.65787
| 61>  C		43.62987		47.67506		42.05581
| 62>  C		45.10300		47.59033		42.50474
| 63>  C		45.62301		46.15243		42.46240
| 64>  C		45.40189		45.47910		41.08480
| 65>  C		43.92995		45.59891		40.70191
| 66>  O		42.19103		47.12374		40.15874
| 67>  O		42.77905		47.01209		42.97498
| 68>  O		45.28716		48.11554		43.80319
| 69>  O		46.99767		46.17794		42.81101
| 70>  O		45.74511		44.11656		41.09014
| 71>  O		43.60430		45.05282		39.42323
| 72>  H		44.17197		47.60667		39.96927
| 73>  H		43.37341		48.74685		41.99147
| 74>  H		45.70505		48.16527		41.77049
| 75>  H		45.03923		45.57203		43.19495
| 76>  H		46.01899		46.03720		40.34589
| 77>  H		43.33990		45.09204		41.48188
| 78>  H		42.10859		47.68790		43.28977
| 79>  H		45.23130		49.11516		43.72228
| 80>  H		47.38229		45.25422		42.73309
| 81>  H		46.61333		43.98248		41.55557
| 82>  H		43.51869		44.03919		39.45235
| 83>  O		42.87964		49.71258		38.89705
| 84>  O		44.05578		49.61518		38.40447
| 85>  H		41.30382		54.25088		36.70388
| 86>  H		39.55092		46.42585		33.37239
| 87>  H		37.60102		47.66437		37.42791
| 88>  H		37.60539		43.64548		40.96829
| 89>  H		43.42804		42.77098		34.74333
| 90>  H		46.04434		49.08634		33.66087
| 91> *
| 92> 
| 93> 
| 94>                          ****END OF INPUT****
================================================================================

                       ****************************
                       * Single Point Calculation *
                       ****************************

---------------------------------
CARTESIAN COORDINATES (ANGSTROEM)
---------------------------------
  C     41.754030   53.285940   36.470890
  N     42.787530   53.115750   35.575810
  H     43.169940   53.829010   34.934490
  C     43.131140   51.813250   35.567840
  H     43.909500   51.377730   34.944140
  N     42.376070   51.135710   36.426910
  C     41.506650   52.039040   37.001440
  H     40.825440   51.731640   37.795050
  C     40.092020   47.271960   33.795930
  N     40.015630   48.588470   33.385650
  H     39.438660   49.004740   32.646770
  C     40.819320   49.321880   34.184980
  H     40.950550   50.396940   34.079250
  N     41.405620   48.548880   35.086280
  C     40.963970   47.268260   34.859890
  H     41.284830   46.448940   35.495870
  C     38.248650   48.451830   37.813350
  H     38.066350   49.380480   37.259700
  H     37.989200   48.646430   38.865830
  C     39.733540   48.128780   37.796020
  O     40.094240   46.932130   38.072810
  O     40.528030   49.077370   37.615040
  C     38.649390   43.851530   40.732320
  N     39.753180   43.462230   41.469090
  H     39.794050   42.883210   42.313740
  C     40.856190   43.950400   40.870850
  H     41.862080   43.734370   41.216680
  N     40.533370   44.651820   39.791000
  C     39.159560   44.584280   39.686560
  H     38.643100   45.070850   38.869470
  C     42.783010   43.203890   35.507910
  N     41.704020   42.564350   36.076330
  H     41.386620   41.609230   35.873280
  C     41.227510   43.346620   37.060200
  H     40.413470   43.060240   37.719050
  N     41.935850   44.469490   37.144630
  C     42.920160   44.391350   36.181730
  H     43.654110   45.179250   36.032840
  C     45.765870   48.093270   34.013470
  H     45.129960   47.647580   33.226250
  H     46.660300   47.461380   34.106950
  C     44.955770   48.016860   35.299730
  O     44.146130   48.949340   35.562150
  O     45.087400   46.974570   36.014110
  Fe    42.540330   49.050490   36.870390
  Fe    41.816270   46.034650   38.623970
  O     42.838670   47.182290   37.392460
  H     43.734920   46.942860   37.023480
  C     43.491670   47.060370   40.657870
  C     43.629870   47.675060   42.055810
  C     45.103000   47.590330   42.504740
  C     45.623010   46.152430   42.462400
  C     45.401890   45.479100   41.084800
  C     43.929950   45.598910   40.701910
  O     42.191030   47.123740   40.158740
  O     42.779050   47.012090   42.974980
  O     45.287160   48.115540   43.803190
  O     46.997670   46.177940   42.811010
  O     45.745110   44.116560   41.090140
  O     43.604300   45.052820   39.423230
  H     44.171970   47.606670   39.969270
  H     43.373410   48.746850   41.991470
  H     45.705050   48.165270   41.770490
  H     45.039230   45.572030   43.194950
  H     46.018990   46.037200   40.345890
  H     43.339900   45.092040   41.481880
  H     42.108590   47.687900   43.289770
  H     45.231300   49.115160   43.722280
  H     47.382290   45.254220   42.733090
  H     46.613330   43.982480   41.555570
  H     43.518690   44.039190   39.452350
  O     42.879640   49.712580   38.897050
  O     44.055780   49.615180   38.404470
  H     41.303820   54.250880   36.703880
  H     39.550920   46.425850   33.372390
  H     37.601020   47.664370   37.427910
  H     37.605390   43.645480   40.968290
  H     43.428040   42.770980   34.743330
  H     46.044340   49.086340   33.660870

----------------------------
CARTESIAN COORDINATES (A.U.)
----------------------------
  NO LB      ZA    FRAG     MASS         X           Y           Z
   0 C     6.0000    0    12.011   78.903682  100.695833   68.919994
   1 N     7.0000    0    14.007   80.856714  100.374221   67.228538
   2 H     1.0000    0     1.008   81.579364  101.722087   66.016619
   3 C     6.0000    0    12.011   81.506042   97.912853   67.213477
   4 H     1.0000    0     1.008   82.976930   97.089839   66.034855
   5 N     7.0000    0    14.007   80.079167   96.632488   68.836884
   6 C     6.0000    0    12.011   78.436201   98.339534   69.922588
   7 H     1.0000    0     1.008   77.148901   97.758632   71.422294
   8 C     6.0000    0    12.011   75.762938   89.331058   63.865052
   9 N     7.0000    0    14.007   75.618582   91.818902   63.089735
  10 H     1.0000    0     1.008   74.528266   92.605538   61.693454
  11 C     6.0000    0    12.011   77.137336   93.204846   64.600250
  12 H     1.0000    0     1.008   77.385325   95.236415   64.400449
  13 N     7.0000    0    14.007   78.245282   91.744087   66.303460
  14 C     6.0000    0    12.011   77.410685   89.324066   65.875645
  15 H     1.0000    0     1.008   78.017022   87.775776   67.077473
  16 C     6.0000    0    12.011   72.279473   91.560689   71.456876
  17 H     1.0000    0     1.008   71.934976   93.315584   70.410629
  18 H     1.0000    0     1.008   71.789184   91.928430   73.445775
  19 C     6.0000    0    12.011   75.085509   90.950213   71.424127
  20 O     8.0000    0    15.999   75.767133   88.688873   71.947184
  21 O     8.0000    0    15.999   76.586877   92.742789   71.082124
  22 C     6.0000    0    12.011   73.036762   82.867382   76.972930
  23 N     7.0000    0    14.007   75.122623   82.131712   78.365223
  24 H     1.0000    0     1.008   75.199856   81.037523   79.961380
  25 C     6.0000    0    12.011   77.207010   83.054219   77.234713
  26 H     1.0000    0     1.008   79.107867   82.645982   77.888237
  27 N     7.0000    0    14.007   76.596969   84.379711   75.194093
  28 C     6.0000    0    12.011   74.000844   84.252079   74.996730
  29 H     1.0000    0     1.008   73.024876   85.171563   73.452653
  30 C     6.0000    0    12.011   80.848172   81.643520   67.100225
  31 N     7.0000    0    14.007   78.809176   80.434965   68.174384
  32 H     1.0000    0     1.008   78.209377   78.630049   67.790675
  33 C     6.0000    0    12.011   77.908703   81.913241   70.033628
  34 H     1.0000    0     1.008   76.370390   81.372061   71.278675
  35 N     7.0000    0    14.007   79.247272   84.035157   70.193178
  36 C     6.0000    0    12.011   81.107348   83.887494   68.373561
  37 H     1.0000    0     1.008   82.494313   85.376409   68.092199
  38 C     6.0000    0    12.011   86.484961   90.883109   64.276143
  39 H     1.0000    0     1.008   85.283265   90.040877   62.788513
  40 H     1.0000    0     1.008   88.175188   89.689010   64.452795
  41 C     6.0000    0    12.011   84.954093   90.738715   66.706822
  42 O     8.0000    0    15.999   83.424096   92.500847   67.202724
  43 O     8.0000    0    15.999   85.202838   88.769073   68.056805
  44 Fe   26.0000    0    55.850   80.389573   92.691993   69.674940
  45 Fe   26.0000    0    55.850   79.021298   86.992881   72.988726
  46 O     8.0000    0    15.999   80.953354   89.161606   70.661509
  47 H     1.0000    0     1.008   82.647021   88.709149   69.964238
  48 C     6.0000    0    12.011   82.187345   88.931211   76.832239
  49 C     6.0000    0    12.011   82.448506   90.092807   79.473963
  50 C     6.0000    0    12.011   85.232318   89.932690   80.322318
  51 C     6.0000    0    12.011   86.214994   87.215453   80.242307
  52 C     6.0000    0    12.011   85.797138   85.943044   77.639020
  53 C     6.0000    0    12.011   83.015575   86.169452   76.915463
  54 O     8.0000    0    15.999   79.729492   89.050963   75.889020
  55 O     8.0000    0    15.999   80.840689   88.839975   81.210943
  56 O     8.0000    0    15.999   85.580330   90.925193   82.776033
  57 O     8.0000    0    15.999   88.812725   87.263660   80.901084
  58 O     8.0000    0    15.999   86.445730   83.368216   77.649111
  59 O     8.0000    0    15.999   82.400185   85.137491   74.499108
  60 H     1.0000    0     1.008   83.472926   89.963568   75.530974
  61 H     1.0000    0     1.008   81.963866   92.118196   79.352378
  62 H     1.0000    0     1.008   86.370027   91.019169   78.934787
  63 H     1.0000    0     1.008   85.111810   86.118656   81.626626
  64 H     1.0000    0     1.008   86.963288   86.997700   76.242683
  65 H     1.0000    0     1.008   81.900542   85.211606   78.389393
  66 H     1.0000    0     1.008   79.573703   90.117071   81.805810
  67 H     1.0000    0     1.008   85.474770   92.814201   82.623135
  68 H     1.0000    0     1.008   89.539552   85.518082   80.753837
  69 H     1.0000    0     1.008   88.086428   83.114842   78.528647
  70 H     1.0000    0     1.008   82.238406   83.222008   74.554137
  71 O     8.0000    0    15.999   81.030776   93.943162   73.504772
  72 O     8.0000    0    15.999   83.253359   93.759102   72.573931
  73 H     1.0000    0     1.008   78.052908  102.519306   69.360281
  74 H     1.0000    0     1.008   74.740407   87.732142   63.064678
  75 H     1.0000    0     1.008   71.055630   90.072606   70.728500
  76 H     1.0000    0     1.008   71.063888   82.478004   77.418848
  77 H     1.0000    0     1.008   82.067102   80.825439   65.655379
  78 H     1.0000    0     1.008   87.011193   92.759740   63.609826

--------------------------------
INTERNAL COORDINATES (ANGSTROEM)
--------------------------------
 C      0   0   0     0.000000000000     0.00000000     0.00000000
 N      1   0   0     1.377771785348     0.00000000     0.00000000
 H      2   1   0     1.032602817205   126.58093697     0.00000000
 C      2   1   3     1.347084853675   108.33788107   186.56414711
 H      4   2   1     1.088358236060   124.94092569   179.01272765
 N      4   2   1     1.329357898160   110.12685485   359.37163556
 C      1   2   3     1.377475871622   105.85007040   173.97264832
 H      7   1   2     1.090118643176   130.38195850   174.93535710
 C      6   4   2     5.202643964889   107.52200065   124.37117524
 N      9   6   4     1.381073383496    57.76316362   307.03416819
 H     10   9   6     1.025728398846   129.19527261   189.28641596
 C     10   9   6     1.350087513126   108.00047858     6.46307726
 H     12  10   9     1.088188471452   123.43159561   179.76756169
 N     12  10   9     1.324242568414   110.45202924   359.92071951
 C     14  12  10     1.373424456969   106.84142857     0.00000000
 H     15  14  12     1.085682717188   120.80185626   181.79155332
 C      8   7   1     4.171011295861   127.66053302   135.29415718
 H     17   8   7     1.096427122521    55.56255026   283.91710298
 H     17   8   7     1.101316309196    90.61814052   173.50441556
 C     17   8   7     1.519723640502    64.11776558    65.77696128
 O     20  17   8     1.280112657777   118.13559967   165.40727013
 O     20  17   8     1.250516336799   117.46259986   350.91870970
 C     21  20  17     4.318643458611   134.88629437   325.52586168
 N     23  21  20     1.383017312618   105.17933540   232.27176641
 H     24  23  21     1.024874694682   129.04298736   167.65962428
 C     24  23  21     1.346414537429   108.36455630   346.01994485
 H     26  24  23     1.085394878328   123.05738800   183.95497063
 N     26  24  23     1.327508490105   110.71902908     0.74577281
 C     23  21  20     1.375067259810    13.44650218   141.15482142
 H     29  23  24     1.082181761351   129.54997528   179.62448834
 C     16  15  14     3.574218484718   144.19472548   233.92256255
 N     31  16  15     1.377073755505    95.42881426   240.81701129
 H     32  31  16     1.026755217615   126.34191021   145.17367077
 C     32  31  16     1.344250092022   108.03504931   318.02641137
 H     34  32  31     1.085706198057   123.80958628   183.94192504
 N     34  32  31     1.330304858820   110.42004226     0.78898569
 C     31  16  15     1.372189770586    42.08686156   132.71642141
 H     37  31  16     1.087031390807   128.86337814   260.05332573
 C      5   4   2     3.885863316871   144.79888545   179.70531553
 H     39   5   4     1.105774132723   103.67724528    86.39374334
 H     39   5   4     1.099103501678   148.68571863   257.42868086
 C     39   5   4     1.522026703347    65.52866967   344.82385999
 O     42  39   5     1.262497578770   118.67970913    11.79784803
 O     42  39   5     1.270446254432   117.46742418   188.19198391
 Fe    43  42  39     2.073720535680   131.58669120   162.06472392
 Fe    21  20  17     2.018572519604   135.64640486   197.55880460
 O     45  43  42     1.962583776683    90.21046891   358.56044831
 H     47  45  43     0.998367180851   105.45253418    12.50310723
 C     46  21  20     2.827687374587   122.72262870    46.72792227
 C     49  46  21     1.533355562060   148.71284277    43.98304763
 C     50  49  46     1.542345394100   109.23395238   165.08655102
 C     51  50  49     1.529627237499   111.61001690   304.14886839
 C     52  51  50     1.549209186424   112.62238657    53.29416366
 C     53  52  51     1.525636441555   109.07136381   306.63348847
 O     49  46  21     1.394564779205    37.48164919    18.80980679
 O     50  49  46     1.417144093662   110.46747608    42.67455777
 O     51  50  49     1.412704092229   111.81525639   181.35665540
 O     52  51  50     1.418403964955   107.80417340   176.57866763
 O     53  52  51     1.405113424461   112.53302265   186.51922930
 O     54  53  52     1.428035277225   114.50078959   177.97882171
 H     49  46  21     1.111495272145    95.46964390   264.31686653
 H     50  49  46     1.103922629218   108.36901690   281.31402922
 H     51  50  49     1.110019490189   107.28039516    60.46778938
 H     52  51  50     1.101949522846   107.25453381   296.25786804
 H     53  52  51     1.112778508105   107.05757597    64.68112145
 H     54  53  52     1.101557715374   107.63547122   300.13431883
 H     56  50  49     1.002660716195   106.84444333   243.87505165
 H     57  51  50     1.004443583334   106.78038232   285.56597261
 H     58  52  51     1.003624785067   109.61980005   183.70577862
 H     59  53  52     0.994187356437   110.23506647   315.19218541
 H     60  54  53     1.017655552434   111.99067295    79.10155845
 O     45  43  42     2.158899071240   119.04381975    89.87818513
 O     72  45  43     1.278838189921    76.09011709   352.93901001
 H      1   2   3     1.089992012723   123.92116694   351.11328757
 H      9   6   4     1.089989666786   172.27641818   179.98391940
 H     17   8   7     1.089991679831   159.00254363   333.03864267
 H     23  21  20     1.089988276726   126.05841606    36.27778793
 H     31  16  15     1.089980433494   127.32132727    23.08594335
 H     39   5   4     1.089981800674    55.21100051   187.15060506

---------------------------
INTERNAL COORDINATES (A.U.)
---------------------------
 C      0   0   0     0.000000000000     0.00000000     0.00000000
 N      1   0   0     2.603611349351     0.00000000     0.00000000
 H      2   1   0     1.951336529633   126.58093697     0.00000000
 C      2   1   3     2.545621452599   108.33788107   186.56414711
 H      4   2   1     2.056699001751   124.94092569   179.01272765
 N      4   2   1     2.512122361487   110.12685485   359.37163556
 C      1   2   3     2.603052153450   105.85007040   173.97264832
 H      7   1   2     2.060025689085   130.38195850   174.93535710
 C      6   4   2     9.831572265939   107.52200065   124.37117524
 N      9   6   4     2.609850465655    57.76316362   307.03416819
 H     10   9   6     1.938345761605   129.19527261   189.28641596
 C     10   9   6     2.551295656636   108.00047858     6.46307726
 H     12  10   9     2.056378193134   123.43159561   179.76756169
 N     12  10   9     2.502455789183   110.45202924   359.92071951
 C     14  12  10     2.595396089301   106.84142857     0.00000000
 H     15  14  12     2.051643003816   120.80185626   181.79155332
 C      8   7   1     7.882069050669   127.66053302   135.29415718
 H     17   8   7     2.071946987368    55.56255026   283.91710298
 H     17   8   7     2.081186211200    90.61814052   173.50441556
 C     17   8   7     2.871861479794    64.11776558    65.77696128
 O     20  17   8     2.419062343764   118.13559967   165.40727013
 O     20  17   8     2.363133402544   117.46259986   350.91870970
 C     21  20  17     8.161053406824   134.88629437   325.52586168
 N     23  21  20     2.613523959319   105.17933540   232.27176641
 H     24  23  21     1.936732494536   129.04298736   167.65962428
 C     24  23  21     2.544354738471   108.36455630   346.01994485
 H     26  24  23     2.051099067200   123.05738800   183.95497063
 N     26  24  23     2.508627486753   110.71902908     0.74577281
 C     23  21  20     2.598500536761    13.44650218   141.15482142
 H     29  23  24     2.045027156077   129.54997528   179.62448834
 C     16  15  14     6.754294078916   144.19472548   233.92256255
 N     31  16  15     2.602292264114    95.42881426   240.81701129
 H     32  31  16     1.940286167867   126.34191021   145.17367077
 C     32  31  16     2.540264529419   108.03504931   318.02641137
 H     34  32  31     2.051687376229   123.80958628   183.94192504
 N     34  32  31     2.513911857795   110.42004226     0.78898569
 C     31  16  15     2.593062870175    42.08686156   132.71642141
 H     37  31  16     2.054191627601   128.86337814   260.05332573
 C      5   4   2     7.343217462736   144.79888545   179.70531553
 H     39   5   4     2.089610276821   103.67724528    86.39374334
 H     39   5   4     2.077004611005   148.68571863   257.42868086
 C     39   5   4     2.876213637840    65.52866967   344.82385999
 O     42  39   5     2.385774668614   118.67970913    11.79784803
 O     42  39   5     2.400795488742   117.46742418   188.19198391
 Fe    43  42  39     3.918763890723   131.58669120   162.06472392
 Fe    21  20  17     3.814549243511   135.64640486   197.55880460
 O     45  43  42     3.708745852808    90.21046891   358.56044831
 H     47  45  43     1.886640552903   105.45253418    12.50310723
 C     46  21  20     5.343554730317   122.72262870    46.72792227
 C     49  46  21     2.897622078218   148.71284277    43.98304763
 C     50  49  46     2.914610398763   109.23395238   165.08655102
 C     51  50  49     2.890576565860   111.61001690   304.14886839
 C     52  51  50     2.927581086496   112.62238657    53.29416366
 C     53  52  51     2.883035054469   109.07136381   306.63348847
 O     49  46  21     2.635345508710    37.48164919    18.80980679
 O     50  49  46     2.678014229325   110.46747608    42.67455777
 O     51  50  49     2.669623842582   111.81525639   181.35665540
 O     52  51  50     2.680395041033   107.80417340   176.57866763
 O     53  52  51     2.655279559327   112.53302265   186.51922930
 O     54  53  52     2.698595583534   114.50078959   177.97882171
 H     49  46  21     2.100421663502    95.46964390   264.31686653
 H     50  49  46     2.086111442261   108.36901690   281.31402922
 H     51  50  49     2.097632839773   107.28039516    60.46778938
 H     52  51  50     2.082382811584   107.25453381   296.25786804
 H     53  52  51     2.102846628032   107.05757597    64.68112145
 H     54  53  52     2.081642402765   107.63547122   300.13431883
 H     56  50  49     1.894754158849   106.84444333   243.87505165
 H     57  51  50     1.898123289475   106.78038232   285.56597261
 H     58  52  51     1.896575984991   109.61980005   183.70577862
 H     59  53  52     1.878741829474   110.23506647   315.19218541
 H     60  54  53     1.923090292765   111.99067295    79.10155845
 O     45  43  42     4.079727995420   119.04381975    89.87818513
 O     72  45  43     2.416653948550    76.09011709   352.93901001
 H      1   2   3     2.059786392208   123.92116694   351.11328757
 H      9   6   4     2.059781959029   172.27641818   179.98391940
 H     17   8   7     2.059785763133   159.00254363   333.03864267
 H     23  21  20     2.059779332197   126.05841606    36.27778793
 H     31  16  15     2.059764510637   127.32132727    23.08594335
 H     39   5   4     2.059767094232    55.21100051   187.15060506

---------------------
BASIS SET INFORMATION
---------------------
There are 5 groups of distinct atoms

 Group   1 Type C   : 11s6p2d1f contracted to 5s3p2d1f pattern {62111/411/11/1}
 Group   2 Type N   : 11s6p2d1f contracted to 5s3p2d1f pattern {62111/411/11/1}
 Group   3 Type H   : 5s1p contracted to 3s1p pattern {311/1}
 Group   4 Type O   : 11s6p2d1f contracted to 5s3p2d1f pattern {62111/411/11/1}
 Group   5 Type Fe  : 17s11p7d1f contracted to 6s4p4d1f pattern {842111/6311/4111/1}

Atom   0C    basis set group =>   1
Atom   1N    basis set group =>   2
Atom   2H    basis set group =>   3
Atom   3C    basis set group =>   1
Atom   4H    basis set group =>   3
Atom   5N    basis set group =>   2
Atom   6C    basis set group =>   1
Atom   7H    basis set group =>   3
Atom   8C    basis set group =>   1
Atom   9N    basis set group =>   2
Atom  10H    basis set group =>   3
Atom  11C    basis set group =>   1
Atom  12H    basis set group =>   3
Atom  13N    basis set group =>   2
Atom  14C    basis set group =>   1
Atom  15H    basis set group =>   3
Atom  16C    basis set group =>   1
Atom  17H    basis set group =>   3
Atom  18H    basis set group =>   3
Atom  19C    basis set group =>   1
Atom  20O    basis set group =>   4
Atom  21O    basis set group =>   4
Atom  22C    basis set group =>   1
Atom  23N    basis set group =>   2
Atom  24H    basis set group =>   3
Atom  25C    basis set group =>   1
Atom  26H    basis set group =>   3
Atom  27N    basis set group =>   2
Atom  28C    basis set group =>   1
Atom  29H    basis set group =>   3
Atom  30C    basis set group =>   1
Atom  31N    basis set group =>   2
Atom  32H    basis set group =>   3
Atom  33C    basis set group =>   1
Atom  34H    basis set group =>   3
Atom  35N    basis set group =>   2
Atom  36C    basis set group =>   1
Atom  37H    basis set group =>   3
Atom  38C    basis set group =>   1
Atom  39H    basis set group =>   3
Atom  40H    basis set group =>   3
Atom  41C    basis set group =>   1
Atom  42O    basis set group =>   4
Atom  43O    basis set group =>   4
Atom  44Fe   basis set group =>   5
Atom  45Fe   basis set group =>   5
Atom  46O    basis set group =>   4
Atom  47H    basis set group =>   3
Atom  48C    basis set group =>   1
Atom  49C    basis set group =>   1
Atom  50C    basis set group =>   1
Atom  51C    basis set group =>   1
Atom  52C    basis set group =>   1
Atom  53C    basis set group =>   1
Atom  54O    basis set group =>   4
Atom  55O    basis set group =>   4
Atom  56O    basis set group =>   4
Atom  57O    basis set group =>   4
Atom  58O    basis set group =>   4
Atom  59O    basis set group =>   4
Atom  60H    basis set group =>   3
Atom  61H    basis set group =>   3
Atom  62H    basis set group =>   3
Atom  63H    basis set group =>   3
Atom  64H    basis set group =>   3
Atom  65H    basis set group =>   3
Atom  66H    basis set group =>   3
Atom  67H    basis set group =>   3
Atom  68H    basis set group =>   3
Atom  69H    basis set group =>   3
Atom  70H    basis set group =>   3
Atom  71O    basis set group =>   4
Atom  72O    basis set group =>   4
Atom  73H    basis set group =>   3
Atom  74H    basis set group =>   3
Atom  75H    basis set group =>   3
Atom  76H    basis set group =>   3
Atom  77H    basis set group =>   3
Atom  78H    basis set group =>   3
--------------------------------------------------------------------------
WARNING: There was an error initializing an OpenFabrics device.

  Local host:   cnode05
  Local device: mlx5_0
--------------------------------------------------------------------------


           ************************************************************
           *        Program running with 16 parallel MPI-processes    *
           *              working on a common directory               *
           ************************************************************
------------------------------------------------------------------------------
                           ORCA GTO INTEGRAL CALCULATION
------------------------------------------------------------------------------
------------------------------------------------------------------------------
                   ___                                                        
                  /   \      - P O W E R E D   B Y -                         
                 /     \                                                     
                 |  |  |   _    _      __       _____    __    __             
                 |  |  |  | |  | |    /  \     |  _  \  |  |  /  |          
                  \  \/   | |  | |   /    \    | | | |  |  | /  /          
                 / \  \   | |__| |  /  /\  \   | |_| |  |  |/  /          
                |  |  |   |  __  | /  /__\  \  |    /   |      \           
                |  |  |   | |  | | |   __   |  |    \   |  |\   \          
                \     /   | |  | | |  |  |  |  | |\  \  |  | \   \       
                 \___/    |_|  |_| |__|  |__|  |_| \__\ |__|  \__/        
                                                                              
                      - O R C A' S   B I G   F R I E N D -                    
                                      &                                       
                       - I N T E G R A L  F E E D E R -                       
                                                                              
 v1 FN, 2020, v2 2021                                                         
------------------------------------------------------------------------------


Reading SHARK input file /scratch/RC-highspin_872/RC-highspin.SHARKINP.tmp ... ok
----------------------
SHARK INTEGRAL PACKAGE
----------------------

Number of atoms                             ...     79
Number of basis functions                   ...   1627
Number of shells                            ...    639
Maximum angular momentum                    ...      3
Integral batch strategy                     ... SHARK/LIBINT Hybrid
RI-J (if used) integral strategy            ... SPLIT-RIJ (Revised 2003 algorithm where possible)
Printlevel                                  ...      1
Contraction scheme used                     ... SEGMENTED contraction
Coulomb Range Separation                    ... NOT USED
Exchange Range Separation                   ... NOT USED
Finite Nucleus Model                        ... NOT USED
Auxiliary Coulomb fitting basis             ... NOT available
Auxiliary J/K fitting basis                 ... NOT available
Auxiliary Correlation fitting basis         ... NOT available
Auxiliary 'external' fitting basis          ... NOT available
Integral threshold                          ...     1.000000e-12
Primitive cut-off                           ...     1.000000e-14
Primitive pair pre-selection threshold      ...     1.000000e-14

Calculating pre-screening integrals         ... done (  1.1 sec) Dimension = 639
Organizing shell pair data                  ... done (  0.8 sec)
Shell pair information
Total number of shell pairs                 ...    204480
Shell pairs after pre-screening             ...    119703
Total number of primitive shell pairs       ...    646982
Primitive shell pairs kept                  ...    232728
          la=0 lb=0:  31425 shell pairs
          la=1 lb=0:  35132 shell pairs
          la=1 lb=1:   9897 shell pairs
          la=2 lb=0:  17094 shell pairs
          la=2 lb=1:   9839 shell pairs
          la=2 lb=2:   2439 shell pairs
          la=3 lb=0:   7259 shell pairs
          la=3 lb=1:   4261 shell pairs
          la=3 lb=2:   1955 shell pairs
          la=3 lb=3:    402 shell pairs

Calculating one electron integrals          ... done (  0.2 sec)
Calculating Nuclear repulsion               ... done (  0.0 sec) ENN=   8194.695811282376 Eh

SHARK setup successfully completed in   2.2 seconds

Maximum memory used throughout the entire GTOINT-calculation: 174.9 MB
[cnode05:185080] 15 more processes have sent help message help-mpi-btl-openib.txt / error in device init
[cnode05:185080] Set MCA parameter "orte_base_help_aggregate" to 0 to see all help / error messages
--------------------------------------------------------------------------
WARNING: There was an error initializing an OpenFabrics device.

  Local host:   cnode05
  Local device: mlx5_0
--------------------------------------------------------------------------


           ************************************************************
           *        Program running with 16 parallel MPI-processes    *
           *              working on a common directory               *
           ************************************************************
-------------------------------------------------------------------------------
                                 ORCA SCF
-------------------------------------------------------------------------------

------------
SCF SETTINGS
------------
Hamiltonian:
 Density Functional     Method          .... DFT(GTOs)
 Exchange Functional    Exchange        .... B88
   X-Alpha parameter    XAlpha          ....  0.666667
   Becke's b parameter  XBeta           ....  0.004200
 Correlation Functional Correlation     .... LYP
 LDA part of GGA corr.  LDAOpt          .... VWN-5
 Gradients option       PostSCFGGA      .... off
 Hybrid DFT is turned on
   Fraction HF Exchange ScalHFX         ....  0.200000
   Scaling of DF-GGA-X  ScalDFX         ....  0.720000
   Scaling of DF-GGA-C  ScalDFC         ....  0.810000
   Scaling of DF-LDA-C  ScalLDAC        ....  1.000000
   Perturbative correction              ....  0.000000
   Density functional embedding theory  .... OFF
   NL short-range parameter             ....  4.800000


General Settings:
 Integral files         IntName         .... /scratch/RC-highspin_872/RC-highspin
 Hartree-Fock type      HFTyp           .... UHF
 Total Charge           Charge          ....    1
 Multiplicity           Mult            ....   12
 Number of Electrons    NEL             ....  377
 Basis Dimension        Dim             .... 1627
 Nuclear Repulsion      ENuc            ....   8194.6958112824 Eh

Convergence Acceleration:
 DIIS                   CNVDIIS         .... on
   Start iteration      DIISMaxIt       ....    12
   Startup error        DIISStart       ....  0.200000
   # of expansion vecs  DIISMaxEq       ....     5
   Bias factor          DIISBfac        ....   1.050
   Max. coefficient     DIISMaxC        ....  10.000
 Trust-Rad. Augm. Hess. CNVTRAH         .... auto
   Auto Start mean grad. ratio tolernc. ....  1.125000
   Auto Start start iteration           ....    20
   Auto Start num. interpolation iter.  ....    10
   Max. Number of Micro iterations      ....    16
   Max. Number of Macro iterations      .... Maxiter - #DIIS iter
   Number of Davidson start vectors     ....     2
   Converg. threshold I  (grad. norm)   ....   2.000e-06
   Converg. threshold II (energy diff.) ....   1.000e-09
   Grad. Scal. Fac. for Micro threshold ....   0.100
   Minimum threshold for Micro iter.    ....   0.010
   NR start threshold (gradient norm)   ....   0.001
   Initial trust radius                 ....   0.400
   Minimum AH scaling param. (alpha)    ....   1.000
   Maximum AH scaling param. (alpha)    .... 1000.000
   Orbital update algorithm             .... Taylor
   White noise on init. David. guess    .... on
   Maximum white noise                  ....   0.010
   Quad. conv. algorithm                .... NR
 SOSCF                  CNVSOSCF        .... off
 Level Shifting         CNVShift        .... on
   Level shift para.    LevelShift      ....    0.2500
   Turn off err/grad.   ShiftErr        ....    0.0010
 Zerner damping         CNVZerner       .... off
 Static damping         CNVDamp         .... on
   Fraction old density DampFac         ....    0.7000
   Max. Damping (<1)    DampMax         ....    0.9800
   Min. Damping (>=0)   DampMin         ....    0.0000
   Turn off err/grad.   DampErr         ....    0.1000
 Fernandez-Rico         CNVRico         .... off

SCF Procedure:
 Maximum # iterations   MaxIter         ....   500
 SCF integral mode      SCFMode         .... Direct
   Integral package                     .... SHARK and LIBINT hybrid scheme
 Reset frequency        DirectResetFreq ....    20
 Integral Threshold     Thresh          ....  1.000e-12 Eh
 Primitive CutOff       TCut            ....  1.000e-14 Eh

Convergence Tolerance:
 Convergence Check Mode ConvCheckMode   .... Total+1el-Energy
 Convergence forced     ConvForced      .... 0
 Energy Change          TolE            ....  1.000e-09 Eh
 1-El. energy change                    ....  1.000e-06 Eh
 DIIS Error             TolErr          ....  1.000e-08


Diagonalization of the overlap matrix:
Smallest eigenvalue                        ... 3.229e-05
Time for diagonalization                   ...    0.329 sec
Threshold for overlap eigenvalues          ... 1.000e-08
Number of eigenvalues below threshold      ... 0
Time for construction of square roots      ...    0.424 sec
Total time needed                          ...    0.763 sec

Time for model grid setup =    0.753 sec

------------------------------
INITIAL GUESS: MODEL POTENTIAL
------------------------------
Loading Hartree-Fock densities                     ... done
Calculating cut-offs                               ... done
Initializing the effective Hamiltonian             ... done
Setting up the integral package (SHARK)            ... done
Starting the Coulomb interaction                   ... done (   1.6 sec)
Reading the grid                                   ... done
Mapping shells                                     ... done
Starting the XC term evaluation                    ... done (   0.6 sec)
  promolecular density results
     # of electrons  =    377.968695486
     EX              =   -391.321119940
     EC              =    -13.798141695
     EX+EC           =   -405.119261635
Transforming the Hamiltonian                       ... done (   0.2 sec)
Diagonalizing the Hamiltonian                      ... [cnode05:185196] 15 more processes have sent help message help-mpi-btl-openib.txt / error in device init
[cnode05:185196] Set MCA parameter "orte_base_help_aggregate" to 0 to see all help / error messages
done (   0.4 sec)
Back transforming the eigenvectors                 ... done (   0.1 sec)
Now organizing SCF variables                       ... done
                      ------------------
                      INITIAL GUESS DONE (   3.8 sec)
                      ------------------
-------------------
DFT GRID GENERATION
-------------------

General Integration Accuracy     IntAcc      ... 4.388
Radial Grid Type                 RadialGrid  ... OptM3 with GC (2021)
Angular Grid (max. ang.)         AngularGrid ... 4 (Lebedev-302)
Angular grid pruning method      GridPruning ... 4 (adaptive)
Weight generation scheme         WeightScheme... Becke
Basis function cutoff            BFCut       ... 1.0000e-12
Integration weight cutoff        WCut        ... 1.0000e-14
Angular grids for H and He will be reduced by one unit
Partially contracted basis set               ... off
Rotationally invariant grid construction     ... off

Total number of grid points                  ...   385158
Total number of batches                      ...     6059
Average number of points per batch           ...       63
Average number of grid points per atom       ...     4875
Time for grid setup =    2.872 sec

--------------
SCF ITERATIONS
--------------
ITER       Energy         Delta-E        Max-DP      RMS-DP      [F,P]     Damp
               ***  Starting incremental Fock matrix formation  ***
  0  -4799.8383018424   0.000000000000 0.28677259  0.00057199  0.3654359 0.7000
  1  -4800.5075936380  -0.669291795620 0.16540178  0.00036987  0.1908991 0.7000
                               ***Turning on DIIS***
  2  -4800.8845799908  -0.376986352769 0.14024926  0.00044646  0.0547627 0.0000
  3  -4801.3696435411  -0.485063550300 0.04182253  0.00009757  0.2302895 0.7000
  4  -4801.4672435538  -0.097600012696 0.03999074  0.00010112  0.1779450 0.7000
  5  -4801.5438481719  -0.076604618109 0.03058325  0.00008037  0.1276848 0.7000
  6  -4801.5911286737  -0.047280501803 0.07478716  0.00019872  0.0903231 0.0000
  7  -4801.6610112097  -0.069882535985 0.00364668  0.00001913  0.0047117 0.0000
  8  -4801.6617331546  -0.000721944954 0.00313479  0.00000884  0.0077918 0.0000
  9  -4801.6621965704  -0.000463415795 0.00157832  0.00000575  0.0021351 0.0000
 10  -4801.6623644270  -0.000167856515 0.00230248  0.00001007  0.0008468 0.0000
 11  -4801.6625026093  -0.000138182323 0.00056027  0.00000243  0.0029247 0.0000
 12  -4801.6625421071  -0.000039497780 0.00055630  0.00000198  0.0017643 0.0000
 13  -4801.6625593569  -0.000017249838 0.00041824  0.00000272  0.0005125 0.0000
 14  -4801.6625672858  -0.000007928895 0.00019393  0.00000065  0.0006389 0.0000
 15  -4801.6625680096  -0.000000723813 0.00018939  0.00000046  0.0003405 0.0000
 16  -4801.6625685054  -0.000000495839 0.00014214  0.00000051  0.0003017 0.0000
 17  -4801.6625691773  -0.000000671877 0.00015068  0.00000037  0.0001530 0.0000
 18  -4801.6625692707  -0.000000093332 0.00009007  0.00000024  0.0002169 0.0000
 19  -4801.6625694309  -0.000000160235 0.00007343  0.00000021  0.0000968 0.0000
               *** Restarting incremental Fock matrix formation ***
                                   *** Resetting DIIS ***
 20  -4801.6625695737  -0.000000142797 0.00007243  0.00000017  0.0000203 0.0000
 21  -4801.6625696088  -0.000000035153 0.00002086  0.00000008  0.0000581 0.0000
 22  -4801.6625696418  -0.000000032981 0.00002921  0.00000006  0.0000270 0.0000
 23  -4801.6625696597  -0.000000017864 0.00005289  0.00000016  0.0000145 0.0000
 24  -4801.6625696950  -0.000000035365 0.00003462  0.00000008  0.0000119 0.0000
 25  -4801.6625697037  -0.000000008622 0.00001855  0.00000005  0.0000176 0.0000
 26  -4801.6625697072  -0.000000003485 0.00000581  0.00000002  0.0000065 0.0000
 27  -4801.6625697061   0.000000001021 0.00000675  0.00000002  0.0000032 0.0000
 28  -4801.6625697108  -0.000000004636 0.00000575  0.00000001  0.0000027 0.0000
 29  -4801.6625697112  -0.000000000449 0.00000344  0.00000001  0.0000037 0.0000
 30  -4801.6625697212  -0.000000009984 0.00000076  0.00000000  0.0000011 0.0000
 31  -4801.6625697346  -0.000000013405 0.00000090  0.00000000  0.0000011 0.0000
 32  -4801.6625697532  -0.000000018566 0.00000163  0.00000001  0.0000005 0.0000
 33  -4801.6625697694  -0.000000016266 0.00000150  0.00000001  0.0000003 0.0000
 34  -4801.6625697877  -0.000000018289 0.00000032  0.00000000  0.0000003 0.0000
 35  -4801.6625698044  -0.000000016657 0.00000260  0.00000001  0.0000002 0.0000
 36  -4801.6625698226  -0.000000018205 0.00000030  0.00000000  0.0000005 0.0000
 37  -4801.6625697954   0.000000027175 0.00000038  0.00000000  0.0000002 0.0000
 38  -4801.6625698009  -0.000000005454 0.00000056  0.00000000  0.0000002 0.0000
 39  -4801.6625698081  -0.000000007247 0.00000289  0.00000001  0.0000001 0.0000
               *** Restarting incremental Fock matrix formation ***
                                   *** Resetting DIIS ***
 40  -4801.6625697078   0.000000100275 0.00000482  0.00000004  0.0000000 0.0000
 41  -4801.6625696991   0.000000008749 0.00000035  0.00000000  0.0000002 0.0000
 42  -4801.6625697445  -0.000000045394 0.00000172  0.00000001  0.0000001 0.0000
 43  -4801.6625697524  -0.000000007936 0.00000124  0.00000000  0.0000000 0.0000
 44  -4801.6625697799  -0.000000027479 0.00000298  0.00000001  0.0000000 0.0000
 45  -4801.6625697811  -0.000000001161 0.00000066  0.00000000  0.0000000 0.0000
 46  -4801.6625698131  -0.000000031993 0.00000134  0.00000001  0.0000000 0.0000
 47  -4801.6625698225  -0.000000009463 0.00000048  0.00000000  0.0000000 0.0000
                            ***DIIS convergence achieved***

               *****************************************************
               *                     SUCCESS                       *
               *           SCF CONVERGED AFTER  48 CYCLES          *
               *****************************************************


----------------
TOTAL SCF ENERGY
----------------

Total Energy       :        -4801.66256983 Eh         -130659.88115 eV

Components:
Nuclear Repulsion  :         8194.69581128 Eh          222989.00957 eV
Electronic Energy  :       -12996.35838112 Eh         -353648.89071 eV
One Electron Energy:       -22915.62339948 Eh         -623565.81417 eV
Two Electron Energy:         9919.26501836 Eh          269916.92346 eV

Virial components:
Potential Energy   :        -9589.61202254 Eh         -260946.60940 eV
Kinetic Energy     :         4787.94945270 Eh          130286.72826 eV
Virial Ratio       :            2.00286409


DFT components:
N(Alpha)           :      194.000218899401 electrons
N(Beta)            :      183.000207767072 electrons
N(Total)           :      377.000426666473 electrons
E(X)               :     -314.237560963082 Eh       
E(C)               :      -16.091519885633 Eh       
E(XC)              :     -330.329080848715 Eh       
DFET-embed. en.    :        0.000000000000 Eh       

---------------
SCF CONVERGENCE
---------------

  Last Energy change         ...   -1.0373e-08  Tolerance :   1.0000e-09
  Last MAX-Density change    ...    6.7212e-07  Tolerance :   1.0000e-08
  Last RMS-Density change    ...    3.7316e-09  Tolerance :   1.0000e-09
  Last DIIS Error            ...    1.3337e-08  Tolerance :   1.0000e-08

             **** THE GBW FILE WAS UPDATED (/scratch/RC-highspin_872/RC-highspin.gbw) ****
             **** DENSITY /scratch/RC-highspin_872/RC-highspin.scfp WAS UPDATED ****
             **** ENERGY FILE WAS UPDATED (/scratch/RC-highspin_872/RC-highspin.en.tmp) ****
----------------------
UHF SPIN CONTAMINATION
----------------------

Warning: in a DFT calculation there is little theoretical justification to 
         calculate <S**2> as in Hartree-Fock theory. We will do it anyways
         but you should keep in mind that the values have only limited relevance

Expectation value of <S**2>     :    35.778521
Ideal value S*(S+1) for S=5.5   :    35.750000
Deviation                       :     0.028521

             **** THE GBW FILE WAS UPDATED (/scratch/RC-highspin_872/RC-highspin.gbw) ****
             **** DENSITY /scratch/RC-highspin_872/RC-highspin.scfp WAS UPDATED ****
----------------
ORBITAL ENERGIES
----------------
                 SPIN UP ORBITALS
  NO   OCC          E(Eh)            E(eV) 
   0   1.0000    -256.240942     -6972.6705 
   1   1.0000    -256.198273     -6971.5094 
   2   1.0000     -30.235533      -822.7507 
   3   1.0000     -30.185842      -821.3985 
   4   1.0000     -26.091400      -709.9831 
   5   1.0000     -26.087231      -709.8696 
   6   1.0000     -26.084115      -709.7848 
   7   1.0000     -26.046693      -708.7665 
   8   1.0000     -26.035290      -708.4563 
   9   1.0000     -26.034276      -708.4287 
  10   1.0000     -19.279107      -524.6112 
  11   1.0000     -19.278093      -524.5836 
  12   1.0000     -19.259722      -524.0837 
  13   1.0000     -19.214634      -522.8568 
  14   1.0000     -19.198064      -522.4059 
  15   1.0000     -19.192646      -522.2585 
  16   1.0000     -19.192388      -522.2514 
  17   1.0000     -19.185050      -522.0518 
  18   1.0000     -19.181815      -521.9637 
  19   1.0000     -19.166180      -521.5383 
  20   1.0000     -19.161790      -521.4188 
  21   1.0000     -19.157533      -521.3030 
  22   1.0000     -19.135185      -520.6948 
  23   1.0000     -14.492375      -394.3576 
  24   1.0000     -14.491752      -394.3406 
  25   1.0000     -14.477103      -393.9420 
  26   1.0000     -14.475303      -393.8930 
  27   1.0000     -14.434081      -392.7713 
  28   1.0000     -14.433809      -392.7639 
  29   1.0000     -14.417200      -392.3120 
  30   1.0000     -14.410767      -392.1369 
  31   1.0000     -10.368198      -282.1330 
  32   1.0000     -10.347606      -281.5727 
  33   1.0000     -10.346326      -281.5378 
  34   1.0000     -10.330477      -281.1066 
  35   1.0000     -10.328526      -281.0535 
  36   1.0000     -10.327271      -281.0193 
  37   1.0000     -10.314357      -280.6679 
  38   1.0000     -10.307691      -280.4865 
  39   1.0000     -10.306739      -280.4606 
  40   1.0000     -10.298581      -280.2386 
  41   1.0000     -10.297996      -280.2227 
  42   1.0000     -10.297829      -280.2182 
  43   1.0000     -10.297142      -280.1995 
  44   1.0000     -10.290492      -280.0185 
  45   1.0000     -10.289418      -279.9893 
  46   1.0000     -10.285743      -279.8893 
  47   1.0000     -10.285364      -279.8790 
  48   1.0000     -10.284197      -279.8472 
  49   1.0000     -10.281813      -279.7824 
  50   1.0000     -10.278747      -279.6989 
  51   1.0000     -10.245435      -278.7925 
  52   1.0000     -10.218851      -278.0691 
  53   1.0000      -3.721684      -101.2722 
  54   1.0000      -3.674126       -99.9780 
  55   1.0000      -2.503980       -68.1368 
  56   1.0000      -2.494861       -67.8886 
  57   1.0000      -2.488934       -67.7273 
  58   1.0000      -2.466334       -67.1123 
  59   1.0000      -2.441883       -66.4470 
  60   1.0000      -2.439425       -66.3801 
  61   1.0000      -1.264366       -34.4051 
  62   1.0000      -1.145957       -31.1831 
  63   1.0000      -1.144384       -31.1403 
  64   1.0000      -1.137250       -30.9461 
  65   1.0000      -1.136436       -30.9240 
  66   1.0000      -1.121084       -30.5062 
  67   1.0000      -1.118482       -30.4354 
  68   1.0000      -1.112943       -30.2847 
  69   1.0000      -1.106811       -30.1179 
  70   1.0000      -1.095061       -29.7981 
  71   1.0000      -1.082192       -29.4479 
  72   1.0000      -1.066810       -29.0294 
  73   1.0000      -1.056601       -28.7516 
  74   1.0000      -1.042581       -28.3701 
  75   1.0000      -1.022531       -27.8245 
  76   1.0000      -1.008579       -27.4448 
  77   1.0000      -0.995059       -27.0769 
  78   1.0000      -0.992446       -27.0058 
  79   1.0000      -0.978031       -26.6136 
  80   1.0000      -0.975056       -26.5326 
  81   1.0000      -0.879505       -23.9326 
  82   1.0000      -0.863316       -23.4920 
  83   1.0000      -0.862187       -23.4613 
  84   1.0000      -0.858379       -23.3577 
  85   1.0000      -0.844440       -22.9784 
  86   1.0000      -0.843042       -22.9403 
  87   1.0000      -0.807569       -21.9751 
  88   1.0000      -0.798426       -21.7263 
  89   1.0000      -0.781166       -21.2566 
  90   1.0000      -0.776874       -21.1398 
  91   1.0000      -0.735269       -20.0077 
  92   1.0000      -0.733932       -19.9713 
  93   1.0000      -0.718211       -19.5435 
  94   1.0000      -0.717766       -19.5314 
  95   1.0000      -0.708799       -19.2874 
  96   1.0000      -0.706219       -19.2172 
  97   1.0000      -0.700122       -19.0513 
  98   1.0000      -0.693629       -18.8746 
  99   1.0000      -0.689441       -18.7607 
 100   1.0000      -0.681926       -18.5561 
 101   1.0000      -0.675644       -18.3852 
 102   1.0000      -0.671027       -18.2596 
 103   1.0000      -0.662757       -18.0345 
 104   1.0000      -0.658376       -17.9153 
 105   1.0000      -0.648071       -17.6349 
 106   1.0000      -0.637670       -17.3519 
 107   1.0000      -0.620881       -16.8950 
 108   1.0000      -0.610132       -16.6025 
 109   1.0000      -0.600111       -16.3298 
 110   1.0000      -0.593681       -16.1549 
 111   1.0000      -0.586089       -15.9483 
 112   1.0000      -0.581824       -15.8322 
 113   1.0000      -0.573625       -15.6091 
 114   1.0000      -0.572317       -15.5735 
 115   1.0000      -0.569311       -15.4917 
 116   1.0000      -0.567436       -15.4407 
 117   1.0000      -0.563014       -15.3204 
 118   1.0000      -0.562336       -15.3020 
 119   1.0000      -0.558859       -15.2073 
 120   1.0000      -0.558406       -15.1950 
 121   1.0000      -0.554005       -15.0752 
 122   1.0000      -0.552672       -15.0390 
 123   1.0000      -0.550571       -14.9818 
 124   1.0000      -0.548543       -14.9266 
 125   1.0000      -0.544602       -14.8194 
 126   1.0000      -0.544160       -14.8073 
 127   1.0000      -0.541560       -14.7366 
 128   1.0000      -0.540951       -14.7200 
 129   1.0000      -0.537858       -14.6359 
 130   1.0000      -0.535166       -14.5626 
 131   1.0000      -0.534423       -14.5424 
 132   1.0000      -0.531852       -14.4724 
 133   1.0000      -0.529972       -14.4213 
 134   1.0000      -0.529004       -14.3949 
 135   1.0000      -0.527707       -14.3596 
 136   1.0000      -0.523894       -14.2559 
 137   1.0000      -0.520014       -14.1503 
 138   1.0000      -0.516200       -14.0465 
 139   1.0000      -0.514187       -13.9917 
 140   1.0000      -0.511807       -13.9270 
 141   1.0000      -0.510211       -13.8835 
 142   1.0000      -0.508626       -13.8404 
 143   1.0000      -0.506256       -13.7759 
 144   1.0000      -0.500879       -13.6296 
 145   1.0000      -0.497778       -13.5452 
 146   1.0000      -0.496243       -13.5035 
 147   1.0000      -0.492966       -13.4143 
 148   1.0000      -0.483053       -13.1446 
 149   1.0000      -0.477378       -12.9901 
 150   1.0000      -0.476303       -12.9609 
 151   1.0000      -0.475198       -12.9308 
 152   1.0000      -0.474755       -12.9187 
 153   1.0000      -0.466268       -12.6878 
 154   1.0000      -0.465579       -12.6691 
 155   1.0000      -0.461757       -12.5651 
 156   1.0000      -0.457443       -12.4477 
 157   1.0000      -0.455602       -12.3976 
 158   1.0000      -0.448308       -12.1991 
 159   1.0000      -0.446751       -12.1567 
 160   1.0000      -0.442539       -12.0421 
 161   1.0000      -0.435709       -11.8562 
 162   1.0000      -0.425443       -11.5769 
 163   1.0000      -0.419864       -11.4251 
 164   1.0000      -0.418621       -11.3913 
 165   1.0000      -0.412585       -11.2270 
 166   1.0000      -0.411331       -11.1929 
 167   1.0000      -0.409349       -11.1390 
 168   1.0000      -0.406728       -11.0676 
 169   1.0000      -0.395776       -10.7696 
 170   1.0000      -0.394657       -10.7392 
 171   1.0000      -0.390259       -10.6195 
 172   1.0000      -0.381591       -10.3836 
 173   1.0000      -0.379330       -10.3221 
 174   1.0000      -0.368662       -10.0318 
 175   1.0000      -0.363635        -9.8950 
 176   1.0000      -0.361039        -9.8244 
 177   1.0000      -0.357019        -9.7150 
 178   1.0000      -0.356011        -9.6875 
 179   1.0000      -0.353332        -9.6146 
 180   1.0000      -0.350489        -9.5373 
 181   1.0000      -0.345659        -9.4059 
 182   1.0000      -0.343797        -9.3552 
 183   1.0000      -0.343036        -9.3345 
 184   1.0000      -0.338859        -9.2208 
 185   1.0000      -0.336004        -9.1431 
 186   1.0000      -0.332949        -9.0600 
 187   1.0000      -0.330604        -8.9962 
 188   1.0000      -0.328156        -8.9296 
 189   1.0000      -0.321685        -8.7535 
 190   1.0000      -0.318152        -8.6573 
 191   1.0000      -0.311829        -8.4853 
 192   1.0000      -0.308687        -8.3998 
 193   1.0000      -0.301910        -8.2154 
 194   0.0000      -0.107049        -2.9130 
 195   0.0000      -0.100284        -2.7289 
 196   0.0000      -0.088007        -2.3948 
 197   0.0000      -0.082038        -2.2324 
 198   0.0000      -0.078713        -2.1419 
 199   0.0000      -0.073383        -1.9969 
 200   0.0000      -0.068708        -1.8696 
 201   0.0000      -0.068490        -1.8637 
 202   0.0000      -0.066504        -1.8097 
 203   0.0000      -0.064056        -1.7431 
 204   0.0000      -0.063480        -1.7274 
 205   0.0000      -0.060122        -1.6360 
 206   0.0000      -0.057647        -1.5687 
 207   0.0000      -0.052567        -1.4304 
 208   0.0000      -0.046803        -1.2736 
 209   0.0000      -0.043153        -1.1743 
 210   0.0000      -0.035604        -0.9688 
 211   0.0000      -0.027885        -0.7588 
 212   0.0000      -0.023386        -0.6364 
 213   0.0000      -0.021824        -0.5938 
 214   0.0000      -0.018454        -0.5022 
 215   0.0000      -0.016991        -0.4623 
 216   0.0000      -0.010413        -0.2833 
 217   0.0000      -0.008751        -0.2381 
 218   0.0000      -0.007985        -0.2173 
 219   0.0000      -0.001899        -0.0517 
 220   0.0000       0.001014         0.0276 
 221   0.0000       0.003709         0.1009 
 222   0.0000       0.012568         0.3420 
 223   0.0000       0.015841         0.4311 
 224   0.0000       0.020806         0.5662 
 225   0.0000       0.029434         0.8009 
 226   0.0000       0.031661         0.8616 
 227   0.0000       0.034738         0.9453 
 228   0.0000       0.037629         1.0239 
 229   0.0000       0.040919         1.1135 
 230   0.0000       0.044421         1.2088 
 231   0.0000       0.045567         1.2399 
 232   0.0000       0.048331         1.3152 
 233   0.0000       0.051077         1.3899 
 234   0.0000       0.054807         1.4914 
 235   0.0000       0.058730         1.5981 
 236   0.0000       0.061688         1.6786 
 237   0.0000       0.063882         1.7383 
 238   0.0000       0.066619         1.8128 
 239   0.0000       0.069799         1.8993 
 240   0.0000       0.070309         1.9132 
 241   0.0000       0.070488         1.9181 
 242   0.0000       0.074616         2.0304 
 243   0.0000       0.078116         2.1256 
 244   0.0000       0.079103         2.1525 
 245   0.0000       0.084913         2.3106 
 246   0.0000       0.086355         2.3498 
 247   0.0000       0.087583         2.3832 
 248   0.0000       0.091041         2.4773 
 249   0.0000       0.094376         2.5681 
 250   0.0000       0.098533         2.6812 
 251   0.0000       0.099775         2.7150 
 252   0.0000       0.101796         2.7700 
 253   0.0000       0.103259         2.8098 
 254   0.0000       0.104595         2.8462 
 255   0.0000       0.105068         2.8591 
 256   0.0000       0.108264         2.9460 
 257   0.0000       0.111571         3.0360 
 258   0.0000       0.114683         3.1207 
 259   0.0000       0.118276         3.2184 
 260   0.0000       0.119115         3.2413 
 261   0.0000       0.122177         3.3246 
 262   0.0000       0.124802         3.3960 
 263   0.0000       0.129144         3.5142 
 264   0.0000       0.130616         3.5542 
 265   0.0000       0.133277         3.6266 
 266   0.0000       0.136225         3.7069 
 267   0.0000       0.139598         3.7986 
 268   0.0000       0.142894         3.8884 
 269   0.0000       0.143994         3.9183 
 270   0.0000       0.144521         3.9326 
 271   0.0000       0.149035         4.0555 
 272   0.0000       0.150578         4.0974 
 273   0.0000       0.153954         4.1893 
 274   0.0000       0.158230         4.3057 
 275   0.0000       0.160850         4.3770 
 276   0.0000       0.165878         4.5138 
 277   0.0000       0.167382         4.5547 
 278   0.0000       0.168879         4.5954 
 279   0.0000       0.172516         4.6944 
 280   0.0000       0.174270         4.7421 
 281   0.0000       0.177843         4.8394 
 282   0.0000       0.181032         4.9261 
 283   0.0000       0.184750         5.0273 
 284   0.0000       0.188194         5.1210 
 285   0.0000       0.189830         5.1655 
 286   0.0000       0.191624         5.2143 
 287   0.0000       0.193304         5.2601 
 288   0.0000       0.195203         5.3117 
 289   0.0000       0.198164         5.3923 
 290   0.0000       0.199207         5.4207 
 291   0.0000       0.200099         5.4450 
 292   0.0000       0.204532         5.5656 
 293   0.0000       0.209543         5.7020 
 294   0.0000       0.213159         5.8004 
 295   0.0000       0.217824         5.9273 
 296   0.0000       0.220991         6.0135 
 297   0.0000       0.222906         6.0656 
 298   0.0000       0.229040         6.2325 
 299   0.0000       0.232034         6.3140 
 300   0.0000       0.233805         6.3622 
 301   0.0000       0.235908         6.4194 
 302   0.0000       0.238706         6.4955 
 303   0.0000       0.240927         6.5560 
 304   0.0000       0.243349         6.6219 
 305   0.0000       0.246297         6.7021 
 306   0.0000       0.248441         6.7604 
 307   0.0000       0.252704         6.8764 
 308   0.0000       0.254430         6.9234 
 309   0.0000       0.258660         7.0385 
 310   0.0000       0.260271         7.0823 
 311   0.0000       0.260675         7.0933 
 312   0.0000       0.264098         7.1865 
 313   0.0000       0.267816         7.2877 
 314   0.0000       0.271050         7.3757 
 315   0.0000       0.272033         7.4024 
 316   0.0000       0.277118         7.5408 
 317   0.0000       0.277541         7.5523 
 318   0.0000       0.280611         7.6358 
 319   0.0000       0.284871         7.7517 
 320   0.0000       0.285836         7.7780 
 321   0.0000       0.289944         7.8898 
 322   0.0000       0.290762         7.9120 
 323   0.0000       0.291227         7.9247 
 324   0.0000       0.293856         7.9962 
 325   0.0000       0.296741         8.0747 
 326   0.0000       0.298440         8.1210 
 327   0.0000       0.300337         8.1726 
 328   0.0000       0.303081         8.2473 
 329   0.0000       0.303969         8.2714 
 330   0.0000       0.304195         8.2776 
 331   0.0000       0.310047         8.4368 
 332   0.0000       0.312861         8.5134 
 333   0.0000       0.314782         8.5657 
 334   0.0000       0.316412         8.6100 
 335   0.0000       0.318639         8.6706 
 336   0.0000       0.320939         8.7332 
 337   0.0000       0.322937         8.7876 
 338   0.0000       0.323566         8.8047 
 339   0.0000       0.326060         8.8726 
 340   0.0000       0.327542         8.9129 
 341   0.0000       0.329561         8.9678 
 342   0.0000       0.332997         9.0613 
 343   0.0000       0.334366         9.0986 
 344   0.0000       0.335899         9.1403 
 345   0.0000       0.339881         9.2486 
 346   0.0000       0.340662         9.2699 
 347   0.0000       0.342590         9.3224 
 348   0.0000       0.344137         9.3644 
 349   0.0000       0.346036         9.4161 
 350   0.0000       0.348062         9.4713 
 351   0.0000       0.353379         9.6159 
 352   0.0000       0.355633         9.6773 
 353   0.0000       0.357301         9.7227 
 354   0.0000       0.358519         9.7558 
 355   0.0000       0.361949         9.8491 
 356   0.0000       0.364797         9.9266 
 357   0.0000       0.370322        10.0770 
 358   0.0000       0.371311        10.1039 
 359   0.0000       0.371871        10.1191 
 360   0.0000       0.375366        10.2142 
 361   0.0000       0.376821        10.2538 
 362   0.0000       0.378946        10.3116 
 363   0.0000       0.379809        10.3351 
 364   0.0000       0.383135        10.4256 
 365   0.0000       0.385218        10.4823 
 366   0.0000       0.387199        10.5362 
 367   0.0000       0.387698        10.5498 
 368   0.0000       0.389557        10.6004 
 369   0.0000       0.392950        10.6927 
 370   0.0000       0.396382        10.7861 
 371   0.0000       0.397551        10.8179 
 372   0.0000       0.398090        10.8326 
 373   0.0000       0.402310        10.9474 
 374   0.0000       0.403907        10.9909 
 375   0.0000       0.405096        11.0232 
 376   0.0000       0.407748        11.0954 
 377   0.0000       0.409522        11.1437 
 378   0.0000       0.413054        11.2398 
 379   0.0000       0.415484        11.3059 
 380   0.0000       0.415589        11.3088 
 381   0.0000       0.420099        11.4315 
 382   0.0000       0.422660        11.5012 
 383   0.0000       0.425427        11.5764 
 384   0.0000       0.428795        11.6681 
 385   0.0000       0.430040        11.7020 
 386   0.0000       0.433688        11.8013 
 387   0.0000       0.434929        11.8350 
 388   0.0000       0.436087        11.8665 
 389   0.0000       0.438874        11.9424 
 390   0.0000       0.439915        11.9707 
 391   0.0000       0.443907        12.0793 
 392   0.0000       0.445481        12.1222 
 393   0.0000       0.453760        12.3474 
 394   0.0000       0.455863        12.4047 
 395   0.0000       0.459522        12.5042 
 396   0.0000       0.461762        12.5652 
 397   0.0000       0.463551        12.6139 
 398   0.0000       0.465326        12.6622 
 399   0.0000       0.467336        12.7169 
 400   0.0000       0.470336        12.7985 
 401   0.0000       0.473488        12.8843 
 402   0.0000       0.476867        12.9762 
 403   0.0000       0.481927        13.1139 
 404   0.0000       0.482716        13.1354 
 405   0.0000       0.484871        13.1940 
 406   0.0000       0.490238        13.3401 
 407   0.0000       0.491755        13.3813 
 408   0.0000       0.495968        13.4960 
 409   0.0000       0.497587        13.5400 
 410   0.0000       0.499798        13.6002 
 411   0.0000       0.501687        13.6516 
 412   0.0000       0.504808        13.7365 
 413   0.0000       0.510944        13.9035 
 414   0.0000       0.512626        13.9493 
 415   0.0000       0.516899        14.0655 
 416   0.0000       0.521010        14.1774 
 417   0.0000       0.521737        14.1972 
 418   0.0000       0.522655        14.2222 
 419   0.0000       0.526992        14.3402 
 420   0.0000       0.527870        14.3641 
 421   0.0000       0.532034        14.4774 
 422   0.0000       0.536189        14.5904 
 423   0.0000       0.538338        14.6489 
 424   0.0000       0.540924        14.7193 
 425   0.0000       0.542418        14.7600 
 426   0.0000       0.546778        14.8786 
 427   0.0000       0.549229        14.9453 
 428   0.0000       0.550835        14.9890 
 429   0.0000       0.555284        15.1100 
 430   0.0000       0.562314        15.3013 
 431   0.0000       0.563765        15.3408 
 432   0.0000       0.565777        15.3956 
 433   0.0000       0.569437        15.4952 
 434   0.0000       0.574566        15.6347 
 435   0.0000       0.578716        15.7477 
 436   0.0000       0.580978        15.8092 
 437   0.0000       0.582336        15.8462 
 438   0.0000       0.586755        15.9664 
 439   0.0000       0.594490        16.1769 
 440   0.0000       0.594603        16.1800 
 441   0.0000       0.601464        16.3667 
 442   0.0000       0.604322        16.4444 
 443   0.0000       0.607550        16.5323 
 444   0.0000       0.612064        16.6551 
 445   0.0000       0.615132        16.7386 
 446   0.0000       0.616815        16.7844 
 447   0.0000       0.621077        16.9004 
 448   0.0000       0.625487        17.0204 
 449   0.0000       0.631052        17.1718 
 450   0.0000       0.635482        17.2924 
 451   0.0000       0.640815        17.4375 
 452   0.0000       0.642885        17.4938 
 453   0.0000       0.645543        17.5661 
 454   0.0000       0.650114        17.6905 
 455   0.0000       0.655898        17.8479 
 456   0.0000       0.659396        17.9431 
 457   0.0000       0.662299        18.0221 
 458   0.0000       0.665620        18.1124 
 459   0.0000       0.667459        18.1625 
 460   0.0000       0.670273        18.2391 
 461   0.0000       0.675394        18.3784 
 462   0.0000       0.677189        18.4272 
 463   0.0000       0.681523        18.5452 
 464   0.0000       0.687219        18.7002 
 465   0.0000       0.690457        18.7883 
 466   0.0000       0.692971        18.8567 
 467   0.0000       0.694377        18.8950 
 468   0.0000       0.700983        19.0747 
 469   0.0000       0.704795        19.1784 
 470   0.0000       0.706733        19.2312 
 471   0.0000       0.709021        19.2934 
 472   0.0000       0.713017        19.4022 
 473   0.0000       0.718301        19.5460 
 474   0.0000       0.719467        19.5777 
 475   0.0000       0.723875        19.6976 
 476   0.0000       0.725367        19.7382 
 477   0.0000       0.734106        19.9760 
 478   0.0000       0.736767        20.0484 
 479   0.0000       0.738500        20.0956 
 480   0.0000       0.745695        20.2914 
 481   0.0000       0.747883        20.3509 
 482   0.0000       0.751249        20.4425 
 483   0.0000       0.757652        20.6168 
 484   0.0000       0.760152        20.6848 
 485   0.0000       0.762603        20.7515 
 486   0.0000       0.767009        20.8714 
 487   0.0000       0.770787        20.9742 
 488   0.0000       0.774571        21.0771 
 489   0.0000       0.778267        21.1777 
 490   0.0000       0.782161        21.2837 
 491   0.0000       0.785149        21.3650 
 492   0.0000       0.787889        21.4395 
 493   0.0000       0.793160        21.5830 
 494   0.0000       0.796059        21.6619 
 495   0.0000       0.799493        21.7553 
 496   0.0000       0.802718        21.8431 
 497   0.0000       0.808756        22.0074 
 498   0.0000       0.812842        22.1186 
 499   0.0000       0.814194        22.1553 
 500   0.0000       0.817829        22.2543 
 501   0.0000       0.821690        22.3593 
 502   0.0000       0.827852        22.5270 
 503   0.0000       0.833166        22.6716 
 504   0.0000       0.837442        22.7880 
 505   0.0000       0.839770        22.8513 
 506   0.0000       0.843446        22.9513 
 507   0.0000       0.847654        23.0658 
 508   0.0000       0.849993        23.1295 
 509   0.0000       0.851228        23.1631 
 510   0.0000       0.856170        23.2976 
 511   0.0000       0.858721        23.3670 
 512   0.0000       0.862264        23.4634 
 513   0.0000       0.866286        23.5728 
 514   0.0000       0.870518        23.6880 
 515   0.0000       0.873089        23.7580 
 516   0.0000       0.877504        23.8781 
 517   0.0000       0.882579        24.0162 
 518   0.0000       0.887920        24.1615 
 519   0.0000       0.892866        24.2961 
 520   0.0000       0.896717        24.4009 
 521   0.0000       0.897715        24.4281 
 522   0.0000       0.900357        24.5000 
 523   0.0000       0.905006        24.6265 
 524   0.0000       0.907797        24.7024 
 525   0.0000       0.910652        24.7801 
 526   0.0000       0.915630        24.9155 
 527   0.0000       0.917893        24.9772 
 528   0.0000       0.920593        25.0506 
 529   0.0000       0.923690        25.1349 
 530   0.0000       0.925760        25.1912 
 531   0.0000       0.931548        25.3487 
 532   0.0000       0.933530        25.4026 
 533   0.0000       0.937179        25.5019 
 534   0.0000       0.939582        25.5673 
 535   0.0000       0.943534        25.6749 
 536   0.0000       0.945559        25.7300 
 537   0.0000       0.947384        25.7796 
 538   0.0000       0.950525        25.8651 
 539   0.0000       0.961097        26.1528 
 540   0.0000       0.966087        26.2886 
 541   0.0000       0.971244        26.4289 
 542   0.0000       0.976524        26.5726 
 543   0.0000       0.977650        26.6032 
 544   0.0000       0.982314        26.7301 
 545   0.0000       0.986184        26.8354 
 546   0.0000       0.987905        26.8822 
 547   0.0000       0.992405        27.0047 
 548   0.0000       1.001238        27.2451 
 549   0.0000       1.003552        27.3081 
[...]
      dz2     :     0.000154  d :     0.002118
      dxz     :     0.000699
      dyz     :     0.000144
      dx2y2   :     0.000363
      dxy     :     0.000758
      f0      :     0.000021  f :     0.000098
      f+1     :     0.000004
      f-1     :     0.000003
      f+2     :     0.000012
      f-2     :     0.000020
      f+3     :     0.000007
      f-3     :     0.000031
 60 H s       :     0.006017  s :     0.006017
      pz      :     0.000017  p :    -0.000190
      px      :    -0.000115
      py      :    -0.000091
 61 H s       :    -0.000020  s :    -0.000020
      pz      :     0.000060  p :     0.000114
      px      :    -0.000006
      py      :     0.000059
 62 H s       :    -0.000007  s :    -0.000007
      pz      :     0.000009  p :     0.000023
      px      :     0.000011
      py      :     0.000003
 63 H s       :     0.000016  s :     0.000016
      pz      :     0.000001  p :     0.000001
      px      :    -0.000000
      py      :     0.000000
 64 H s       :    -0.000038  s :    -0.000038
      pz      :     0.000003  p :     0.000031
      px      :     0.000023
      py      :     0.000004
 65 H s       :    -0.000022  s :    -0.000022
      pz      :     0.000008  p :     0.000161
      px      :    -0.000002
      py      :     0.000155
 66 H s       :     0.000063  s :     0.000063
      pz      :     0.000000  p :     0.000016
      px      :     0.000013
      py      :     0.000002
 67 H s       :    -0.000019  s :    -0.000019
      pz      :     0.000002  p :     0.000029
      px      :     0.000020
      py      :     0.000007
 68 H s       :     0.000003  s :     0.000003
      pz      :     0.000003  p :     0.000006
      px      :     0.000003
      py      :     0.000000
 69 H s       :     0.000035  s :     0.000035
      pz      :     0.000005  p :     0.000009
      px      :     0.000000
      py      :     0.000003
 70 H s       :     0.001307  s :     0.001307
      pz      :     0.000200  p :     0.001348
      px      :     0.000781
      py      :     0.000367
 71 O s       :     0.013273  s :     0.013273
      pz      :     0.238978  p :     0.736411
      px      :     0.038458
      py      :     0.458976
      dz2     :     0.003630  d :     0.020494
      dxz     :     0.003035
      dyz     :     0.001895
      dx2y2   :     0.001660
      dxy     :     0.010274
      f0      :     0.000084  f :     0.002503
      f+1     :     0.000591
      f-1     :     0.000046
      f+2     :     0.000221
      f-2     :     0.000477
      f+3     :     0.000021
      f-3     :     0.001063
 72 O s       :     0.012790  s :     0.012790
      pz      :     0.241754  p :     0.744628
      px      :     0.032864
      py      :     0.470010
      dz2     :     0.002190  d :     0.021231
      dxz     :     0.004856
      dyz     :     0.002085
      dx2y2   :     0.002298
      dxy     :     0.009803
      f0      :     0.000006  f :     0.002442
      f+1     :     0.000717
      f-1     :     0.000023
      f+2     :     0.000119
      f-2     :     0.000483
      f+3     :     0.000085
      f-3     :     0.001010
 73 H s       :     0.000244  s :     0.000244
      pz      :     0.000034  p :     0.000083
      px      :     0.000027
      py      :     0.000022
 74 H s       :     0.000342  s :     0.000342
      pz      :     0.000023  p :     0.000051
      px      :     0.000030
      py      :    -0.000002
 75 H s       :     0.000857  s :     0.000857
      pz      :     0.000001  p :     0.000135
      px      :     0.000129
      py      :     0.000004
 76 H s       :     0.000314  s :     0.000314
      pz      :     0.000028  p :     0.000022
      px      :    -0.000008
      py      :     0.000002
 77 H s       :     0.000310  s :     0.000310
      pz      :     0.000005  p :     0.000039
      px      :     0.000002
      py      :     0.000032
 78 H s       :     0.000039  s :     0.000039
      pz      :     0.000052  p :     0.000077
      px      :     0.000012
      py      :     0.000013


                      *****************************
                      * MAYER POPULATION ANALYSIS *
                      *****************************

  NA   - Mulliken gross atomic population
  ZA   - Total nuclear charge
  QA   - Mulliken gross atomic charge
  VA   - Mayer's total valence
  BVA  - Mayer's bonded valence
  FA   - Mayer's free valence

  ATOM       NA         ZA         QA         VA         BVA        FA
  0 C      6.0358     6.0000    -0.0358     3.8295     3.8295     0.0000
  1 N      7.2193     7.0000    -0.2193     3.3957     3.3957     0.0000
  2 H      0.7438     1.0000     0.2562     0.9372     0.9372     0.0000
  3 C      5.9480     6.0000     0.0520     3.8817     3.8817     0.0000
  4 H      0.8054     1.0000     0.1946     0.9838     0.9838     0.0000
  5 N      7.1382     7.0000    -0.1382     3.1642     3.1623     0.0019
  6 C      6.0878     6.0000    -0.0878     3.9432     3.9432     0.0000
  7 H      0.8382     1.0000     0.1618     0.9855     0.9855     0.0000
  8 C      6.0691     6.0000    -0.0691     3.8704     3.8704     0.0000
  9 N      7.2289     7.0000    -0.2289     3.4055     3.4055     0.0000
 10 H      0.7512     1.0000     0.2488     0.9419     0.9419     0.0000
 11 C      5.9396     6.0000     0.0604     3.9550     3.9550     0.0000
 12 H      0.8290     1.0000     0.1710     0.9585     0.9585     0.0000
 13 N      7.0927     7.0000    -0.0927     3.0029     2.9996     0.0034
 14 C      6.0939     6.0000    -0.0939     3.9727     3.9727     0.0000
 15 H      0.8136     1.0000     0.1864     0.9527     0.9527     0.0000
 16 C      6.3673     6.0000    -0.3673     3.8805     3.8804     0.0001
 17 H      0.8714     1.0000     0.1286     0.9774     0.9774     0.0000
 18 H      0.8612     1.0000     0.1388     0.9697     0.9697     0.0000
 19 C      5.5042     6.0000     0.4958     3.9360     3.9359     0.0002
 20 O      8.5156     8.0000    -0.5156     1.9092     1.9028     0.0063
 21 O      8.4381     8.0000    -0.4381     1.9714     1.9684     0.0029
 22 C      6.0335     6.0000    -0.0335     3.8493     3.8493     0.0000
 23 N      7.2313     7.0000    -0.2313     3.4382     3.4382     0.0000
 24 H      0.7423     1.0000     0.2577     0.9379     0.9379     0.0000
 25 C      5.9073     6.0000     0.0927     3.9429     3.9429     0.0000
 26 H      0.8421     1.0000     0.1579     0.9819     0.9819     0.0000
 27 N      7.1803     7.0000    -0.1803     3.0094     3.0065     0.0028
 28 C      6.0987     6.0000    -0.0987     3.9162     3.9162     0.0000
 29 H      0.8330     1.0000     0.1670     0.9866     0.9866     0.0000
 30 C      6.0356     6.0000    -0.0356     3.8675     3.8675     0.0000
 31 N      7.2283     7.0000    -0.2283     3.4248     3.4248     0.0000
 32 H      0.7449     1.0000     0.2551     0.9387     0.9387     0.0000
 33 C      5.9353     6.0000     0.0647     3.9198     3.9198     0.0000
 34 H      0.8095     1.0000     0.1905     0.9514     0.9514     0.0000
 35 N      7.1911     7.0000    -0.1911     3.0527     3.0497     0.0029
 36 C      6.1273     6.0000    -0.1273     3.8795     3.8795     0.0000
 37 H      0.7800     1.0000     0.2200     0.9993     0.9993     0.0000
 38 C      6.3491     6.0000    -0.3491     3.8808     3.8808     0.0000
 39 H      0.8915     1.0000     0.1085     0.9721     0.9721     0.0000
 40 H      0.8660     1.0000     0.1340     0.9820     0.9820     0.0000
 41 C      5.5847     6.0000     0.4153     4.0902     4.0901     0.0001
 42 O      8.4674     8.0000    -0.4674     1.9066     1.9017     0.0049
 43 O      8.5364     8.0000    -0.5364     1.9363     1.9362     0.0001
 44 Fe    25.2163    26.0000     0.7837     6.7238     3.1711     3.5526
 45 Fe    25.2051    26.0000     0.7949     7.0360     3.3763     3.6597
 46 O      8.8621     8.0000    -0.8621     1.5490     1.5222     0.0268
 47 H      0.6384     1.0000     0.3616     0.9716     0.9716     0.0000
 48 C      5.7647     6.0000     0.2353     3.5336     3.5335     0.0001
 49 C      5.9923     6.0000     0.0077     4.0344     4.0343     0.0001
 50 C      5.8920     6.0000     0.1080     3.8063     3.8063     0.0000
 51 C      5.9473     6.0000     0.0527     3.9808     3.9808     0.0000
 52 C      5.9647     6.0000     0.0353     4.1117     4.1117     0.0000
 53 C      5.9231     6.0000     0.0769     3.7218     3.7217     0.0001
 54 O      8.5247     8.0000    -0.5247     1.9283     1.8737     0.0546
 55 O      8.4645     8.0000    -0.4645     1.9735     1.9735     0.0000
 56 O      8.4231     8.0000    -0.4231     1.9976     1.9976     0.0000
 57 O      8.3951     8.0000    -0.3951     2.0050     2.0050     0.0000
 58 O      8.4453     8.0000    -0.4453     1.9429     1.9429     0.0000
 59 O      8.4496     8.0000    -0.4496     1.8988     1.8965     0.0023
 60 H      0.8956     1.0000     0.1044     0.9887     0.9886     0.0001
 61 H      0.9028     1.0000     0.0972     0.9644     0.9644     0.0000
 62 H      0.9203     1.0000     0.0797     0.9805     0.9805     0.0000
 63 H      0.9258     1.0000     0.0742     0.9954     0.9954     0.0000
 64 H      0.9116     1.0000     0.0884     0.9961     0.9961     0.0000
 65 H      0.9230     1.0000     0.0770     0.9894     0.9894     0.0000
 66 H      0.6814     1.0000     0.3186     0.9086     0.9086     0.0000
 67 H      0.6953     1.0000     0.3047     0.9179     0.9179     0.0000
 68 H      0.7278     1.0000     0.2722     0.9459     0.9459     0.0000
 69 H      0.7147     1.0000     0.2853     0.9463     0.9463     0.0000
 70 H      0.6578     1.0000     0.3422     0.9007     0.9007     0.0000
 71 O      8.1147     8.0000    -0.1147     2.1457     1.7978     0.3480
 72 O      8.1202     8.0000    -0.1202     2.1112     1.7530     0.3582
 73 H      0.8323     1.0000     0.1677     0.9712     0.9712     0.0000
 74 H      0.8432     1.0000     0.1568     0.9747     0.9747     0.0000
 75 H      0.8810     1.0000     0.1190     0.9725     0.9725     0.0000
 76 H      0.8256     1.0000     0.1744     0.9698     0.9698     0.0000
 77 H      0.8234     1.0000     0.1766     0.9679     0.9679     0.0000
 78 H      0.8877     1.0000     0.1123     0.9695     0.9695     0.0000

  Mayer bond orders larger than 0.100000
B(  0-C ,  1-N ) :   1.1452 B(  0-C ,  6-C ) :   1.6316 B(  0-C , 73-H ) :   0.9409 
B(  1-N ,  2-H ) :   0.9055 B(  1-N ,  3-C ) :   1.2829 B(  3-C ,  4-H ) :   0.9372 
B(  3-C ,  5-N ) :   1.4590 B(  5-N ,  6-C ) :   1.2076 B(  5-N , 44-Fe) :   0.5390 
B(  6-C ,  7-H ) :   0.9627 B(  8-C ,  9-N ) :   1.1566 B(  8-C , 14-C ) :   1.6302 
B(  8-C , 74-H ) :   0.9465 B(  9-N , 10-H ) :   0.9095 B(  9-N , 11-C ) :   1.2807 
B( 11-C , 12-H ) :   0.9458 B( 11-C , 13-N ) :   1.4977 B( 13-N , 14-C ) :   1.2270 
B( 13-N , 44-Fe) :   0.4121 B( 14-C , 15-H ) :   0.9496 B( 16-C , 17-H ) :   0.9834 
B( 16-C , 18-H ) :   0.9515 B( 16-C , 19-C ) :   0.9450 B( 16-C , 75-H ) :   0.9708 
B( 19-C , 20-O ) :   1.3857 B( 19-C , 21-O ) :   1.5881 B( 20-O , 45-Fe) :   0.5057 
B( 21-O , 44-Fe) :   0.3303 B( 22-C , 23-N ) :   1.1451 B( 22-C , 28-C ) :   1.6347 
B( 22-C , 76-H ) :   0.9418 B( 23-N , 24-H ) :   0.9055 B( 23-N , 25-C ) :   1.3102 
B( 25-C , 26-H ) :   0.9378 B( 25-C , 27-N ) :   1.4527 B( 27-N , 28-C ) :   1.2171 
B( 27-N , 45-Fe) :   0.4214 B( 28-C , 29-H ) :   0.9600 B( 30-C , 31-N ) :   1.1508 
B( 30-C , 36-C ) :   1.6524 B( 30-C , 77-H ) :   0.9358 B( 31-N , 32-H ) :   0.9064 
B( 31-N , 33-C ) :   1.3019 B( 33-C , 34-H ) :   0.9410 B( 33-C , 35-N ) :   1.4574 
B( 35-N , 36-C ) :   1.1834 B( 35-N , 45-Fe) :   0.4687 B( 36-C , 37-H ) :   0.9161 
B( 38-C , 39-H ) :   0.9469 B( 38-C , 40-H ) :   0.9811 B( 38-C , 41-C ) :   0.9656 
B( 38-C , 78-H ) :   0.9705 B( 41-C , 42-O ) :   1.4663 B( 41-C , 43-O ) :   1.6191 
B( 42-O , 44-Fe) :   0.4424 B( 43-O , 47-H ) :   0.1679 B( 44-Fe, 46-O ) :   0.3934 
B( 44-Fe, 71-O ) :   0.4683 B( 44-Fe, 72-O ) :   0.4178 B( 45-Fe, 46-O ) :   0.4964 
B( 45-Fe, 54-O ) :   0.9361 B( 45-Fe, 59-O ) :   0.2677 B( 46-O , 47-H ) :   0.7490 
B( 48-C , 49-C ) :   0.8527 B( 48-C , 53-C ) :   0.9359 B( 48-C , 54-O ) :   0.8738 
B( 48-C , 55-O ) :  -0.1413 B( 48-C , 60-H ) :   0.9553 B( 49-C , 50-C ) :   0.9028 
B( 49-C , 55-O ) :   1.2098 B( 49-C , 61-H ) :   0.9654 B( 50-C , 51-C ) :   0.9287 
B( 50-C , 56-O ) :   1.0824 B( 50-C , 62-H ) :   0.9670 B( 51-C , 52-C ) :   0.9553 
B( 51-C , 57-O ) :   1.0441 B( 51-C , 63-H ) :   0.9667 B( 52-C , 53-C ) :   0.9323 
B( 52-C , 58-O ) :   1.0310 B( 52-C , 64-H ) :   0.9745 B( 53-C , 59-O ) :   0.7650 
B( 53-C , 65-H ) :   0.9646 B( 55-O , 66-H ) :   0.8874 B( 56-O , 67-H ) :   0.8895 
B( 57-O , 68-H ) :   0.8938 B( 58-O , 69-H ) :   0.8850 B( 59-O , 70-H ) :   0.8528 
B( 71-O , 72-O ) :   1.3459 

-------
TIMINGS
-------

Total SCF time: 0 days 2 hours 41 min 50 sec 

Total time                  ....    9710.475 sec
Sum of individual times     ....    9693.876 sec  ( 99.8%)

Fock matrix formation       ....    9386.000 sec  ( 96.7%)
  XC integration            ....     184.474 sec  (  2.0% of F)
    Basis function eval.    ....      21.759 sec  ( 11.8% of XC)
    Density eval.           ....      87.258 sec  ( 47.3% of XC)
    XC-Functional eval.     ....       2.354 sec  (  1.3% of XC)
    XC-Potential eval.      ....      35.726 sec  ( 19.4% of XC)
Diagonalization             ....     126.956 sec  (  1.3%)
Density matrix formation    ....       4.447 sec  (  0.0%)
Population analysis         ....       3.893 sec  (  0.0%)
Initial guess               ....       3.009 sec  (  0.0%)
Orbital Transformation      ....       0.000 sec  (  0.0%)
Orbital Orthonormalization  ....       0.000 sec  (  0.0%)
DIIS solution               ....     165.945 sec  (  1.7%)
Grid generation             ....       3.626 sec  (  0.0%)

Maximum memory used throughout the entire SCF-calculation: 522.7 MB

-------------------------   --------------------
FINAL SINGLE POINT ENERGY     -4801.662569832893
-------------------------   --------------------


                            ***************************************
                            *     ORCA property calculations      *
                            ***************************************

                                    ---------------------
                                    Active property flags
                                    ---------------------
   (+) Dipole Moment


------------------------------------------------------------------------------
                       ORCA ELECTRIC PROPERTIES CALCULATION
------------------------------------------------------------------------------

Dipole Moment Calculation                       ... on
Quadrupole Moment Calculation                   ... off
Polarizability Calculation                      ... off
GBWName                                         ... /scratch/RC-highspin_872/RC-highspin.gbw
Electron density file                           ... /scratch/RC-highspin_872/RC-highspin.scfp
The origin for moment calculation is the CENTER OF MASS  = (80.281625, 89.286248 72.190356)

-------------
DIPOLE MOMENT
-------------
                                X             Y             Z
Electronic contribution:     -6.97088       6.77627      -6.19657
Nuclear contribution   :      2.83187      -8.56052       3.37323
                        -----------------------------------------
Total Dipole Moment    :     -4.13901      -1.78425      -2.82334
                        -----------------------------------------
Magnitude (a.u.)       :      5.31848
Magnitude (Debye)      :     13.51849



--------------------
Rotational spectrum 
--------------------
 
Rotational constants in cm-1:     0.002818     0.001896     0.001591 
Rotational constants in MHz :    84.485992    56.848204    47.689819 

 Dipole components along the rotational axes: 
x,y,z [a.u.] :    -1.966281    -4.825920     1.063213 
x,y,z [Debye]:    -4.997890   -12.266514     2.702472 

 
--------------------------------------------------------------------------
WARNING: There was an error initializing an OpenFabrics device.

  Local host:   cnode05
  Local device: mlx5_0
--------------------------------------------------------------------------
[cnode05:206068] 15 more processes have sent help message help-mpi-btl-openib.txt / error in device init
[cnode05:206068] Set MCA parameter "orte_base_help_aggregate" to 0 to see all help / error messages

Timings for individual modules:

Sum of individual times         ...     9714.381 sec (= 161.906 min)
GTO integral calculation        ...        3.024 sec (=   0.050 min)   0.0 %
SCF iterations                  ...     9711.357 sec (= 161.856 min) 100.0 %
                             ****ORCA TERMINATED NORMALLY****
TOTAL RUN TIME: 0 days 2 hours 41 minutes 55 seconds 916 msec

Sender: Unischeduler System <lcz@mgt01>
Subject: Job 132449: <#!/bin/bash
#BSUB -J intel
#BSUB -o RC-highspin.out
#BSUB -n 16
#BSUB -q cqueue
export LD_LIBRARY_PATH=/apps/software/openmpi-4.1.1/lib:/apps/software/orca_5_0_0:$LD_LIBRARY_PATH
export PATH=/apps/software/openmpi-4.1.1/bin:/apps/software/orca_5_0_0:$PATH
mkdir /scratch/RC-highspin_872
scp $USER@mgt01:/apps/users/lcz/newexe8/exe8/task2/RC/autoTrah/RC-highspin.inp /scratch/RC-highspin_872
/apps/software/orca_5_0_0/orca /scratch/RC-highspin_872/RC-highspin.inp >& RC-highspin.out
scp /scratch/RC-highspin_872/*.gbw $USER@mgt01:/apps/users/lcz/newexe8/exe8/task2/RC/autoTrah
scp /scratch/RC-highspin_872/*.xyz $USER@mgt01:/apps/users/lcz/newexe8/exe8/task2/RC/autoTrah
scp /scratch/RC-highspin_872/*.trj $USER@mgt01:/apps/users/lcz/newexe8/exe8/task2/RC/autoTrah> Exited

Job <#!/bin/bash
#BSUB -J intel
#BSUB -o RC-highspin.out
#BSUB -n 16
#BSUB -q cqueue
export LD_LIBRARY_PATH=/apps/software/openmpi-4.1.1/lib:/apps/software/orca_5_0_0:$LD_LIBRARY_PATH
export PATH=/apps/software/openmpi-4.1.1/bin:/apps/software/orca_5_0_0:$PATH
mkdir /scratch/RC-highspin_872
scp $USER@mgt01:/apps/users/lcz/newexe8/exe8/task2/RC/autoTrah/RC-highspin.inp /scratch/RC-highspin_872
/apps/software/orca_5_0_0/orca /scratch/RC-highspin_872/RC-highspin.inp >& RC-highspin.out
scp /scratch/RC-highspin_872/*.gbw $USER@mgt01:/apps/users/lcz/newexe8/exe8/task2/RC/autoTrah
scp /scratch/RC-highspin_872/*.xyz $USER@mgt01:/apps/users/lcz/newexe8/exe8/task2/RC/autoTrah
scp /scratch/RC-highspin_872/*.trj $USER@mgt01:/apps/users/lcz/newexe8/exe8/task2/RC/autoTrah> was submitted from host <mgt01> by user <lcz>.
Job was executed on host(s) <16*cnode05>, in queue <cqueue>, as user <lcz>.
</apps/users/lcz> was used as the home directory.
</apps/users/lcz/newexe8/exe8/task2/RC/autoTrah> was used as the working directory.
Started at 2022-05-16 10:52:38
Results reported at 2022-05-16 13:34:36

Your job looked like:

------------------------------------------------------------
# User input
#!/bin/bash
#BSUB -J intel
#BSUB -o RC-highspin.out
#BSUB -n 16
#BSUB -q cqueue
export LD_LIBRARY_PATH=/apps/software/openmpi-4.1.1/lib:/apps/software/orca_5_0_0:$LD_LIBRARY_PATH
export PATH=/apps/software/openmpi-4.1.1/bin:/apps/software/orca_5_0_0:$PATH
mkdir /scratch/RC-highspin_872
scp $USER@mgt01:/apps/users/lcz/newexe8/exe8/task2/RC/autoTrah/RC-highspin.inp /scratch/RC-highspin_872
/apps/software/orca_5_0_0/orca /scratch/RC-highspin_872/RC-highspin.inp >& RC-highspin.out
scp /scratch/RC-highspin_872/*.gbw $USER@mgt01:/apps/users/lcz/newexe8/exe8/task2/RC/autoTrah
scp /scratch/RC-highspin_872/*.xyz $USER@mgt01:/apps/users/lcz/newexe8/exe8/task2/RC/autoTrah
scp /scratch/RC-highspin_872/*.trj $USER@mgt01:/apps/users/lcz/newexe8/exe8/task2/RC/autoTrah
------------------------------------------------------------

Exited with exit code 1.

Resource usage summary:

    CPU time   :       143891.05 sec.
    Max Memory :             12185 MB
    Max Processes  :              21


The output (if any) follows:

/scratch/RC-highspin_872/*.xyz: No such file or directory
/scratch/RC-highspin_872/*.trj: No such file or directory
