 Entering Gaussian System, Link 0=/apps/software/g16/g16
 Initial command:
 /apps/software/g16/l1.exe "/scratch/Gau-340597.inp" -scrdir="/scratch/"
 Entering Link 1 = /apps/software/g16/l1.exe PID=    340598.
  
 Copyright (c) 1988,1990,1992,1993,1995,1998,2003,2009,2016,
            Gaussian, Inc.  All Rights Reserved.
  
 This is part of the Gaussian(R) 16 program.  It is based on
 the Gaussian(R) 09 system (copyright 2009, Gaussian, Inc.),
 the Gaussian(R) 03 system (copyright 2003, Gaussian, Inc.),
 the Gaussian(R) 98 system (copyright 1998, Gaussian, Inc.),
 the Gaussian(R) 94 system (copyright 1995, Gaussian, Inc.),
 the Gaussian 92(TM) system (copyright 1992, Gaussian, Inc.),
 the Gaussian 90(TM) system (copyright 1990, Gaussian, Inc.),
 the Gaussian 88(TM) system (copyright 1988, Gaussian, Inc.),
 the Gaussian 86(TM) system (copyright 1986, Carnegie Mellon
 University), and the Gaussian 82(TM) system (copyright 1983,
 Carnegie Mellon University). Gaussian is a federally registered
 trademark of Gaussian, Inc.
  
 This software contains proprietary and confidential information,
 including trade secrets, belonging to Gaussian, Inc.
  
 This software is provided under written license and may be
 used, copied, transmitted, or stored only in accord with that
 written license.
  
 The following legend is applicable only to US Government
 contracts under FAR:
  
                    RESTRICTED RIGHTS LEGEND
  
 Use, reproduction and disclosure by the US Government is
 subject to restrictions as set forth in subparagraphs (a)
 and (c) of the Commercial Computer Software - Restricted
 Rights clause in FAR 52.227-19.
  
 Gaussian, Inc.
 340 Quinnipiac St., Bldg. 40, Wallingford CT 06492
  
  
 ---------------------------------------------------------------
 Warning -- This program may not be used in any manner that
 competes with the business of Gaussian, Inc. or will provide
 assistance to any competitor of Gaussian, Inc.  The licensee
 of this program is prohibited from giving any competitor of
 Gaussian, Inc. access to this program.  By using this program,
 the user acknowledges that Gaussian, Inc. is engaged in the
 business of creating and licensing software in the field of
 computational chemistry and represents and warrants to the
 licensee that it is not a competitor of Gaussian, Inc. and that
 it will not use this program in any manner prohibited above.
 ---------------------------------------------------------------
  

 Cite this work as:
 Gaussian 16, Revision A.03,
 M. J. Frisch, G. W. Trucks, H. B. Schlegel, G. E. Scuseria, 
 M. A. Robb, J. R. Cheeseman, G. Scalmani, V. Barone, 
 G. A. Petersson, H. Nakatsuji, X. Li, M. Caricato, A. V. Marenich, 
 J. Bloino, B. G. Janesko, R. Gomperts, B. Mennucci, H. P. Hratchian, 
 J. V. Ortiz, A. F. Izmaylov, J. L. Sonnenberg, D. Williams-Young, 
 F. Ding, F. Lipparini, F. Egidi, J. Goings, B. Peng, A. Petrone, 
 T. Henderson, D. Ranasinghe, V. G. Zakrzewski, J. Gao, N. Rega, 
 G. Zheng, W. Liang, M. Hada, M. Ehara, K. Toyota, R. Fukuda, 
 J. Hasegawa, M. Ishida, T. Nakajima, Y. Honda, O. Kitao, H. Nakai, 
 T. Vreven, K. Throssell, J. A. Montgomery, Jr., J. E. Peralta, 
 F. Ogliaro, M. J. Bearpark, J. J. Heyd, E. N. Brothers, K. N. Kudin, 
 V. N. Staroverov, T. A. Keith, R. Kobayashi, J. Normand, 
 K. Raghavachari, A. P. Rendell, J. C. Burant, S. S. Iyengar, 
 J. Tomasi, M. Cossi, J. M. Millam, M. Klene, C. Adamo, R. Cammi, 
 J. W. Ochterski, R. L. Martin, K. Morokuma, O. Farkas, 
 J. B. Foresman, and D. J. Fox, Gaussian, Inc., Wallingford CT, 2016.
 
 ******************************************
 Gaussian 16:  ES64L-G16RevA.03 25-Dec-2016
                15-May-2022 
 ******************************************
 %nprocshared=16
 Will use up to   16 processors via shared memory.
 -----------------------
 #p UHF/def2SVP Opt Freq
 -----------------------
 1/18=20,19=15,38=1/1,3;
 2/9=110,12=2,17=6,18=5,40=1/2;
 3/5=43,7=101,11=2,25=1,30=1,71=1,116=2/1,2,3;
 4//1;
 5/5=2,38=5/2;
 6/7=2,8=2,9=2,10=2,28=1/1;
 7//1,2,3,16;
 1/18=20,19=15/3(2);
 2/9=110/2;
 99//99;
 2/9=110/2;
 3/5=43,7=101,11=2,25=1,30=1,71=1,116=2/1,2,3;
 4/5=5,16=3,69=1/1;
 5/5=2,38=5/2;
 7//1,2,3,16;
 1/18=20,19=15/3(-5);
 2/9=110/2;
 6/7=2,8=2,9=2,10=2,19=2,28=1/1;
 99/9=1/99;
 Leave Link    1 at Sun May 15 11:11:58 2022, MaxMem=           0 cpu:               0.2 elap:               0.0
 (Enter /apps/software/g16/l101.exe)
 ------------
 [Fe(H2O)6]2+
 ------------
 Symbolic Z-matrix:
 Charge =  2 Multiplicity = 5
 Fe                   -0.64257   0.51804   0.11515 
 O                     0.11175   2.15027  -0.78003 
 H                     0.70767   2.71591  -0.25347 
 O                    -1.31194  -0.30254  -1.59154 
 H                    -1.93648   0.13093  -2.20091 
 O                     0.02721   1.33941   1.82123 
 H                     0.65259   0.90687   2.4304 
 O                    -1.39648  -1.11445   1.01024 
 H                    -1.99331  -1.6794    0.48397 
 O                    -2.28682   1.63341   0.41005 
 H                    -2.35377   2.47291  -0.08302 
 O                     1.00194  -0.59712  -0.1795 
 H                     1.06808  -1.43759   0.31203 
 H                    -3.18922   1.2728    0.48036 
 H                    -0.66522  -0.78352  -2.14179 
 H                     1.90455  -0.23678  -0.24845 
 H                     0.43777   2.17114  -1.69794 
 H                    -0.61876   1.82124   2.3716 
 H                    -1.72126  -1.13595   1.92857 
 
 ITRead=  0  0  0  0  0  0  0  0  0  0  0  0  0  0  0  0  0  0  0
 MicOpt= -1 -1 -1 -1 -1 -1 -1 -1 -1 -1 -1 -1 -1 -1 -1 -1 -1 -1 -1
 NAtoms=     19 NQM=       19 NQMF=       0 NMMI=      0 NMMIF=      0
                NMic=       0 NMicF=      0.
                    Isotopes and Nuclear Properties:
 (Nuclear quadrupole moments (NQMom) in fm**2, nuclear magnetic moments (NMagM)
  in nuclear magnetons)

  Atom         1           2           3           4           5           6           7           8           9          10
 IAtWgt=          56          16           1          16           1          16           1          16           1          16
 AtmWgt=  55.9349393  15.9949146   1.0078250  15.9949146   1.0078250  15.9949146   1.0078250  15.9949146   1.0078250  15.9949146
 NucSpn=           0           0           1           0           1           0           1           0           1           0
 AtZEff=  -0.0000000  -0.0000000  -0.0000000  -0.0000000  -0.0000000  -0.0000000  -0.0000000  -0.0000000  -0.0000000  -0.0000000
 NQMom=    0.0000000   0.0000000   0.0000000   0.0000000   0.0000000   0.0000000   0.0000000   0.0000000   0.0000000   0.0000000
 NMagM=    0.0000000   0.0000000   2.7928460   0.0000000   2.7928460   0.0000000   2.7928460   0.0000000   2.7928460   0.0000000
 AtZNuc=  26.0000000   8.0000000   1.0000000   8.0000000   1.0000000   8.0000000   1.0000000   8.0000000   1.0000000   8.0000000

  Atom        11          12          13          14          15          16          17          18          19
 IAtWgt=           1          16           1           1           1           1           1           1           1
 AtmWgt=   1.0078250  15.9949146   1.0078250   1.0078250   1.0078250   1.0078250   1.0078250   1.0078250   1.0078250
 NucSpn=           1           0           1           1           1           1           1           1           1
 AtZEff=  -0.0000000  -0.0000000  -0.0000000  -0.0000000  -0.0000000  -0.0000000  -0.0000000  -0.0000000  -0.0000000
 NQMom=    0.0000000   0.0000000   0.0000000   0.0000000   0.0000000   0.0000000   0.0000000   0.0000000   0.0000000
 NMagM=    2.7928460   0.0000000   2.7928460   2.7928460   2.7928460   2.7928460   2.7928460   2.7928460   2.7928460
 AtZNuc=   1.0000000   8.0000000   1.0000000   1.0000000   1.0000000   1.0000000   1.0000000   1.0000000   1.0000000
 Leave Link  101 at Sun May 15 11:11:58 2022, MaxMem=   104857600 cpu:               1.6 elap:               0.1
 (Enter /apps/software/g16/l103.exe)

 GradGradGradGradGradGradGradGradGradGradGradGradGradGradGradGradGradGrad
 Berny optimization.
 Initialization pass.
                           ----------------------------
                           !    Initial Parameters    !
                           ! (Angstroms and Degrees)  !
 --------------------------                            --------------------------
 ! Name  Definition              Value          Derivative Info.                !
 --------------------------------------------------------------------------------
 ! R1    R(1,2)                  2.0086         estimate D2E/DX2                !
 ! R2    R(1,4)                  2.0085         estimate D2E/DX2                !
 ! R3    R(1,6)                  2.0085         estimate D2E/DX2                !
 ! R4    R(1,8)                  2.0086         estimate D2E/DX2                !
 ! R5    R(1,10)                 2.0086         estimate D2E/DX2                !
 ! R6    R(1,12)                 2.0087         estimate D2E/DX2                !
 ! R7    R(2,3)                  0.9759         estimate D2E/DX2                !
 ! R8    R(2,17)                 0.9743         estimate D2E/DX2                !
 ! R9    R(4,5)                  0.9743         estimate D2E/DX2                !
 ! R10   R(4,15)                 0.9759         estimate D2E/DX2                !
 ! R11   R(6,7)                  0.9743         estimate D2E/DX2                !
 ! R12   R(6,18)                 0.9759         estimate D2E/DX2                !
 ! R13   R(8,9)                  0.9759         estimate D2E/DX2                !
 ! R14   R(8,19)                 0.9743         estimate D2E/DX2                !
 ! R15   R(10,11)                0.9759         estimate D2E/DX2                !
 ! R16   R(10,14)                0.9743         estimate D2E/DX2                !
 ! R17   R(12,13)                0.9759         estimate D2E/DX2                !
 ! R18   R(12,16)                0.9743         estimate D2E/DX2                !
 ! A1    A(2,1,4)               94.4994         estimate D2E/DX2                !
 ! A2    A(2,1,6)               85.4699         estimate D2E/DX2                !
 ! A3    A(2,1,10)              85.504          estimate D2E/DX2                !
 ! A4    A(2,1,12)              94.4913         estimate D2E/DX2                !
 ! A5    A(4,1,8)               85.4991         estimate D2E/DX2                !
 ! A6    A(4,1,10)              94.5202         estimate D2E/DX2                !
 ! A7    A(4,1,12)              85.4909         estimate D2E/DX2                !
 ! A8    A(6,1,8)               94.5316         estimate D2E/DX2                !
 ! A9    A(6,1,10)              85.4795         estimate D2E/DX2                !
 ! A10   A(6,1,12)              94.5094         estimate D2E/DX2                !
 ! A11   A(8,1,10)              94.51           estimate D2E/DX2                !
 ! A12   A(8,1,12)              85.4947         estimate D2E/DX2                !
 ! A13   A(1,2,3)              117.3777         estimate D2E/DX2                !
 ! A14   A(1,2,17)             124.259          estimate D2E/DX2                !
 ! A15   A(3,2,17)             106.9539         estimate D2E/DX2                !
 ! A16   A(1,4,5)              124.2845         estimate D2E/DX2                !
 ! A17   A(1,4,15)             117.3626         estimate D2E/DX2                !
 ! A18   A(5,4,15)             106.943          estimate D2E/DX2                !
 ! A19   A(1,6,7)              124.3052         estimate D2E/DX2                !
 ! A20   A(1,6,18)             117.4026         estimate D2E/DX2                !
 ! A21   A(7,6,18)             106.9445         estimate D2E/DX2                !
 ! A22   A(1,8,9)              117.371          estimate D2E/DX2                !
 ! A23   A(1,8,19)             124.2685         estimate D2E/DX2                !
 ! A24   A(9,8,19)             106.9564         estimate D2E/DX2                !
 ! A25   A(1,10,11)            117.3653         estimate D2E/DX2                !
 ! A26   A(1,10,14)            124.2805         estimate D2E/DX2                !
 ! A27   A(11,10,14)           106.936          estimate D2E/DX2                !
 ! A28   A(1,12,13)            117.3695         estimate D2E/DX2                !
 ! A29   A(1,12,16)            124.2981         estimate D2E/DX2                !
 ! A30   A(13,12,16)           106.9406         estimate D2E/DX2                !
 ! A31   L(2,1,8,4,-1)         179.9986         estimate D2E/DX2                !
 ! A32   L(4,1,6,2,-1)         179.9693         estimate D2E/DX2                !
 ! A33   L(10,1,12,2,-1)       179.9953         estimate D2E/DX2                !
 ! A34   L(2,1,8,4,-2)         179.986          estimate D2E/DX2                !
 ! A35   L(4,1,6,2,-2)         180.0019         estimate D2E/DX2                !
 ! A36   L(10,1,12,2,-2)       179.9892         estimate D2E/DX2                !
 ! D1    D(4,1,2,3)           -167.0455         estimate D2E/DX2                !
 ! D2    D(4,1,2,17)           -28.4524         estimate D2E/DX2                !
 ! D3    D(6,1,2,3)             12.9526         estimate D2E/DX2                !
 ! D4    D(6,1,2,17)           151.5456         estimate D2E/DX2                !
 ! D5    D(10,1,2,3)            98.7618         estimate D2E/DX2                !
 ! D6    D(10,1,2,17)         -122.6451         estimate D2E/DX2                !
 ! D7    D(12,1,2,3)           -81.2273         estimate D2E/DX2                !
 ! D8    D(12,1,2,17)           57.3657         estimate D2E/DX2                !
 ! D9    D(3,2,8,9)            179.9225         estimate D2E/DX2                !
 ! D10   D(3,2,8,19)            41.3129         estimate D2E/DX2                !
 ! D11   D(17,2,8,9)           -41.4919         estimate D2E/DX2                !
 ! D12   D(17,2,8,19)          179.8985         estimate D2E/DX2                !
 ! D13   D(2,1,4,5)            -57.404          estimate D2E/DX2                !
 ! D14   D(2,1,4,15)            81.1827         estimate D2E/DX2                !
 ! D15   D(8,1,4,5)            122.61           estimate D2E/DX2                !
 ! D16   D(8,1,4,15)           -98.8033         estimate D2E/DX2                !
 ! D17   D(10,1,4,5)            28.4294         estimate D2E/DX2                !
 ! D18   D(10,1,4,15)          167.0162         estimate D2E/DX2                !
 ! D19   D(12,1,4,5)          -151.5667         estimate D2E/DX2                !
 ! D20   D(12,1,4,15)          -12.9799         estimate D2E/DX2                !
 ! D21   D(5,4,6,7)           -179.9206         estimate D2E/DX2                !
 ! D22   D(5,4,6,18)            41.3754         estimate D2E/DX2                !
 ! D23   D(15,4,6,7)           -41.3507         estimate D2E/DX2                !
 ! D24   D(15,4,6,18)          179.9452         estimate D2E/DX2                !
 ! D25   D(2,1,6,7)           -122.535          estimate D2E/DX2                !
 ! D26   D(2,1,6,18)            98.7779         estimate D2E/DX2                !
 ! D27   D(8,1,6,7)             57.451          estimate D2E/DX2                !
 ! D28   D(8,1,6,18)           -81.2361         estimate D2E/DX2                !
 ! D29   D(10,1,6,7)           151.6292         estimate D2E/DX2                !
 ! D30   D(10,1,6,18)           12.9422         estimate D2E/DX2                !
 ! D31   D(12,1,6,7)           -28.3747         estimate D2E/DX2                !
 ! D32   D(12,1,6,18)         -167.0617         estimate D2E/DX2                !
 ! D33   D(4,1,8,9)            -13.0381         estimate D2E/DX2                !
 ! D34   D(4,1,8,19)          -151.6401         estimate D2E/DX2                !
 ! D35   D(6,1,8,9)            166.9639         estimate D2E/DX2                !
 ! D36   D(6,1,8,19)            28.3618         estimate D2E/DX2                !
 ! D37   D(10,1,8,9)            81.1535         estimate D2E/DX2                !
 ! D38   D(10,1,8,19)          -57.4486         estimate D2E/DX2                !
 ! D39   D(12,1,8,9)           -98.8574         estimate D2E/DX2                !
 ! D40   D(12,1,8,19)          122.5406         estimate D2E/DX2                !
 ! D41   D(2,1,10,11)           13.0698         estimate D2E/DX2                !
 ! D42   D(2,1,10,14)          151.641          estimate D2E/DX2                !
 ! D43   D(4,1,10,11)          -81.1005         estimate D2E/DX2                !
 ! D44   D(4,1,10,14)           57.4708         estimate D2E/DX2                !
 ! D45   D(6,1,10,11)           98.8687         estimate D2E/DX2                !
 ! D46   D(6,1,10,14)         -122.5601         estimate D2E/DX2                !
 ! D47   D(8,1,10,11)         -166.9298         estimate D2E/DX2                !
 ! D48   D(8,1,10,14)          -28.3585         estimate D2E/DX2                !
 ! D49   D(11,10,12,13)       -179.8683         estimate D2E/DX2                !
 ! D50   D(11,10,12,16)         41.5225         estimate D2E/DX2                !
 ! D51   D(14,10,12,13)        -41.2916         estimate D2E/DX2                !
 ! D52   D(14,10,12,16)       -179.9007         estimate D2E/DX2                !
 ! D53   D(2,1,12,13)          167.067          estimate D2E/DX2                !
 ! D54   D(2,1,12,16)           28.4524         estimate D2E/DX2                !
 ! D55   D(4,1,12,13)          -98.7615         estimate D2E/DX2                !
 ! D56   D(4,1,12,16)          122.6238         estimate D2E/DX2                !
 ! D57   D(6,1,12,13)           81.2693         estimate D2E/DX2                !
 ! D58   D(6,1,12,16)          -57.3453         estimate D2E/DX2                !
 ! D59   D(8,1,12,13)          -12.9334         estimate D2E/DX2                !
 ! D60   D(8,1,12,16)         -151.548          estimate D2E/DX2                !
 --------------------------------------------------------------------------------
 Trust Radius=3.00D-01 FncErr=1.00D-07 GrdErr=1.00D-07 EigMax=2.50D+02 EigMin=1.00D-04
 Number of steps in this run=    114 maximum allowed number of steps=    114.
 GradGradGradGradGradGradGradGradGradGradGradGradGradGradGradGradGradGrad

 Leave Link  103 at Sun May 15 11:11:58 2022, MaxMem=   104857600 cpu:               0.1 elap:               0.0
 (Enter /apps/software/g16/l202.exe)
                          Input orientation:                          
 ---------------------------------------------------------------------
 Center     Atomic      Atomic             Coordinates (Angstroms)
 Number     Number       Type             X           Y           Z
 ---------------------------------------------------------------------
      1         26           0       -0.642572    0.518039    0.115153
      2          8           0        0.111747    2.150274   -0.780033
      3          1           0        0.707668    2.715906   -0.253469
      4          8           0       -1.311938   -0.302544   -1.591540
      5          1           0       -1.936484    0.130931   -2.200908
      6          8           0        0.027209    1.339406    1.821227
      7          1           0        0.652588    0.906869    2.430403
      8          8           0       -1.396481   -1.114448    1.010239
      9          1           0       -1.993314   -1.679405    0.483975
     10          8           0       -2.286820    1.633408    0.410054
     11          1           0       -2.353770    2.472911   -0.083018
     12          8           0        1.001944   -0.597123   -0.179502
     13          1           0        1.068078   -1.437588    0.312025
     14          1           0       -3.189221    1.272802    0.480364
     15          1           0       -0.665220   -0.783520   -2.141795
     16          1           0        1.904546   -0.236783   -0.248450
     17          1           0        0.437767    2.171136   -1.697943
     18          1           0       -0.618756    1.821240    2.371599
     19          1           0       -1.721260   -1.135950    1.928569
 ---------------------------------------------------------------------
                    Distance matrix (angstroms):
                    1          2          3          4          5
     1  Fe   0.000000
     2  O    2.008617   0.000000
     3  H    2.605695   0.975875   0.000000
     4  O    2.008534   2.949871   3.870438   0.000000
     5  H    2.681081   3.208095   4.179253   0.974314   0.000000
     6  O    2.008467   2.726024   2.581112   4.017000   4.636169
     7  H    2.681233   3.485034   3.237100   4.636601   5.362314
     8  O    2.008625   4.017242   4.549287   2.726828   3.486264
     9  H    2.605627   4.549223   5.211323   2.582204   3.238694
    10  O    2.008623   2.727009   3.252541   2.950370   3.032704
    11  H    2.605570   2.582382   3.075793   3.326289   3.185035
    12  O    2.008691   2.949793   3.326896   2.726661   3.640124
    13  H    2.605678   3.870389   4.207279   3.252132   4.219298
    14  H    2.681132   3.640734   4.219811   3.209158   3.172135
    15  H    2.605452   3.326442   4.206731   0.975891   1.567108
    16  H    2.681376   3.032285   3.186051   3.486257   4.324444
    17  H    2.680891   0.974312   1.567204   3.031812   3.170563
    18  H    2.605849   3.251873   3.074216   4.549442   5.049887
    19  H    2.680994   4.636346   5.049532   3.640505   4.324799
                    6          7          8          9         10
     6  O    0.000000
     7  H    0.974311   0.000000
     8  O    2.950592   3.209559   0.000000
     9  H    3.870914   4.180692   0.975879   0.000000
    10  O    2.726276   3.640026   2.950194   3.326611   0.000000
    11  H    3.252698   4.219948   3.870498   4.206321   0.975893
    12  O    2.950113   3.032432   2.726820   3.253168   4.017314
    13  H    3.327581   3.186948   2.581854   3.075737   4.549282
    14  H    3.485365   4.323893   3.032103   3.185237   0.974324
    15  H    4.548825   5.049656   3.252626   3.075892   3.870796
    16  H    3.208166   3.170425   3.640244   4.220299   4.636680
    17  H    3.639353   4.322935   4.636138   5.049513   3.486571
    18  H    0.975881   1.567114   3.328125   4.207974   2.581739
    19  H    3.032499   3.171766   0.974307   1.567229   3.208597
                   11         12         13         14         15
    11  H    0.000000
    12  O    4.549201   0.000000
    13  H    5.211248   0.975886   0.000000
    14  H    1.567047   4.636584   5.049668   0.000000
    15  H    4.206436   2.581622   3.074632   4.180282   0.000000
    16  H    5.050056   0.974316   1.567082   5.362507   3.238421
    17  H    3.239094   3.207370   4.178536   4.325167   3.184898
    18  H    3.075726   3.870822   4.207994   3.238030   5.211300
    19  H    4.179764   3.485704   3.237994   3.170851   4.219868
                   16         17         18         19
    16  H    0.000000
    17  H    3.170260   0.000000
    18  H    4.179374   4.218986   0.000000
    19  H    4.323701   5.361884   3.186967   0.000000
 Stoichiometry    FeH12O6(2+,5)
 Framework group  C1[X(FeH12O6)]
 Deg. of freedom    51
 Full point group                 C1      NOp   1
 Largest Abelian subgroup         C1      NOp   1
 Largest concise Abelian subgroup C1      NOp   1
                         Standard orientation:                         
 ---------------------------------------------------------------------
 Center     Atomic      Atomic             Coordinates (Angstroms)
 Number     Number       Type             X           Y           Z
 ---------------------------------------------------------------------
      1         26           0        0.000065    0.000163   -0.000017
      2          8           0       -1.246719   -1.256779    0.948755
      3          1           0       -1.906773   -1.728539    0.406440
      4          8           0        1.248166    0.192856    1.561816
      5          1           0        0.978517    0.504619    2.444641
      6          8           0       -1.248574   -0.193244   -1.561244
      7          1           0       -0.979714   -0.505995   -2.443958
      8          8           0        1.247144    1.256732   -0.948912
      9          1           0        1.906411    1.729332   -0.406365
     10          8           0       -1.247341    1.449656    0.614407
     11          1           0       -1.905699    1.215874    1.295786
     12          8           0        1.247217   -1.449530   -0.614705
     13          1           0        1.906902   -1.215343   -1.294651
     14          1           0       -0.977458    2.370268    0.784533
     15          1           0        1.907641   -0.513331    1.698765
     16          1           0        0.977196   -2.369840   -0.786194
     17          1           0       -0.975734   -1.865439    1.659658
     18          1           0       -1.908858    0.512144   -1.698350
     19          1           0        0.976718    1.864477   -1.660803
 ---------------------------------------------------------------------
 Rotational constants (GHZ):           1.7156112           1.5579535           1.5576482
 Leave Link  202 at Sun May 15 11:11:58 2022, MaxMem=   104857600 cpu:               0.1 elap:               0.0
 (Enter /apps/software/g16/l301.exe)
 Standard basis: def2SVP (5D, 7F)
 Ernie: Thresh=  0.10000D-02 Tol=  0.10000D-05 Strict=F.
 There are   186 symmetry adapted cartesian basis functions of A   symmetry.
 There are   175 symmetry adapted basis functions of A   symmetry.
   175 basis functions,   315 primitive gaussians,   186 cartesian basis functions
    44 alpha electrons       40 beta electrons
       nuclear repulsion energy       695.7934702665 Hartrees.
 IExCor=    0 DFT=F Ex=HF Corr=None ExCW=0 ScaHFX=  1.000000
 ScaDFX=  1.000000  1.000000  1.000000  1.000000 ScalE2=  1.000000  1.000000
 IRadAn=      5 IRanWt=     -1 IRanGd=            0 ICorTp=0 IEmpDi=  4
 NAtoms=   19 NActive=   19 NUniq=   19 SFac= 1.00D+00 NAtFMM=   60 NAOKFM=F Big=F
 Integral buffers will be    131072 words long.
 Raffenetti 2 integral format.
 Two-electron integral symmetry is turned on.
 Leave Link  301 at Sun May 15 11:11:58 2022, MaxMem=   104857600 cpu:               0.8 elap:               0.1
 (Enter /apps/software/g16/l302.exe)
 NPDir=0 NMtPBC=     1 NCelOv=     1 NCel=       1 NClECP=     1 NCelD=      1
         NCelK=      1 NCelE2=     1 NClLst=     1 CellRange=     0.0.
 One-electron integrals computed using PRISM.
 One-electron integral symmetry used in STVInt
 PrsmSu:  requested number of processors reduced to:  13 ShMem   1 Linda.
   1 Symmetry operations used in ECPInt.
 ECPInt:  NShTT=    3486 NPrTT=   13195 LenC2=    3466 LenP2D=   10516.
 LDataN:  DoStor=T MaxTD1= 6 Len=  172
 NBasis=   175 RedAO= T EigKep=  1.37D-02  NBF=   175
 NBsUse=   175 1.00D-06 EigRej= -1.00D+00 NBFU=   175
 Leave Link  302 at Sun May 15 11:11:58 2022, MaxMem=   104857600 cpu:               2.0 elap:               0.1
 (Enter /apps/software/g16/l303.exe)
 DipDrv:  MaxL=1.
 Leave Link  303 at Sun May 15 11:11:59 2022, MaxMem=   104857600 cpu:               0.4 elap:               0.0
 (Enter /apps/software/g16/l401.exe)
 ExpMin= 3.37D-02 ExpMax= 6.09D+04 ExpMxC= 9.15D+03 IAcc=3 IRadAn=         5 AccDes= 0.00D+00
 Harris functional with IExCor=  205 and IRadAn=       5 diagonalized for initial guess.
 HarFok:  IExCor=  205 AccDes= 0.00D+00 IRadAn=         5 IDoV= 1 UseB2=F ITyADJ=14
 ICtDFT=  3500011 ScaDFX=  1.000000  1.000000  1.000000  1.000000
 FoFCou: FMM=F IPFlag=           0 FMFlag=      100000 FMFlg1=           0
         NFxFlg=           0 DoJE=T BraDBF=F KetDBF=T FulRan=T
         wScrn=  0.000000 ICntrl=       500 IOpCl=  0 I1Cent=   200000004 NGrid=           0
         NMat0=    1 NMatS0=      1 NMatT0=    0 NMatD0=    1 NMtDS0=    0 NMtDT0=    0
 Petite list used in FoFCou.
 Harris En= -1717.55711281180    
 JPrj=0 DoOrth=F DoCkMO=F.
 Initial guess <Sx>= 0.0000 <Sy>= 0.0000 <Sz>= 2.0000 <S**2>= 6.0000 S= 2.0000
 Leave Link  401 at Sun May 15 11:11:59 2022, MaxMem=   104857600 cpu:               4.6 elap:               0.3
 (Enter /apps/software/g16/l502.exe)
 Integral symmetry usage will be decided dynamically.
 UHF open shell SCF:
 Using DIIS extrapolation, IDIIS=  1040.
 NGot=   104857600 LenX=   104783221 LenY=   104748184
 Requested convergence on RMS density matrix=1.00D-08 within 128 cycles.
 Requested convergence on MAX density matrix=1.00D-06.
 Requested convergence on             energy=1.00D-06.
 No special actions if energy rises.
 Fock matrices will be formed incrementally for  20 cycles.

 Cycle   1  Pass 0  IDiag  1:
 FoFJK:  IHMeth= 1 ICntrl=       0 DoSepK=F KAlg= 0 I1Cent=           0 FoldK=F
 IRaf= 980000000 NMat=       1 IRICut=       1 DoRegI=T DoRafI=F ISym2E= 0 IDoP0=0 IntGTp=1.
 FoFCou: FMM=F IPFlag=           0 FMFlag=      100000 FMFlg1=           0
         NFxFlg=           0 DoJE=F BraDBF=F KetDBF=F FulRan=T
         wScrn=  0.000000 ICntrl=         0 IOpCl=  1 I1Cent=           0 NGrid=           0
         NMat0=    1 NMatS0=      1 NMatT0=    0 NMatD0=    1 NMtDS0=    0 NMtDT0=    0
 Symmetry not used in FoFCou.
 E= -1717.31849503778    
 DIIS: error= 4.32D-02 at cycle   1 NSaved=   1.
 NSaved= 1 IEnMin= 1 EnMin= -1717.31849503778     IErMin= 1 ErrMin= 4.32D-02
 ErrMax= 4.32D-02  0.00D+00 EMaxC= 1.00D-01 BMatC= 2.21D+00 BMatP= 2.21D+00
 IDIUse=3 WtCom= 5.68D-01 WtEn= 4.32D-01
 Coeff-Com:  0.100D+01
 Coeff-En:   0.100D+01
 Coeff:      0.100D+01
 Gap=     0.561 Goal=   None    Shift=    0.000
 Gap=     0.714 Goal=   None    Shift=    0.000
 GapD=    0.561 DampG=2.000 DampE=0.250 DampFc=0.5000 IDamp=-1.
 Damping current iteration by 5.00D-01
 RMSDP=3.63D-03 MaxDP=8.33D-02              OVMax= 1.18D-01

 Cycle   2  Pass 0  IDiag  1:
 RMSU=  1.81D-03    CP:  9.95D-01
 E= -1717.50988626987     Delta-E=       -0.191391232091 Rises=F Damp=T
 DIIS: error= 1.96D-02 at cycle   2 NSaved=   2.
 NSaved= 2 IEnMin= 2 EnMin= -1717.50988626987     IErMin= 2 ErrMin= 1.96D-02
 ErrMax= 1.96D-02  0.00D+00 EMaxC= 1.00D-01 BMatC= 3.85D-01 BMatP= 2.21D+00
 IDIUse=3 WtCom= 8.04D-01 WtEn= 1.96D-01
 Coeff-Com: -0.464D+00 0.146D+01
 Coeff-En:   0.000D+00 0.100D+01
 Coeff:     -0.373D+00 0.137D+01
 Gap=     0.579 Goal=   None    Shift=    0.000
 Gap=     0.492 Goal=   None    Shift=    0.000
 RMSDP=1.49D-03 MaxDP=4.95D-02 DE=-1.91D-01 OVMax= 4.62D-02

 Cycle   3  Pass 0  IDiag  1:
 RMSU=  1.07D-03    CP:  9.93D-01  1.57D+00
 E= -1717.70373337679     Delta-E=       -0.193847106926 Rises=F Damp=F
 DIIS: error= 4.21D-03 at cycle   3 NSaved=   3.
 NSaved= 3 IEnMin= 3 EnMin= -1717.70373337679     IErMin= 3 ErrMin= 4.21D-03
 ErrMax= 4.21D-03  0.00D+00 EMaxC= 1.00D-01 BMatC= 1.37D-02 BMatP= 3.85D-01
 IDIUse=3 WtCom= 9.58D-01 WtEn= 4.21D-02
 Coeff-Com: -0.728D-01 0.418D-01 0.103D+01
 Coeff-En:   0.000D+00 0.000D+00 0.100D+01
 Coeff:     -0.697D-01 0.401D-01 0.103D+01
 Gap=     0.595 Goal=   None    Shift=    0.000
 Gap=     0.508 Goal=   None    Shift=    0.000
 RMSDP=3.42D-04 MaxDP=1.14D-02 DE=-1.94D-01 OVMax= 1.89D-02

 Cycle   4  Pass 0  IDiag  1:
 RMSU=  1.94D-04    CP:  9.93D-01  1.69D+00  1.17D+00
 E= -1717.70817571231     Delta-E=       -0.004442335514 Rises=F Damp=F
 DIIS: error= 1.56D-03 at cycle   4 NSaved=   4.
 NSaved= 4 IEnMin= 4 EnMin= -1717.70817571231     IErMin= 4 ErrMin= 1.56D-03
 ErrMax= 1.56D-03  0.00D+00 EMaxC= 1.00D-01 BMatC= 6.22D-04 BMatP= 1.37D-02
 IDIUse=3 WtCom= 9.84D-01 WtEn= 1.56D-02
 Coeff-Com:  0.214D-01-0.392D-01-0.141D+00 0.116D+01
 Coeff-En:   0.000D+00 0.000D+00 0.000D+00 0.100D+01
 Coeff:      0.210D-01-0.386D-01-0.139D+00 0.116D+01
 Gap=     0.590 Goal=   None    Shift=    0.000
 Gap=     0.498 Goal=   None    Shift=    0.000
 RMSDP=1.10D-04 MaxDP=5.03D-03 DE=-4.44D-03 OVMax= 6.75D-03

 Cycle   5  Pass 0  IDiag  1:
 RMSU=  6.97D-05    CP:  9.92D-01  1.70D+00  1.23D+00  1.23D+00
 E= -1717.70846617088     Delta-E=       -0.000290458572 Rises=F Damp=F
 DIIS: error= 5.96D-04 at cycle   5 NSaved=   5.
 NSaved= 5 IEnMin= 5 EnMin= -1717.70846617088     IErMin= 5 ErrMin= 5.96D-04
 ErrMax= 5.96D-04  0.00D+00 EMaxC= 1.00D-01 BMatC= 8.65D-05 BMatP= 6.22D-04
 IDIUse=3 WtCom= 9.94D-01 WtEn= 5.96D-03
 Coeff-Com:  0.820D-02-0.116D-01-0.806D-01 0.195D+00 0.889D+00
 Coeff-En:   0.000D+00 0.000D+00 0.000D+00 0.000D+00 0.100D+01
 Coeff:      0.816D-02-0.116D-01-0.801D-01 0.194D+00 0.890D+00
 Gap=     0.593 Goal=   None    Shift=    0.000
 Gap=     0.501 Goal=   None    Shift=    0.000
 RMSDP=3.01D-05 MaxDP=1.39D-03 DE=-2.90D-04 OVMax= 1.37D-03

 Cycle   6  Pass 0  IDiag  1:
 RMSU=  2.33D-05    CP:  9.92D-01  1.71D+00  1.24D+00  1.32D+00  9.17D-01
 E= -1717.70849445073     Delta-E=       -0.000028279848 Rises=F Damp=F
 DIIS: error= 2.55D-04 at cycle   6 NSaved=   6.
 NSaved= 6 IEnMin= 6 EnMin= -1717.70849445073     IErMin= 6 ErrMin= 2.55D-04
 ErrMax= 2.55D-04  0.00D+00 EMaxC= 1.00D-01 BMatC= 1.06D-05 BMatP= 8.65D-05
 IDIUse=3 WtCom= 9.97D-01 WtEn= 2.55D-03
 Coeff-Com: -0.354D-02 0.687D-02 0.265D-01-0.158D+00-0.197D+00 0.132D+01
 Coeff-En:   0.000D+00 0.000D+00 0.000D+00 0.000D+00 0.000D+00 0.100D+01
 Coeff:     -0.353D-02 0.685D-02 0.264D-01-0.157D+00-0.196D+00 0.132D+01
 Gap=     0.592 Goal=   None    Shift=    0.000
 Gap=     0.500 Goal=   None    Shift=    0.000
 RMSDP=1.61D-05 MaxDP=7.53D-04 DE=-2.83D-05 OVMax= 9.31D-04

 Cycle   7  Pass 0  IDiag  1:
 RMSU=  5.36D-06    CP:  9.92D-01  1.71D+00  1.24D+00  1.35D+00  1.06D+00
                    CP:  1.42D+00
 E= -1717.70850028268     Delta-E=       -0.000005831952 Rises=F Damp=F
 DIIS: error= 3.47D-05 at cycle   7 NSaved=   7.
 NSaved= 7 IEnMin= 7 EnMin= -1717.70850028268     IErMin= 7 ErrMin= 3.47D-05
 ErrMax= 3.47D-05  0.00D+00 EMaxC= 1.00D-01 BMatC= 9.68D-07 BMatP= 1.06D-05
 IDIUse=1 WtCom= 1.00D+00 WtEn= 0.00D+00
 Coeff-Com: -0.611D-03 0.598D-03 0.727D-02-0.406D-02-0.860D-01-0.115D+00
 Coeff-Com:  0.120D+01
 Coeff:     -0.611D-03 0.598D-03 0.727D-02-0.406D-02-0.860D-01-0.115D+00
 Coeff:      0.120D+01
 Gap=     0.592 Goal=   None    Shift=    0.000
 Gap=     0.500 Goal=   None    Shift=    0.000
 RMSDP=5.10D-06 MaxDP=1.37D-04 DE=-5.83D-06 OVMax= 1.93D-04

 Initial convergence to 1.0D-05 achieved.  Increase integral accuracy.
 Cycle   8  Pass 1  IDiag  1:
 E= -1717.70850081353     Delta-E=       -0.000000530849 Rises=F Damp=F
 DIIS: error= 1.35D-05 at cycle   1 NSaved=   1.
 NSaved= 1 IEnMin= 1 EnMin= -1717.70850081353     IErMin= 1 ErrMin= 1.35D-05
 ErrMax= 1.35D-05  0.00D+00 EMaxC= 1.00D-01 BMatC= 1.04D-07 BMatP= 1.04D-07
 IDIUse=1 WtCom= 1.00D+00 WtEn= 0.00D+00
 Coeff-Com:  0.100D+01
 Coeff:      0.100D+01
 Gap=     0.592 Goal=   None    Shift=    0.000
 Gap=     0.500 Goal=   None    Shift=    0.000
 RMSDP=5.10D-06 MaxDP=1.37D-04 DE=-5.31D-07 OVMax= 2.92D-05

 Cycle   9  Pass 1  IDiag  1:
 RMSU=  9.37D-07    CP:  1.00D+00
 E= -1717.70850086344     Delta-E=       -0.000000049910 Rises=F Damp=F
 DIIS: error= 6.59D-06 at cycle   2 NSaved=   2.
 NSaved= 2 IEnMin= 2 EnMin= -1717.70850086344     IErMin= 2 ErrMin= 6.59D-06
 ErrMax= 6.59D-06  0.00D+00 EMaxC= 1.00D-01 BMatC= 3.89D-08 BMatP= 1.04D-07
 IDIUse=1 WtCom= 1.00D+00 WtEn= 0.00D+00
 Coeff-Com: -0.908D+00 0.191D+01
 Coeff:     -0.908D+00 0.191D+01
 Gap=     0.592 Goal=   None    Shift=    0.000
 Gap=     0.500 Goal=   None    Shift=    0.000
 RMSDP=1.06D-06 MaxDP=2.73D-05 DE=-4.99D-08 OVMax= 3.61D-05

 Cycle  10  Pass 1  IDiag  1:
 RMSU=  4.24D-07    CP:  1.00D+00  2.04D+00
 E= -1717.70850089355     Delta-E=       -0.000000030112 Rises=F Damp=F
 DIIS: error= 3.20D-06 at cycle   3 NSaved=   3.
 NSaved= 3 IEnMin= 3 EnMin= -1717.70850089355     IErMin= 3 ErrMin= 3.20D-06
 ErrMax= 3.20D-06  0.00D+00 EMaxC= 1.00D-01 BMatC= 6.32D-09 BMatP= 3.89D-08
 IDIUse=1 WtCom= 1.00D+00 WtEn= 0.00D+00
 Coeff-Com: -0.353D+00 0.316D+00 0.104D+01
 Coeff:     -0.353D+00 0.316D+00 0.104D+01
 Gap=     0.592 Goal=   None    Shift=    0.000
 Gap=     0.500 Goal=   None    Shift=    0.000
 RMSDP=4.16D-07 MaxDP=1.14D-05 DE=-3.01D-08 OVMax= 1.37D-05

 Cycle  11  Pass 1  IDiag  1:
 RMSU=  1.61D-07    CP:  1.00D+00  2.44D+00  1.15D+00
 E= -1717.70850089784     Delta-E=       -0.000000004287 Rises=F Damp=F
 DIIS: error= 1.03D-06 at cycle   4 NSaved=   4.
 NSaved= 4 IEnMin= 4 EnMin= -1717.70850089784     IErMin= 4 ErrMin= 1.03D-06
 ErrMax= 1.03D-06  0.00D+00 EMaxC= 1.00D-01 BMatC= 9.14D-10 BMatP= 6.32D-09
 IDIUse=1 WtCom= 1.00D+00 WtEn= 0.00D+00
 Coeff-Com:  0.238D+00-0.404D+00-0.210D+00 0.138D+01
 Coeff:      0.238D+00-0.404D+00-0.210D+00 0.138D+01
 Gap=     0.592 Goal=   None    Shift=    0.000
 Gap=     0.500 Goal=   None    Shift=    0.000
 RMSDP=1.63D-07 MaxDP=4.45D-06 DE=-4.29D-09 OVMax= 6.01D-06

 Cycle  12  Pass 1  IDiag  1:
 RMSU=  5.76D-08    CP:  1.00D+00  2.53D+00  1.38D+00  1.55D+00
 E= -1717.70850089852     Delta-E=       -0.000000000678 Rises=F Damp=F
 DIIS: error= 4.33D-07 at cycle   5 NSaved=   5.
 NSaved= 5 IEnMin= 5 EnMin= -1717.70850089852     IErMin= 5 ErrMin= 4.33D-07
 ErrMax= 4.33D-07  0.00D+00 EMaxC= 1.00D-01 BMatC= 1.21D-10 BMatP= 9.14D-10
 IDIUse=1 WtCom= 1.00D+00 WtEn= 0.00D+00
 Coeff-Com:  0.635D-01-0.672D-01-0.165D+00 0.895D-01 0.108D+01
 Coeff:      0.635D-01-0.672D-01-0.165D+00 0.895D-01 0.108D+01
 Gap=     0.592 Goal=   None    Shift=    0.000
 Gap=     0.500 Goal=   None    Shift=    0.000
 RMSDP=5.23D-08 MaxDP=1.79D-06 DE=-6.78D-10 OVMax= 3.04D-06

 Cycle  13  Pass 1  IDiag  1:
 RMSU=  2.45D-08    CP:  1.00D+00  2.54D+00  1.43D+00  1.76D+00  1.30D+00
 E= -1717.70850089860     Delta-E=       -0.000000000086 Rises=F Damp=F
 DIIS: error= 3.07D-07 at cycle   6 NSaved=   6.
 NSaved= 6 IEnMin= 6 EnMin= -1717.70850089860     IErMin= 6 ErrMin= 3.07D-07
 ErrMax= 3.07D-07  0.00D+00 EMaxC= 1.00D-01 BMatC= 2.24D-11 BMatP= 1.21D-10
 IDIUse=1 WtCom= 1.00D+00 WtEn= 0.00D+00
 Coeff-Com: -0.383D-01 0.653D-01 0.316D-01-0.208D+00-0.305D-01 0.118D+01
 Coeff:     -0.383D-01 0.653D-01 0.316D-01-0.208D+00-0.305D-01 0.118D+01
 Gap=     0.592 Goal=   None    Shift=    0.000
 Gap=     0.500 Goal=   None    Shift=    0.000
 RMSDP=2.48D-08 MaxDP=1.76D-06 DE=-8.59D-11 OVMax= 3.08D-06

 Cycle  14  Pass 1  IDiag  1:
 RMSU=  1.07D-08    CP:  1.00D+00  2.54D+00  1.43D+00  1.83D+00  1.58D+00
                    CP:  1.44D+00
 E= -1717.70850089862     Delta-E=       -0.000000000019 Rises=F Damp=F
 DIIS: error= 3.06D-07 at cycle   7 NSaved=   7.
 NSaved= 7 IEnMin= 7 EnMin= -1717.70850089862     IErMin= 7 ErrMin= 3.06D-07
 ErrMax= 3.06D-07  0.00D+00 EMaxC= 1.00D-01 BMatC= 8.10D-12 BMatP= 2.24D-11
 IDIUse=1 WtCom= 1.00D+00 WtEn= 0.00D+00
 Coeff-Com: -0.109D-01 0.125D-01 0.255D-01-0.232D-01-0.155D+00 0.495D-01
 Coeff-Com:  0.110D+01
 Coeff:     -0.109D-01 0.125D-01 0.255D-01-0.232D-01-0.155D+00 0.495D-01
 Coeff:      0.110D+01
 Gap=     0.592 Goal=   None    Shift=    0.000
 Gap=     0.500 Goal=   None    Shift=    0.000
 RMSDP=1.43D-08 MaxDP=1.15D-06 DE=-1.91D-11 OVMax= 2.81D-06

 Cycle  15  Pass 1  IDiag  1:
 RMSU=  6.19D-09    CP:  1.00D+00  2.54D+00  1.43D+00  1.84D+00  1.65D+00
                    CP:  1.78D+00  1.79D+00
 E= -1717.70850089863     Delta-E=       -0.000000000005 Rises=F Damp=F
 DIIS: error= 3.04D-07 at cycle   8 NSaved=   8.
 NSaved= 8 IEnMin= 8 EnMin= -1717.70850089863     IErMin= 8 ErrMin= 3.04D-07
 ErrMax= 3.04D-07  0.00D+00 EMaxC= 1.00D-01 BMatC= 6.52D-12 BMatP= 8.10D-12
 IDIUse=1 WtCom= 1.00D+00 WtEn= 0.00D+00
 Coeff-Com:  0.888D-02-0.126D-01-0.138D-01 0.306D-01 0.717D-01-0.143D+00
 Coeff-Com: -0.447D+00 0.151D+01
 Coeff:      0.888D-02-0.126D-01-0.138D-01 0.306D-01 0.717D-01-0.143D+00
 Coeff:     -0.447D+00 0.151D+01
 Gap=     0.592 Goal=   None    Shift=    0.000
 Gap=     0.500 Goal=   None    Shift=    0.000
 RMSDP=1.61D-08 MaxDP=1.41D-06 DE=-5.46D-12 OVMax= 3.49D-06

 Cycle  16  Pass 1  IDiag  1:
 RMSU=  2.74D-09    CP:  1.00D+00  2.54D+00  1.43D+00  1.85D+00  1.70D+00
                    CP:  2.03D+00  2.86D+00  2.44D+00
 E= -1717.70850089864     Delta-E=       -0.000000000017 Rises=F Damp=F
 DIIS: error= 3.03D-07 at cycle   9 NSaved=   9.
 NSaved= 9 IEnMin= 9 EnMin= -1717.70850089864     IErMin= 9 ErrMin= 3.03D-07
 ErrMax= 3.03D-07  0.00D+00 EMaxC= 1.00D-01 BMatC= 6.33D-12 BMatP= 6.52D-12
 IDIUse=1 WtCom= 1.00D+00 WtEn= 0.00D+00
 Coeff-Com: -0.229D-01 0.334D-01 0.330D-01-0.821D-01-0.169D+00 0.410D+00
 Coeff-Com:  0.991D+00-0.443D+01 0.424D+01
 Coeff:     -0.229D-01 0.334D-01 0.330D-01-0.821D-01-0.169D+00 0.410D+00
 Coeff:      0.991D+00-0.443D+01 0.424D+01
 Gap=     0.592 Goal=   None    Shift=    0.000
 Gap=     0.500 Goal=   None    Shift=    0.000
 RMSDP=4.59D-08 MaxDP=3.99D-06 DE=-1.73D-11 OVMax= 1.00D-05

 Cycle  17  Pass 1  IDiag  1:
 RMSU=  3.82D-08    CP:  1.00D+00  2.54D+00  1.44D+00  1.86D+00  1.81D+00
                    CP:  2.65D+00  3.00D+00  3.00D+00  3.00D+00
 E= -1717.70850089867     Delta-E=       -0.000000000030 Rises=F Damp=F
 DIIS: error= 2.98D-07 at cycle  10 NSaved=  10.
 NSaved=10 IEnMin=10 EnMin= -1717.70850089867     IErMin=10 ErrMin= 2.98D-07
 ErrMax= 2.98D-07  0.00D+00 EMaxC= 1.00D-01 BMatC= 6.09D-12 BMatP= 6.33D-12
 IDIUse=1 WtCom= 1.00D+00 WtEn= 0.00D+00
 Large coefficients: NSaved= 10 BigCof=   14.78 CofMax=   10.00 Det=-1.35D-15
 Inversion failed.  Reducing to  9 matrices.
 Coeff-Com: -0.589D-03 0.186D-02 0.700D-03 0.248D-02-0.556D-01 0.393D-01
 Coeff-Com:  0.103D+01-0.385D+01 0.383D+01
 Coeff:     -0.589D-03 0.186D-02 0.700D-03 0.248D-02-0.556D-01 0.393D-01
 Coeff:      0.103D+01-0.385D+01 0.383D+01
 Gap=     0.592 Goal=   None    Shift=    0.000
 Gap=     0.500 Goal=   None    Shift=    0.000
 RMSDP=1.23D-07 MaxDP=1.06D-05 DE=-3.00D-11 OVMax= 2.70D-05

 Cycle  18  Pass 1  IDiag  1:
 RMSU=  5.17D-08    CP:  1.00D+00  2.55D+00  1.44D+00  1.91D+00  2.13D+00
                    CP:  3.00D+00  3.00D+00  3.00D+00  3.00D+00  3.00D+00
 E= -1717.70850089876     Delta-E=       -0.000000000085 Rises=F Damp=F
 DIIS: error= 2.86D-07 at cycle  11 NSaved=  10.
 NSaved=10 IEnMin=10 EnMin= -1717.70850089876     IErMin=10 ErrMin= 2.86D-07
 ErrMax= 2.86D-07  0.00D+00 EMaxC= 1.00D-01 BMatC= 5.62D-12 BMatP= 6.09D-12
 IDIUse=1 WtCom= 1.00D+00 WtEn= 0.00D+00
 Coeff-Com:  0.541D-03-0.166D-02-0.106D-02 0.840D-04 0.543D-01-0.879D-01
 Coeff-Com: -0.101D+01 0.539D+01-0.775D+01 0.441D+01
 Coeff:      0.541D-03-0.166D-02-0.106D-02 0.840D-04 0.543D-01-0.879D-01
 Coeff:     -0.101D+01 0.539D+01-0.775D+01 0.441D+01
 Gap=     0.592 Goal=   None    Shift=    0.000
 Gap=     0.500 Goal=   None    Shift=    0.000
 RMSDP=2.46D-07 MaxDP=2.09D-05 DE=-8.50D-11 OVMax= 5.38D-05

 Cycle  19  Pass 1  IDiag  1:
 RMSU=  1.52D-07    CP:  1.00D+00  2.55D+00  1.45D+00  1.99D+00  2.76D+00
                    CP:  3.00D+00  3.00D+00  3.00D+00  3.00D+00  3.00D+00
                    CP:  3.00D+00
 E= -1717.70850089892     Delta-E=       -0.000000000159 Rises=F Damp=F
 DIIS: error= 2.61D-07 at cycle  12 NSaved=  11.
 NSaved=11 IEnMin=11 EnMin= -1717.70850089892     IErMin=11 ErrMin= 2.61D-07
 ErrMax= 2.61D-07  0.00D+00 EMaxC= 1.00D-01 BMatC= 5.04D-12 BMatP= 5.62D-12
 IDIUse=1 WtCom= 1.00D+00 WtEn= 0.00D+00
 Large coefficients: NSaved= 11 BigCof=   12.62 CofMax=   10.00 Det=-6.58D-16
 Inversion failed.  Reducing to 10 matrices.
 Large coefficients: NSaved= 10 BigCof=   11.69 CofMax=   10.00 Det=-7.15D-16
 Inversion failed.  Reducing to  9 matrices.
 Large coefficients: NSaved=  9 BigCof=   11.44 CofMax=   10.00 Det=-7.32D-16
 Inversion failed.  Reducing to  8 matrices.
 Large coefficients: NSaved=  8 BigCof=   11.45 CofMax=   10.00 Det=-7.33D-16
 Inversion failed.  Reducing to  7 matrices.
 Large coefficients: NSaved=  7 BigCof=   11.27 CofMax=   10.00 Det=-7.67D-16
 Inversion failed.  Reducing to  6 matrices.
 Coeff-Com:  0.599D-01 0.633D+00-0.540D+01 0.924D+01-0.649D+01 0.296D+01
 Coeff:      0.599D-01 0.633D+00-0.540D+01 0.924D+01-0.649D+01 0.296D+01
 Gap=     0.592 Goal=   None    Shift=    0.000
 Gap=     0.500 Goal=   None    Shift=    0.000
 RMSDP=1.35D-07 MaxDP=1.10D-05 DE=-1.59D-10 OVMax= 2.95D-05

 Cycle  20  Pass 1  IDiag  1:
 RMSU=  3.63D-08    CP:  1.00D+00  2.55D+00  1.46D+00  2.04D+00  3.00D+00
                    CP:  3.00D+00  3.00D+00  3.00D+00  3.00D+00  3.00D+00
                    CP:  3.00D+00  1.84D+00
 E= -1717.70850089900     Delta-E=       -0.000000000082 Rises=F Damp=F
 DIIS: error= 2.48D-07 at cycle  13 NSaved=   7.
 NSaved= 7 IEnMin= 7 EnMin= -1717.70850089900     IErMin= 7 ErrMin= 2.48D-07
 ErrMax= 2.48D-07  0.00D+00 EMaxC= 1.00D-01 BMatC= 4.74D-12 BMatP= 5.04D-12
 IDIUse=1 WtCom= 1.00D+00 WtEn= 0.00D+00
 Large coefficients: NSaved=  7 BigCof=   10.51 CofMax=   10.00 Det=-5.56D-16
 Inversion failed.  Reducing to  6 matrices.
 Coeff-Com: -0.208D+00 0.309D+01-0.641D+01 0.566D+01-0.534D+01 0.420D+01
 Coeff:     -0.208D+00 0.309D+01-0.641D+01 0.566D+01-0.534D+01 0.420D+01
 Gap=     0.592 Goal=   None    Shift=    0.000
 Gap=     0.500 Goal=   None    Shift=    0.000
 RMSDP=2.20D-07 MaxDP=1.72D-05 DE=-8.19D-11 OVMax= 4.84D-05

 Cycle  21  Pass 1  IDiag  1:
 RMSU=  4.04D-08    CP:  1.00D+00  2.55D+00  1.47D+00  2.11D+00  3.00D+00
                    CP:  3.00D+00  3.00D+00  3.00D+00  3.00D+00  3.00D+00
                    CP:  3.00D+00  3.00D+00  2.81D+00
 E= -1717.70850089913     Delta-E=       -0.000000000128 Rises=F Damp=F
 DIIS: error= 2.26D-07 at cycle  14 NSaved=   7.
 NSaved= 7 IEnMin= 7 EnMin= -1717.70850089913     IErMin= 7 ErrMin= 2.26D-07
 ErrMax= 2.26D-07  0.00D+00 EMaxC= 1.00D-01 BMatC= 4.12D-12 BMatP= 4.74D-12
 IDIUse=1 WtCom= 1.00D+00 WtEn= 0.00D+00
 Large coefficients: NSaved=  7 BigCof=   29.76 CofMax=   10.00 Det=-5.30D-16
 Inversion failed.  Reducing to  6 matrices.
 Coeff-Com:  0.420D+01-0.896D+01 0.714D+01-0.410D+01-0.227D+00 0.294D+01
 Coeff:      0.420D+01-0.896D+01 0.714D+01-0.410D+01-0.227D+00 0.294D+01
 Gap=     0.592 Goal=   None    Shift=    0.000
 Gap=     0.500 Goal=   None    Shift=    0.000
 RMSDP=4.72D-07 MaxDP=3.64D-05 DE=-1.28D-10 OVMax= 1.04D-04

 Cycle  22  Pass 1  IDiag  1:
 RMSU=  4.05D-07    CP:  1.00D+00  2.56D+00  1.49D+00  2.27D+00  3.00D+00
                    CP:  3.00D+00  3.00D+00  3.00D+00  3.00D+00  3.00D+00
                    CP:  3.00D+00  3.00D+00  3.00D+00  3.00D+00
 E= -1717.70850089936     Delta-E=       -0.000000000231 Rises=F Damp=F
 DIIS: error= 1.80D-07 at cycle  15 NSaved=   7.
 NSaved= 7 IEnMin= 7 EnMin= -1717.70850089936     IErMin= 7 ErrMin= 1.80D-07
 ErrMax= 1.80D-07  0.00D+00 EMaxC= 1.00D-01 BMatC= 2.85D-12 BMatP= 4.12D-12
 IDIUse=1 WtCom= 1.00D+00 WtEn= 0.00D+00
 Large coefficients: NSaved=  7 BigCof=   26.05 CofMax=   10.00 Det=-7.98D-16
 Inversion failed.  Reducing to  6 matrices.
 Coeff-Com:  0.118D+01-0.283D+01 0.684D+01-0.829D+01 0.112D+01 0.297D+01
 Coeff:      0.118D+01-0.283D+01 0.684D+01-0.829D+01 0.112D+01 0.297D+01
 Gap=     0.592 Goal=   None    Shift=    0.000
 Gap=     0.500 Goal=   None    Shift=    0.000
 RMSDP=1.17D-06 MaxDP=9.01D-05 DE=-2.31D-10 OVMax= 2.58D-04

 Cycle  23  Pass 1  IDiag  1:
 RMSU=  3.77D-07    CP:  1.00D+00  2.57D+00  1.55D+00  2.66D+00  3.00D+00
                    CP:  3.00D+00  3.00D+00  3.00D+00  3.00D+00  3.00D+00
                    CP:  3.00D+00  3.00D+00  3.00D+00  3.00D+00  3.00D+00
 E= -1717.70850089972     Delta-E=       -0.000000000362 Rises=F Damp=F
 DIIS: error= 6.61D-08 at cycle  16 NSaved=   7.
 NSaved= 7 IEnMin= 7 EnMin= -1717.70850089972     IErMin= 7 ErrMin= 6.61D-08
 ErrMax= 6.61D-08  0.00D+00 EMaxC= 1.00D-01 BMatC= 5.41D-13 BMatP= 2.85D-12
 IDIUse=1 WtCom= 1.00D+00 WtEn= 0.00D+00
 Coeff-Com: -0.684D+00 0.138D+01-0.311D+01 0.463D+01-0.164D+01-0.153D+01
 Coeff-Com:  0.195D+01
 Coeff:     -0.684D+00 0.138D+01-0.311D+01 0.463D+01-0.164D+01-0.153D+01
 Coeff:      0.195D+01
 Gap=     0.592 Goal=   None    Shift=    0.000
 Gap=     0.500 Goal=   None    Shift=    0.000
 RMSDP=5.92D-07 MaxDP=4.57D-05 DE=-3.62D-10 OVMax= 1.30D-04

 Cycle  24  Pass 1  IDiag  1:
 RMSU=  1.40D-07    CP:  1.00D+00  2.58D+00  1.58D+00  2.86D+00  3.00D+00
                    CP:  3.00D+00  3.00D+00  3.00D+00  3.00D+00  3.00D+00
                    CP:  3.00D+00  3.00D+00  3.00D+00  3.00D+00  3.00D+00
                    CP:  2.52D+00
 E= -1717.70850089977     Delta-E=       -0.000000000045 Rises=F Damp=F
 DIIS: error= 8.45D-09 at cycle  17 NSaved=   8.
 NSaved= 8 IEnMin= 8 EnMin= -1717.70850089977     IErMin= 8 ErrMin= 8.45D-09
 ErrMax= 8.45D-09  0.00D+00 EMaxC= 1.00D-01 BMatC= 3.99D-14 BMatP= 5.41D-13
 IDIUse=1 WtCom= 1.00D+00 WtEn= 0.00D+00
 Coeff-Com: -0.321D+00 0.650D+00-0.106D+01 0.100D+01-0.195D-01-0.342D+00
 Coeff-Com: -0.530D-01 0.114D+01
 Coeff:     -0.321D+00 0.650D+00-0.106D+01 0.100D+01-0.195D-01-0.342D+00
 Coeff:     -0.530D-01 0.114D+01
 Gap=     0.592 Goal=   None    Shift=    0.000
 Gap=     0.500 Goal=   None    Shift=    0.000
 RMSDP=7.30D-08 MaxDP=5.68D-06 DE=-4.55D-11 OVMax= 1.60D-05

 Cycle  25  Pass 1  IDiag  1:
 RMSU=  8.47D-10    CP:  1.00D+00  2.58D+00  1.58D+00  2.89D+00  3.00D+00
                    CP:  3.00D+00  3.00D+00  3.00D+00  3.00D+00  3.00D+00
                    CP:  3.00D+00  3.00D+00  3.00D+00  3.00D+00  3.00D+00
                    CP:  2.71D+00  1.13D+00
 E= -1717.70850089977     Delta-E=       -0.000000000006 Rises=F Damp=F
 DIIS: error= 3.17D-09 at cycle  18 NSaved=   9.
 NSaved= 9 IEnMin= 9 EnMin= -1717.70850089977     IErMin= 9 ErrMin= 3.17D-09
 ErrMax= 3.17D-09  0.00D+00 EMaxC= 1.00D-01 BMatC= 7.70D-15 BMatP= 3.99D-14
 IDIUse=1 WtCom= 1.00D+00 WtEn= 0.00D+00
 Coeff-Com:  0.146D+00-0.289D+00 0.528D+00-0.714D+00 0.248D+00 0.216D+00
 Coeff-Com: -0.276D+00 0.533D-02 0.114D+01
 Coeff:      0.146D+00-0.289D+00 0.528D+00-0.714D+00 0.248D+00 0.216D+00
 Coeff:     -0.276D+00 0.533D-02 0.114D+01
 Gap=     0.592 Goal=   None    Shift=    0.000
 Gap=     0.500 Goal=   None    Shift=    0.000
 RMSDP=1.00D-08 MaxDP=7.94D-07 DE=-6.37D-12 OVMax= 2.20D-06

 Cycle  26  Pass 1  IDiag  1:
 RMSU=  1.85D-10    CP:  1.00D+00  2.58D+00  1.58D+00  2.89D+00  3.00D+00
                    CP:  3.00D+00  3.00D+00  3.00D+00  3.00D+00  3.00D+00
                    CP:  3.00D+00  3.00D+00  3.00D+00  3.00D+00  3.00D+00
                    CP:  2.74D+00  1.14D+00  1.40D+00
 E= -1717.70850089976     Delta-E=        0.000000000010 Rises=F Damp=F
 DIIS: error= 1.52D-09 at cycle  19 NSaved=  10.
 NSaved=10 IEnMin= 9 EnMin= -1717.70850089977     IErMin=10 ErrMin= 1.52D-09
 ErrMax= 1.52D-09  0.00D+00 EMaxC= 1.00D-01 BMatC= 1.69D-15 BMatP= 7.70D-15
 IDIUse=1 WtCom= 1.00D+00 WtEn= 0.00D+00
 Coeff-Com:  0.708D-01-0.144D+00 0.249D+00-0.251D+00 0.151D-01 0.859D-01
 Coeff-Com:  0.317D-02-0.257D+00 0.274D-01 0.120D+01
 Coeff:      0.708D-01-0.144D+00 0.249D+00-0.251D+00 0.151D-01 0.859D-01
 Coeff:      0.317D-02-0.257D+00 0.274D-01 0.120D+01
 Gap=     0.592 Goal=   None    Shift=    0.000
 Gap=     0.500 Goal=   None    Shift=    0.000
 RMSDP=2.25D-09 MaxDP=1.76D-07 DE= 9.55D-12 OVMax= 4.92D-07

 SCF Done:  E(UHF) =  -1717.70850090     A.U. after   26 cycles
            NFock= 26  Conv=0.22D-08     -V/T= 2.0007
 <Sx>= 0.0000 <Sy>= 0.0000 <Sz>= 2.0000 <S**2>= 6.0057 S= 2.0011
 <L.S>=  0.00000000000    
 KE= 1.716582508128D+03 PE=-5.452798814458D+03 EE= 1.322714335163D+03
 Annihilation of the first spin contaminant:
 S**2 before annihilation     6.0057,   after     6.0000
 Leave Link  502 at Sun May 15 11:12:08 2022, MaxMem=   104857600 cpu:             151.5 elap:               9.5
 (Enter /apps/software/g16/l601.exe)
 Copying SCF densities to generalized density rwf, IOpCl= 1 IROHF=0.

 **********************************************************************

            Population analysis using the SCF density.

 **********************************************************************

 Orbital symmetries:
 Alpha Orbitals:
       Occupied  (A) (A) (A) (A) (A) (A) (A) (A) (A) (A) (A) (A)
                 (A) (A) (A) (A) (A) (A) (A) (A) (A) (A) (A) (A)
                 (A) (A) (A) (A) (A) (A) (A) (A) (A) (A) (A) (A)
                 (A) (A) (A) (A) (A) (A) (A) (A)
       Virtual   (A) (A) (A) (A) (A) (A) (A) (A) (A) (A) (A) (A)
                 (A) (A) (A) (A) (A) (A) (A) (A) (A) (A) (A) (A)
                 (A) (A) (A) (A) (A) (A) (A) (A) (A) (A) (A) (A)
                 (A) (A) (A) (A) (A) (A) (A) (A) (A) (A) (A) (A)
                 (A) (A) (A) (A) (A) (A) (A) (A) (A) (A) (A) (A)
                 (A) (A) (A) (A) (A) (A) (A) (A) (A) (A) (A) (A)
                 (A) (A) (A) (A) (A) (A) (A) (A) (A) (A) (A) (A)
                 (A) (A) (A) (A) (A) (A) (A) (A) (A) (A) (A) (A)
                 (A) (A) (A) (A) (A) (A) (A) (A) (A) (A) (A) (A)
                 (A) (A) (A) (A) (A) (A) (A) (A) (A) (A) (A) (A)
                 (A) (A) (A) (A) (A) (A) (A) (A) (A) (A) (A)
 Beta  Orbitals:
       Occupied  (A) (A) (A) (A) (A) (A) (A) (A) (A) (A) (A) (A)
                 (A) (A) (A) (A) (A) (A) (A) (A) (A) (A) (A) (A)
                 (A) (A) (A) (A) (A) (A) (A) (A) (A) (A) (A) (A)
                 (A) (A) (A) (A)
       Virtual   (A) (A) (A) (A) (A) (A) (A) (A) (A) (A) (A) (A)
                 (A) (A) (A) (A) (A) (A) (A) (A) (A) (A) (A) (A)
                 (A) (A) (A) (A) (A) (A) (A) (A) (A) (A) (A) (A)
                 (A) (A) (A) (A) (A) (A) (A) (A) (A) (A) (A) (A)
                 (A) (A) (A) (A) (A) (A) (A) (A) (A) (A) (A) (A)
                 (A) (A) (A) (A) (A) (A) (A) (A) (A) (A) (A) (A)
                 (A) (A) (A) (A) (A) (A) (A) (A) (A) (A) (A) (A)
                 (A) (A) (A) (A) (A) (A) (A) (A) (A) (A) (A) (A)
                 (A) (A) (A) (A) (A) (A) (A) (A) (A) (A) (A) (A)
                 (A) (A) (A) (A) (A) (A) (A) (A) (A) (A) (A) (A)
                 (A) (A) (A) (A) (A) (A) (A) (A) (A) (A) (A) (A)
                 (A) (A) (A)
 The electronic state is 5-A.
 Alpha  occ. eigenvalues -- -261.56919 -32.20012 -27.69939 -27.69931 -27.66522
 Alpha  occ. eigenvalues --  -20.90758 -20.90758 -20.90757 -20.90756 -20.90753
 Alpha  occ. eigenvalues --  -20.90753  -4.57237  -3.21626  -3.21608  -3.14444
 Alpha  occ. eigenvalues --   -1.69161  -1.67999  -1.67566  -1.67566  -1.67418
 Alpha  occ. eigenvalues --   -1.67418  -1.07431  -1.06728  -1.06726  -1.06724
 Alpha  occ. eigenvalues --   -1.06008  -1.06005  -1.04661  -1.04659  -1.01725
 Alpha  occ. eigenvalues --   -0.96909  -0.95772  -0.95771  -0.95142  -0.95140
 Alpha  occ. eigenvalues --   -0.88934  -0.87392  -0.87390  -0.86327  -0.86325
 Alpha  occ. eigenvalues --   -0.85593  -0.82786  -0.79244  -0.79242
 Alpha virt. eigenvalues --   -0.20009  -0.11855  -0.11853  -0.10495  -0.07179
 Alpha virt. eigenvalues --   -0.07178  -0.03402  -0.03255  -0.03254  -0.03094
 Alpha virt. eigenvalues --   -0.02109  -0.02109   0.04438   0.17507   0.18351
 Alpha virt. eigenvalues --    0.18358   0.25639   0.38742   0.44191   0.44196
 Alpha virt. eigenvalues --    0.49723   0.50285   0.50288   0.54332   0.54335
 Alpha virt. eigenvalues --    0.58595   0.59008   0.59011   0.62173   0.74517
 Alpha virt. eigenvalues --    0.75459   0.75459   0.84372   0.85824   0.85831
 Alpha virt. eigenvalues --    0.91155   0.91162   0.98296   0.98428   0.99202
 Alpha virt. eigenvalues --    0.99205   0.99924   0.99924   1.04390   1.06655
 Alpha virt. eigenvalues --    1.06658   1.07403   1.10353   1.10361   1.17809
 Alpha virt. eigenvalues --    1.17818   1.21719   1.22053   1.24413   1.24418
 Alpha virt. eigenvalues --    1.25477   1.25479   1.29825   1.30943   1.31165
 Alpha virt. eigenvalues --    1.31170   1.34865   1.34879   1.36716   1.50092
 Alpha virt. eigenvalues --    1.50099   1.52417   1.58133   1.60812   1.60816
 Alpha virt. eigenvalues --    1.71024   1.71960   1.71964   1.80483   1.80780
 Alpha virt. eigenvalues --    1.80786   1.94200   1.94203   1.99831   2.05226
 Alpha virt. eigenvalues --    2.12881   2.12893   2.19183   2.19742   2.19746
 Alpha virt. eigenvalues --    2.20494   2.20499   2.21532   2.25250   2.25256
 Alpha virt. eigenvalues --    2.25741   2.25744   2.25752   2.26380   2.91435
 Alpha virt. eigenvalues --    2.93097   2.93099   2.95529   3.01379   3.01384
 Alpha virt. eigenvalues --    3.02181   3.02183   3.02225   3.03019   3.09592
 Alpha virt. eigenvalues --    3.09604   3.17179   3.17185   3.17555   3.17744
 Alpha virt. eigenvalues --    3.26222   3.26239   3.54934   3.54943   3.55797
 Alpha virt. eigenvalues --    3.55806   3.56416   3.61003   3.84776   3.84985
 Alpha virt. eigenvalues --    3.89145   3.89148   3.93328   3.93332   4.10163
 Alpha virt. eigenvalues --    4.10941   4.16379   4.16383   4.24383   4.24549
 Alpha virt. eigenvalues --    4.24561
  Beta  occ. eigenvalues -- -261.56715 -32.07566 -27.56614 -27.56614 -27.56417
  Beta  occ. eigenvalues --  -20.90562 -20.90562 -20.90561 -20.90560 -20.90557
  Beta  occ. eigenvalues --  -20.90556  -4.22041  -2.80117  -2.75134  -2.75122
  Beta  occ. eigenvalues --   -1.68735  -1.67562  -1.67119  -1.67119  -1.66905
  Beta  occ. eigenvalues --   -1.66905  -1.07031  -1.06514  -1.05841  -1.05838
  Beta  occ. eigenvalues --   -1.05798  -1.05795  -1.00737  -0.96118  -0.94946
  Beta  occ. eigenvalues --   -0.94945  -0.94835  -0.94833  -0.86858  -0.86856
  Beta  occ. eigenvalues --   -0.86801  -0.86799  -0.86687  -0.84973  -0.69979
  Beta virt. eigenvalues --   -0.19949  -0.11751  -0.11750  -0.10435  -0.07788
  Beta virt. eigenvalues --   -0.07787  -0.03514  -0.03514  -0.03284  -0.02971
  Beta virt. eigenvalues --   -0.01968  -0.01968   0.01779   0.01780   0.05209
  Beta virt. eigenvalues --    0.12691   0.12702   0.21018   0.21091   0.21100
  Beta virt. eigenvalues --    0.27256   0.39700   0.48253   0.48257   0.49987
  Beta virt. eigenvalues --    0.50649   0.50652   0.54420   0.54424   0.58645
  Beta virt. eigenvalues --    0.59209   0.59212   0.62548   0.75594   0.81814
  Beta virt. eigenvalues --    0.81815   0.84651   0.86029   0.86036   0.92751
  Beta virt. eigenvalues --    0.92758   0.98551   0.98815   0.99376   0.99379
  Beta virt. eigenvalues --    1.01809   1.01809   1.04923   1.07007   1.07010
  Beta virt. eigenvalues --    1.07545   1.13680   1.13688   1.21470   1.21476
  Beta virt. eigenvalues --    1.21934   1.23055   1.25554   1.25556   1.31086
  Beta virt. eigenvalues --    1.31193   1.33410   1.33422   1.35316   1.35330
  Beta virt. eigenvalues --    1.36044   1.36048   1.37342   1.50634   1.50640
  Beta virt. eigenvalues --    1.52603   1.58545   1.63586   1.63589   1.71214
  Beta virt. eigenvalues --    1.72221   1.72225   1.81194   1.82394   1.82400
  Beta virt. eigenvalues --    1.95269   1.95272   2.00816   2.06918   2.16565
  Beta virt. eigenvalues --    2.16579   2.19285   2.19844   2.19848   2.20629
  Beta virt. eigenvalues --    2.20633   2.21703   2.25837   2.25845   2.25937
  Beta virt. eigenvalues --    2.25976   2.25987   2.26626   2.91676   2.93499
  Beta virt. eigenvalues --    2.93501   2.95896   3.01587   3.01592   3.02418
  Beta virt. eigenvalues --    3.02431   3.02434   3.03257   3.10344   3.10355
  Beta virt. eigenvalues --    3.17370   3.17376   3.17786   3.17927   3.27779
  Beta virt. eigenvalues --    3.27797   3.55157   3.55166   3.55998   3.56007
  Beta virt. eigenvalues --    3.56656   3.61151   3.84907   3.86039   3.90874
  Beta virt. eigenvalues --    3.90877   3.93469   3.93472   4.30533   4.35655
  Beta virt. eigenvalues --    4.36759   4.36763   4.44154   4.48563   4.48569
          Condensed to atoms (all electrons):
               1          2          3          4          5          6
     1  Fe  24.349771   0.066104  -0.003733   0.066090  -0.004913   0.066040
     2  O    0.066104   7.694457   0.339360  -0.004735   0.000211  -0.009995
     3  H   -0.003733   0.339360   0.396565   0.000092  -0.000030   0.005299
     4  O    0.066090  -0.004735   0.000092   7.694442   0.339791  -0.000043
     5  H   -0.004913   0.000211  -0.000030   0.339791   0.410130  -0.000001
     6  O    0.066040  -0.009995   0.005299  -0.000043  -0.000001   7.694536
     7  H   -0.004909   0.000278  -0.000163  -0.000001   0.000002   0.339798
     8  O    0.066106  -0.000043   0.000001  -0.009956   0.000276  -0.004721
     9  H   -0.003734   0.000001   0.000002   0.005276  -0.000163   0.000091
    10  O    0.066087  -0.009947   0.000315  -0.004726   0.002304  -0.009980
    11  H   -0.003731   0.005274  -0.000078   0.000178   0.000128   0.000316
    12  O    0.066072  -0.004735   0.000178  -0.009966   0.000111  -0.004728
    13  H   -0.003731   0.000092  -0.000019   0.000315  -0.000021   0.000177
    14  H   -0.004914   0.000111  -0.000021   0.000209   0.000139   0.000277
    15  H   -0.003735   0.000178  -0.000019   0.339344  -0.010313   0.000001
    16  H   -0.004912   0.002307   0.000127   0.000277  -0.000012   0.000211
    17  H   -0.004911   0.339776  -0.010312   0.002310   0.000140   0.000112
    18  H   -0.003732   0.000316  -0.000077   0.000001  -0.000005   0.339368
    19  H   -0.004910  -0.000001  -0.000005   0.000111  -0.000012   0.002305
               7          8          9         10         11         12
     1  Fe  -0.004909   0.066106  -0.003734   0.066087  -0.003731   0.066072
     2  O    0.000278  -0.000043   0.000001  -0.009947   0.005274  -0.004735
     3  H   -0.000163   0.000001   0.000002   0.000315  -0.000078   0.000178
     4  O   -0.000001  -0.009956   0.005276  -0.004726   0.000178  -0.009966
     5  H    0.000002   0.000276  -0.000163   0.002304   0.000128   0.000111
     6  O    0.339798  -0.004721   0.000091  -0.009980   0.000316  -0.004728
     7  H    0.410124   0.000208  -0.000030   0.000111  -0.000021   0.002306
     8  O    0.000208   7.694411   0.339361  -0.004731   0.000092  -0.009960
     9  H   -0.000030   0.339361   0.396570   0.000178  -0.000020   0.000315
    10  O    0.000111  -0.004731   0.000178   7.694439   0.339345  -0.000043
    11  H   -0.000021   0.000092  -0.000020   0.339345   0.396604   0.000001
    12  O    0.002306  -0.009960   0.000315  -0.000043   0.000001   7.694471
    13  H    0.000126   0.005283  -0.000078   0.000001   0.000002   0.339350
    14  H   -0.000012   0.002309   0.000128   0.339780  -0.010311  -0.000001
    15  H   -0.000005   0.000316  -0.000078   0.000092  -0.000020   0.005288
    16  H    0.000140   0.000111  -0.000021  -0.000001  -0.000005   0.339795
    17  H   -0.000012  -0.000001  -0.000005   0.000276  -0.000163   0.000211
    18  H   -0.010316   0.000177  -0.000019   0.005284  -0.000078   0.000092
    19  H    0.000139   0.339792  -0.010314   0.000209  -0.000030   0.000277
              13         14         15         16         17         18
     1  Fe  -0.003731  -0.004914  -0.003735  -0.004912  -0.004911  -0.003732
     2  O    0.000092   0.000111   0.000178   0.002307   0.339776   0.000316
     3  H   -0.000019  -0.000021  -0.000019   0.000127  -0.010312  -0.000077
     4  O    0.000315   0.000209   0.339344   0.000277   0.002310   0.000001
     5  H   -0.000021   0.000139  -0.010313  -0.000012   0.000140  -0.000005
     6  O    0.000177   0.000277   0.000001   0.000211   0.000112   0.339368
     7  H    0.000126  -0.000012  -0.000005   0.000140  -0.000012  -0.010316
     8  O    0.005283   0.002309   0.000316   0.000111  -0.000001   0.000177
     9  H   -0.000078   0.000128  -0.000078  -0.000021  -0.000005  -0.000019
    10  O    0.000001   0.339780   0.000092  -0.000001   0.000276   0.005284
    11  H    0.000002  -0.010311  -0.000020  -0.000005  -0.000163  -0.000078
    12  O    0.339350  -0.000001   0.005288   0.339795   0.000211   0.000092
    13  H    0.396584  -0.000005  -0.000077  -0.010313  -0.000030  -0.000019
    14  H   -0.000005   0.410149  -0.000030   0.000002  -0.000012  -0.000163
    15  H   -0.000077  -0.000030   0.396596  -0.000163   0.000128   0.000002
    16  H   -0.010313   0.000002  -0.000163   0.410138   0.000140  -0.000030
    17  H   -0.000030  -0.000012   0.000128   0.000140   0.410149  -0.000021
    18  H   -0.000019  -0.000163   0.000002  -0.000030  -0.000021   0.396557
    19  H   -0.000163   0.000140  -0.000021  -0.000012   0.000002   0.000126
              19
     1  Fe  -0.004910
     2  O   -0.000001
     3  H   -0.000005
     4  O    0.000111
     5  H   -0.000012
     6  O    0.002305
     7  H    0.000139
     8  O    0.339792
     9  H   -0.010314
    10  O    0.000209
    11  H   -0.000030
    12  O    0.000277
    13  H   -0.000163
    14  H    0.000140
    15  H   -0.000021
    16  H   -0.000012
    17  H    0.000002
    18  H    0.000126
    19  H    0.410107
          Atomic-Atomic Spin Densities.
               1          2          3          4          5          6
     1  Fe   4.078421  -0.024571  -0.000093  -0.024577   0.000963  -0.024581
     2  O   -0.024571   0.040726  -0.001597  -0.001259   0.000127  -0.001586
     3  H   -0.000093  -0.001597   0.001822   0.000030  -0.000003   0.000282
     4  O   -0.024577  -0.001259   0.000030   0.040731  -0.001400   0.000100
     5  H    0.000963   0.000127  -0.000003  -0.001400   0.000133  -0.000012
     6  O   -0.024581  -0.001586   0.000282   0.000100  -0.000012   0.040734
     7  H    0.000964   0.000053  -0.000015  -0.000012   0.000000  -0.001401
     8  O   -0.024562   0.000100  -0.000013  -0.001583   0.000053  -0.001257
     9  H   -0.000093  -0.000013   0.000001   0.000281  -0.000015   0.000030
    10  O   -0.024564  -0.001582   0.000105  -0.001257   0.000152  -0.001585
    11  H   -0.000092   0.000281  -0.000044   0.000094  -0.000019   0.000105
    12  O   -0.024566  -0.001259   0.000094  -0.001583   0.000058  -0.001258
    13  H   -0.000092   0.000030  -0.000005   0.000105  -0.000003   0.000094
    14  H    0.000963   0.000058  -0.000003   0.000127  -0.000084   0.000053
    15  H   -0.000092   0.000094  -0.000005  -0.001597   0.000920  -0.000013
    16  H    0.000963   0.000153  -0.000019   0.000053  -0.000009   0.000127
    17  H    0.000962  -0.001399   0.000919   0.000153  -0.000084   0.000058
    18  H   -0.000092   0.000105  -0.000044  -0.000013   0.000002  -0.001599
    19  H    0.000962  -0.000012   0.000002   0.000058  -0.000009   0.000152
               7          8          9         10         11         12
     1  Fe   0.000964  -0.024562  -0.000093  -0.024564  -0.000092  -0.024566
     2  O    0.000053   0.000100  -0.000013  -0.001582   0.000281  -0.001259
     3  H   -0.000015  -0.000013   0.000001   0.000105  -0.000044   0.000094
     4  O   -0.000012  -0.001583   0.000281  -0.001257   0.000094  -0.001583
     5  H    0.000000   0.000053  -0.000015   0.000152  -0.000019   0.000058
     6  O   -0.001401  -0.001257   0.000030  -0.001585   0.000105  -0.001258
     7  H    0.000134   0.000127  -0.000003   0.000058  -0.000003   0.000153
     8  O    0.000127   0.040700  -0.001595  -0.001258   0.000030  -0.001583
     9  H   -0.000003  -0.001595   0.001825   0.000094  -0.000005   0.000105
    10  O    0.000058  -0.001258   0.000094   0.040699  -0.001596   0.000100
    11  H   -0.000003   0.000030  -0.000005  -0.001596   0.001828  -0.000013
    12  O    0.000153  -0.001583   0.000105   0.000100  -0.000013   0.040705
    13  H   -0.000019   0.000281  -0.000044  -0.000013   0.000001  -0.001596
    14  H   -0.000009   0.000153  -0.000019  -0.001397   0.000918  -0.000012
    15  H    0.000002   0.000105  -0.000044   0.000030  -0.000005   0.000281
    16  H   -0.000084   0.000058  -0.000003  -0.000012   0.000001  -0.001399
    17  H   -0.000009  -0.000012   0.000001   0.000053  -0.000015   0.000127
    18  H    0.000921   0.000094  -0.000005   0.000281  -0.000044   0.000030
    19  H   -0.000084  -0.001397   0.000918   0.000127  -0.000003   0.000053
              13         14         15         16         17         18
     1  Fe  -0.000092   0.000963  -0.000092   0.000963   0.000962  -0.000092
     2  O    0.000030   0.000058   0.000094   0.000153  -0.001399   0.000105
     3  H   -0.000005  -0.000003  -0.000005  -0.000019   0.000919  -0.000044
     4  O    0.000105   0.000127  -0.001597   0.000053   0.000153  -0.000013
     5  H   -0.000003  -0.000084   0.000920  -0.000009  -0.000084   0.000002
     6  O    0.000094   0.000053  -0.000013   0.000127   0.000058  -0.001599
     7  H   -0.000019  -0.000009   0.000002  -0.000084  -0.000009   0.000921
     8  O    0.000281   0.000153   0.000105   0.000058  -0.000012   0.000094
     9  H   -0.000044  -0.000019  -0.000044  -0.000003   0.000001  -0.000005
    10  O   -0.000013  -0.001397   0.000030  -0.000012   0.000053   0.000281
    11  H    0.000001   0.000918  -0.000005   0.000001  -0.000015  -0.000044
    12  O   -0.001596  -0.000012   0.000281  -0.001399   0.000127   0.000030
    13  H    0.001823   0.000001  -0.000044   0.000919  -0.000003  -0.000005
    14  H    0.000001   0.000135  -0.000003   0.000000  -0.000009  -0.000014
    15  H   -0.000044  -0.000003   0.001819  -0.000014  -0.000019   0.000001
    16  H    0.000919   0.000000  -0.000014   0.000138  -0.000084  -0.000003
    17  H   -0.000003  -0.000009  -0.000019  -0.000084   0.000135  -0.000003
    18  H   -0.000005  -0.000014   0.000001  -0.000003  -0.000003   0.001823
    19  H   -0.000015  -0.000084  -0.000003  -0.000009   0.000000  -0.000019
              19
     1  Fe   0.000962
     2  O   -0.000012
     3  H    0.000002
     4  O    0.000058
     5  H   -0.000009
     6  O    0.000152
     7  H   -0.000084
     8  O   -0.001397
     9  H    0.000918
    10  O    0.000127
    11  H   -0.000003
    12  O    0.000053
    13  H   -0.000015
    14  H   -0.000084
    15  H   -0.000003
    16  H   -0.000009
    17  H    0.000000
    18  H   -0.000019
    19  H    0.000135
 Mulliken charges and spin densities:
               1          2
     1  Fe   1.305594   3.936223
     2  O   -0.419010   0.008448
     3  H    0.272519   0.001415
     4  O   -0.419010   0.008450
     5  H    0.262237   0.000770
     6  O   -0.419061   0.008445
     7  H    0.262235   0.000772
     8  O   -0.419032   0.008441
     9  H    0.272539   0.001417
    10  O   -0.418995   0.008436
    11  H    0.272515   0.001419
    12  O   -0.419034   0.008437
    13  H    0.272526   0.001415
    14  H    0.262224   0.000772
    15  H    0.272517   0.001412
    16  H    0.262219   0.000774
    17  H    0.262220   0.000770
    18  H    0.272537   0.001416
    19  H    0.262260   0.000771
 Sum of Mulliken charges =   2.00000   4.00000
 Mulliken charges and spin densities with hydrogens summed into heavy atoms:
               1          2
     1  Fe   1.305594   3.936223
     2  O    0.115729   0.010633
     4  O    0.115744   0.010632
     6  O    0.115711   0.010632
     8  O    0.115768   0.010628
    10  O    0.115745   0.010626
    12  O    0.115710   0.010625
 Electronic spatial extent (au):  <R**2>=           1031.3451
 Charge=              2.0000 electrons
 Dipole moment (field-independent basis, Debye):
    X=             -0.0010    Y=             -0.0011    Z=             -0.0018  Tot=              0.0023
 Quadrupole moment (field-independent basis, Debye-Ang):
   XX=            -23.6483   YY=            -15.2760   ZZ=            -15.2846
   XY=             -0.0009   XZ=              0.0122   YZ=              0.0052
 Traceless Quadrupole moment (field-independent basis, Debye-Ang):
   XX=             -5.5787   YY=              2.7937   ZZ=              2.7850
   XY=             -0.0009   XZ=              0.0122   YZ=              0.0052
 Octapole moment (field-independent basis, Debye-Ang**2):
  XXX=             -0.0099  YYY=              0.0125  ZZZ=              0.0052  XYY=              0.0031
  XXY=             -0.0091  XXZ=             -0.0326  XZZ=             -0.0082  YZZ=             -0.0118
  YYZ=             -0.0092  XYZ=             -0.0194
 Hexadecapole moment (field-independent basis, Debye-Ang**3):
 XXXX=           -282.3636 YYYY=           -157.3833 ZZZZ=           -157.4287 XXXY=             -0.0114
 XXXZ=              0.0930 YYYX=              9.8088 YYYZ=             -0.0021 ZZZX=             37.4561
 ZZZY=              0.0470 XXYY=            -58.3128 XXZZ=            -58.2004 YYZZ=            -52.4278
 XXYZ=              0.0196 YYXZ=            -37.4263 ZZXY=             -9.8145
 N-N= 6.957934702665D+02 E-N=-5.452798814351D+03  KE= 1.716582508128D+03
                          Isotropic Fermi Contact Couplings
        Atom                 a.u.       MegaHertz       Gauss      10(-4) cm-1
     1  Fe(57)             0.19888       7.21144       2.57322       2.40548
     2  O(17)              0.10859     -16.45665      -5.87214      -5.48935
     3  H(1)               0.00038       0.42498       0.15164       0.14176
     4  O(17)              0.10859     -16.45644      -5.87207      -5.48928
     5  H(1)              -0.00015      -0.16940      -0.06045      -0.05651
     6  O(17)              0.10865     -16.46587      -5.87543      -5.49242
     7  H(1)              -0.00015      -0.16881      -0.06024      -0.05631
     8  O(17)              0.10853     -16.44792      -5.86903      -5.48644
     9  H(1)               0.00038       0.42704       0.15238       0.14245
    10  O(17)              0.10854     -16.44938      -5.86955      -5.48692
    11  H(1)               0.00038       0.42870       0.15297       0.14300
    12  O(17)              0.10858     -16.45530      -5.87166      -5.48890
    13  H(1)               0.00038       0.42551       0.15183       0.14193
    14  H(1)              -0.00015      -0.16810      -0.05998      -0.05607
    15  H(1)               0.00038       0.42374       0.15120       0.14135
    16  H(1)              -0.00015      -0.16714      -0.05964      -0.05575
    17  H(1)              -0.00015      -0.16870      -0.06020      -0.05627
    18  H(1)               0.00038       0.42535       0.15177       0.14188
    19  H(1)              -0.00015      -0.16792      -0.05992      -0.05601
 --------------------------------------------------------
       Center         ----  Spin Dipole Couplings  ----
                      3XX-RR        3YY-RR        3ZZ-RR
 --------------------------------------------------------
     1   Atom       -2.600434      1.302813      1.297621
     2   Atom        0.023766      0.008506     -0.032272
     3   Atom        0.021761      0.008122     -0.029882
     4   Atom        0.024039     -0.080358      0.056318
     5   Atom       -0.018830     -0.028854      0.047684
     6   Atom        0.024123     -0.080315      0.056193
     7   Atom       -0.018797     -0.028823      0.047620
     8   Atom        0.023860      0.008446     -0.032306
     9   Atom        0.021732      0.008152     -0.029884
    10   Atom        0.023970      0.036018     -0.059989
    11   Atom        0.021693     -0.012857     -0.008836
    12   Atom        0.023862      0.036044     -0.059906
    13   Atom        0.021756     -0.012863     -0.008893
    14   Atom       -0.018851      0.043581     -0.024730
    15   Atom        0.021812     -0.027910      0.006098
    16   Atom       -0.018858      0.043548     -0.024690
    17   Atom       -0.018896      0.013599      0.005297
    18   Atom        0.021866     -0.027927      0.006060
    19   Atom       -0.018874      0.013527      0.005347
 --------------------------------------------------------
                        XY            XZ            YZ
 --------------------------------------------------------
     1   Atom        0.000973      0.001191     -0.003899
     2   Atom        0.102026     -0.100578     -0.067267
     3   Atom        0.049657     -0.008711     -0.008710
     4   Atom        0.036038      0.138673      0.015869
     5   Atom        0.005574      0.028986      0.017312
     6   Atom        0.036118      0.138633      0.015911
     7   Atom        0.005602      0.029013      0.017360
     8   Atom        0.102006     -0.100566     -0.067257
     9   Atom        0.049667     -0.008710     -0.008708
    10   Atom       -0.138071     -0.038175      0.051337
    11   Atom       -0.032350     -0.038691      0.020836
    12   Atom       -0.138054     -0.038176      0.051320
    13   Atom       -0.032349     -0.038667      0.020808
    14   Atom       -0.027869     -0.009650      0.024459
    15   Atom       -0.017326      0.047353     -0.012120
    16   Atom       -0.027842     -0.009658      0.024504
    17   Atom        0.022267     -0.019276     -0.041841
    18   Atom       -0.017279      0.047336     -0.012069
    19   Atom        0.022272     -0.019304     -0.041830
 --------------------------------------------------------


 ---------------------------------------------------------------------------------
              Anisotropic Spin Dipole Couplings in Principal Axis System
 ---------------------------------------------------------------------------------

       Atom             a.u.   MegaHertz   Gauss  10(-4) cm-1        Axes

              Baa    -2.6004   -45.021   -16.065   -15.017  1.0000 -0.0002 -0.0003
     1 Fe(57) Bbb     1.2955    22.429     8.003     7.482  0.0004  0.4721  0.8815
              Bcc     1.3049    22.592     8.061     7.536  0.0001  0.8815 -0.4721
 
              Baa    -0.1100     7.963     2.841     2.656  0.6706 -0.1670  0.7228
     2 O(17)  Bbb    -0.0746     5.399     1.927     1.801 -0.3308  0.8048  0.4928
              Bcc     0.1847   -13.362    -4.768    -4.457  0.6640  0.5696 -0.4845
 
              Baa    -0.0354   -18.866    -6.732    -6.293 -0.6238  0.7538  0.2066
     3 H(1)   Bbb    -0.0313   -16.684    -5.953    -5.565  0.2301 -0.0755  0.9702
              Bcc     0.0666    35.550    12.685    11.858  0.7470  0.6528 -0.1263
 
              Baa    -0.1100     7.962     2.841     2.656  0.6699 -0.5426 -0.5067
     4 O(17)  Bbb    -0.0746     5.399     1.926     1.801  0.3307  0.8292 -0.4507
              Bcc     0.1846   -13.361    -4.767    -4.457  0.6647  0.1344  0.7349
 
              Baa    -0.0327   -17.453    -6.228    -5.822  0.1839  0.9452 -0.2698
     5 H(1)   Bbb    -0.0295   -15.717    -5.608    -5.243  0.9214 -0.2614 -0.2876
              Bcc     0.0622    33.170    11.836    11.064  0.3423  0.1957  0.9190
 
              Baa    -0.1100     7.961     2.841     2.656  0.6698 -0.5429 -0.5066
     6 O(17)  Bbb    -0.0746     5.396     1.925     1.800  0.3305  0.8289 -0.4513
              Bcc     0.1846   -13.357    -4.766    -4.456  0.6650  0.1348  0.7346
 
              Baa    -0.0327   -17.450    -6.226    -5.821  0.1843  0.9448 -0.2708
     7 H(1)   Bbb    -0.0295   -15.715    -5.607    -5.242  0.9211 -0.2621 -0.2877
              Bcc     0.0622    33.165    11.834    11.063  0.3428  0.1964  0.9186
 
              Baa    -0.1100     7.960     2.840     2.655  0.6702 -0.1664  0.7233
     8 O(17)  Bbb    -0.0746     5.401     1.927     1.802 -0.3312  0.8050  0.4921
              Bcc     0.1846   -13.361    -4.768    -4.457  0.6642  0.5694 -0.4844
 
              Baa    -0.0354   -18.868    -6.732    -6.294 -0.6243  0.7537  0.2055
     9 H(1)   Bbb    -0.0313   -16.686    -5.954    -5.566  0.2294 -0.0746  0.9705
              Bcc     0.0666    35.553    12.686    11.859  0.7468  0.6530 -0.1263
 
              Baa    -0.1100     7.958     2.840     2.654  0.6698  0.7100 -0.2176
    10 O(17)  Bbb    -0.0747     5.406     1.929     1.803  0.3316 -0.0238  0.9431
              Bcc     0.1847   -13.363    -4.768    -4.458 -0.6644  0.7039  0.2513
 
              Baa    -0.0354   -18.868    -6.733    -6.294  0.6249  0.1995  0.7548
    11 H(1)   Bbb    -0.0313   -16.686    -5.954    -5.566  0.2284  0.8777 -0.4212
              Bcc     0.0666    35.555    12.687    11.860  0.7465 -0.4356 -0.5030
 
              Baa    -0.1100     7.959     2.840     2.655  0.6704  0.7098 -0.2163
    12 O(17)  Bbb    -0.0746     5.401     1.927     1.802  0.3308 -0.0249  0.9434
              Bcc     0.1846   -13.360    -4.767    -4.456 -0.6642  0.7040  0.2514
 
              Baa    -0.0354   -18.865    -6.732    -6.293  0.6239  0.1980  0.7560
    13 H(1)   Bbb    -0.0313   -16.684    -5.953    -5.565  0.2297  0.8781 -0.4196
              Bcc     0.0666    35.549    12.685    11.858  0.7469 -0.4355 -0.5024
 
              Baa    -0.0327   -17.453    -6.228    -5.822  0.1853 -0.2380  0.9534
    14 H(1)   Bbb    -0.0295   -15.716    -5.608    -5.242  0.9212  0.3797 -0.0843
              Bcc     0.0622    33.169    11.836    11.064 -0.3420  0.8940  0.2896
 
[...]
 85,0.00012199,0.00005139,0.13796718,-0.08779594,0.05321776,-0.16508696
 ,0.09301524,-0.00534866,0.00162115,-0.00227765,0.00056599,-0.00035517,
 0.00023873,-0.00021238,0.00047019,-0.00035079,0.00073525,0.00000822,0.
 00052596,-0.00021060,0.00005140,0.00007856,-0.25756220,0.08420336,-0.2
 1140153,0.23673504,-0.07644749,0.19399963,-0.01585133,-0.01024143,0.00
 570279,0.00071808,-0.00049588,0.00029915,-0.00029531,0.00034241,-0.000
 23494,0.00222523,-0.00007969,0.00080858,-0.00105411,-0.00007606,0.0005
 6589,0.00010862,-0.00445561,-0.00195986,0.00053545,0.00082911,0.000527
 60,0.16740849,-0.01000929,-0.02763680,0.00676931,-0.00049613,0.0014449
 5,0.00057179,-0.00008242,0.00036104,-0.00060035,-0.00075198,0.00295658
 ,0.00254559,-0.00060912,-0.00044289,-0.00035519,-0.00374014,-0.0048500
 2,-0.00347463,0.00148062,-0.00079193,0.00036138,0.25716576,0.48418577,
 0.00630121,0.00740976,-0.02259168,0.00029918,0.00057176,0.00281594,0.0
 0010906,-0.00011128,-0.00054550,0.00030241,0.00226163,-0.00777155,0.00
 134485,-0.00095712,0.00023878,-0.00163522,-0.00318497,0.00286606,0.000
 26130,0.00079095,0.00002032,0.00372833,0.10732494,0.76097101,0.0011131
 0,-0.00267598,-0.00065378,-0.00029519,-0.00008230,0.00010867,0.0001544
 8,-0.00011498,0.00012901,-0.00108685,0.00051912,-0.00064182,0.00075968
 ,0.00015234,-0.00021224,-0.00012759,0.00022916,0.00004530,-0.00007093,
 -0.00017263,-0.00011196,-0.11802305,-0.20691552,-0.10533383,0.11300628
 ,-0.00345055,-0.00366193,-0.00016732,0.00034247,0.00036116,-0.00011129
 ,-0.00011501,-0.00006290,-0.00005009,0.00080706,0.00011869,-0.00152557
 ,0.00003412,-0.00011838,0.00047016,0.00050597,0.00057764,0.00008748,-0
 .00033525,-0.00011915,-0.00007450,-0.20310674,-0.38870758,-0.20452102,
 0.20202825,0.38372612,-0.00027029,0.00008553,0.00657194,-0.00023479,-0
 .00060013,-0.00054564,0.00012893,-0.00005001,0.00034668,-0.00083610,-0
 .00266848,0.00076935,0.00002643,0.00073824,-0.00035085,0.00019712,0.00
 103098,0.00030957,-0.00027592,-0.00008146,-0.00010323,-0.07838197,-0.1
 5736782,-0.16299162,0.10126153,0.20027051,0.17568813,-0.03353755,0.009
 42538,0.00226003,-0.00597043,-0.00291917,0.00359085,0.00117213,0.00064
 941,0.00095993,0.00211901,0.00233746,0.00337147,-0.00171284,0.00033690
 ,0.00057427,-0.00517315,0.00204818,-0.00458646,0.00056544,-0.00093398,
 -0.00019786,0.00315350,0.00321983,-0.00108171,-0.00130714,0.00017077,-
 0.00111147,0.60886091,0.00857236,-0.02238064,0.00035014,-0.00223969,0.
 00246373,0.00194306,0.00099217,-0.00035854,-0.00059929,0.00252311,-0.0
 0248497,-0.00526515,-0.00008082,-0.00089385,0.00153212,0.00178753,0.00
 303791,0.00174126,-0.00042120,0.00008033,0.00027687,0.00258642,-0.0072
 0540,0.00172713,0.00000642,0.00102065,0.00082690,0.06328719,0.70160637
 ,0.00255730,0.00042326,-0.01015580,0.00351753,0.00137393,0.00091695,-0
 .00038419,-0.00021541,-0.00125677,0.00325545,-0.00445624,-0.00150698,-
 0.00096141,0.00231537,0.00202905,-0.00429977,0.00094062,-0.00045518,0.
 00079958,-0.00047985,0.00021570,-0.00118659,0.00226561,0.00217737,-0.0
 0003453,-0.00017025,-0.00073151,-0.14445014,-0.19200697,0.10208788,0.0
 0340809,0.00501787,-0.00144589,0.00218805,-0.00148251,-0.00109373,-0.0
 0123139,0.00000719,0.00013295,-0.00036459,-0.00002463,0.00055952,0.000
 28375,0.00013455,0.00002562,-0.00028872,-0.00108925,-0.00001317,-0.000
 01300,0.00005386,-0.00021224,-0.00004264,0.00054584,0.00007753,-0.0000
 0939,0.00004808,-0.00013346,-0.07598130,0.10097876,-0.01160807,0.06333
 589,0.00494580,-0.00224187,0.00010107,-0.00054285,-0.00141059,-0.00010
 315,-0.00044993,0.00061817,0.00027269,-0.00053435,0.00076054,0.0011712
 0,0.00011364,-0.00033555,-0.00070498,-0.00113538,-0.00055792,-0.000880
 65,0.00028608,-0.00006209,-0.00004939,-0.00041672,0.00108336,-0.000137
 16,0.00004488,-0.00033736,-0.00010541,0.04938737,-0.55387223,0.1330667
 3,-0.05771183,0.56931446,-0.00079115,-0.00051344,0.00285667,-0.0012017
 0,0.00062597,-0.00097730,0.00006210,0.00009049,0.00045636,-0.00061960,
 0.00044358,-0.00141339,0.00034781,-0.00112978,-0.00007621,0.00137585,-
 0.00050810,0.00040305,-0.00041675,0.00009632,0.00005094,-0.00008446,-0
 .00033032,-0.00028006,0.00001683,0.00015605,0.00028606,0.00177918,0.12
 195029,-0.03986890,0.00284487,-0.13573855,0.03977133,-0.03353664,0.009
 42489,0.00225818,0.00315326,0.00321927,-0.00108154,-0.00130673,0.00017
 045,-0.00111142,-0.00517279,0.00204821,-0.00458624,0.00056534,-0.00093
 409,-0.00019762,0.00211862,0.00233735,0.00337111,-0.00171275,0.0003369
 2,0.00057428,-0.00597092,-0.00291960,0.00359100,0.00117203,0.00064916,
 0.00095989,0.00142882,0.00109431,-0.00067056,-0.00009170,-0.00033943,-
 0.00032055,0.60890668,0.00857139,-0.02238133,0.00034913,0.00258678,-0.
 00720585,0.00172687,0.00000611,0.00102051,0.00082698,0.00178669,0.0030
 3824,0.00174084,-0.00042128,0.00008016,0.00027668,0.00252378,-0.002485
 38,-0.00526548,-0.00008088,-0.00089383,0.00153241,-0.00224003,0.002463
 42,0.00194307,0.00099172,-0.00035840,-0.00059905,0.00109443,0.00210240
 ,-0.00002079,-0.00072733,-0.00012455,0.00047999,0.06335280,0.70169332,
 0.00255609,0.00042114,-0.01015491,-0.00118626,0.00226533,0.00217763,-0
 .00003456,-0.00017011,-0.00073140,-0.00429974,0.00094063,-0.00045533,0
 .00079952,-0.00047986,0.00021582,0.00325547,-0.00445657,-0.00150731,-0
 .00096125,0.00231564,0.00202912,0.00351722,0.00137409,0.00091746,-0.00
 038402,-0.00021533,-0.00125666,-0.00067060,-0.00002051,0.00144909,0.00
 009265,0.00001481,-0.00026338,-0.14437142,-0.19185158,0.10195722,0.003
 40846,0.00501859,-0.00144468,-0.00004272,0.00054602,0.00007759,-0.0000
 0933,0.00004803,-0.00013350,-0.00028849,-0.00108960,-0.00001312,-0.000
 01298,0.00005391,-0.00021224,-0.00036462,-0.00002434,0.00055974,0.0002
 8364,0.00013449,0.00002559,0.00218789,-0.00148260,-0.00109410,-0.00123
 113,0.00000723,0.00013306,-0.00009165,-0.00072746,0.00009266,0.0001388
 2,0.00015355,-0.00012711,-0.07597522,0.10094764,-0.01158475,0.06333177
 ,0.00494558,-0.00224173,0.00010066,-0.00041682,0.00108330,-0.00013715,
 0.00004499,-0.00033737,-0.00010540,-0.00113533,-0.00055802,-0.00088071
 ,0.00028616,-0.00006207,-0.00004933,-0.00053432,0.00076048,0.00117132,
 0.00011356,-0.00033543,-0.00070489,-0.00054281,-0.00141057,-0.00010324
 ,-0.00044979,0.00061811,0.00027272,-0.00033948,-0.00012460,0.00001490,
 0.00015354,-0.00001875,-0.00007907,0.04935225,-0.55393853,0.13295150,-
 0.05767620,0.56938328,-0.00078958,-0.00051399,0.00285659,-0.00008478,-
 0.00033001,-0.00028002,0.00001680,0.00015600,0.00028606,0.00137608,-0.
 00050847,0.00040270,-0.00041666,0.00009634,0.00005083,-0.00061939,0.00
 044368,-0.00141300,0.00034746,-0.00112961,-0.00007607,-0.00120187,0.00
 062643,-0.00097753,0.00006197,0.00009060,0.00045623,-0.00032116,0.0004
 8002,-0.00026322,-0.00012703,-0.00007906,0.00031811,0.00179007,0.12184
 156,-0.03980989,0.00283022,-0.13562058,0.03970762,-0.00536489,0.000489
 00,0.00150615,0.00069590,-0.00016490,0.00002071,-0.00026886,-0.0000953
 8,0.00003864,0.00009056,-0.00082558,-0.00101047,0.00042182,0.00023833,
 0.00045800,0.00095747,0.00006343,0.00065220,-0.00032857,0.00014800,-0.
 00013668,0.00027978,-0.00168550,-0.00002355,0.00040877,0.00035609,0.00
 023051,-0.49343218,-0.17842991,0.15214070,0.00906679,0.00548306,-0.002
 95034,0.00050149,-0.00002119,-0.00017578,-0.00013719,0.00010701,0.0000
 7049,0.48779694,0.00133749,0.00672900,-0.00102141,0.00110154,0.0004122
 0,-0.00048490,-0.00022315,-0.00004622,-0.00019256,-0.00105495,-0.00093
 473,-0.00013764,0.00049312,0.00048064,-0.00045162,0.00071707,-0.000880
 98,0.00069830,-0.00003471,0.00027080,0.00005099,-0.00319308,0.00062329
 ,-0.00035037,0.00084080,-0.00093711,0.00015802,-0.12700490,-0.12119058
 ,0.05692376,-0.04696179,-0.01343986,0.01412295,-0.00059057,-0.00040815
 ,0.00021878,0.00022930,0.00008338,0.00002709,0.17389689,0.12888689,0.0
 0054882,-0.00078712,0.00272685,-0.00039305,-0.00025033,-0.00024664,0.0
 0025195,0.00004252,0.00029073,-0.00068477,0.00058496,0.00060872,0.0008
 2358,-0.00037717,-0.00071719,-0.00001319,0.00007929,-0.00133551,-0.000
 02755,-0.00006339,-0.00017533,0.00088126,-0.00058319,-0.00148074,0.000
 08900,-0.00001488,0.00040053,0.13876344,0.06822129,-0.05524056,0.01072
 047,0.00285198,-0.00070312,0.00044275,-0.00023369,-0.00045101,0.000045
 29,0.00006527,-0.00006054,-0.15025048,-0.06984339,0.05564946,0.0050759
 0,-0.00112292,0.00152236,-0.00141439,-0.00078435,0.00082040,0.00013109
 ,-0.00011835,0.00018866,-0.14835322,0.17384822,0.09508115,-0.01445657,
 0.02904467,0.02446677,-0.00042917,0.00053877,0.00046978,-0.00007685,-0
 .00013285,-0.00008514,-0.00041363,0.00085538,-0.00150060,0.00011444,-0
 .00023593,0.00059264,0.00008728,-0.00086550,-0.00033693,0.00018960,0.0
 0034337,-0.00004441,0.00017274,0.00106464,0.00229641,-0.00018864,0.000
 11489,-0.00082059,-0.00019334,0.00009221,0.00018600,0.15897650,-0.0008
 1559,0.00019419,-0.00474901,0.00046168,0.00081306,0.00085545,-0.000257
 43,-0.00020972,-0.00025463,0.19738220,-0.29872351,-0.21053694,0.005168
 71,-0.00849374,-0.01045775,0.00015343,-0.00012886,0.00042662,-0.000064
 60,0.00014163,-0.00005399,0.00003903,-0.00112191,0.00019570,-0.0002925
 6,0.00060385,0.00066913,-0.00028513,0.00057117,0.00075905,0.00006619,-
 0.00016274,-0.00012435,0.00013614,-0.00147973,0.00040081,0.00046499,0.
 00062622,0.00052588,0.00022433,0.00003684,-0.00030563,-0.20176251,0.30
 796348,0.00222834,-0.00428005,-0.00124673,0.00016745,0.00040611,-0.000
 41550,-0.00003084,-0.00010212,0.00001829,0.13298462,-0.24174380,-0.222
 64714,-0.01411243,0.02125944,0.01787412,-0.00015115,0.00036579,0.00007
 835,0.00000114,-0.00012442,-0.00017915,-0.00034205,0.00044771,0.001091
 40,0.00054558,0.00017739,-0.00087536,0.00001157,0.00003017,0.00010159,
 0.00004213,-0.00020496,-0.00008729,0.00163328,0.00075424,0.00110749,-0
 .00063397,0.00022620,-0.00059475,0.00010181,-0.00013548,-0.00013679,-0
 .12187788,0.22335763,0.20548278,-0.00536471,0.00048898,0.00150511,0.00
 027983,-0.00168545,-0.00002336,0.00040861,0.00035611,0.00023050,0.0009
 5727,0.00006351,0.00065231,-0.00032857,0.00014795,-0.00013669,0.000090
 74,-0.00082567,-0.00101061,0.00042180,0.00023835,0.00045817,0.00069597
 ,-0.00016489,0.00002069,-0.00026890,-0.00009537,0.00003860,0.00050149,
 -0.00002120,-0.00017577,-0.00013718,0.00010702,0.00007052,-0.49348388,
 -0.17846329,0.15203981,0.00906433,0.00548267,-0.00294716,-0.00007090,-
 0.00002096,0.00001749,-0.00034283,-0.00016746,-0.00049448,0.48785078,0
 .00133746,0.00672890,-0.00102029,-0.00319292,0.00062320,-0.00035078,0.
 00084068,-0.00093685,0.00015813,0.00071718,-0.00088084,0.00069848,-0.0
 0003477,0.00027085,0.00005099,-0.00105517,-0.00093471,-0.00013758,0.00
 049324,0.00048072,-0.00045184,0.00110159,0.00041218,-0.00048487,-0.000
 22314,-0.00004619,-0.00019255,-0.00059054,-0.00040808,0.00021872,0.000
 22928,0.00008336,0.00002704,-0.12703359,-0.12120946,0.05688562,-0.0469
 6710,-0.01344260,0.01411351,-0.00002094,0.00021797,-0.00012561,-0.0003
 1228,0.00030762,-0.00031974,0.17393063,0.12890829,0.00054758,-0.000785
 89,0.00272663,0.00088158,-0.00058325,-0.00148075,0.00008903,-0.0000148
 0,0.00040045,-0.00001335,0.00007953,-0.00133512,-0.00002764,-0.0000634
 3,-0.00017525,-0.00068508,0.00058481,0.00060829,0.00082408,-0.00037740
 ,-0.00071745,-0.00039266,-0.00025062,-0.00024651,0.00025201,0.00004240
 ,0.00029073,0.00044322,-0.00023377,-0.00045117,0.00004520,0.00006528,-
 0.00006049,0.13867493,0.06817644,-0.05517037,0.01071074,0.00284934,-0.
 00069806,0.00001754,-0.00012566,0.00030150,-0.00083609,-0.00024681,0.0
 0032575,-0.15015207,-0.06979670,0.05557484,0.00183853,-0.00066019,0.00
 387898,-0.03422020,-0.03417925,0.09461216,0.00563129,0.00260160,-0.022
 50720,-0.00007529,0.00218096,-0.00091586,-0.00045850,-0.00105496,-0.00
 003592,-0.00012569,0.00029881,0.00027337,-0.00007358,-0.00007874,0.000
 02344,-0.00004992,0.00055702,-0.00070378,-0.00006856,-0.00009685,0.000
 00248,-0.00067154,0.00024669,-0.00073443,-0.00027598,-0.00001564,0.000
 85838,-0.00018397,-0.00035344,0.00018289,0.00001342,0.00016637,0.00002
 059,-0.00027675,0.00004625,0.00007392,0.00037514,-0.00039362,-0.000102
 78,0.00019624,0.00064197,-0.00063857,0.02784670,-0.00033282,0.00340081
 ,0.00522316,-0.03779765,-0.06200446,0.08737531,0.00647936,0.00757576,-
 0.04238225,0.00212381,0.00131856,-0.00128391,-0.00076146,0.00008364,-0
 .00012216,0.00021368,-0.00011007,0.00079684,-0.00020322,0.00015139,0.0
 0014056,0.00011211,-0.00016753,-0.00064740,-0.00009956,-0.00004581,0.0
 0024596,-0.00017471,-0.00079120,-0.00008317,0.00025796,0.00036219,-0.0
 0026621,0.00015524,0.00030738,-0.00127020,0.00003933,-0.00028472,0.000
 17129,-0.00002957,0.00012344,0.00012351,-0.00064385,-0.00094277,-0.000
 02376,0.00043430,-0.00033458,0.00086261,0.03013938,0.05125142,0.002816
 72,0.00454827,-0.00114819,0.06779702,0.04026960,-0.57363854,0.00494841
 ,0.00552922,-0.01828264,0.00034712,-0.00004006,-0.00182023,-0.00021865
 ,-0.00041360,0.00056013,-0.00047488,-0.00032673,0.00109656,-0.00017673
 ,0.00019300,-0.00031090,-0.00011073,-0.00004477,-0.00014067,-0.0000520
 1,0.00012727,-0.00000014,-0.00176357,-0.00021933,0.00020393,0.00064198
 ,-0.00012046,0.00020411,0.00079562,-0.00148829,-0.00035902,0.00008441,
 0.00035386,-0.00002179,0.00019689,0.00031729,-0.00007963,-0.00046361,-
 0.00032668,0.00043949,-0.00039185,0.00054571,0.00032336,-0.07449668,-0
 .04896586,0.59323448,0.00507616,-0.00112263,0.00152228,-0.00041368,0.0
 0085533,-0.00150051,0.00011448,-0.00023601,0.00059252,-0.00042912,0.00
 053878,0.00046982,-0.00007692,-0.00013286,-0.00008517,-0.14833492,0.17
 383243,0.09506929,-0.01445587,0.02904715,0.02446822,-0.00141454,-0.000
 78444,0.00082035,0.00013105,-0.00011840,0.00018864,0.00017270,0.001064
 56,0.00229633,-0.00018854,0.00011488,-0.00082007,0.00008725,-0.0008655
 3,-0.00033691,0.00018966,0.00034338,-0.00004422,-0.00034299,-0.0003124
 1,-0.00083646,0.00043049,0.00001017,0.00001327,-0.00019335,0.00009219,
 0.00018581,0.00031543,0.00006616,0.00032788,0.15895743,-0.00081577,0.0
 0019424,-0.00474878,0.00003902,-0.00112182,0.00019564,-0.00029258,0.00
 060381,0.00066924,0.00015348,-0.00012882,0.00042669,-0.00006463,0.0001
 4163,-0.00005398,0.19737051,-0.29873903,-0.21054931,0.00516719,-0.0084
 9322,-0.01045707,0.00046175,0.00081300,0.00085548,-0.00025750,-0.00020
 966,-0.00025462,0.00013600,-0.00147978,0.00040064,0.00046490,0.0006261
 5,0.00052579,-0.00028514,0.00057121,0.00075909,0.00006616,-0.00016273,
 -0.00012437,-0.00016750,0.00030775,-0.00024681,0.00001019,0.00002166,-
 0.00011458,0.00022439,0.00003682,-0.00030564,-0.00006793,-0.00001675,-
 0.00001991,-0.20174903,0.30797832,0.00222789,-0.00428018,-0.00124684,-
 0.00034205,0.00044769,0.00109146,0.00054555,0.00017750,-0.00087548,-0.
 00015112,0.00036579,0.00007833,0.00000114,-0.00012442,-0.00017913,0.13
 297198,-0.24175367,-0.22264950,-0.01410997,0.02125794,0.01787296,0.000
 16751,0.00040613,-0.00041550,-0.00003083,-0.00010214,0.00001831,0.0016
 3326,0.00075412,0.00110748,-0.00063375,0.00022614,-0.00059462,0.000011
 60,0.00003014,0.00010167,0.00004214,-0.00020494,-0.00008731,-0.0004945
 1,-0.00031973,0.00032574,0.00001326,-0.00011458,-0.00001386,0.00010183
 ,-0.00013549,-0.00013681,0.00001644,0.00002423,-0.00032272,-0.12186752
 ,0.22336921,0.20548634,0.00183961,-0.00065931,0.00387884,-0.00005001,0
 .00055690,-0.00070354,-0.00006859,-0.00009689,0.00000239,-0.00012587,0
 .00029855,0.00027366,-0.00007365,-0.00007872,0.00002336,-0.00007550,0.
 00218103,-0.00091554,-0.00045854,-0.00105508,-0.00003586,-0.03419756,-
 0.03418281,0.09451689,0.00562889,0.00260491,-0.02251581,-0.00018350,-0
 .00035374,0.00018283,0.00001346,0.00016648,0.00002059,-0.00067162,0.00
 024697,-0.00073477,-0.00027600,-0.00001567,0.00085876,0.00019613,0.000
 64185,-0.00063848,0.00031546,-0.00006797,0.00001639,-0.00027675,0.0000
 4623,0.00007375,0.00026322,0.00002151,0.00019265,0.00037528,-0.0003935
 0,-0.00010284,0.02782553,-0.00033212,0.00339991,0.00522376,0.00011210,
 -0.00016742,-0.00064760,-0.00009961,-0.00004582,0.00024598,0.00021380,
 -0.00010985,0.00079689,-0.00020329,0.00015135,0.00014057,0.00212368,0.
 00131891,-0.00128411,-0.00076152,0.00008357,-0.00012219,-0.03779013,-0
 .06200895,0.08741702,0.00647128,0.00757824,-0.04237848,0.00015498,0.00
 030731,-0.00126991,0.00003931,-0.00028473,0.00017136,-0.00017457,-0.00
 079143,-0.00008328,0.00025806,0.00036233,-0.00026629,0.00043433,-0.000
 33457,0.00086240,0.00006620,-0.00001674,0.00002425,-0.00002962,0.00012
 342,0.00012359,0.00002157,0.00012329,0.00008147,-0.00064373,-0.0009427
 9,-0.00002376,0.03013927,0.05125397,0.00281650,0.00454915,-0.00114859,
 -0.00011083,-0.00004496,-0.00014045,-0.00005198,0.00012722,-0.00000016
 ,-0.00047492,-0.00032683,0.00109651,-0.00017669,0.00019300,-0.00031090
 ,0.00034718,-0.00004003,-0.00182016,-0.00021870,-0.00041362,0.00056019
 ,0.06769681,0.04031393,-0.57365698,0.00494512,0.00553050,-0.01828251,0
 .00079575,-0.00148835,-0.00035896,0.00008441,0.00035386,-0.00002188,-0
 .00176338,-0.00021947,0.00020380,0.00064203,-0.00012044,0.00020405,-0.
 00039181,0.00054558,0.00032353,0.00032782,-0.00001991,-0.00032270,0.00
 019696,0.00031725,-0.00007957,0.00019258,0.00008144,0.00006241,-0.0004
 6356,-0.00032670,0.00043947,-0.07439329,-0.04901165,0.59325289\\-0.000
 00208,-0.00000036,0.00000184,0.00000978,-0.00000917,-0.00002952,-0.000
 00390,0.00000269,0.00002404,-0.00001827,0.00002074,-0.00001428,-0.0000
 0888,0.00000567,-0.00000173,0.00001767,-0.00002134,0.00001427,0.000009
 30,-0.00000542,0.00000133,-0.00000878,0.00000868,0.00002745,0.00000331
 ,-0.00000272,-0.00002353,-0.00002419,-0.00001879,-0.00000100,0.0000196
 2,0.00001289,-0.00000495,0.00002547,0.00001977,0.00000077,-0.00002023,
 -0.00001312,0.00000426,-0.00000659,-0.00000729,0.00000458,0.00001813,-
 0.00001223,0.00001031,0.00000689,0.00000707,-0.00000380,-0.00000113,-0
 .00000228,-0.00001027,-0.00001777,0.00001248,-0.00001021,0.00000164,0.
 00000272,0.00001044\\\@


 CHILDREN YOU ARE VERY LITTLE,
 AND YOUR BONES ARE VERY BRITTLE;
 IF YOU WOULD GROW GREAT AND STATELY
 YOU MUST TRY TO WALK SEDATELY.
 YOU MUST STILL BE BRIGHT AND QUIET,
 AND CONTENT WITH SIMPLE DIET;
 AND REMAIN, THROUGH ALL BEWILD'RING
 INNOCENT AND HONEST CHILDREN.
     -- A CHILD'S GARDEN OF VERSE,
        ROBERT LOUIS STEVENSON
 Job cpu time:       0 days  0 hours 10 minutes 57.7 seconds.
 Elapsed time:       0 days  0 hours  0 minutes 42.3 seconds.
 File lengths (MBytes):  RWF=    147 Int=      0 D2E=      0 Chk=      5 Scr=      1
 Normal termination of Gaussian 16 at Sun May 15 11:14:23 2022.

Sender: Unischeduler System <lcz@mgt01>
Subject: Job 132217: <#!/bin/bash
#BSUB -J intel
#BSUB -o Opt-UHF.out
#BSUB -n 16
#BSUB -q cqueue
#BSUB -R span[hosts=1]
export g16root=/apps/software
source /apps/software/g16/bsd/g16.profile
export GAUSS_SCRDIR=/scratch
/apps/software/g16/g16 < Opt-UHF.inp > Opt-UHF.out> Done

Job <#!/bin/bash
#BSUB -J intel
#BSUB -o Opt-UHF.out
#BSUB -n 16
#BSUB -q cqueue
#BSUB -R span[hosts=1]
export g16root=/apps/software
source /apps/software/g16/bsd/g16.profile
export GAUSS_SCRDIR=/scratch
/apps/software/g16/g16 < Opt-UHF.inp > Opt-UHF.out> was submitted from host <mgt01> by user <lcz>.
Job was executed on host(s) <16*cnode09>, in queue <cqueue>, as user <lcz>.
</apps/users/lcz> was used as the home directory.
</apps/users/lcz/exe5/task2/Mul5StablityTest/Gaussian> was used as the working directory.
Started at 2022-05-15 11:11:58
Results reported at 2022-05-15 11:14:23

Your job looked like:

------------------------------------------------------------
# User input
#!/bin/bash
#BSUB -J intel
#BSUB -o Opt-UHF.out
#BSUB -n 16
#BSUB -q cqueue
#BSUB -R span[hosts=1]
export g16root=/apps/software
source /apps/software/g16/bsd/g16.profile
export GAUSS_SCRDIR=/scratch
/apps/software/g16/g16 < Opt-UHF.inp > Opt-UHF.out
------------------------------------------------------------

Successfully completed.

Resource usage summary:

    CPU time   :         2163.13 sec.
    Max Memory :               890 MB
    Max Processes  :               5


The output (if any) follows:

