
                                        *****************
                                        * O   R   C   A *
                                        *****************

                                            #,                                       
                                            ###                                      
                                            ####                                     
                                            #####                                    
                                            ######                                   
                                           ########,                                 
                                     ,,################,,,,,                         
                               ,,#################################,,                 
                          ,,##########################################,,             
                       ,#########################################, ''#####,          
                    ,#############################################,,   '####,        
                  ,##################################################,,,,####,       
                ,###########''''           ''''###############################       
              ,#####''   ,,,,##########,,,,          '''####'''          '####       
            ,##' ,,,,###########################,,,                        '##       
           ' ,,###''''                  '''############,,,                           
         ,,##''                                '''############,,,,        ,,,,,,###''
      ,#''                                            '''#######################'''  
     '                                                          ''''####''''         
             ,#######,   #######,   ,#######,      ##                                
            ,#'     '#,  ##    ##  ,#'     '#,    #''#        ######   ,####,        
            ##       ##  ##   ,#'  ##            #'  '#       #        #'  '#        
            ##       ##  #######   ##           ,######,      #####,   #    #        
            '#,     ,#'  ##    ##  '#,     ,#' ,#      #,         ##   #,  ,#        
             '#######'   ##     ##  '#######'  #'      '#     #####' # '####'        



                  #######################################################
                  #                        -***-                        #
                  #          Department of theory and spectroscopy      #
                  #    Directorship and core code : Frank Neese         #
                  #        Max Planck Institute fuer Kohlenforschung    #
                  #                Kaiser Wilhelm Platz 1               #
                  #                 D-45470 Muelheim/Ruhr               #
                  #                      Germany                        #
                  #                                                     #
                  #                  All rights reserved                #
                  #                        -***-                        #
                  #######################################################


                         Program Version 5.0.0 -  RELEASE  -
                                (SVN: $Rev: 19529$)
                ($Date: 2021-06-28 11:36:33 +0200 (Mo, 28 Jun 2021) $)


 With contributions from (in alphabetic order):
   Daniel Aravena         : Magnetic Suceptibility
   Michael Atanasov       : Ab Initio Ligand Field Theory (pilot matlab implementation)
   Alexander A. Auer      : GIAO ZORA, VPT2 properties, NMR spectrum
   Ute Becker             : Parallelization
   Giovanni Bistoni       : ED, misc. LED, open-shell LED, HFLD
   Martin Brehm           : Molecular dynamics
   Dmytro Bykov           : SCF Hessian
   Vijay G. Chilkuri      : MRCI spin determinant printing, contributions to CSF-ICE
   Dipayan Datta          : RHF DLPNO-CCSD density
   Achintya Kumar Dutta   : EOM-CC, STEOM-CC
   Dmitry Ganyushin       : Spin-Orbit,Spin-Spin,Magnetic field MRCI
   Miquel Garcia          : C-PCM Hessian, Gaussian charge scheme
   Yang Guo               : DLPNO-NEVPT2, F12-NEVPT2, CIM, IAO-localization
   Andreas Hansen         : Spin unrestricted coupled pair/coupled cluster methods
   Benjamin Helmich-Paris : MC-RPA, TRAH-SCF, COSX integrals
   Lee Huntington         : MR-EOM, pCC
   Robert Izsak           : Overlap fitted RIJCOSX, COSX-SCS-MP3, EOM
   Marcus Kettner         : VPT2
   Christian Kollmar      : KDIIS, OOCD, Brueckner-CCSD(T), CCSD density, CASPT2, CASPT2-K
   Simone Kossmann        : Meta GGA functionals, TD-DFT gradient, OOMP2, MP2 Hessian
   Martin Krupicka        : Initial AUTO-CI
   Lucas Lang             : DCDCAS
   Marvin Lechner         : AUTO-CI (C++ implementation), FIC-MRCC
   Dagmar Lenk            : GEPOL surface, SMD
   Dimitrios Liakos       : Extrapolation schemes; Compound Job, initial MDCI parallelization
   Dimitrios Manganas     : Further ROCIS development; embedding schemes
   Dimitrios Pantazis     : SARC Basis sets
   Anastasios Papadopoulos: AUTO-CI, single reference methods and gradients
   Taras Petrenko         : DFT Hessian,TD-DFT gradient, ASA, ECA, R-Raman, ABS, FL, XAS/XES, NRVS
   Peter Pinski           : DLPNO-MP2, DLPNO-MP2 Gradient
   Christoph Reimann      : Effective Core Potentials
   Marius Retegan         : Local ZFS, SOC
   Christoph Riplinger    : Optimizer, TS searches, QM/MM, DLPNO-CCSD(T), (RO)-DLPNO pert. Triples
   Tobias Risthaus        : Range-separated hybrids, TD-DFT gradient, RPA, STAB
   Michael Roemelt        : Original ROCIS implementation
   Masaaki Saitow         : Open-shell DLPNO-CCSD energy and density
   Barbara Sandhoefer     : DKH picture change effects
   Avijit Sen             : IP-ROCIS
   Kantharuban Sivalingam : CASSCF convergence, NEVPT2, FIC-MRCI
   Bernardo de Souza      : ESD, SOC TD-DFT
   Georgi Stoychev        : AutoAux, RI-MP2 NMR
   Willem Van den Heuvel  : Paramagnetic NMR
   Boris Wezisla          : Elementary symmetry handling
   Frank Wennmohs         : Technical directorship


 We gratefully acknowledge several colleagues who have allowed us to
 interface, adapt or use parts of their codes:
   Stefan Grimme, W. Hujo, H. Kruse, P. Pracht,  : VdW corrections, initial TS optimization,
                  C. Bannwarth, S. Ehlert          DFT functionals, gCP, sTDA/sTD-DF
   Ed Valeev, F. Pavosevic, A. Kumar             : LibInt (2-el integral package), F12 methods
   Garnet Chan, S. Sharma, J. Yang, R. Olivares  : DMRG
   Ulf Ekstrom                                   : XCFun DFT Library
   Mihaly Kallay                                 : mrcc  (arbitrary order and MRCC methods)
   Jiri Pittner, Ondrej Demel                    : Mk-CCSD
   Frank Weinhold                                : gennbo (NPA and NBO analysis)
   Christopher J. Cramer and Donald G. Truhlar   : smd solvation model
   Lars Goerigk                                  : TD-DFT with DH, B97 family of functionals
   V. Asgeirsson, H. Jonsson                     : NEB implementation
   FAccTs GmbH                                   : IRC, NEB, NEB-TS, DLPNO-Multilevel, CI-OPT
                                                   MM, QMMM, 2- and 3-layer-ONIOM, Crystal-QMMM,
                                                   LR-CPCM, SF, NACMEs, symmetry and pop. for TD-DFT,
                                                   nearIR, NL-DFT gradient (VV10), updates on ESD,
                                                   ML-optimized integration grids
   S Lehtola, MJT Oliveira, MAL Marques          : LibXC Library
   Liviu Ungur et al                             : ANISO software


 Your calculation uses the libint2 library for the computation of 2-el integrals
 For citations please refer to: http://libint.valeyev.net

 Your ORCA version has been built with support for libXC version: 5.1.0
 For citations please refer to: https://tddft.org/programs/libxc/

 This ORCA versions uses:
   CBLAS   interface :  Fast vector & matrix operations
   LAPACKE interface :  Fast linear algebra routines
   SCALAPACK package :  Parallel linear algebra routines
   Shared memory     :  Shared parallel matrices
   BLAS/LAPACK       :  OpenBLAS 0.3.15  USE64BITINT DYNAMIC_ARCH NO_AFFINITY SkylakeX SINGLE_THREADED
        Core in use  :  SkylakeX
   Copyright (c) 2011-2014, The OpenBLAS Project


================================================================================

----- Orbital basis set information -----
Your calculation utilizes the basis: aug-cc-pVQZ 
    H, B-Ne : Obtained from the ccRepo (grant-hill.group.shef.ac.uk/ccrepo) Feb. 2017
              R. A. Kendall, T. H. Dunning, Jr., R. J. Harrison, J. Chem. Phys. 96, 6796 (1992)
         He : Obtained from the ccRepo (grant-hill.group.shef.ac.uk/ccrepo) Feb. 2017
              D. E. Woon, T. H. Dunning, Jr., J. Chem. Phys. 100, 2975 (1994)
  Li-Be, Na : Obtained from the ccRepo (grant-hill.group.shef.ac.uk/ccrepo) Feb. 2017
              B. P. Prascher, D. E. Woon, K. A. Peterson, T. H. Dunning, Jr., A. K. Wilson, Theor. Chem. Acc. 128, 69 (2011)
         Mg : Obtained from the Peterson Research Group Website (tyr0.chem.wsu.edu/~kipeters) Feb. 2017
              B. P. Prascher, D. E. Woon, K. A. Peterson, T. H. Dunning, Jr., A. K. Wilson, Theor. Chem. Acc. 128, 69 (2011)
      Al-Ar : Obtained from the ccRepo (grant-hill.group.shef.ac.uk/ccrepo) Feb. 2017
              D. E. Woon, T. H. Dunning, Jr., J. Chem. Phys. 98, 1358 (1993)
      Sc-Zn : Obtained from the ccRepo (grant-hill.group.shef.ac.uk/ccrepo) Feb. 2017
              N. B. Balabanov, K. A. Peterson, J. Chem. Phys. 123, 064107 (2005)
              N. B. Balabanov, K. A. Peterson, J. Chem. Phys. 125, 074110 (2006)
      Ga-Kr : Obtained from the ccRepo (grant-hill.group.shef.ac.uk/ccrepo) Feb. 2017
              A. K. Wilson, D. E. Woon, K. A. Peterson, T. H. Dunning, Jr., J. Chem. Phys. 110, 7667 (1999)

================================================================================
                                        WARNINGS
                       Please study these warnings very carefully!
================================================================================


WARNING: Post HF methods need fully converged wavefunctions
  ===> : Setting SCFConvForced true
         You can overwrite this default with %scf ConvForced false 


WARNING: MDCI localization with Augmented Hessian Foster-Boys
  ===> : Switching off randomization!

INFO   : the flag for use of the SHARK integral package has been found!

================================================================================
                                       INPUT FILE
================================================================================
NAME = /scratch/BH-1.0-CCSD_T-O_765/BH-1.0-CCSD_T-O.inp
|  1> ! RHF CCSD(T) aug-cc-pVQZ VeryTightSCF
|  2> 
|  3> *xyz 0 1
|  4>  B	0.0	0.0	0.0
|  5>  H	1.0	0.0	0.0
|  6> **                         ****END OF INPUT****
================================================================================

                       ****************************
                       * Single Point Calculation *
                       ****************************

---------------------------------
CARTESIAN COORDINATES (ANGSTROEM)
---------------------------------
  B      0.000000    0.000000    0.000000
  H      1.000000    0.000000    0.000000

----------------------------
CARTESIAN COORDINATES (A.U.)
----------------------------
  NO LB      ZA    FRAG     MASS         X           Y           Z
   0 B     5.0000    0    10.810    0.000000    0.000000    0.000000
   1 H     1.0000    0     1.008    1.889726    0.000000    0.000000

--------------------------------
INTERNAL COORDINATES (ANGSTROEM)
--------------------------------
 B      0   0   0     0.000000000000     0.00000000     0.00000000
 H      1   0   0     1.000000000000     0.00000000     0.00000000

---------------------------
INTERNAL COORDINATES (A.U.)
---------------------------
 B      0   0   0     0.000000000000     0.00000000     0.00000000
 H      1   0   0     1.889726133921     0.00000000     0.00000000

---------------------
BASIS SET INFORMATION
---------------------
There are 2 groups of distinct atoms

 Group   1 Type B   : 22s7p4d3f2g contracted to 6s5p4d3f2g pattern {991111/31111/1111/111/11}
 Group   2 Type H   : 7s4p3d2f contracted to 5s4p3d2f pattern {31111/1111/111/11}

Atom   0B    basis set group =>   1
Atom   1H    basis set group =>   2
------------------------------------------------------------------------------
                           ORCA GTO INTEGRAL CALCULATION
------------------------------------------------------------------------------
------------------------------------------------------------------------------
                   ___                                                        
                  /   \      - P O W E R E D   B Y -                         
                 /     \                                                     
                 |  |  |   _    _      __       _____    __    __             
                 |  |  |  | |  | |    /  \     |  _  \  |  |  /  |          
                  \  \/   | |  | |   /    \    | | | |  |  | /  /          
                 / \  \   | |__| |  /  /\  \   | |_| |  |  |/  /          
                |  |  |   |  __  | /  /__\  \  |    /   |      \           
                |  |  |   | |  | | |   __   |  |    \   |  |\   \          
                \     /   | |  | | |  |  |  |  | |\  \  |  | \   \       
                 \___/    |_|  |_| |__|  |__|  |_| \__\ |__|  \__/        
                                                                              
                      - O R C A' S   B I G   F R I E N D -                    
                                      &                                       
                       - I N T E G R A L  F E E D E R -                       
                                                                              
 v1 FN, 2020, v2 2021                                                         
------------------------------------------------------------------------------


Reading SHARK input file /scratch/BH-1.0-CCSD_T-O_765/BH-1.0-CCSD_T-O.SHARKINP.tmp ... ok
----------------------
SHARK INTEGRAL PACKAGE
----------------------

Number of atoms                             ...      2
Number of basis functions                   ...    126
Number of shells                            ...     34
Maximum angular momentum                    ...      4
Integral batch strategy                     ... SHARK/LIBINT Hybrid
RI-J (if used) integral strategy            ... SPLIT-RIJ (Revised 2003 algorithm where possible)
Printlevel                                  ...      1
Contraction scheme used                     ... SEGMENTED contraction
Coulomb Range Separation                    ... NOT USED
Exchange Range Separation                   ... NOT USED
Finite Nucleus Model                        ... NOT USED
Auxiliary Coulomb fitting basis             ... NOT available
Auxiliary J/K fitting basis                 ... NOT available
Auxiliary Correlation fitting basis         ... NOT available
Auxiliary 'external' fitting basis          ... NOT available
Integral threshold                          ...     1.000000e-12
Primitive cut-off                           ...     1.000000e-14
Primitive pair pre-selection threshold      ...     1.000000e-14

Calculating pre-screening integrals         ... done (  0.1 sec) Dimension = 34
Organizing shell pair data                  ... done (  0.0 sec)
Shell pair information
Total number of shell pairs                 ...       595
Shell pairs after pre-screening             ...       595
Total number of primitive shell pairs       ...      1563
Primitive shell pairs kept                  ...      1540
          la=0 lb=0:     66 shell pairs
          la=1 lb=0:     99 shell pairs
          la=1 lb=1:     45 shell pairs
          la=2 lb=0:     77 shell pairs
          la=2 lb=1:     63 shell pairs
          la=2 lb=2:     28 shell pairs
          la=3 lb=0:     55 shell pairs
          la=3 lb=1:     45 shell pairs
          la=3 lb=2:     35 shell pairs
          la=3 lb=3:     15 shell pairs
          la=4 lb=0:     22 shell pairs
          la=4 lb=1:     18 shell pairs
          la=4 lb=2:     14 shell pairs
          la=4 lb=3:     10 shell pairs
          la=4 lb=4:      3 shell pairs

Calculating one electron integrals          ... done (  0.0 sec)
Calculating Nuclear repulsion               ... done (  0.0 sec) ENN=      2.645886041500 Eh

SHARK setup successfully completed in   0.1 seconds

Maximum memory used throughout the entire GTOINT-calculation: 33.3 MB
-------------------------------------------------------------------------------
                                 ORCA SCF
-------------------------------------------------------------------------------

------------
SCF SETTINGS
------------
Hamiltonian:
 Ab initio Hamiltonian  Method          .... Hartree-Fock(GTOs)


General Settings:
 Integral files         IntName         .... /scratch/BH-1.0-CCSD_T-O_765/BH-1.0-CCSD_T-O
 Hartree-Fock type      HFTyp           .... RHF
 Total Charge           Charge          ....    0
 Multiplicity           Mult            ....    1
 Number of Electrons    NEL             ....    6
 Basis Dimension        Dim             ....  126
 Nuclear Repulsion      ENuc            ....      2.6458860415 Eh

Convergence Acceleration:
 DIIS                   CNVDIIS         .... on
   Start iteration      DIISMaxIt       ....    12
   Startup error        DIISStart       ....  0.200000
   # of expansion vecs  DIISMaxEq       ....     5
   Bias factor          DIISBfac        ....   1.050
   Max. coefficient     DIISMaxC        ....  10.000
 Trust-Rad. Augm. Hess. CNVTRAH         .... auto
   Auto Start mean grad. ratio tolernc. ....  1.125000
   Auto Start start iteration           ....    20
   Auto Start num. interpolation iter.  ....    10
   Max. Number of Micro iterations      ....    16
   Max. Number of Macro iterations      .... Maxiter - #DIIS iter
   Number of Davidson start vectors     ....     2
   Converg. threshold I  (grad. norm)   ....   2.000e-06
   Converg. threshold II (energy diff.) ....   1.000e-09
   Grad. Scal. Fac. for Micro threshold ....   0.100
   Minimum threshold for Micro iter.    ....   0.010
   NR start threshold (gradient norm)   ....   0.001
   Initial trust radius                 ....   0.400
   Minimum AH scaling param. (alpha)    ....   1.000
   Maximum AH scaling param. (alpha)    .... 1000.000
   Orbital update algorithm             .... Taylor
   White noise on init. David. guess    .... on
   Maximum white noise                  ....   0.010
   Quad. conv. algorithm                .... NR
 SOSCF                  CNVSOSCF        .... on
   Start iteration      SOSCFMaxIt      ....   150
   Startup grad/error   SOSCFStart      ....  0.003300
 Level Shifting         CNVShift        .... on
   Level shift para.    LevelShift      ....    0.2500
   Turn off err/grad.   ShiftErr        ....    0.0010
 Zerner damping         CNVZerner       .... off
 Static damping         CNVDamp         .... on
   Fraction old density DampFac         ....    0.7000
   Max. Damping (<1)    DampMax         ....    0.9800
   Min. Damping (>=0)   DampMin         ....    0.0000
   Turn off err/grad.   DampErr         ....    0.1000
 Fernandez-Rico         CNVRico         .... off

SCF Procedure:
 Maximum # iterations   MaxIter         ....   125
 SCF integral mode      SCFMode         .... Direct
   Integral package                     .... SHARK and LIBINT hybrid scheme
 Reset frequency        DirectResetFreq ....    20
 Integral Threshold     Thresh          ....  1.000e-12 Eh
 Primitive CutOff       TCut            ....  1.000e-14 Eh

Convergence Tolerance:
 Convergence Check Mode ConvCheckMode   .... Total+1el-Energy
 Convergence forced     ConvForced      .... 1
 Energy Change          TolE            ....  1.000e-09 Eh
 1-El. energy change                    ....  1.000e-06 Eh
 Orbital Gradient       TolG            ....  2.000e-06
 Orbital Rotation angle TolX            ....  2.000e-06
 DIIS Error             TolErr          ....  1.000e-08


Diagonalization of the overlap matrix:
Smallest eigenvalue                        ... 5.979e-05
Time for diagonalization                   ...    0.001 sec
Threshold for overlap eigenvalues          ... 1.000e-08
Number of eigenvalues below threshold      ... 0
Time for construction of square roots      ...    0.000 sec
Total time needed                          ...    0.002 sec

Time for model grid setup =    0.013 sec

------------------------------
INITIAL GUESS: MODEL POTENTIAL
------------------------------
Loading Hartree-Fock densities                     ... done
Calculating cut-offs                               ... done
Initializing the effective Hamiltonian             ... done
Setting up the integral package (SHARK)            ... done
Starting the Coulomb interaction                   ... done (   0.0 sec)
Reading the grid                                   ... done
Mapping shells                                     ... done
Starting the XC term evaluation                    ... done (   0.0 sec)
Transforming the Hamiltonian                       ... done (   0.0 sec)
Diagonalizing the Hamiltonian                      ... done (   0.0 sec)
Back transforming the eigenvectors                 ... done (   0.0 sec)
Now organizing SCF variables                       ... done
                      ------------------
                      INITIAL GUESS DONE (   0.0 sec)
                      ------------------
--------------
SCF ITERATIONS
--------------
ITER       Energy         Delta-E        Max-DP      RMS-DP      [F,P]     Damp
               ***  Starting incremental Fock matrix formation  ***
  0    -25.0903672400   0.000000000000 0.06051137  0.00087454  0.0998720 0.7000
  1    -25.0939929773  -0.003625737269 0.04524313  0.00068233  0.0755781 0.7000
                               ***Turning on DIIS***
  2    -25.0967320732  -0.002739095904 0.10951948  0.00168550  0.0550352 0.0000
  3    -25.1087613119  -0.012029238652 0.01286323  0.00019667  0.0054297 0.0000
                      *** Initiating the SOSCF procedure ***
                           *** Shutting down DIIS ***
                      *** Re-Reading the Fockian *** 
                      *** Removing any level shift *** 
ITER      Energy       Delta-E        Grad      Rot      Max-DP    RMS-DP
  4    -25.10395911   0.0048022005  0.000724  0.000724  0.003993  0.000065
               *** Restarting incremental Fock matrix formation ***
  5    -25.10366294   0.0002961761  0.000327  0.000691  0.004904  0.000073
  6    -25.10366517  -0.0000022307  0.000115  0.000367  0.003005  0.000042
  7    -25.10366547  -0.0000003001  0.000009  0.000014  0.000115  0.000002
  8    -25.10366547  -0.0000000017  0.000003  0.000008  0.000020  0.000000
                 **** Energy Check signals convergence ****
              ***Rediagonalizing the Fockian in SOSCF/NRSCF***

               *****************************************************
               *                     SUCCESS                       *
               *           SCF CONVERGED AFTER   9 CYCLES          *
               *****************************************************


----------------
TOTAL SCF ENERGY
----------------

Total Energy       :          -25.10366547 Eh            -683.10547 eV

Components:
Nuclear Repulsion  :            2.64588604 Eh              71.99822 eV
Electronic Energy  :          -27.74955151 Eh            -755.10369 eV
One Electron Energy:          -38.06719633 Eh           -1035.86107 eV
Two Electron Energy:           10.31764482 Eh             280.75739 eV

Virial components:
Potential Energy   :          -50.51140090 Eh           -1374.48510 eV
Kinetic Energy     :           25.40773543 Eh             691.37963 eV
Virial Ratio       :            1.98803239


---------------
SCF CONVERGENCE
---------------

  Last Energy change         ...   -1.9726e-10  Tolerance :   1.0000e-09
  Last MAX-Density change    ...    4.0175e-06  Tolerance :   1.0000e-08
  Last RMS-Density change    ...    5.6666e-08  Tolerance :   1.0000e-09
  Last Orbital Gradient      ...    3.9742e-07  Tolerance :   2.0000e-06
  Last Orbital Rotation      ...    9.1004e-07  Tolerance :   2.0000e-06

             **** THE GBW FILE WAS UPDATED (/scratch/BH-1.0-CCSD_T-O_765/BH-1.0-CCSD_T-O.gbw) ****
             **** DENSITY /scratch/BH-1.0-CCSD_T-O_765/BH-1.0-CCSD_T-O.scfp WAS UPDATED ****
             **** ENERGY FILE WAS UPDATED (/scratch/BH-1.0-CCSD_T-O_765/BH-1.0-CCSD_T-O.en.tmp) ****
             **** THE GBW FILE WAS UPDATED (/scratch/BH-1.0-CCSD_T-O_765/BH-1.0-CCSD_T-O.gbw) ****
             **** DENSITY /scratch/BH-1.0-CCSD_T-O_765/BH-1.0-CCSD_T-O.scfp WAS UPDATED ****
----------------
ORBITAL ENERGIES
----------------

  NO   OCC          E(Eh)            E(eV) 
   0   2.0000      -7.657473      -208.3704 
   1   2.0000      -0.716350       -19.4929 
   2   2.0000      -0.342131        -9.3099 
   3   0.0000       0.024708         0.6723 
   4   0.0000       0.024708         0.6723 
   5   0.0000       0.028642         0.7794 
   6   0.0000       0.044884         1.2214 
   7   0.0000       0.079668         2.1679 
   8   0.0000       0.079668         2.1679 
   9   0.0000       0.117201         3.1892 
  10   0.0000       0.132853         3.6151 
  11   0.0000       0.132853         3.6151 
  12   0.0000       0.145395         3.9564 
  13   0.0000       0.145395         3.9564 
  14   0.0000       0.147067         4.0019 
  15   0.0000       0.180598         4.9143 
  16   0.0000       0.273124         7.4321 
  17   0.0000       0.273124         7.4321 
  18   0.0000       0.277001         7.5376 
  19   0.0000       0.325090         8.8462 
  20   0.0000       0.325090         8.8462 
  21   0.0000       0.411599        11.2002 
  22   0.0000       0.437877        11.9152 
  23   0.0000       0.440625        11.9900 
  24   0.0000       0.440625        11.9900 
  25   0.0000       0.461617        12.5612 
  26   0.0000       0.461617        12.5612 
  27   0.0000       0.479015        13.0347 
  28   0.0000       0.479015        13.0347 
  29   0.0000       0.503380        13.6977 
  30   0.0000       0.503380        13.6977 
  31   0.0000       0.510228        13.8840 
  32   0.0000       0.567284        15.4366 
  33   0.0000       0.603624        16.4254 
  34   0.0000       0.603624        16.4254 
  35   0.0000       0.768710        20.9177 
  36   0.0000       0.776530        21.1305 
  37   0.0000       0.776530        21.1305 
  38   0.0000       0.805516        21.9192 
  39   0.0000       0.805516        21.9192 
  40   0.0000       0.964586        26.2477 
  41   0.0000       1.054167        28.6853 
  42   0.0000       1.054167        28.6853 
  43   0.0000       1.058278        28.7972 
  44   0.0000       1.183398        32.2019 
  45   0.0000       1.183398        32.2019 
  46   0.0000       1.370320        37.2883 
  47   0.0000       1.370320        37.2883 
  48   0.0000       1.372396        37.3448 
  49   0.0000       1.376267        37.4501 
  50   0.0000       1.376267        37.4501 
  51   0.0000       1.395745        37.9801 
  52   0.0000       1.395745        37.9801 
  53   0.0000       1.441698        39.2306 
  54   0.0000       1.441698        39.2306 
  55   0.0000       1.448623        39.4190 
  56   0.0000       1.448623        39.4190 
  57   0.0000       1.474281        40.1172 
  58   0.0000       1.474281        40.1172 
  59   0.0000       1.485062        40.4106 
  60   0.0000       1.604387        43.6576 
  61   0.0000       1.625298        44.2266 
  62   0.0000       1.625298        44.2266 
  63   0.0000       1.693259        46.0759 
  64   0.0000       1.693259        46.0759 
  65   0.0000       1.876270        51.0559 
  66   0.0000       1.883884        51.2631 
  67   0.0000       1.883884        51.2631 
  68   0.0000       1.918959        52.2175 
  69   0.0000       1.974034        53.7162 
  70   0.0000       1.974034        53.7162 
  71   0.0000       2.020107        54.9699 
  72   0.0000       2.020107        54.9699 
  73   0.0000       2.160057        58.7781 
  74   0.0000       2.251321        61.2616 
  75   0.0000       2.251321        61.2616 
  76   0.0000       2.884703        78.4968 
  77   0.0000       3.123120        84.9844 
  78   0.0000       3.123120        84.9844 
  79   0.0000       3.279649        89.2438 
  80   0.0000       3.279649        89.2438 
  81   0.0000       3.282475        89.3207 
  82   0.0000       3.335497        90.7635 
  83   0.0000       3.335497        90.7635 
  84   0.0000       3.912717       106.4704 
  85   0.0000       3.922977       106.7496 
  86   0.0000       3.922977       106.7496 
  87   0.0000       3.936681       107.1225 
  88   0.0000       3.936681       107.1225 
  89   0.0000       4.008158       109.0675 
  90   0.0000       4.008158       109.0675 
  91   0.0000       4.046544       110.1121 
  92   0.0000       4.046544       110.1121 
  93   0.0000       4.068671       110.7142 
  94   0.0000       4.068671       110.7142 
  95   0.0000       4.100610       111.5833 
  96   0.0000       4.100610       111.5833 
  97   0.0000       4.139761       112.6486 
  98   0.0000       4.331968       117.8788 
  99   0.0000       4.331968       117.8788 
 100   0.0000       4.499487       122.4373 
 101   0.0000       4.524807       123.1263 
 102   0.0000       4.524807       123.1263 
 103   0.0000       4.642242       126.3218 
 104   0.0000       4.642242       126.3218 
 105   0.0000       5.460445       148.5863 
 106   0.0000       5.676268       154.4591 
 107   0.0000       5.834653       158.7690 
 108   0.0000       5.834653       158.7690 
 109   0.0000       6.863049       186.7531 
 110   0.0000       6.863049       186.7531 
 111   0.0000       7.669750       208.7045 
 112   0.0000       7.669750       208.7045 
 113   0.0000       7.931068       215.8153 
 114   0.0000       7.958400       216.5591 
 115   0.0000       7.958400       216.5591 
 116   0.0000       8.643064       235.1897 
 117   0.0000       9.033887       245.8246 
 118   0.0000       9.033887       245.8246 
 119   0.0000       9.245210       251.5750 
 120   0.0000       9.245210       251.5750 
 121   0.0000       9.904266       269.5088 
 122   0.0000       9.904266       269.5088 
 123   0.0000      10.244480       278.7665 
 124   0.0000      11.318321       307.9872 
 125   0.0000      17.655074       480.4190 

                    ********************************
                    * MULLIKEN POPULATION ANALYSIS *
                    ********************************

-----------------------
MULLIKEN ATOMIC CHARGES
-----------------------
   0 B :    0.026696
   1 H :   -0.026696
Sum of atomic charges:   -0.0000000

--------------------------------
MULLIKEN REDUCED ORBITAL CHARGES
--------------------------------
  0 B s       :     3.795090  s :     3.795090
      pz      :    -0.000000  p :     1.136992
      px      :     1.136992
      py      :     0.000000
      dz2     :     0.009723  d :     0.038893
      dxz     :    -0.000000
      dyz     :     0.000000
      dx2y2   :     0.029169
      dxy     :     0.000000
      f0      :    -0.000000  f :     0.002065
      f+1     :     0.000774
      f-1     :     0.000000
      f+2     :     0.000000
      f-2     :    -0.000000
      f+3     :     0.001290
      f-3     :     0.000000
      g0      :     0.000037  g :     0.000264
      g+1     :    -0.000000
      g-1     :     0.000000
      g+2     :     0.000083
      g-2     :     0.000000
      g+3     :     0.000000
      g-3     :     0.000000
      g+4     :     0.000145
      g-4     :     0.000000
  1 H s       :     1.033679  s :     1.033679
      pz      :     0.000000  p :    -0.004501
      px      :    -0.004501
      py      :     0.000000
      dz2     :    -0.000585  d :    -0.002339
      dxz     :     0.000000
      dyz     :     0.000000
      dx2y2   :    -0.001754
      dxy     :    -0.000000
      f0      :    -0.000000  f :    -0.000143
      f+1     :    -0.000054
      f-1     :    -0.000000
      f+2     :     0.000000
      f-2     :     0.000000
      f+3     :    -0.000090
      f-3     :    -0.000000


                     *******************************
                     * LOEWDIN POPULATION ANALYSIS *
                     *******************************

----------------------
LOEWDIN ATOMIC CHARGES
----------------------
   0 B :    0.608962
   1 H :   -0.608962

-------------------------------
LOEWDIN REDUCED ORBITAL CHARGES
-------------------------------
  0 B s       :     3.092903  s :     3.092903
      pz      :     0.000000  p :     1.221768
      px      :     1.221768
      py      :     0.000000
      dz2     :     0.015636  d :     0.062545
      dxz     :     0.000000
      dyz     :     0.000000
      dx2y2   :     0.046908
      dxy     :     0.000000
      f0      :     0.000000  f :     0.011066
      f+1     :     0.004150
      f-1     :     0.000000
      f+2     :     0.000000
      f-2     :     0.000000
      f+3     :     0.006917
      f-3     :     0.000000
      g0      :     0.000388  g :     0.002756
      g+1     :     0.000000
      g-1     :     0.000000
      g+2     :     0.000861
      g-2     :     0.000000
      g+3     :     0.000000
      g-3     :     0.000000
      g+4     :     0.001507
      g-4     :     0.000000
  1 H s       :     1.101537  s :     1.101537
      pz      :     0.000000  p :     0.361779
      px      :     0.361779
      py      :     0.000000
      dz2     :     0.026864  d :     0.107455
      dxz     :     0.000000
      dyz     :     0.000000
      dx2y2   :     0.080591
      dxy     :     0.000000
      f0      :     0.000000  f :     0.038191
      f+1     :     0.014322
      f-1     :     0.000000
      f+2     :     0.000000
      f-2     :     0.000000
      f+3     :     0.023870
      f-3     :     0.000000


                      *****************************
                      * MAYER POPULATION ANALYSIS *
                      *****************************

  NA   - Mulliken gross atomic population
  ZA   - Total nuclear charge
  QA   - Mulliken gross atomic charge
  VA   - Mayer's total valence
  BVA  - Mayer's bonded valence
  FA   - Mayer's free valence

  ATOM       NA         ZA         QA         VA         BVA        FA
  0 B      4.9733     5.0000     0.0267     0.8230     0.8230    -0.0000
  1 H      1.0267     1.0000    -0.0267     0.8230     0.8230    -0.0000

  Mayer bond orders larger than 0.100000
B(  0-B ,  1-H ) :   0.8230 

-------
TIMINGS
-------

Total SCF time: 0 days 0 hours 0 min 10 sec 

Total time                  ....      10.426 sec
Sum of individual times     ....      10.301 sec  ( 98.8%)

Fock matrix formation       ....      10.249 sec  ( 98.3%)
Diagonalization             ....       0.007 sec  (  0.1%)
Density matrix formation    ....       0.001 sec  (  0.0%)
Population analysis         ....       0.001 sec  (  0.0%)
Initial guess               ....       0.024 sec  (  0.2%)
Orbital Transformation      ....       0.000 sec  (  0.0%)
Orbital Orthonormalization  ....       0.000 sec  (  0.0%)
DIIS solution               ....       0.002 sec  (  0.0%)
SOSCF solution              ....       0.005 sec  (  0.0%)

Maximum memory used throughout the entire SCF-calculation: 257.2 MB


------------------------------------------------------------------------------- 
                              ORCA-MATRIX DRIVEN CI                            
------------------------------------------------------------------------------- 

--------------------------------
AUTOMATIC CHOICE OF INCORE LEVEL
--------------------------------

Memory available                           ...    256.00 MB
Memory needed for S+T                      ...      1.04 MB
Memory needed for J+K                      ...      2.08 MB
Memory needed for DIIS                     ...     14.54 MB
Memory needed for 3-ext                    ...     28.39 MB
Memory needed for 4-ext                    ...    880.23 MB
Memory needed for triples                  ...     70.99 MB
 -> Final InCoreLevel    ... 4
 -> check shows that triples correction can be computed


Wavefunction type
-----------------
Correlation treatment                      ...      CCSD     
Single excitations                         ... ON
Orbital optimization                       ... OFF
Calculation of Z vector                    ... OFF
Calculation of Brueckner orbitals          ... OFF
Perturbative triple excitations            ... ON
Calculation of F12 correction              ... OFF
Frozen core treatment                      ... chemical core (2 el)
Reference Wavefunction                     ... RHF
  Internal Orbitals:     1 ...    2 (  2 MO's/  4 electrons)
  Virtual  Orbitals:     3 ...  125 (123 MO's              )
Number of AO's                             ...    126
Number of electrons                        ...      6
Number of correlated electrons             ...      4

Algorithmic settings
--------------------
Integral transformation                    ... AO direct full transformation
K(C) Formation                             ... FULL-MO TRAFO
Maximum number of iterations               ...        50
Convergence tolerance (max. residuum)      ... 1.000e-06
Level shift for amplitude update           ... 2.000e-01
Maximum number of DIIS vectors             ...         7
DIIS turned on at iteration                ...         0
Damping before turning on DIIS             ...     0.500
Damping after turning on DIIS              ...     0.000
Pair specific amplitude update             ... OFF
Natural orbital iterations                 ... OFF
Perturbative natural orbital generation    ... OFF
Printlevel                                 ... 2

Memory handling:
----------------
Maximum memory for working arrays          ...    256 MB
Data storage in matrix containers          ... UNCOMPRESSED
Data type for integral storage             ... DOUBLE
In-Core Storage of quantities:
   Amplitudes+Sigma Vector      ... YES
   J+K operators                ... YES
   DIIS vectors                 ... YES
   3-external integrals         ... YES
   4-external integrals         ... NO


Initializing the integral package          ... done
Warning: reference  - re-canonicalizations have been set to INT 1 VIRT 1

--------------------------
CLOSED-SHELL FOCK OPERATOR
--------------------------

Restoring SHARK [2] ... ok
Recanonicalizing the internal orbitals
Recanonicalizing the virtual orbitals
Time needed for Fock operator              ...            1.217 sec
Reference energy                           ...    -25.103665468

------------------------------
PARTIAL COULOMB TRANSFORMATION
------------------------------

Transformation type                        ... one-operator
Dimension of the basis                     ...  126
Number of internal MOs                     ...  125 (1-125)
Pair cutoff                                ... 0.000e+00 Eh
Number of AO pairs included in the trafo   ... 8001
Total Number of distinct AO pairs          ... 8001
Memory devoted for trafo                   ...  256.0 MB 
Max. Number of MO pairs treated together   ... 4193      
Max. Number of MOs treated per batch       ...   33      
Number Format for Storage                  ... Double (8 Byte)
AO-integral source                         ... DIRECT
Integral package used                      ... LIBINT

Starting integral evaluation:
<ss|**>:        39270 b        0 skpd     0.081 s (  0.002 ms/b)
<sp|**>:        58905 b        0 skpd     0.151 s (  0.003 ms/b)
<sd|**>:        45815 b        0 skpd     0.201 s (  0.004 ms/b)
<sf|**>:        32725 b        0 skpd     0.248 s (  0.008 ms/b)
<sg|**>:        13090 b        0 skpd     0.164 s (  0.013 ms/b)
<pp|**>:        26775 b        0 skpd     0.149 s (  0.006 ms/b)
<pd|**>:        37485 b        0 skpd     0.353 s (  0.009 ms/b)
<pf|**>:        26775 b        0 skpd     0.383 s (  0.014 ms/b)
<pg|**>:        10710 b        0 skpd     0.232 s (  0.022 ms/b)
<dd|**>:        16660 b        0 skpd     0.260 s (  0.016 ms/b)
<df|**>:        20825 b        0 skpd     0.542 s (  0.026 ms/b)
<dg|**>:         8330 b        0 skpd     0.310 s (  0.037 ms/b)
<ff|**>:         8925 b        0 skpd     0.360 s (  0.040 ms/b)
<fg|**>:         5950 b        0 skpd     0.680 s (  0.114 ms/b)
<gg|**>:         1785 b        0 skpd     0.144 s (  0.080 ms/b)
Closing buffer AOJ ( 0.47 GB; CompressionRatio= 1.00)
Collecting buffer AOJ 
    ... done with AO integral generation
Number of MO pairs included in the trafo   ... 7875
    ... Now sorting integrals
IBATCH = 1 of  2
IBATCH = 2 of  2
Closing buffer JAO ( 0.47 GB; CompressionRatio= 1.00)
Collecting buffer JAO 
TOTAL TIME for half transformation         ...     7.808 sec
AO-integral generation                     ...     2.150 sec
Half transformation                        ...     2.111 sec
J-integral sorting                         ...     3.503 sec

-------------------------- SECOND HALF TRANSFORMATION -------------------------
Formation of (pq|rs)                       ... ok (     7.255 sec)
Integral sorting                           ... ok (     6.048 sec)

------------------
CLOSED SHELL GUESS
------------------

Initial guess performed in     0.000 sec
E(0)                                       ...    -25.103665468
E(MP2)                                     ...     -0.078210885
Initial E(tot)                             ...    -25.181876353
<T|T>                                      ...      0.034718391
Number of pairs included                   ... 3
Total number of pairs                      ... 3

------------------------------------------------
                  RHF COUPLED CLUSTER ITERATIONS
------------------------------------------------

Number of amplitudes to be optimized       ... 45633

Iter       E(tot)           E(Corr)          Delta-E          Residual     Time
  0    -25.181876353     -0.078210885      0.000000000      0.010388971    0.55
                           *** Turning on DIIS ***
  1    -25.192908773     -0.089243305     -0.011032419      0.007935442    1.90
  2    -25.199842253     -0.096176785     -0.006933481      0.004840578    1.88
  3    -25.202453343     -0.098787875     -0.002611089      0.002689996    1.86
  4    -25.203613812     -0.099948344     -0.001160469      0.001073814    1.88
  5    -25.203953839     -0.100288371     -0.000340028      0.000385931    1.87
  6    -25.204052371     -0.100386903     -0.000098532      0.000130637    1.87
  7    -25.204074651     -0.100409183     -0.000022280      0.000043618    1.90
  8    -25.204076436     -0.100410968     -0.000001784      0.000009112    1.88
  9    -25.204076283     -0.100410815      0.000000152      0.000004261    1.87
 10    -25.204076045     -0.100410577      0.000000238      0.000001714    1.87
 11    -25.204075944     -0.100410476      0.000000101      0.000000779    1.88
               --- The Coupled-Cluster iterations have converged ---

----------------------
COUPLED CLUSTER ENERGY
----------------------

E(0)                                       ...    -25.103665468
E(CORR)                                    ...     -0.100410476
E(TOT)                                     ...    -25.204075944
Singles Norm <S|S>**1/2                    ...      0.026498898  
T1 diagnostic                              ...      0.013249449  

------------------
LARGEST AMPLITUDES
------------------
   2->  8   2->  8       0.063841
   2->  7   2->  7       0.063841
   2->  8   2->  4       0.055553
   2->  4   2->  8       0.055553
   2->  3   2->  7       0.055553
   2->  7   2->  3       0.055553
   2->  3   2->  3       0.050127
   2->  4   2->  4       0.050127
   2-> 21   2-> 21       0.036183
   2->  8   2-> 20       0.035977
   2-> 19   2->  7       0.035977
   2->  7   2-> 19       0.035977
   2-> 20   2->  8       0.035977
   2->  3   2-> 19       0.032215
   2-> 19   2->  3       0.032215
   2-> 20   2->  4       0.032215


        !!!!!!!!!!!!!!!!!!!!!!!!!!!!!!!!!!!!!!!!!!!!!!!!!!!!!!!!!!!!!!!!!!!!!!!!!! 
        !  Warning: Densities are linearized densities !                         !
        !!!!!!!!!!!!!!!!!!!!!!!!!!!!!!!!!!!!!!!!!!!!!!!!!!!!!!!!!!!!!!!!!!!!!!!!!! 

Trace of internal density part =     -0.181736803
Trace of external density part =      0.181736803
----------------------
RHF TRIPLES CORRECTION (Algorithm 1)
----------------------

Multiplier for the singles contribution    ...      1.000000000

10% done
20% done
30% done
40% done
50% done
60% done
70% done
80% done
90% done

Triples Correction (T)                     ...     -0.002109201
Scaling of triples based on CCSD energies (Peterson et al. Molecular Physics 113, 1551 (2015))
E(T*) = f*E(T) where f = E(F12-CCSD)/E(CCSD) 
f = CCSD (with F12)/ CCSD (without F12)    ...      1.000000000
Scaled triples correction (T)              ...     -0.002109201

Final correlation energy                   ...     -0.102519677
E(CCSD)                                    ...    -25.204075944
E(CCSD(T))                                 ...    -25.206185145

NORM  =      1.091570593 sqrt=     1.044782558
W(HF) =      0.916111158
------------------------------------------------------------------------------
                           ORCA POPULATION ANALYSIS
------------------------------------------------------------------------------
Input electron density              ... /scratch/BH-1.0-CCSD_T-O_765/BH-1.0-CCSD_T-O.mdcip
BaseName (.gbw .S,...)              ... /scratch/BH-1.0-CCSD_T-O_765/BH-1.0-CCSD_T-O

                    ********************************
                    * MULLIKEN POPULATION ANALYSIS *
                    ********************************

-----------------------
MULLIKEN ATOMIC CHARGES
-----------------------
   0 B :    0.041362
   1 H :   -0.041362
Sum of atomic charges:   -0.0000000

--------------------------------
MULLIKEN REDUCED ORBITAL CHARGES
--------------------------------
  0 B s       :     3.690751  s :     3.690751
      pz      :     0.059420  p :     1.207236
      px      :     1.088396
      py      :     0.059420
      dz2     :     0.010647  d :     0.057228
      dxz     :     0.007432
      dyz     :     0.000226
      dx2y2   :     0.031490
      dxy     :     0.007432
      f0      :     0.000221  f :     0.002920
      f+1     :     0.000649
      f-1     :     0.000052
      f+2     :     0.000357
      f-2     :     0.000102
      f+3     :     0.001014
      f-3     :     0.000526
      g0      :     0.000049  g :     0.000503
      g+1     :     0.000045
      g-1     :     0.000005
      g+2     :     0.000096
      g-2     :     0.000019
      g+3     :     0.000038
      g-3     :     0.000022
      g+4     :     0.000166
      g-4     :     0.000064
  1 H s       :     1.026029  s :     1.026029
      pz      :     0.005102  p :     0.014805
      px      :     0.004602
      py      :     0.005102
      dz2     :    -0.000463  d :     0.000177
      dxz     :     0.001060
      dyz     :     0.000090
      dx2y2   :    -0.001570
      dxy     :     0.001060
      f0      :     0.000091  f :     0.000352
      f+1     :    -0.000046
      f-1     :     0.000022
      f+2     :     0.000145
      f-2     :     0.000009
      f+3     :    -0.000082
      f-3     :     0.000213


                     *******************************
                     * LOEWDIN POPULATION ANALYSIS *
                     *******************************

----------------------
LOEWDIN ATOMIC CHARGES
----------------------
   0 B :    0.610563
   1 H :   -0.610563

-------------------------------
LOEWDIN REDUCED ORBITAL CHARGES
-------------------------------
  0 B s       :     3.029942  s :     3.029942
      pz      :     0.043225  p :     1.256038
      px      :     1.169589
      py      :     0.043225
      dz2     :     0.017185  d :     0.086229
      dxz     :     0.008832
      dyz     :     0.000176
      dx2y2   :     0.051203
      dxy     :     0.008832
      f0      :     0.000344  f :     0.013735
      f+1     :     0.004456
      f-1     :     0.000072
      f+2     :     0.000562
      f-2     :     0.000117
      f+3     :     0.007350
      f-3     :     0.000834
      g0      :     0.000450  g :     0.003493
      g+1     :     0.000084
      g-1     :     0.000006
      g+2     :     0.000985
      g-2     :     0.000027
      g+3     :     0.000068
      g-3     :     0.000026
      g+4     :     0.001722
      g-4     :     0.000125
  1 H s       :     1.073194  s :     1.073194
      pz      :     0.010029  p :     0.371761
      px      :     0.351703
      py      :     0.010029
      dz2     :     0.026395  d :     0.121338
      dxz     :     0.007929
      dyz     :     0.000097
      dx2y2   :     0.078989
      dxy     :     0.007929
      f0      :     0.001066  f :     0.044269
      f+1     :     0.014469
      f-1     :     0.000185
      f+2     :     0.001771
      f-2     :     0.000031
      f+3     :     0.024095
      f-3     :     0.002652


                      *****************************
                      * MAYER POPULATION ANALYSIS *
                      *****************************

  NA   - Mulliken gross atomic population
  ZA   - Total nuclear charge
  QA   - Mulliken gross atomic charge
  VA   - Mayer's total valence
  BVA  - Mayer's bonded valence
  FA   - Mayer's free valence

  ATOM       NA         ZA         QA         VA         BVA        FA
  0 B      4.9586     5.0000     0.0414     1.4504     0.8319     0.6185
  1 H      1.0414     1.0000    -0.0414     0.9034     0.8319     0.0715

  Mayer bond orders larger than 0.100000
B(  0-B ,  1-H ) :   0.8319 



------------------------------------------------------------------------------- 
                                     TIMINGS                                   
------------------------------------------------------------------------------- 


Total execution time                   ...       43.997 sec

Fock Matrix Formation                  ...        1.217 sec (  2.8%)
Initial Guess                          ...        0.000 sec (  0.0%)
DIIS Solver                            ...        0.027 sec (  0.1%)
State Vector Update                    ...        0.001 sec (  0.0%)
Sigma-vector construction              ...       21.178 sec ( 48.1%)
  <0|H|D>                              ...        0.003 sec (  0.0% of sigma)
  <D|H|D>(0-ext)                       ...        0.006 sec (  0.0% of sigma)
  <D|H|D>(2-ext Fock)                  ...        0.005 sec (  0.0% of sigma)
  <D|H|D>(2-ext)                       ...        0.040 sec (  0.2% of sigma)
  <D|H|D>(4-ext)                       ...        4.744 sec ( 22.4% of sigma)
  <D|H|D>(4-ext-corr)                  ...        0.952 sec (  4.5% of sigma)
  <S|H|0>                              ...        0.002 sec (  0.0% of sigma)
  <S|H|S>                              ...        0.003 sec (  0.0% of sigma)
  <S|H|D>(1-ext)                       ...        0.004 sec (  0.0% of sigma)
  <D|H|S>(1-ext)                       ...        0.008 sec (  0.0% of sigma)
  <S|H|D>(3-ext)                       ...        0.158 sec (  0.7% of sigma)
  Fock-dressing                        ...       14.972 sec ( 70.7% of sigma)
  (ik|jl)-dressing                     ...        0.004 sec (  0.0% of sigma)
  (ij|ab),(ia|jb)-dressing             ...        0.231 sec (  1.1% of sigma)
  Pair energies                        ...        0.003 sec (  0.0% of sigma)
Total Time for computing (T)           ...        0.233 sec (  0.5% of ALL)
  I/O of integral and amplitudes       ...        0.032 sec ( 13.8% of (T))
  N**6 sorting step                    ...        0.049 sec ( 21.1% of (T))
  External N**7 contributions          ...        0.112 sec ( 48.0% of (T))
  Internal N**7 contributions          ...        0.011 sec (  4.6% of (T))
  N**6 triples energy contributions    ...        0.029 sec ( 12.6% of (T))
One-particle density matrix            ...        0.001 sec (  0.0%)


Maximum memory used throughout the entire MDCI-calculation: 400.0 MB

-------------------------   --------------------
FINAL SINGLE POINT ENERGY       -25.206185144567
-------------------------   --------------------


                            ***************************************
                            *     ORCA property calculations      *
                            ***************************************

                                    ---------------------
                                    Active property flags
                                    ---------------------
   (+) Dipole Moment


------------------------------------------------------------------------------
                       ORCA ELECTRIC PROPERTIES CALCULATION
------------------------------------------------------------------------------

Dipole Moment Calculation                       ... on
Quadrupole Moment Calculation                   ... off
Polarizability Calculation                      ... off
GBWName                                         ... /scratch/BH-1.0-CCSD_T-O_765/BH-1.0-CCSD_T-O.gbw
Electron density file                           ... /scratch/BH-1.0-CCSD_T-O_765/BH-1.0-CCSD_T-O.scfp
The origin for moment calculation is the CENTER OF MASS  = ( 0.161182,  0.000000  0.000000)

-------------
DIPOLE MOMENT
-------------
                                X             Y             Z
Electronic contribution:     -0.00358      -0.00000      -0.00000
Nuclear contribution   :      0.92264       0.00000       0.00000
                        -----------------------------------------
Total Dipole Moment    :      0.91905      -0.00000      -0.00000
                        -----------------------------------------
Magnitude (a.u.)       :      0.91905
Magnitude (Debye)      :      2.33605



--------------------
Rotational spectrum 
--------------------
 
Rotational constants in cm-1:     0.000000    18.283303    18.283303 
Rotational constants in MHz :     0.000000 548119.639641 548119.639641 

 Dipole components along the rotational axes: 
x,y,z [a.u.] :     0.919053    -0.000000    -0.000000 
x,y,z [Debye]:     2.336046    -0.000000    -0.000000 

 

                           *** MDCI DENSITY ***

------------------------------------------------------------------------------
                       ORCA ELECTRIC PROPERTIES CALCULATION
------------------------------------------------------------------------------

Dipole Moment Calculation                       ... on
Quadrupole Moment Calculation                   ... off
Polarizability Calculation                      ... off
GBWName                                         ... /scratch/BH-1.0-CCSD_T-O_765/BH-1.0-CCSD_T-O.gbw
Electron density file                           ... /scratch/BH-1.0-CCSD_T-O_765/BH-1.0-CCSD_T-O.mdcip
The origin for moment calculation is the CENTER OF MASS  = ( 0.161182,  0.000000  0.000000)

-------------
DIPOLE MOMENT
-------------
                                X             Y             Z
Electronic contribution:     -0.14749      -0.00000      -0.00000
Nuclear contribution   :      0.92264       0.00000       0.00000
                        -----------------------------------------
Total Dipole Moment    :      0.77514      -0.00000      -0.00000
                        -----------------------------------------
Magnitude (a.u.)       :      0.77514
Magnitude (Debye)      :      1.97026



--------------------
Rotational spectrum 
--------------------
 
Rotational constants in cm-1:     0.000000    18.283303    18.283303 
Rotational constants in MHz :     0.000000 548119.639641 548119.639641 

 Dipole components along the rotational axes: 
x,y,z [a.u.] :     0.775143    -0.000000    -0.000000 
x,y,z [Debye]:     1.970257    -0.000000    -0.000000 

 

Timings for individual modules:

Sum of individual times         ...       54.746 sec (=   0.912 min)
GTO integral calculation        ...        0.126 sec (=   0.002 min)   0.2 %
SCF iterations                  ...       10.443 sec (=   0.174 min)  19.1 %
MDCI module                     ...       44.177 sec (=   0.736 min)  80.7 %
                             ****ORCA TERMINATED NORMALLY****
TOTAL RUN TIME: 0 days 0 hours 0 minutes 54 seconds 871 msec

Sender: Unischeduler System <lcz@mgt01>
Subject: Job 134117: <#!/bin/bash
#BSUB -J intel
#BSUB -o BH-1.0-CCSD_T-O.out
#BSUB -n 1
#BSUB -q cqueue
export LD_LIBRARY_PATH=/apps/software/openmpi-4.1.1/lib:/apps/software/orca_5_0_0:$LD_LIBRARY_PATH
export PATH=/apps/software/openmpi-4.1.1/bin:/apps/software/orca_5_0_0:$PATH
mkdir /scratch/BH-1.0-CCSD_T-O_765
scp $USER@mgt01:/apps/users/lcz/exe13/CCSD_T/BH-1.0-CCSD_T-O.inp /scratch/BH-1.0-CCSD_T-O_765
/apps/software/orca_5_0_0/orca /scratch/BH-1.0-CCSD_T-O_765/BH-1.0-CCSD_T-O.inp >& BH-1.0-CCSD_T-O.out
scp /scratch/BH-1.0-CCSD_T-O_765/*.gbw $USER@mgt01:/apps/users/lcz/exe13/CCSD_T
scp /scratch/BH-1.0-CCSD_T-O_765/*.xyz $USER@mgt01:/apps/users/lcz/exe13/CCSD_T
scp /scratch/BH-1.0-CCSD_T-O_765/*.trj $USER@mgt01:/apps/users/lcz/exe13/CCSD_T> Exited

Job <#!/bin/bash
#BSUB -J intel
#BSUB -o BH-1.0-CCSD_T-O.out
#BSUB -n 1
#BSUB -q cqueue
export LD_LIBRARY_PATH=/apps/software/openmpi-4.1.1/lib:/apps/software/orca_5_0_0:$LD_LIBRARY_PATH
export PATH=/apps/software/openmpi-4.1.1/bin:/apps/software/orca_5_0_0:$PATH
mkdir /scratch/BH-1.0-CCSD_T-O_765
scp $USER@mgt01:/apps/users/lcz/exe13/CCSD_T/BH-1.0-CCSD_T-O.inp /scratch/BH-1.0-CCSD_T-O_765
/apps/software/orca_5_0_0/orca /scratch/BH-1.0-CCSD_T-O_765/BH-1.0-CCSD_T-O.inp >& BH-1.0-CCSD_T-O.out
scp /scratch/BH-1.0-CCSD_T-O_765/*.gbw $USER@mgt01:/apps/users/lcz/exe13/CCSD_T
scp /scratch/BH-1.0-CCSD_T-O_765/*.xyz $USER@mgt01:/apps/users/lcz/exe13/CCSD_T
scp /scratch/BH-1.0-CCSD_T-O_765/*.trj $USER@mgt01:/apps/users/lcz/exe13/CCSD_T> was submitted from host <mgt01> by user <lcz>.
Job was executed on host(s) <1*cnode01>, in queue <cqueue>, as user <lcz>.
</apps/users/lcz> was used as the home directory.
</apps/users/lcz/exe13/CCSD_T> was used as the working directory.
Started at 2022-05-22 16:49:06
Results reported at 2022-05-22 16:50:02

Your job looked like:

------------------------------------------------------------
# User input
#!/bin/bash
#BSUB -J intel
#BSUB -o BH-1.0-CCSD_T-O.out
#BSUB -n 1
#BSUB -q cqueue
export LD_LIBRARY_PATH=/apps/software/openmpi-4.1.1/lib:/apps/software/orca_5_0_0:$LD_LIBRARY_PATH
export PATH=/apps/software/openmpi-4.1.1/bin:/apps/software/orca_5_0_0:$PATH
mkdir /scratch/BH-1.0-CCSD_T-O_765
scp $USER@mgt01:/apps/users/lcz/exe13/CCSD_T/BH-1.0-CCSD_T-O.inp /scratch/BH-1.0-CCSD_T-O_765
/apps/software/orca_5_0_0/orca /scratch/BH-1.0-CCSD_T-O_765/BH-1.0-CCSD_T-O.inp >& BH-1.0-CCSD_T-O.out
scp /scratch/BH-1.0-CCSD_T-O_765/*.gbw $USER@mgt01:/apps/users/lcz/exe13/CCSD_T
scp /scratch/BH-1.0-CCSD_T-O_765/*.xyz $USER@mgt01:/apps/users/lcz/exe13/CCSD_T
scp /scratch/BH-1.0-CCSD_T-O_765/*.trj $USER@mgt01:/apps/users/lcz/exe13/CCSD_T
------------------------------------------------------------

Exited with exit code 1.

Resource usage summary:

    CPU time   :           45.55 sec.
    Max Memory :               326 MB
    Max Processes  :               5


The output (if any) follows:

/scratch/BH-1.0-CCSD_T-O_765/*.xyz: No such file or directory
/scratch/BH-1.0-CCSD_T-O_765/*.trj: No such file or directory
