 Entering Gaussian System, Link 0=/apps/software/g16/g16
 Initial command:
 /apps/software/g16/l1.exe "/scratch/Gau-314342.inp" -scrdir="/scratch/"
 Entering Link 1 = /apps/software/g16/l1.exe PID=    314343.
  
 Copyright (c) 1988,1990,1992,1993,1995,1998,2003,2009,2016,
            Gaussian, Inc.  All Rights Reserved.
  
 This is part of the Gaussian(R) 16 program.  It is based on
 the Gaussian(R) 09 system (copyright 2009, Gaussian, Inc.),
 the Gaussian(R) 03 system (copyright 2003, Gaussian, Inc.),
 the Gaussian(R) 98 system (copyright 1998, Gaussian, Inc.),
 the Gaussian(R) 94 system (copyright 1995, Gaussian, Inc.),
 the Gaussian 92(TM) system (copyright 1992, Gaussian, Inc.),
 the Gaussian 90(TM) system (copyright 1990, Gaussian, Inc.),
 the Gaussian 88(TM) system (copyright 1988, Gaussian, Inc.),
 the Gaussian 86(TM) system (copyright 1986, Carnegie Mellon
 University), and the Gaussian 82(TM) system (copyright 1983,
 Carnegie Mellon University). Gaussian is a federally registered
 trademark of Gaussian, Inc.
  
 This software contains proprietary and confidential information,
 including trade secrets, belonging to Gaussian, Inc.
  
 This software is provided under written license and may be
 used, copied, transmitted, or stored only in accord with that
 written license.
  
 The following legend is applicable only to US Government
 contracts under FAR:
  
                    RESTRICTED RIGHTS LEGEND
  
 Use, reproduction and disclosure by the US Government is
 subject to restrictions as set forth in subparagraphs (a)
 and (c) of the Commercial Computer Software - Restricted
 Rights clause in FAR 52.227-19.
  
 Gaussian, Inc.
 340 Quinnipiac St., Bldg. 40, Wallingford CT 06492
  
  
 ---------------------------------------------------------------
 Warning -- This program may not be used in any manner that
 competes with the business of Gaussian, Inc. or will provide
 assistance to any competitor of Gaussian, Inc.  The licensee
 of this program is prohibited from giving any competitor of
 Gaussian, Inc. access to this program.  By using this program,
 the user acknowledges that Gaussian, Inc. is engaged in the
 business of creating and licensing software in the field of
 computational chemistry and represents and warrants to the
 licensee that it is not a competitor of Gaussian, Inc. and that
 it will not use this program in any manner prohibited above.
 ---------------------------------------------------------------
  

 Cite this work as:
 Gaussian 16, Revision A.03,
 M. J. Frisch, G. W. Trucks, H. B. Schlegel, G. E. Scuseria, 
 M. A. Robb, J. R. Cheeseman, G. Scalmani, V. Barone, 
 G. A. Petersson, H. Nakatsuji, X. Li, M. Caricato, A. V. Marenich, 
 J. Bloino, B. G. Janesko, R. Gomperts, B. Mennucci, H. P. Hratchian, 
 J. V. Ortiz, A. F. Izmaylov, J. L. Sonnenberg, D. Williams-Young, 
 F. Ding, F. Lipparini, F. Egidi, J. Goings, B. Peng, A. Petrone, 
 T. Henderson, D. Ranasinghe, V. G. Zakrzewski, J. Gao, N. Rega, 
 G. Zheng, W. Liang, M. Hada, M. Ehara, K. Toyota, R. Fukuda, 
 J. Hasegawa, M. Ishida, T. Nakajima, Y. Honda, O. Kitao, H. Nakai, 
 T. Vreven, K. Throssell, J. A. Montgomery, Jr., J. E. Peralta, 
 F. Ogliaro, M. J. Bearpark, J. J. Heyd, E. N. Brothers, K. N. Kudin, 
 V. N. Staroverov, T. A. Keith, R. Kobayashi, J. Normand, 
 K. Raghavachari, A. P. Rendell, J. C. Burant, S. S. Iyengar, 
 J. Tomasi, M. Cossi, J. M. Millam, M. Klene, C. Adamo, R. Cammi, 
 J. W. Ochterski, R. L. Martin, K. Morokuma, O. Farkas, 
 J. B. Foresman, and D. J. Fox, Gaussian, Inc., Wallingford CT, 2016.
 
 ******************************************
 Gaussian 16:  ES64L-G16RevA.03 25-Dec-2016
                26-May-2022 
 ******************************************
 %chk=BH-1.1-CCSD_T-G.chk
 -----------------------------
 #p RHF/aug-cc-pVQZ CCSD(T,FC)
 -----------------------------
 1/38=1,172=1/1;
 2/12=2,17=6,18=5,40=1/2;
 3/5=16,6=2,7=10,11=1,25=1,30=1,116=1/1,2,3;
 4//1;
 5/5=2,38=5/2;
 8/6=4,9=120000,10=1/1,4;
 9/5=7,14=2/13;
 6/7=2,8=2,9=2,10=2/1;
 99/5=1,9=1/99;
 Leave Link    1 at Thu May 26 10:45:16 2022, MaxMem=           0 cpu:               0.0 elap:               0.0
 (Enter /apps/software/g16/l101.exe)
 --------------------------
 BH CCSD(T) at 1.1 Angstrom
 --------------------------
 Symbolic Z-matrix:
 Charge =  0 Multiplicity = 1
 B                     0.        0.        0. 
 H                     1.1       0.        0. 
 
 ITRead=  0  0
 MicOpt= -1 -1
 NAtoms=      2 NQM=        2 NQMF=       0 NMMI=      0 NMMIF=      0
                NMic=       0 NMicF=      0.
                    Isotopes and Nuclear Properties:
 (Nuclear quadrupole moments (NQMom) in fm**2, nuclear magnetic moments (NMagM)
  in nuclear magnetons)

  Atom         1           2
 IAtWgt=          11           1
 AtmWgt=  11.0093053   1.0078250
 NucSpn=           3           1
 AtZEff=  -0.0000000  -0.0000000
 NQMom=    4.0590000   0.0000000
 NMagM=    2.6886370   2.7928460
 AtZNuc=   5.0000000   1.0000000
 Leave Link  101 at Thu May 26 10:45:16 2022, MaxMem=   104857600 cpu:               0.1 elap:               0.1
 (Enter /apps/software/g16/l202.exe)
                          Input orientation:                          
 ---------------------------------------------------------------------
 Center     Atomic      Atomic             Coordinates (Angstroms)
 Number     Number       Type             X           Y           Z
 ---------------------------------------------------------------------
      1          5           0        0.000000    0.000000    0.000000
      2          1           0        1.100000    0.000000    0.000000
 ---------------------------------------------------------------------
 Stoichiometry    BH
 Framework group  C*V[C*(HB)]
 Deg. of freedom     1
 Full point group                 C*V     NOp   4
 Largest Abelian subgroup         C2V     NOp   4
 Largest concise Abelian subgroup C1      NOp   1
                         Standard orientation:                         
 ---------------------------------------------------------------------
 Center     Atomic      Atomic             Coordinates (Angstroms)
 Number     Number       Type             X           Y           Z
 ---------------------------------------------------------------------
      1          5           0        0.000000    0.000000    0.183333
      2          1           0        0.000000    0.000000   -0.916667
 ---------------------------------------------------------------------
 Rotational constants (GHZ):           0.0000000         452.3634862         452.3634862
 Leave Link  202 at Thu May 26 10:45:16 2022, MaxMem=   104857600 cpu:               0.0 elap:               0.0
 (Enter /apps/software/g16/l301.exe)
 Standard basis: Aug-CC-pVQZ (5D, 7F)
 Ernie: Thresh=  0.10000D-02 Tol=  0.10000D-05 Strict=F.
 Ernie:  4 primitive shells out of 54 were deleted.
 There are    68 symmetry adapted cartesian basis functions of A1  symmetry.
 There are    18 symmetry adapted cartesian basis functions of A2  symmetry.
 There are    37 symmetry adapted cartesian basis functions of B1  symmetry.
 There are    37 symmetry adapted cartesian basis functions of B2  symmetry.
 There are    50 symmetry adapted basis functions of A1  symmetry.
 There are    16 symmetry adapted basis functions of A2  symmetry.
 There are    30 symmetry adapted basis functions of B1  symmetry.
 There are    30 symmetry adapted basis functions of B2  symmetry.
   126 basis functions,   180 primitive gaussians,   160 cartesian basis functions
     3 alpha electrons        3 beta electrons
       nuclear repulsion energy         2.4053509587 Hartrees.
 IExCor=    0 DFT=F Ex=HF Corr=None ExCW=0 ScaHFX=  1.000000
 ScaDFX=  1.000000  1.000000  1.000000  1.000000 ScalE2=  1.000000  1.000000
 IRadAn=      5 IRanWt=     -1 IRanGd=            0 ICorTp=0 IEmpDi=  4
 NAtoms=    2 NActive=    2 NUniq=    2 SFac= 1.00D+00 NAtFMM=   60 NAOKFM=F Big=F
 Integral buffers will be    131072 words long.
 Raffenetti 1 integral format.
 Two-electron integral symmetry is turned on.
 Leave Link  301 at Thu May 26 10:45:16 2022, MaxMem=   104857600 cpu:               0.1 elap:               0.1
 (Enter /apps/software/g16/l302.exe)
 NPDir=0 NMtPBC=     1 NCelOv=     1 NCel=       1 NClECP=     1 NCelD=      1
         NCelK=      1 NCelE2=     1 NClLst=     1 CellRange=     0.0.
 One-electron integrals computed using PRISM.
 One-electron integral symmetry used in STVInt
 NBasis=   126 RedAO= T EigKep=  8.26D-05  NBF=    50    16    30    30
 NBsUse=   126 1.00D-06 EigRej= -1.00D+00 NBFU=    50    16    30    30
 Leave Link  302 at Thu May 26 10:45:16 2022, MaxMem=   104857600 cpu:               0.1 elap:               0.1
 (Enter /apps/software/g16/l303.exe)
 DipDrv:  MaxL=1.
 Leave Link  303 at Thu May 26 10:45:16 2022, MaxMem=   104857600 cpu:               0.0 elap:               0.0
 (Enter /apps/software/g16/l401.exe)
 ExpMin= 1.88D-02 ExpMax= 2.39D+04 ExpMxC= 2.30D+02 IAcc=3 IRadAn=         5 AccDes= 0.00D+00
 Harris functional with IExCor=  205 and IRadAn=       5 diagonalized for initial guess.
 HarFok:  IExCor=  205 AccDes= 0.00D+00 IRadAn=         5 IDoV= 1 UseB2=F ITyADJ=14
 ICtDFT=  3500011 ScaDFX=  1.000000  1.000000  1.000000  1.000000
 FoFCou: FMM=F IPFlag=           0 FMFlag=      100000 FMFlg1=           0
         NFxFlg=           0 DoJE=T BraDBF=F KetDBF=T FulRan=T
         wScrn=  0.000000 ICntrl=       500 IOpCl=  0 I1Cent=   200000004 NGrid=           0
         NMat0=    1 NMatS0=      1 NMatT0=    0 NMatD0=    1 NMtDS0=    0 NMtDT0=    0
 Petite list used in FoFCou.
 Harris En= -25.1012145766297    
 JPrj=0 DoOrth=F DoCkMO=F.
 Initial guess orbital symmetries:
       Occupied  (SG) (SG) (SG)
       Virtual   (PI) (PI) (SG) (SG) (PI) (PI) (SG) (PI) (PI) (SG)
                 (DLTA) (DLTA) (SG) (PI) (PI) (SG) (PI) (PI) (SG)
                 (SG) (PI) (PI) (DLTA) (DLTA) (DLTA) (DLTA) (PHI)
                 (PHI) (SG) (SG) (PI) (PI) (SG) (PI) (PI) (DLTA)
                 (DLTA) (SG) (PI) (PI) (SG) (PI) (PI) (SG) (DLTA)
                 (DLTA) (PHI) (PHI) (?A) (?A) (SG) (DLTA) (DLTA)
                 (PI) (PI) (PHI) (PHI) (SG) (PI) (PI) (DLTA) (DLTA)
                 (SG) (PI) (PI) (SG) (PHI) (PHI) (DLTA) (DLTA)
                 (SG) (PI) (PI) (SG) (PI) (PI) (PI) (PI) (SG) (DLTA)
                 (DLTA) (SG) (PI) (PI) (PHI) (PHI) (DLTA) (DLTA)
                 (?A) (?A) (DLTA) (DLTA) (PHI) (PHI) (SG) (PI)
                 (PI) (PI) (PI) (SG) (DLTA) (DLTA) (SG) (SG) (PI)
                 (PI) (PHI) (PHI) (DLTA) (DLTA) (SG) (PI) (PI)
                 (SG) (DLTA) (DLTA) (PI) (PI) (PI) (PI) (SG) (SG)
                 (SG)
 The electronic state of the initial guess is 1-SG.
 Leave Link  401 at Thu May 26 10:45:17 2022, MaxMem=   104857600 cpu:               0.2 elap:               0.2
 (Enter /apps/software/g16/l502.exe)
 Keep R1 ints in memory in symmetry-blocked form, NReq=40143665.
 FoFCou: FMM=F IPFlag=           0 FMFlag=           0 FMFlg1=           0
         NFxFlg=           0 DoJE=F BraDBF=F KetDBF=F FulRan=T
         wScrn=  0.000000 ICntrl=       600 IOpCl=  0 I1Cent=           0 NGrid=           0
         NMat0=    1 NMatS0=   8001 NMatT0=    0 NMatD0=    1 NMtDS0=    0 NMtDT0=    0
 Petite list used in FoFCou.
 Closed shell SCF:
 Using DIIS extrapolation, IDIIS=  1040.
 NGot=   104857600 LenX=    96673173 LenY=    96647132
 Requested convergence on RMS density matrix=1.00D-08 within 128 cycles.
 Requested convergence on MAX density matrix=1.00D-06.
 Requested convergence on             energy=1.00D-06.
 No special actions if energy rises.

 Cycle   1  Pass 1  IDiag  1:
 E= -25.1135984107232    
 DIIS: error= 2.62D-02 at cycle   1 NSaved=   1.
 NSaved= 1 IEnMin= 1 EnMin= -25.1135984107232     IErMin= 1 ErrMin= 2.62D-02
 ErrMax= 2.62D-02  0.00D+00 EMaxC= 1.00D-01 BMatC= 3.58D-02 BMatP= 3.58D-02
 IDIUse=3 WtCom= 7.38D-01 WtEn= 2.62D-01
 Coeff-Com:  0.100D+01
 Coeff-En:   0.100D+01
 Coeff:      0.100D+01
 Gap=     0.386 Goal=   None    Shift=    0.000
 GapD=    0.386 DampG=1.000 DampE=0.500 DampFc=0.5000 IDamp=-1.
 Damping current iteration by 5.00D-01
 RMSDP=1.13D-03 MaxDP=4.32D-02              OVMax= 3.42D-02

 Cycle   2  Pass 1  IDiag  1:
 E= -25.1187714989728     Delta-E=       -0.005173088250 Rises=F Damp=T
 DIIS: error= 1.38D-02 at cycle   2 NSaved=   2.
 NSaved= 2 IEnMin= 2 EnMin= -25.1187714989728     IErMin= 2 ErrMin= 1.38D-02
 ErrMax= 1.38D-02  0.00D+00 EMaxC= 1.00D-01 BMatC= 1.03D-02 BMatP= 3.58D-02
 IDIUse=3 WtCom= 8.62D-01 WtEn= 1.38D-01
 Coeff-Com: -0.115D+01 0.215D+01
 Coeff-En:   0.000D+00 0.100D+01
 Coeff:     -0.995D+00 0.200D+01
 Gap=     0.369 Goal=   None    Shift=    0.000
 RMSDP=6.63D-04 MaxDP=2.48D-02 DE=-5.17D-03 OVMax= 5.03D-03

 Cycle   3  Pass 1  IDiag  1:
 E= -25.1245570912893     Delta-E=       -0.005785592317 Rises=F Damp=F
 DIIS: error= 3.02D-04 at cycle   3 NSaved=   3.
 NSaved= 3 IEnMin= 3 EnMin= -25.1245570912893     IErMin= 3 ErrMin= 3.02D-04
 ErrMax= 3.02D-04  0.00D+00 EMaxC= 1.00D-01 BMatC= 5.33D-06 BMatP= 1.03D-02
 IDIUse=3 WtCom= 9.97D-01 WtEn= 3.02D-03
 Coeff-Com:  0.288D+00-0.552D+00 0.126D+01
 Coeff-En:   0.000D+00 0.000D+00 0.100D+01
 Coeff:      0.287D+00-0.551D+00 0.126D+01
 Gap=     0.369 Goal=   None    Shift=    0.000
 RMSDP=3.62D-05 MaxDP=2.09D-03 DE=-5.79D-03 OVMax= 1.98D-03

 Cycle   4  Pass 1  IDiag  1:
 E= -25.1245666325149     Delta-E=       -0.000009541226 Rises=F Damp=F
 DIIS: error= 8.35D-05 at cycle   4 NSaved=   4.
 NSaved= 4 IEnMin= 4 EnMin= -25.1245666325149     IErMin= 4 ErrMin= 8.35D-05
 ErrMax= 8.35D-05  0.00D+00 EMaxC= 1.00D-01 BMatC= 1.04D-07 BMatP= 5.33D-06
 IDIUse=1 WtCom= 1.00D+00 WtEn= 0.00D+00
 Coeff-Com: -0.623D-01 0.120D+00-0.371D+00 0.131D+01
 Coeff:     -0.623D-01 0.120D+00-0.371D+00 0.131D+01
 Gap=     0.369 Goal=   None    Shift=    0.000
 RMSDP=1.19D-05 MaxDP=7.01D-04 DE=-9.54D-06 OVMax= 6.15D-04

 Cycle   5  Pass 1  IDiag  1:
 E= -25.1245670768440     Delta-E=       -0.000000444329 Rises=F Damp=F
 DIIS: error= 1.81D-05 at cycle   5 NSaved=   5.
 NSaved= 5 IEnMin= 5 EnMin= -25.1245670768440     IErMin= 5 ErrMin= 1.81D-05
 ErrMax= 1.81D-05  0.00D+00 EMaxC= 1.00D-01 BMatC= 4.03D-09 BMatP= 1.04D-07
 IDIUse=1 WtCom= 1.00D+00 WtEn= 0.00D+00
 Coeff-Com:  0.113D-01-0.219D-01 0.779D-01-0.418D+00 0.135D+01
 Coeff:      0.113D-01-0.219D-01 0.779D-01-0.418D+00 0.135D+01
 Gap=     0.369 Goal=   None    Shift=    0.000
 RMSDP=3.27D-06 MaxDP=1.60D-04 DE=-4.44D-07 OVMax= 1.68D-04

 Cycle   6  Pass 1  IDiag  1:
 E= -25.1245670992814     Delta-E=       -0.000000022437 Rises=F Damp=F
 DIIS: error= 2.31D-06 at cycle   6 NSaved=   6.
 NSaved= 6 IEnMin= 6 EnMin= -25.1245670992814     IErMin= 6 ErrMin= 2.31D-06
 ErrMax= 2.31D-06  0.00D+00 EMaxC= 1.00D-01 BMatC= 1.04D-10 BMatP= 4.03D-09
 IDIUse=1 WtCom= 1.00D+00 WtEn= 0.00D+00
 Coeff-Com: -0.426D-03 0.814D-03-0.391D-02 0.384D-01-0.283D+00 0.125D+01
 Coeff:     -0.426D-03 0.814D-03-0.391D-02 0.384D-01-0.283D+00 0.125D+01
 Gap=     0.369 Goal=   None    Shift=    0.000
 RMSDP=4.55D-07 MaxDP=1.88D-05 DE=-2.24D-08 OVMax= 2.93D-05

 Cycle   7  Pass 1  IDiag  1:
 E= -25.1245670998738     Delta-E=       -0.000000000592 Rises=F Damp=F
 DIIS: error= 2.32D-07 at cycle   7 NSaved=   7.
 NSaved= 7 IEnMin= 7 EnMin= -25.1245670998738     IErMin= 7 ErrMin= 2.32D-07
 ErrMax= 2.32D-07  0.00D+00 EMaxC= 1.00D-01 BMatC= 1.30D-12 BMatP= 1.04D-10
 IDIUse=1 WtCom= 1.00D+00 WtEn= 0.00D+00
 Coeff-Com: -0.202D-03 0.394D-03-0.107D-02 0.163D-02 0.258D-01-0.238D+00
 Coeff-Com:  0.121D+01
 Coeff:     -0.202D-03 0.394D-03-0.107D-02 0.163D-02 0.258D-01-0.238D+00
 Coeff:      0.121D+01
 Gap=     0.369 Goal=   None    Shift=    0.000
 RMSDP=3.38D-08 MaxDP=8.10D-07 DE=-5.92D-10 OVMax= 2.78D-06

 Cycle   8  Pass 1  IDiag  1:
 E= -25.1245670998800     Delta-E=       -0.000000000006 Rises=F Damp=F
 DIIS: error= 2.74D-08 at cycle   8 NSaved=   8.
 NSaved= 8 IEnMin= 8 EnMin= -25.1245670998800     IErMin= 8 ErrMin= 2.74D-08
 ErrMax= 2.74D-08  0.00D+00 EMaxC= 1.00D-01 BMatC= 3.18D-14 BMatP= 1.30D-12
 IDIUse=1 WtCom= 1.00D+00 WtEn= 0.00D+00
 Coeff-Com:  0.450D-04-0.883D-04 0.248D-03-0.194D-03-0.941D-02 0.822D-01
 Coeff-Com: -0.466D+00 0.139D+01
 Coeff:      0.450D-04-0.883D-04 0.248D-03-0.194D-03-0.941D-02 0.822D-01
 Coeff:     -0.466D+00 0.139D+01
 Gap=     0.369 Goal=   None    Shift=    0.000
 RMSDP=9.26D-09 MaxDP=5.05D-07 DE=-6.21D-12 OVMax= 3.40D-07

 SCF Done:  E(RHF) =  -25.1245670999     A.U. after    8 cycles
            NFock=  8  Conv=0.93D-08     -V/T= 1.9945
 KE= 2.526255512852D+01 PE=-6.292342302348D+01 EE= 1.013094983636D+01
 Leave Link  502 at Thu May 26 10:45:21 2022, MaxMem=   104857600 cpu:               3.9 elap:               3.9
 (Enter /apps/software/g16/l801.exe)
 Windowed orbitals will be sorted by symmetry type.
 ExpMin= 1.88D-02 ExpMax= 2.39D+04 ExpMxC= 2.30D+02 IAcc=3 IRadAn=         5 AccDes= 0.00D+00
 HarFok:  IExCor=  205 AccDes= 0.00D+00 IRadAn=         5 IDoV=-2 UseB2=F ITyADJ=14
 ICtDFT= 12500011 ScaDFX=  1.000000  1.000000  1.000000  1.000000
 DSYEVD-2 returned Info=        3401 IAlg= 4 N=    80 NDim=    80 NE2=     1309686 trying  DSYEV.
 Largest valence mixing into a core orbital is  3.27D-04
 Largest core mixing into a valence orbital is  5.72D-05
 Range of M.O.s used for correlation:     2   126
 NBasis=   126 NAE=     3 NBE=     3 NFC=     1 NFV=     0
 NROrb=    125 NOA=     2 NOB=     2 NVA=   123 NVB=   123

 **** Warning!!: The largest alpha MO coefficient is  0.28874648D+02

 Leave Link  801 at Thu May 26 10:45:21 2022, MaxMem=   104857600 cpu:               0.1 elap:               0.1
 (Enter /apps/software/g16/l804.exe)
 Closed-shell transformation, MDV=   104857600 ITran=4 ISComp=2.
 Unit  1 TFree=        527294 TCopy=        350885.
 Semi-Direct transformation.
 ModeAB=           2 MOrb=             2 LenV=     104239890
 LASXX=       493564 LTotXX=      493564 LenRXX=      493564
 LTotAB=      509833 MaxLAS=     3220000 LenRXY=     3220000
 NonZer=     3361750 LenScr=     5758976 LnRSAI=           0
 LnScr1=           0 LExtra=           0 Total=      9472540
 MaxDsk=          -1 SrtSym=           F ITran=            4
 DoSDTr:  NPSUse=  1
 JobTyp=0 Pass  1:  I=   1 to   2.
 (rs|ai) integrals will be sorted in core.
 Complete sort for first half transformation.
 First half transformation complete.
 Complete sort for second half transformation.
 Second half transformation complete.
 Spin components of T(2) and E(2):
     alpha-alpha T2 =       0.1085629473D-02 E2=     -0.2506510804D-02
     alpha-beta  T2 =       0.3348478776D-01 E2=     -0.7326397749D-01
     beta-beta   T2 =       0.1085629473D-02 E2=     -0.2506510804D-02
 ANorm=    0.1017671876D+01
 E2 =    -0.7827699910D-01 EUMP2 =    -0.25202844098979D+02
 Leave Link  804 at Thu May 26 10:45:26 2022, MaxMem=   104857600 cpu:               5.2 elap:               5.2
 (Enter /apps/software/g16/l913.exe)
 CIDS:  MDV=   104857600.
 Frozen-core window:  NFC=   1 NFV=   0.
 IFCWin=0 IBDFC=1 NFBD=     0     0 NFCmp=     0     0 NFFFC=     0     0
 Using DD3R+UMP44R for 1st iteration.
 Using DD4RQ for 2nd and later iterations.
 Keep R2 and R3 ints in memory in symmetry-blocked form, NReq=40146875.
 FoFCou: FMM=F IPFlag=           0 FMFlag=           0 FMFlg1=           0
         NFxFlg=           0 DoJE=F BraDBF=F KetDBF=F FulRan=T
         wScrn=  0.000000 ICntrl=       600 IOpCl=  0 I1Cent=           0 NGrid=           0
         NMat0=    1 NMatS0=   8001 NMatT0=    0 NMatD0=    1 NMtDS0=    0 NMtDT0=    0
 Petite list used in FoFCou.
 CIDS: In Core Option IDoMem=           1.
 CCSD(T)
 =======
 Iterations=  50 Convergence= 0.100D-06
 Produce multiple copies of IABC intergrals
 Iteration Nr.   1
 **********************
 DD1Dir will call FoFMem   1 times, MxPair=         6
 NAB=     3 NAA=     0 NBB=     0.
 MP4(R+Q)=  0.17578575D-02
 Maximum subspace dimension=  5
 A-vector RMS=  1.8788261D-03 Max=  1.1983732D-02 conv= 1.00D-05.
 RLE energy=       -0.0933786446
 E3=       -0.14432211D-01        EUMP3=      -0.25217276310D+02
 E4(DQ)=   -0.41580984D-02        UMP4(DQ)=   -0.25221434409D+02
 E4(SDQ)=  -0.44218318D-02        UMP4(SDQ)=  -0.25221698142D+02
 VARIATIONAL ENERGIES WITH THE FIRST-ORDER WAVEFUNCTION:
 DE(Corr)= -0.90936337E-01 E(Corr)=     -25.215503437    
 NORM(A)=   0.10303496D+01
 Iteration Nr.   2
 **********************
 DD1Dir will call FoFMem   1 times, MxPair=         6
 NAB=     3 NAA=     0 NBB=     0.
 A-vector RMS=  7.0648189D-04 Max=  7.5367050D-03 conv= 1.00D-05.
 RLE energy=       -0.0997181783
 DE(Corr)= -0.96768518E-01 E(CORR)=     -25.221335618     Delta=-5.83D-03
 NORM(A)=   0.10399176D+01
 Iteration Nr.   3
 **********************
 DD1Dir will call FoFMem   1 times, MxPair=         6
 NAB=     3 NAA=     0 NBB=     0.
 A-vector RMS=  3.4774768D-04 Max=  2.9964574D-03 conv= 1.00D-05.
 RLE energy=       -0.1005781426
 DE(Corr)= -0.99697363E-01 E(CORR)=     -25.224264462     Delta=-2.93D-03
 NORM(A)=   0.10439695D+01
 Iteration Nr.   4
 **********************
 DD1Dir will call FoFMem   1 times, MxPair=         6
 NAB=     3 NAA=     0 NBB=     0.
 A-vector RMS=  9.7988425D-05 Max=  1.0589048D-03 conv= 1.00D-05.
 RLE energy=       -0.1007806649
 DE(Corr)= -0.10062947     E(CORR)=     -25.225196570     Delta=-9.32D-04
 NORM(A)=   0.10449948D+01
 Iteration Nr.   5
 **********************
 DD1Dir will call FoFMem   1 times, MxPair=         6
 NAB=     3 NAA=     0 NBB=     0.
 A-vector RMS=  3.1344011D-05 Max=  2.8092412D-04 conv= 1.00D-05.
 RLE energy=       -0.1007783526
 DE(Corr)= -0.10076362     E(CORR)=     -25.225330719     Delta=-1.34D-04
 NORM(A)=   0.10451826D+01
 Iteration Nr.   6
 **********************
 DD1Dir will call FoFMem   1 times, MxPair=         6
 NAB=     3 NAA=     0 NBB=     0.
 A-vector RMS=  1.6482814D-05 Max=  9.9856730D-05 conv= 1.00D-05.
 RLE energy=       -0.1007734854
 DE(Corr)= -0.10077594     E(CORR)=     -25.225343037     Delta=-1.23D-05
 NORM(A)=   0.10452125D+01
 Iteration Nr.   7
 **********************
 DD1Dir will call FoFMem   1 times, MxPair=         6
 NAB=     3 NAA=     0 NBB=     0.
 A-vector RMS=  6.9035735D-06 Max=  3.3246172D-05 conv= 1.00D-05.
 RLE energy=       -0.1007799533
 DE(Corr)= -0.10077601     E(CORR)=     -25.225343110     Delta=-7.26D-08
 NORM(A)=   0.10452255D+01
 Iteration Nr.   8
 **********************
 DD1Dir will call FoFMem   1 times, MxPair=         6
 NAB=     3 NAA=     0 NBB=     0.
 A-vector RMS=  2.9304699D-06 Max=  1.5253846D-05 conv= 1.00D-05.
 RLE energy=       -0.1007776101
 DE(Corr)= -0.10077814     E(CORR)=     -25.225345242     Delta=-2.13D-06
 NORM(A)=   0.10452229D+01
 Iteration Nr.   9
 **********************
 DD1Dir will call FoFMem   1 times, MxPair=         6
 NAB=     3 NAA=     0 NBB=     0.
 A-vector RMS=  1.0492254D-06 Max=  4.7937572D-06 conv= 1.00D-05.
 RLE energy=       -0.1007778185
 DE(Corr)= -0.10077773     E(CORR)=     -25.225344831     Delta= 4.11D-07
 NORM(A)=   0.10452233D+01
 Iteration Nr.  10
 **********************
 DD1Dir will call FoFMem   1 times, MxPair=         6
 NAB=     3 NAA=     0 NBB=     0.
 A-vector RMS=  3.9222272D-07 Max=  1.8781665D-06 conv= 1.00D-05.
 RLE energy=       -0.1007777559
 DE(Corr)= -0.10077775     E(CORR)=     -25.225344850     Delta=-1.94D-08
 NORM(A)=   0.10452234D+01
 CI/CC converged in   10 iterations to DelEn=-1.94D-08 Conv= 1.00D-07 ErrA1= 3.92D-07 Conv= 1.00D-05
 Wavefunction amplitudes converged. E(Corr)=     -25.225344850    
 Largest amplitude= 6.18D-02
 IPart=  1 IA=    8   11.10% done.
 IPart=  1 IA=   14   20.10% done.
 IPart=  1 IA=   22   31.35% done.
 IPart=  1 IA=   29   40.49% done.
 IPart=  1 IA=   37   50.14% done.
 IPart=  1 IA=   47   61.00% done.
 IPart=  1 IA=   57   70.53% done.
 IPart=  1 IA=   69   80.21% done.
 IPart=  1 IA=   85   90.12% done.
 Time for triples=        0.63 seconds.
 T4(CCSD)= -0.21850568D-02
 T5(CCSD)=  0.33424078D-04
 CCSD(T)= -0.25227496483D+02
 Discarding MO integrals.
 Leave Link  913 at Thu May 26 10:45:31 2022, MaxMem=   104857600 cpu:               4.7 elap:               4.7
 (Enter /apps/software/g16/l601.exe)
 Copying SCF densities to generalized density rwf, IOpCl= 0 IROHF=0.

 **********************************************************************

            Population analysis using the SCF density.

 **********************************************************************

 Orbital symmetries:
       Occupied  (SG) (SG) (SG)
       Virtual   (PI) (PI) (SG) (SG) (PI) (PI) (SG) (PI) (PI) (DLTA)
                 (DLTA) (SG) (SG) (SG) (PI) (PI) (PI) (PI) (SG)
                 (SG) (DLTA) (DLTA) (PHI) (PHI) (PI) (PI) (DLTA)
                 (DLTA) (SG) (SG) (PI) (PI) (SG) (PI) (PI) (DLTA)
                 (DLTA) (SG) (PI) (PI) (SG) (PI) (PI) (SG) (?A)
                 (?A) (PHI) (PHI) (DLTA) (DLTA) (PHI) (PHI) (DLTA)
                 (DLTA) (PI) (PI) (SG) (SG) (PI) (PI) (DLTA) (DLTA)
                 (SG) (PI) (PI) (SG) (PHI) (PHI) (DLTA) (DLTA)
                 (SG) (PI) (PI) (SG) (PI) (PI) (PI) (PI) (DLTA)
                 (DLTA) (SG) (SG) (?A) (?A) (PHI) (PHI) (DLTA)
                 (DLTA) (PI) (PI) (DLTA) (DLTA) (PHI) (PHI) (SG)
                 (PI) (PI) (PI) (PI) (DLTA) (DLTA) (SG) (SG) (PI)
                 (PI) (SG) (PHI) (PHI) (DLTA) (DLTA) (SG) (PI)
                 (PI) (SG) (DLTA) (DLTA) (PI) (PI) (PI) (PI) (SG)
                 (SG) (SG)
 The electronic state is 1-SG.
 Alpha  occ. eigenvalues --   -7.66903  -0.68579  -0.34466
 Alpha virt. eigenvalues --    0.02451   0.02451   0.02962   0.04522   0.07950
 Alpha virt. eigenvalues --    0.07950   0.11451   0.13391   0.13391   0.14540
 Alpha virt. eigenvalues --    0.14540   0.14928   0.18429   0.27028   0.27379
 Alpha virt. eigenvalues --    0.27379   0.32051   0.32051   0.40663   0.42980
 Alpha virt. eigenvalues --    0.44711   0.44711   0.46140   0.46140   0.48046
 Alpha virt. eigenvalues --    0.48046   0.50240   0.50240   0.51754   0.55470
 Alpha virt. eigenvalues --    0.59916   0.59916   0.76458   0.77798   0.77798
 Alpha virt. eigenvalues --    0.80064   0.80064   0.91100   1.05193   1.05193
 Alpha virt. eigenvalues --    1.08801   1.17999   1.17999   1.36783   1.36988
 Alpha virt. eigenvalues --    1.36988   1.37447   1.37447   1.38951   1.38951
 Alpha virt. eigenvalues --    1.44065   1.44065   1.45577   1.45577   1.47201
 Alpha virt. eigenvalues --    1.47201   1.48001   1.58366   1.60836   1.60836
 Alpha virt. eigenvalues --    1.66341   1.66341   1.83358   1.86752   1.86752
 Alpha virt. eigenvalues --    1.88938   1.93605   1.93605   2.02722   2.02722
 Alpha virt. eigenvalues --    2.20450   2.25590   2.25590   2.75265   3.13265
 Alpha virt. eigenvalues --    3.13265   3.22382   3.22382   3.22852   3.22852
 Alpha virt. eigenvalues --    3.30020   3.76582   3.92128   3.92128   3.93279
 Alpha virt. eigenvalues --    3.93279   4.01629   4.01629   4.02172   4.02172
 Alpha virt. eigenvalues --    4.07812   4.07812   4.09853   4.09853   4.16446
 Alpha virt. eigenvalues --    4.26031   4.26031   4.40651   4.40651   4.48624
 Alpha virt. eigenvalues --    4.48624   4.49502   5.20900   5.61031   5.61031
 Alpha virt. eigenvalues --    5.63703   6.78255   6.78255   7.43273   7.43273
 Alpha virt. eigenvalues --    7.85151   7.90880   7.90880   8.48960   8.93370
 Alpha virt. eigenvalues --    8.93370   9.26389   9.26389   9.39979   9.39979
 Alpha virt. eigenvalues --   10.09472  10.67570  17.11161
          Condensed to atoms (all electrons):
               1          2
     1  B    4.771309   0.154099
     2  H    0.154099   0.920493
 Mulliken charges:
               1
     1  B    0.074592
     2  H   -0.074592
 Sum of Mulliken charges =   0.00000
 Mulliken charges with hydrogens summed into heavy atoms:
               1
     1  B    0.000000
 Electronic spatial extent (au):  <R**2>=             21.2976
 Charge=              0.0000 electrons
 Dipole moment (field-independent basis, Debye):
    X=              0.0000    Y=              0.0000    Z=             -2.1084  Tot=              2.1084
 Quadrupole moment (field-independent basis, Debye-Ang):
   XX=             -6.6616   YY=             -6.6616   ZZ=            -10.4796
   XY=              0.0000   XZ=              0.0000   YZ=              0.0000
 Traceless Quadrupole moment (field-independent basis, Debye-Ang):
   XX=              1.2727   YY=              1.2727   ZZ=             -2.5453
   XY=              0.0000   XZ=              0.0000   YZ=              0.0000
 Octapole moment (field-independent basis, Debye-Ang**2):
  XXX=              0.0000  YYY=              0.0000  ZZZ=             -6.5228  XYY=              0.0000
  XXY=              0.0000  XXZ=             -1.9841  XZZ=              0.0000  YZZ=              0.0000
  YYZ=             -1.9841  XYZ=              0.0000
 Hexadecapole moment (field-independent basis, Debye-Ang**3):
 XXXX=            -10.0695 YYYY=            -10.0695 ZZZZ=            -27.0917 XXXY=              0.0000
 XXXZ=              0.0000 YYYX=              0.0000 YYYZ=              0.0000 ZZZX=              0.0000
 ZZZY=              0.0000 XXYY=             -3.3565 XXZZ=             -6.2855 YYZZ=             -6.2855
 XXYZ=              0.0000 YYXZ=              0.0000 ZZXY=              0.0000
 N-N= 2.405350958727D+00 E-N=-6.292342323714D+01  KE= 2.526255512852D+01
 Symmetry A1   KE= 2.526255512851D+01
 Symmetry A2   KE=-2.565954195423D-51
 Symmetry B1   KE= 0.000000000000D+00
 Symmetry B2   KE= 0.000000000000D+00
 Leave Link  601 at Thu May 26 10:45:31 2022, MaxMem=   104857600 cpu:               0.1 elap:               0.1
 (Enter /apps/software/g16/l9999.exe)
 1\1\GINC-CNODE03\SP\RCCSD(T)-FC\Aug-CC-pVQZ\B1H1\LCZ\26-May-2022\0\\#p
  RHF/aug-cc-pVQZ CCSD(T,FC)\\BH CCSD(T) at 1.1 Angstrom\\0,1\B,0,0.,0.
 ,0.\H,0,1.1,0.,0.\\Version=ES64L-G16RevA.03\State=1-SG\HF=-25.1245671\
 MP2=-25.2028441\MP3=-25.2172763\MP4D=-25.2231923\MP4DQ=-25.2214344\MP4
 SDQ=-25.2216981\CCSD=-25.2253448\CCSD(T)=-25.2274965\RMSD=9.262e-09\PG
 =C*V [C*(H1B1)]\\@


 TO BEHOLD HARMS OF OUR OWN HANDS DOING,
 WHERE NONE BESIDE US WROUGHT,
 CAUSES SHARP RUING...

                                         SOPHOCLES
 Job cpu time:       0 days  0 hours  0 minutes 14.6 seconds.
 Elapsed time:       0 days  0 hours  0 minutes 14.6 seconds.
 File lengths (MBytes):  RWF=     81 Int=      0 D2E=      0 Chk=      3 Scr=      1
 Normal termination of Gaussian 16 at Thu May 26 10:45:31 2022.

Sender: Unischeduler System <lcz@mgt01>
Subject: Job 136188: <#!/bin/bash
#BSUB -J intel
#BSUB -o BH-1.1-CCSD_T-G.out
#BSUB -n 8
#BSUB -q cqueue
#BSUB -R span[hosts=1]
export g16root=/apps/software
source /apps/software/g16/bsd/g16.profile
export GAUSS_SCRDIR=/scratch
/apps/software/g16/g16 < BH-1.1-CCSD_T-G.inp > BH-1.1-CCSD_T-G.out> Done

Job <#!/bin/bash
#BSUB -J intel
#BSUB -o BH-1.1-CCSD_T-G.out
#BSUB -n 8
#BSUB -q cqueue
#BSUB -R span[hosts=1]
export g16root=/apps/software
source /apps/software/g16/bsd/g16.profile
export GAUSS_SCRDIR=/scratch
/apps/software/g16/g16 < BH-1.1-CCSD_T-G.inp > BH-1.1-CCSD_T-G.out> was submitted from host <mgt01> by user <lcz>.
Job was executed on host(s) <8*cnode03>, in queue <cqueue>, as user <lcz>.
</apps/users/lcz> was used as the home directory.
</apps/users/lcz/exe13/GCCSD_T> was used as the working directory.
Started at 2022-05-26 10:45:16
Results reported at 2022-05-26 10:45:31

Your job looked like:

------------------------------------------------------------
# User input
#!/bin/bash
#BSUB -J intel
#BSUB -o BH-1.1-CCSD_T-G.out
#BSUB -n 8
#BSUB -q cqueue
#BSUB -R span[hosts=1]
export g16root=/apps/software
source /apps/software/g16/bsd/g16.profile
export GAUSS_SCRDIR=/scratch
/apps/software/g16/g16 < BH-1.1-CCSD_T-G.inp > BH-1.1-CCSD_T-G.out
------------------------------------------------------------

Successfully completed.

Resource usage summary:

    CPU time   :             6.0 sec.
    Max Memory :               208 MB
    Max Processes  :               5


The output (if any) follows:

