 Entering Gaussian System, Link 0=/apps/software/g16/g16
 Initial command:
 /apps/software/g16/l1.exe "/scratch/Gau-227036.inp" -scrdir="/scratch/"
 Entering Link 1 = /apps/software/g16/l1.exe PID=    227037.
  
 Copyright (c) 1988,1990,1992,1993,1995,1998,2003,2009,2016,
            Gaussian, Inc.  All Rights Reserved.
  
 This is part of the Gaussian(R) 16 program.  It is based on
 the Gaussian(R) 09 system (copyright 2009, Gaussian, Inc.),
 the Gaussian(R) 03 system (copyright 2003, Gaussian, Inc.),
 the Gaussian(R) 98 system (copyright 1998, Gaussian, Inc.),
 the Gaussian(R) 94 system (copyright 1995, Gaussian, Inc.),
 the Gaussian 92(TM) system (copyright 1992, Gaussian, Inc.),
 the Gaussian 90(TM) system (copyright 1990, Gaussian, Inc.),
 the Gaussian 88(TM) system (copyright 1988, Gaussian, Inc.),
 the Gaussian 86(TM) system (copyright 1986, Carnegie Mellon
 University), and the Gaussian 82(TM) system (copyright 1983,
 Carnegie Mellon University). Gaussian is a federally registered
 trademark of Gaussian, Inc.
  
 This software contains proprietary and confidential information,
 including trade secrets, belonging to Gaussian, Inc.
  
 This software is provided under written license and may be
 used, copied, transmitted, or stored only in accord with that
 written license.
  
 The following legend is applicable only to US Government
 contracts under FAR:
  
                    RESTRICTED RIGHTS LEGEND
  
 Use, reproduction and disclosure by the US Government is
 subject to restrictions as set forth in subparagraphs (a)
 and (c) of the Commercial Computer Software - Restricted
 Rights clause in FAR 52.227-19.
  
 Gaussian, Inc.
 340 Quinnipiac St., Bldg. 40, Wallingford CT 06492
  
  
 ---------------------------------------------------------------
 Warning -- This program may not be used in any manner that
 competes with the business of Gaussian, Inc. or will provide
 assistance to any competitor of Gaussian, Inc.  The licensee
 of this program is prohibited from giving any competitor of
 Gaussian, Inc. access to this program.  By using this program,
 the user acknowledges that Gaussian, Inc. is engaged in the
 business of creating and licensing software in the field of
 computational chemistry and represents and warrants to the
 licensee that it is not a competitor of Gaussian, Inc. and that
 it will not use this program in any manner prohibited above.
 ---------------------------------------------------------------
  

 Cite this work as:
 Gaussian 16, Revision A.03,
 M. J. Frisch, G. W. Trucks, H. B. Schlegel, G. E. Scuseria, 
 M. A. Robb, J. R. Cheeseman, G. Scalmani, V. Barone, 
 G. A. Petersson, H. Nakatsuji, X. Li, M. Caricato, A. V. Marenich, 
 J. Bloino, B. G. Janesko, R. Gomperts, B. Mennucci, H. P. Hratchian, 
 J. V. Ortiz, A. F. Izmaylov, J. L. Sonnenberg, D. Williams-Young, 
 F. Ding, F. Lipparini, F. Egidi, J. Goings, B. Peng, A. Petrone, 
 T. Henderson, D. Ranasinghe, V. G. Zakrzewski, J. Gao, N. Rega, 
 G. Zheng, W. Liang, M. Hada, M. Ehara, K. Toyota, R. Fukuda, 
 J. Hasegawa, M. Ishida, T. Nakajima, Y. Honda, O. Kitao, H. Nakai, 
 T. Vreven, K. Throssell, J. A. Montgomery, Jr., J. E. Peralta, 
 F. Ogliaro, M. J. Bearpark, J. J. Heyd, E. N. Brothers, K. N. Kudin, 
 V. N. Staroverov, T. A. Keith, R. Kobayashi, J. Normand, 
 K. Raghavachari, A. P. Rendell, J. C. Burant, S. S. Iyengar, 
 J. Tomasi, M. Cossi, J. M. Millam, M. Klene, C. Adamo, R. Cammi, 
 J. W. Ochterski, R. L. Martin, K. Morokuma, O. Farkas, 
 J. B. Foresman, and D. J. Fox, Gaussian, Inc., Wallingford CT, 2016.
 
 ******************************************
 Gaussian 16:  ES64L-G16RevA.03 25-Dec-2016
                26-May-2022 
 ******************************************
 %chk=BH-1.8-CCSD_T-G.chk
 -----------------------------
 #p RHF/aug-cc-pVQZ CCSD(T,FC)
 -----------------------------
 1/38=1,172=1/1;
 2/12=2,17=6,18=5,40=1/2;
 3/5=16,6=2,7=10,11=1,25=1,30=1,116=1/1,2,3;
 4//1;
 5/5=2,38=5/2;
 8/6=4,9=120000,10=1/1,4;
 9/5=7,14=2/13;
 6/7=2,8=2,9=2,10=2/1;
 99/5=1,9=1/99;
 Leave Link    1 at Thu May 26 10:35:10 2022, MaxMem=           0 cpu:               0.0 elap:               0.0
 (Enter /apps/software/g16/l101.exe)
 --------------------------
 BH CCSD(T) at 1.8 Angstrom
 --------------------------
 Symbolic Z-matrix:
 Charge =  0 Multiplicity = 1
 B                     0.        0.        0. 
 H                     1.8       0.        0. 
 
 ITRead=  0  0
 MicOpt= -1 -1
 NAtoms=      2 NQM=        2 NQMF=       0 NMMI=      0 NMMIF=      0
                NMic=       0 NMicF=      0.
                    Isotopes and Nuclear Properties:
 (Nuclear quadrupole moments (NQMom) in fm**2, nuclear magnetic moments (NMagM)
  in nuclear magnetons)

  Atom         1           2
 IAtWgt=          11           1
 AtmWgt=  11.0093053   1.0078250
 NucSpn=           3           1
 AtZEff=  -0.0000000  -0.0000000
 NQMom=    4.0590000   0.0000000
 NMagM=    2.6886370   2.7928460
 AtZNuc=   5.0000000   1.0000000
 Leave Link  101 at Thu May 26 10:35:10 2022, MaxMem=   104857600 cpu:               0.1 elap:               0.1
 (Enter /apps/software/g16/l202.exe)
                          Input orientation:                          
 ---------------------------------------------------------------------
 Center     Atomic      Atomic             Coordinates (Angstroms)
 Number     Number       Type             X           Y           Z
 ---------------------------------------------------------------------
      1          5           0        0.000000    0.000000    0.000000
      2          1           0        1.800000    0.000000    0.000000
 ---------------------------------------------------------------------
 Stoichiometry    BH
 Framework group  C*V[C*(HB)]
 Deg. of freedom     1
 Full point group                 C*V     NOp   4
 Largest Abelian subgroup         C2V     NOp   4
 Largest concise Abelian subgroup C1      NOp   1
                         Standard orientation:                         
 ---------------------------------------------------------------------
 Center     Atomic      Atomic             Coordinates (Angstroms)
 Number     Number       Type             X           Y           Z
 ---------------------------------------------------------------------
      1          5           0        0.000000    0.000000    0.300000
      2          1           0        0.000000    0.000000   -1.500000
 ---------------------------------------------------------------------
 Rotational constants (GHZ):           0.0000000         168.9382155         168.9382155
 Leave Link  202 at Thu May 26 10:35:10 2022, MaxMem=   104857600 cpu:               0.0 elap:               0.0
 (Enter /apps/software/g16/l301.exe)
 Standard basis: Aug-CC-pVQZ (5D, 7F)
 Ernie: Thresh=  0.10000D-02 Tol=  0.10000D-05 Strict=F.
 Ernie:  4 primitive shells out of 54 were deleted.
 There are    68 symmetry adapted cartesian basis functions of A1  symmetry.
 There are    18 symmetry adapted cartesian basis functions of A2  symmetry.
 There are    37 symmetry adapted cartesian basis functions of B1  symmetry.
 There are    37 symmetry adapted cartesian basis functions of B2  symmetry.
 There are    50 symmetry adapted basis functions of A1  symmetry.
 There are    16 symmetry adapted basis functions of A2  symmetry.
 There are    30 symmetry adapted basis functions of B1  symmetry.
 There are    30 symmetry adapted basis functions of B2  symmetry.
   126 basis functions,   180 primitive gaussians,   160 cartesian basis functions
     3 alpha electrons        3 beta electrons
       nuclear repulsion energy         1.4699366970 Hartrees.
 IExCor=    0 DFT=F Ex=HF Corr=None ExCW=0 ScaHFX=  1.000000
 ScaDFX=  1.000000  1.000000  1.000000  1.000000 ScalE2=  1.000000  1.000000
 IRadAn=      5 IRanWt=     -1 IRanGd=            0 ICorTp=0 IEmpDi=  4
 NAtoms=    2 NActive=    2 NUniq=    2 SFac= 1.00D+00 NAtFMM=   60 NAOKFM=F Big=F
 Integral buffers will be    131072 words long.
 Raffenetti 1 integral format.
 Two-electron integral symmetry is turned on.
 Leave Link  301 at Thu May 26 10:35:10 2022, MaxMem=   104857600 cpu:               0.1 elap:               0.1
 (Enter /apps/software/g16/l302.exe)
 NPDir=0 NMtPBC=     1 NCelOv=     1 NCel=       1 NClECP=     1 NCelD=      1
         NCelK=      1 NCelE2=     1 NClLst=     1 CellRange=     0.0.
 One-electron integrals computed using PRISM.
 One-electron integral symmetry used in STVInt
 NBasis=   126 RedAO= T EigKep=  3.76D-04  NBF=    50    16    30    30
 NBsUse=   126 1.00D-06 EigRej= -1.00D+00 NBFU=    50    16    30    30
 Leave Link  302 at Thu May 26 10:35:10 2022, MaxMem=   104857600 cpu:               0.1 elap:               0.1
 (Enter /apps/software/g16/l303.exe)
 DipDrv:  MaxL=1.
 Leave Link  303 at Thu May 26 10:35:10 2022, MaxMem=   104857600 cpu:               0.0 elap:               0.0
 (Enter /apps/software/g16/l401.exe)
 ExpMin= 1.88D-02 ExpMax= 2.39D+04 ExpMxC= 2.30D+02 IAcc=3 IRadAn=         5 AccDes= 0.00D+00
 Harris functional with IExCor=  205 and IRadAn=       5 diagonalized for initial guess.
 HarFok:  IExCor=  205 AccDes= 0.00D+00 IRadAn=         5 IDoV= 1 UseB2=F ITyADJ=14
 ICtDFT=  3500011 ScaDFX=  1.000000  1.000000  1.000000  1.000000
 FoFCou: FMM=F IPFlag=           0 FMFlag=      100000 FMFlg1=           0
         NFxFlg=           0 DoJE=T BraDBF=F KetDBF=T FulRan=T
         wScrn=  0.000000 ICntrl=       500 IOpCl=  0 I1Cent=   200000004 NGrid=           0
         NMat0=    1 NMatS0=      1 NMatT0=    0 NMatD0=    1 NMtDS0=    0 NMtDT0=    0
 Petite list used in FoFCou.
 Harris En= -25.0564550924779    
 JPrj=0 DoOrth=F DoCkMO=F.
 Initial guess orbital symmetries:
       Occupied  (SG) (SG) (SG)
       Virtual   (PI) (PI) (SG) (SG) (SG) (PI) (PI) (SG) (PI) (PI)
                 (DLTA) (DLTA) (SG) (SG) (PI) (PI) (PI) (PI) (SG)
                 (SG) (PI) (PI) (DLTA) (DLTA) (DLTA) (DLTA) (PHI)
                 (PHI) (SG) (PI) (PI) (SG) (SG) (SG) (DLTA) (DLTA)
                 (PI) (PI) (PI) (PI) (SG) (PI) (PI) (SG) (PI) (PI)
                 (PHI) (PHI) (DLTA) (DLTA) (SG) (?A) (?A) (DLTA)
                 (DLTA) (PHI) (PHI) (SG) (PI) (PI) (DLTA) (DLTA)
                 (SG) (PHI) (PHI) (PI) (PI) (SG) (SG) (PI) (PI)
                 (DLTA) (DLTA) (SG) (DLTA) (DLTA) (PI) (PI) (SG)
                 (PI) (PI) (SG) (PI) (PI) (DLTA) (DLTA) (?A) (?A)
                 (PHI) (PHI) (PI) (PI) (SG) (DLTA) (DLTA) (PHI)
                 (PHI) (SG) (DLTA) (DLTA) (PI) (PI) (PI) (PI) (SG)
                 (SG) (PHI) (PHI) (DLTA) (DLTA) (PI) (PI) (SG)
                 (SG) (PI) (PI) (DLTA) (DLTA) (SG) (PI) (PI) (SG)
                 (SG)
 The electronic state of the initial guess is 1-SG.
 Leave Link  401 at Thu May 26 10:35:10 2022, MaxMem=   104857600 cpu:               0.2 elap:               0.2
 (Enter /apps/software/g16/l502.exe)
 Keep R1 ints in memory in symmetry-blocked form, NReq=40143665.
 FoFCou: FMM=F IPFlag=           0 FMFlag=           0 FMFlg1=           0
         NFxFlg=           0 DoJE=F BraDBF=F KetDBF=F FulRan=T
         wScrn=  0.000000 ICntrl=       600 IOpCl=  0 I1Cent=           0 NGrid=           0
         NMat0=    1 NMatS0=   8001 NMatT0=    0 NMatD0=    1 NMtDS0=    0 NMtDT0=    0
 Petite list used in FoFCou.
 Closed shell SCF:
 Using DIIS extrapolation, IDIIS=  1040.
 NGot=   104857600 LenX=    96673173 LenY=    96647132
 Requested convergence on RMS density matrix=1.00D-08 within 128 cycles.
 Requested convergence on MAX density matrix=1.00D-06.
 Requested convergence on             energy=1.00D-06.
 No special actions if energy rises.

 Cycle   1  Pass 1  IDiag  1:
 E= -25.0584393046092    
 DIIS: error= 2.34D-02 at cycle   1 NSaved=   1.
 NSaved= 1 IEnMin= 1 EnMin= -25.0584393046092     IErMin= 1 ErrMin= 2.34D-02
 ErrMax= 2.34D-02  0.00D+00 EMaxC= 1.00D-01 BMatC= 3.80D-02 BMatP= 3.80D-02
 IDIUse=3 WtCom= 7.66D-01 WtEn= 2.34D-01
 Coeff-Com:  0.100D+01
 Coeff-En:   0.100D+01
 Coeff:      0.100D+01
 Gap=     0.376 Goal=   None    Shift=    0.000
 GapD=    0.376 DampG=1.000 DampE=0.500 DampFc=0.5000 IDamp=-1.
 Damping current iteration by 5.00D-01
 RMSDP=9.84D-04 MaxDP=3.58D-02              OVMax= 7.29D-02

 Cycle   2  Pass 1  IDiag  1:
 E= -25.0660965319434     Delta-E=       -0.007657227334 Rises=F Damp=T
 DIIS: error= 1.20D-02 at cycle   2 NSaved=   2.
 NSaved= 2 IEnMin= 2 EnMin= -25.0660965319434     IErMin= 2 ErrMin= 1.20D-02
 ErrMax= 1.20D-02  0.00D+00 EMaxC= 1.00D-01 BMatC= 1.03D-02 BMatP= 3.80D-02
 IDIUse=3 WtCom= 8.80D-01 WtEn= 1.20D-01
 Coeff-Com: -0.107D+01 0.207D+01
 Coeff-En:   0.000D+00 0.100D+01
 Coeff:     -0.945D+00 0.195D+01
 Gap=     0.366 Goal=   None    Shift=    0.000
 RMSDP=5.79D-04 MaxDP=2.56D-02 DE=-7.66D-03 OVMax= 9.15D-03

 Cycle   3  Pass 1  IDiag  1:
 E= -25.0743420511000     Delta-E=       -0.008245519157 Rises=F Damp=F
 DIIS: error= 7.82D-04 at cycle   3 NSaved=   3.
 NSaved= 3 IEnMin= 3 EnMin= -25.0743420511000     IErMin= 3 ErrMin= 7.82D-04
 ErrMax= 7.82D-04  0.00D+00 EMaxC= 1.00D-01 BMatC= 1.42D-05 BMatP= 1.03D-02
 IDIUse=3 WtCom= 9.92D-01 WtEn= 7.82D-03
 Coeff-Com:  0.151D+00-0.310D+00 0.116D+01
 Coeff-En:   0.000D+00 0.000D+00 0.100D+01
 Coeff:      0.150D+00-0.308D+00 0.116D+01
 Gap=     0.364 Goal=   None    Shift=    0.000
 RMSDP=6.03D-05 MaxDP=1.99D-03 DE=-8.25D-03 OVMax= 3.26D-03

 Cycle   4  Pass 1  IDiag  1:
 E= -25.0743771687261     Delta-E=       -0.000035117626 Rises=F Damp=F
 DIIS: error= 1.91D-04 at cycle   4 NSaved=   4.
 NSaved= 4 IEnMin= 4 EnMin= -25.0743771687261     IErMin= 4 ErrMin= 1.91D-04
 ErrMax= 1.91D-04  0.00D+00 EMaxC= 1.00D-01 BMatC= 8.80D-07 BMatP= 1.42D-05
 IDIUse=3 WtCom= 9.98D-01 WtEn= 1.91D-03
 Coeff-Com:  0.768D-03 0.437D-02-0.339D+00 0.133D+01
 Coeff-En:   0.000D+00 0.000D+00 0.000D+00 0.100D+01
 Coeff:      0.766D-03 0.436D-02-0.338D+00 0.133D+01
 Gap=     0.364 Goal=   None    Shift=    0.000
 RMSDP=1.78D-05 MaxDP=4.57D-04 DE=-3.51D-05 OVMax= 1.20D-03

 Cycle   5  Pass 1  IDiag  1:
 E= -25.0743797146406     Delta-E=       -0.000002545915 Rises=F Damp=F
 DIIS: error= 1.97D-05 at cycle   5 NSaved=   5.
 NSaved= 5 IEnMin= 5 EnMin= -25.0743797146406     IErMin= 5 ErrMin= 1.97D-05
 ErrMax= 1.97D-05  0.00D+00 EMaxC= 1.00D-01 BMatC= 1.69D-08 BMatP= 8.80D-07
 IDIUse=1 WtCom= 1.00D+00 WtEn= 0.00D+00
 Coeff-Com: -0.174D-02 0.203D-02 0.792D-01-0.390D+00 0.131D+01
 Coeff:     -0.174D-02 0.203D-02 0.792D-01-0.390D+00 0.131D+01
 Gap=     0.364 Goal=   None    Shift=    0.000
 RMSDP=1.97D-06 MaxDP=5.56D-05 DE=-2.55D-06 OVMax= 1.46D-04

 Cycle   6  Pass 1  IDiag  1:
 E= -25.0743797568599     Delta-E=       -0.000000042219 Rises=F Damp=F
 DIIS: error= 2.36D-06 at cycle   6 NSaved=   6.
 NSaved= 6 IEnMin= 6 EnMin= -25.0743797568599     IErMin= 6 ErrMin= 2.36D-06
 ErrMax= 2.36D-06  0.00D+00 EMaxC= 1.00D-01 BMatC= 2.46D-10 BMatP= 1.69D-08
 IDIUse=1 WtCom= 1.00D+00 WtEn= 0.00D+00
 Coeff-Com:  0.740D-03-0.122D-02-0.118D-01 0.691D-01-0.321D+00 0.126D+01
 Coeff:      0.740D-03-0.122D-02-0.118D-01 0.691D-01-0.321D+00 0.126D+01
 Gap=     0.364 Goal=   None    Shift=    0.000
 RMSDP=3.95D-07 MaxDP=1.34D-05 DE=-4.22D-08 OVMax= 2.20D-05

 Cycle   7  Pass 1  IDiag  1:
 E= -25.0743797577000     Delta-E=       -0.000000000840 Rises=F Damp=F
 DIIS: error= 2.87D-07 at cycle   7 NSaved=   7.
 NSaved= 7 IEnMin= 7 EnMin= -25.0743797577000     IErMin= 7 ErrMin= 2.87D-07
 ErrMax= 2.87D-07  0.00D+00 EMaxC= 1.00D-01 BMatC= 3.44D-12 BMatP= 2.46D-10
 IDIUse=1 WtCom= 1.00D+00 WtEn= 0.00D+00
 Coeff-Com: -0.109D-03 0.176D-03 0.211D-02-0.122D-01 0.572D-01-0.301D+00
 Coeff-Com:  0.125D+01
 Coeff:     -0.109D-03 0.176D-03 0.211D-02-0.122D-01 0.572D-01-0.301D+00
 Coeff:      0.125D+01
 Gap=     0.364 Goal=   None    Shift=    0.000
 RMSDP=5.79D-08 MaxDP=2.14D-06 DE=-8.40D-10 OVMax= 2.99D-06

 Cycle   8  Pass 1  IDiag  1:
 E= -25.0743797577130     Delta-E=       -0.000000000013 Rises=F Damp=F
 DIIS: error= 4.65D-08 at cycle   8 NSaved=   8.
 NSaved= 8 IEnMin= 8 EnMin= -25.0743797577130     IErMin= 8 ErrMin= 4.65D-08
 ErrMax= 4.65D-08  0.00D+00 EMaxC= 1.00D-01 BMatC= 8.31D-14 BMatP= 3.44D-12
 IDIUse=1 WtCom= 1.00D+00 WtEn= 0.00D+00
 Coeff-Com:  0.353D-04-0.581D-04-0.605D-03 0.356D-02-0.169D-01 0.965D-01
 Coeff-Com: -0.487D+00 0.140D+01
 Coeff:      0.353D-04-0.581D-04-0.605D-03 0.356D-02-0.169D-01 0.965D-01
 Coeff:     -0.487D+00 0.140D+01
 Gap=     0.364 Goal=   None    Shift=    0.000
 RMSDP=1.04D-08 MaxDP=5.79D-07 DE=-1.31D-11 OVMax= 6.60D-07

 Cycle   9  Pass 1  IDiag  1:
 E= -25.0743797577135     Delta-E=       -0.000000000000 Rises=F Damp=F
 DIIS: error= 9.30D-09 at cycle   9 NSaved=   9.
 NSaved= 9 IEnMin= 9 EnMin= -25.0743797577135     IErMin= 9 ErrMin= 9.30D-09
 ErrMax= 9.30D-09  0.00D+00 EMaxC= 1.00D-01 BMatC= 3.71D-15 BMatP= 8.31D-14
 IDIUse=1 WtCom= 1.00D+00 WtEn= 0.00D+00
 Coeff-Com: -0.539D-05 0.831D-05 0.129D-03-0.712D-03 0.318D-02-0.188D-01
 Coeff-Com:  0.106D+00-0.479D+00 0.139D+01
 Coeff:     -0.539D-05 0.831D-05 0.129D-03-0.712D-03 0.318D-02-0.188D-01
 Coeff:      0.106D+00-0.479D+00 0.139D+01
 Gap=     0.364 Goal=   None    Shift=    0.000
 RMSDP=2.00D-09 MaxDP=9.12D-08 DE=-4.44D-13 OVMax= 1.73D-07

 SCF Done:  E(RHF) =  -25.0743797577     A.U. after    9 cycles
            NFock=  9  Conv=0.20D-08     -V/T= 2.0093
 KE= 2.484365695443D+01 PE=-6.060129852660D+01 EE= 9.213325117458D+00
 Leave Link  502 at Thu May 26 10:35:14 2022, MaxMem=   104857600 cpu:               3.7 elap:               3.8
 (Enter /apps/software/g16/l801.exe)
 Windowed orbitals will be sorted by symmetry type.
 ExpMin= 1.88D-02 ExpMax= 2.39D+04 ExpMxC= 2.30D+02 IAcc=3 IRadAn=         5 AccDes= 0.00D+00
 HarFok:  IExCor=  205 AccDes= 0.00D+00 IRadAn=         5 IDoV=-2 UseB2=F ITyADJ=14
 ICtDFT= 12500011 ScaDFX=  1.000000  1.000000  1.000000  1.000000
 DSYEVD-2 returned Info=        3401 IAlg= 4 N=    80 NDim=    80 NE2=     1309686 trying  DSYEV.
 Largest valence mixing into a core orbital is  3.83D-04
 Largest core mixing into a valence orbital is  1.13D-04
 Range of M.O.s used for correlation:     2   126
 NBasis=   126 NAE=     3 NBE=     3 NFC=     1 NFV=     0
 NROrb=    125 NOA=     2 NOB=     2 NVA=   123 NVB=   123

 **** Warning!!: The largest alpha MO coefficient is  0.18518455D+02

 Leave Link  801 at Thu May 26 10:35:14 2022, MaxMem=   104857600 cpu:               0.1 elap:               0.1
 (Enter /apps/software/g16/l804.exe)
 Closed-shell transformation, MDV=   104857600 ITran=4 ISComp=2.
 Unit  1 TFree=        527294 TCopy=        350885.
 Semi-Direct transformation.
 ModeAB=           2 MOrb=             2 LenV=     104240114
 LASXX=       493564 LTotXX=      493564 LenRXX=      493564
 LTotAB=      509833 MaxLAS=     3220000 LenRXY=     3220000
 NonZer=     3361750 LenScr=     5758976 LnRSAI=           0
 LnScr1=           0 LExtra=           0 Total=      9472540
 MaxDsk=          -1 SrtSym=           F ITran=            4
 DoSDTr:  NPSUse=  1
 JobTyp=0 Pass  1:  I=   1 to   2.
 (rs|ai) integrals will be sorted in core.
 Complete sort for first half transformation.
 First half transformation complete.
 Complete sort for second half transformation.
 Second half transformation complete.
 Spin components of T(2) and E(2):
     alpha-alpha T2 =       0.1454214107D-02 E2=     -0.2662079799D-02
     alpha-beta  T2 =       0.4446011248D-01 E2=     -0.7694599206D-01
     beta-beta   T2 =       0.1454214107D-02 E2=     -0.2662079799D-02
 ANorm=    0.1023410250D+01
 E2 =    -0.8227015166D-01 EUMP2 =    -0.25156649909375D+02
 Leave Link  804 at Thu May 26 10:35:19 2022, MaxMem=   104857600 cpu:               5.1 elap:               5.2
 (Enter /apps/software/g16/l913.exe)
 CIDS:  MDV=   104857600.
 Frozen-core window:  NFC=   1 NFV=   0.
 IFCWin=0 IBDFC=1 NFBD=     0     0 NFCmp=     0     0 NFFFC=     0     0
 Using DD3R+UMP44R for 1st iteration.
 Using DD4RQ for 2nd and later iterations.
 Keep R2 and R3 ints in memory in symmetry-blocked form, NReq=40146875.
 FoFCou: FMM=F IPFlag=           0 FMFlag=           0 FMFlg1=           0
         NFxFlg=           0 DoJE=F BraDBF=F KetDBF=F FulRan=T
         wScrn=  0.000000 ICntrl=       600 IOpCl=  0 I1Cent=           0 NGrid=           0
         NMat0=    1 NMatS0=   8001 NMatT0=    0 NMatD0=    1 NMtDS0=    0 NMtDT0=    0
 Petite list used in FoFCou.
 CIDS: In Core Option IDoMem=           1.
 CCSD(T)
 =======
 Iterations=  50 Convergence= 0.100D-06
 Produce multiple copies of IABC intergrals
 Iteration Nr.   1
 **********************
 DD1Dir will call FoFMem   1 times, MxPair=         6
 NAB=     3 NAA=     0 NBB=     0.
 MP4(R+Q)=  0.25210069D-02
 Maximum subspace dimension=  5
 A-vector RMS=  3.0895790D-03 Max=  1.6154060D-02 conv= 1.00D-05.
 RLE energy=       -0.1003612923
 E3=       -0.17396005D-01        EUMP3=      -0.25174045914D+02
 E4(DQ)=   -0.55655834D-02        UMP4(DQ)=   -0.25179611498D+02
 E4(SDQ)=  -0.63050912D-02        UMP4(SDQ)=  -0.25180351005D+02
 VARIATIONAL ENERGIES WITH THE FIRST-ORDER WAVEFUNCTION:
 DE(Corr)= -0.97100211E-01 E(Corr)=     -25.171479968    
 NORM(A)=   0.10419092D+01
 Iteration Nr.   2
 **********************
 DD1Dir will call FoFMem   1 times, MxPair=         6
 NAB=     3 NAA=     0 NBB=     0.
 A-vector RMS=  1.0210026D-03 Max=  8.1296415D-03 conv= 1.00D-05.
 RLE energy=       -0.1095926171
 DE(Corr)= -0.10535982     E(CORR)=     -25.179739577     Delta=-8.26D-03
 NORM(A)=   0.10557171D+01
 Iteration Nr.   3
 **********************
 DD1Dir will call FoFMem   1 times, MxPair=         6
 NAB=     3 NAA=     0 NBB=     0.
 A-vector RMS=  4.6767172D-04 Max=  1.9957711D-03 conv= 1.00D-05.
 RLE energy=       -0.1102823668
 DE(Corr)= -0.10946636     E(CORR)=     -25.183846120     Delta=-4.11D-03
 NORM(A)=   0.10588446D+01
 Iteration Nr.   4
 **********************
 DD1Dir will call FoFMem   1 times, MxPair=         6
 NAB=     3 NAA=     0 NBB=     0.
 A-vector RMS=  8.6251812D-05 Max=  6.4179686D-04 conv= 1.00D-05.
 RLE energy=       -0.1105275807
 DE(Corr)= -0.11038418     E(CORR)=     -25.184763937     Delta=-9.18D-04
 NORM(A)=   0.10596081D+01
 Iteration Nr.   5
 **********************
 DD1Dir will call FoFMem   1 times, MxPair=         6
 NAB=     3 NAA=     0 NBB=     0.
 A-vector RMS=  3.6407583D-05 Max=  1.8274319D-04 conv= 1.00D-05.
 RLE energy=       -0.1105342516
 DE(Corr)= -0.11051831     E(CORR)=     -25.184898066     Delta=-1.34D-04
 NORM(A)=   0.10596957D+01
 Iteration Nr.   6
 **********************
 DD1Dir will call FoFMem   1 times, MxPair=         6
 NAB=     3 NAA=     0 NBB=     0.
 A-vector RMS=  1.0678259D-05 Max=  8.0055958D-05 conv= 1.00D-05.
 RLE energy=       -0.1105186037
 DE(Corr)= -0.11052699     E(CORR)=     -25.184906750     Delta=-8.68D-06
 NORM(A)=   0.10596882D+01
 Iteration Nr.   7
 **********************
 DD1Dir will call FoFMem   1 times, MxPair=         6
 NAB=     3 NAA=     0 NBB=     0.
 A-vector RMS=  5.6993483D-06 Max=  2.9412659D-05 conv= 1.00D-05.
 RLE energy=       -0.1105244406
 DE(Corr)= -0.11052222     E(CORR)=     -25.184901979     Delta= 4.77D-06
 NORM(A)=   0.10596975D+01
 Iteration Nr.   8
 **********************
 DD1Dir will call FoFMem   1 times, MxPair=         6
 NAB=     3 NAA=     0 NBB=     0.
 A-vector RMS=  1.5992865D-06 Max=  1.0999837D-05 conv= 1.00D-05.
 RLE energy=       -0.1105227686
 DE(Corr)= -0.11052333     E(CORR)=     -25.184903087     Delta=-1.11D-06
 NORM(A)=   0.10596968D+01
 Iteration Nr.   9
 **********************
 DD1Dir will call FoFMem   1 times, MxPair=         6
 NAB=     3 NAA=     0 NBB=     0.
 A-vector RMS=  6.7352005D-07 Max=  3.2214013D-06 conv= 1.00D-05.
 RLE energy=       -0.1105234161
 DE(Corr)= -0.11052317     E(CORR)=     -25.184902923     Delta= 1.64D-07
 NORM(A)=   0.10596980D+01
 Iteration Nr.  10
 **********************
 DD1Dir will call FoFMem   1 times, MxPair=         6
 NAB=     3 NAA=     0 NBB=     0.
 A-vector RMS=  1.5767708D-07 Max=  1.0558422D-06 conv= 1.00D-05.
 RLE energy=       -0.1105233790
 DE(Corr)= -0.11052334     E(CORR)=     -25.184903099     Delta=-1.76D-07
 NORM(A)=   0.10596982D+01
 Iteration Nr.  11
 **********************
 DD1Dir will call FoFMem   1 times, MxPair=         6
 NAB=     3 NAA=     0 NBB=     0.
 A-vector RMS=  1.0516255D-07 Max=  4.6007741D-07 conv= 1.00D-05.
 RLE energy=       -0.1105234695
 DE(Corr)= -0.11052342     E(CORR)=     -25.184903180     Delta=-8.07D-08
 NORM(A)=   0.10596984D+01
 CI/CC converged in   11 iterations to DelEn=-8.07D-08 Conv= 1.00D-07 ErrA1= 1.05D-07 Conv= 1.00D-05
 Wavefunction amplitudes converged. E(Corr)=     -25.184903180    
 Largest amplitude= 8.55D-02
 IPart=  1 IA=    8   11.10% done.
 IPart=  1 IA=   14   20.10% done.
 IPart=  1 IA=   22   31.35% done.
 IPart=  1 IA=   29   40.49% done.
 IPart=  1 IA=   37   50.14% done.
 IPart=  1 IA=   47   61.00% done.
 IPart=  1 IA=   57   70.53% done.
 IPart=  1 IA=   69   80.21% done.
 IPart=  1 IA=   85   90.12% done.
 Time for triples=        0.64 seconds.
 T4(CCSD)= -0.32590544D-02
 T5(CCSD)=  0.15323481D-03
 CCSD(T)= -0.25188008999D+02
 Discarding MO integrals.
 Leave Link  913 at Thu May 26 10:35:24 2022, MaxMem=   104857600 cpu:               4.8 elap:               4.8
 (Enter /apps/software/g16/l601.exe)
 Copying SCF densities to generalized density rwf, IOpCl= 0 IROHF=0.

 **********************************************************************

            Population analysis using the SCF density.

 **********************************************************************

 Orbital symmetries:
       Occupied  (SG) (SG) (SG)
       Virtual   (PI) (PI) (SG) (SG) (PI) (PI) (SG) (SG) (PI) (PI)
                 (DLTA) (DLTA) (SG) (SG) (PI) (PI) (PI) (PI) (SG)
                 (SG) (PHI) (PHI) (DLTA) (DLTA) (PI) (PI) (DLTA)
                 (DLTA) (SG) (PI) (PI) (SG) (SG) (DLTA) (DLTA)
                 (PI) (PI) (SG) (PI) (PI) (SG) (PI) (PI) (SG) (PHI)
                 (PHI) (?A) (?A) (PI) (PI) (DLTA) (DLTA) (SG) (PHI)
                 (PHI) (DLTA) (DLTA) (SG) (PI) (PI) (DLTA) (DLTA)
                 (SG) (PHI) (PHI) (PI) (PI) (SG) (SG) (PI) (PI)
                 (DLTA) (DLTA) (SG) (DLTA) (DLTA) (PI) (PI) (SG)
                 (PI) (PI) (SG) (PI) (PI) (?A) (?A) (PHI) (PHI)
                 (DLTA) (DLTA) (DLTA) (DLTA) (PI) (PI) (SG) (PHI)
                 (PHI) (SG) (DLTA) (DLTA) (PI) (PI) (PI) (PI) (SG)
                 (SG) (PHI) (PHI) (DLTA) (DLTA) (PI) (PI) (SG)
                 (SG) (PI) (PI) (DLTA) (DLTA) (SG) (PI) (PI) (SG)
                 (SG)
 The electronic state is 1-SG.
 Alpha  occ. eigenvalues --   -7.75676  -0.56146  -0.34727
 Alpha virt. eigenvalues --    0.01673   0.01673   0.03175   0.05037   0.06977
 Alpha virt. eigenvalues --    0.06977   0.09723   0.12037   0.14005   0.14005
 Alpha virt. eigenvalues --    0.14316   0.14316   0.20392   0.23380   0.27192
 Alpha virt. eigenvalues --    0.27192   0.29984   0.29984   0.32926   0.37255
 Alpha virt. eigenvalues --    0.45639   0.45639   0.46177   0.46177   0.48383
 Alpha virt. eigenvalues --    0.48383   0.48926   0.48926   0.51700   0.55068
 Alpha virt. eigenvalues --    0.55068   0.58431   0.67081   0.78492   0.78492
 Alpha virt. eigenvalues --    0.79907   0.79907   0.80534   0.96703   0.96703
 Alpha virt. eigenvalues --    1.12807   1.16828   1.16828   1.28419   1.34283
 Alpha virt. eigenvalues --    1.34283   1.35838   1.35838   1.36056   1.36056
 Alpha virt. eigenvalues --    1.37751   1.37751   1.39382   1.42312   1.42312
 Alpha virt. eigenvalues --    1.42623   1.42623   1.49443   1.50340   1.50340
 Alpha virt. eigenvalues --    1.52743   1.52743   1.60251   1.74540   1.74540
 Alpha virt. eigenvalues --    1.81601   1.81601   1.95363   2.02886   2.10521
 Alpha virt. eigenvalues --    2.10521   2.12971   2.12971   2.22915   2.60416
 Alpha virt. eigenvalues --    2.60416   2.81496   2.81496   3.17085   3.17890
 Alpha virt. eigenvalues --    3.17890   3.34745   3.73478   3.73478   3.89355
 Alpha virt. eigenvalues --    3.89355   3.92599   3.92599   3.92667   3.92667
 Alpha virt. eigenvalues --    3.99682   3.99682   3.99744   3.99744   4.04334
 Alpha virt. eigenvalues --    4.05567   4.05567   4.09309   4.11886   4.11886
 Alpha virt. eigenvalues --    4.23272   4.23272   4.44250   4.44250   4.60519
 Alpha virt. eigenvalues --    4.98698   6.65073   6.65073   6.76783   6.76783
 Alpha virt. eigenvalues --    6.85261   6.85261   7.12447   7.82829   8.32042
 Alpha virt. eigenvalues --    8.32042   8.53269   8.53269   8.83361   8.87808
 Alpha virt. eigenvalues --    8.87808   9.46377  13.69764
          Condensed to atoms (all electrons):
               1          2
     1  B    4.542824   0.286340
     2  H    0.286340   0.884497
 Mulliken charges:
               1
     1  B    0.170836
     2  H   -0.170836
 Sum of Mulliken charges =  -0.00000
 Mulliken charges with hydrogens summed into heavy atoms:
               1
     1  B   -0.000000
 Electronic spatial extent (au):  <R**2>=             29.4830
 Charge=             -0.0000 electrons
 Dipole moment (field-independent basis, Debye):
    X=              0.0000    Y=              0.0000    Z=              0.4239  Tot=              0.4239
 Quadrupole moment (field-independent basis, Debye-Ang):
   XX=             -7.2998   YY=             -7.2998   ZZ=            -12.0873
   XY=              0.0000   XZ=              0.0000   YZ=              0.0000
 Traceless Quadrupole moment (field-independent basis, Debye-Ang):
   XX=              1.5958   YY=              1.5958   ZZ=             -3.1916
   XY=              0.0000   XZ=              0.0000   YZ=              0.0000
 Octapole moment (field-independent basis, Debye-Ang**2):
  XXX=              0.0000  YYY=              0.0000  ZZZ=              0.3746  XYY=              0.0000
  XXY=              0.0000  XXZ=              0.4226  XZZ=              0.0000  YZZ=              0.0000
  YYZ=              0.4226  XYZ=              0.0000
 Hexadecapole moment (field-independent basis, Debye-Ang**3):
 XXXX=            -10.5896 YYYY=            -10.5896 ZZZZ=            -48.8368 XXXY=              0.0000
 XXXZ=              0.0000 YYYX=              0.0000 YYYZ=              0.0000 ZZZX=              0.0000
 ZZZY=              0.0000 XXYY=             -3.5299 XXZZ=            -10.0582 YYZZ=            -10.0582
 XXYZ=              0.0000 YYXZ=              0.0000 ZZXY=              0.0000
 N-N= 1.469936697000D+00 E-N=-6.060129850472D+01  KE= 2.484365695443D+01
 Symmetry A1   KE= 2.484365695443D+01
 Symmetry A2   KE= 6.493760128009D-53
 Symmetry B1   KE= 0.000000000000D+00
 Symmetry B2   KE= 0.000000000000D+00
 Leave Link  601 at Thu May 26 10:35:24 2022, MaxMem=   104857600 cpu:               0.1 elap:               0.1
 (Enter /apps/software/g16/l9999.exe)
 1\1\GINC-CNODE16\SP\RCCSD(T)-FC\Aug-CC-pVQZ\B1H1\LCZ\26-May-2022\0\\#p
  RHF/aug-cc-pVQZ CCSD(T,FC)\\BH CCSD(T) at 1.8 Angstrom\\0,1\B,0,0.,0.
 ,0.\H,0,1.8,0.,0.\\Version=ES64L-G16RevA.03\State=1-SG\HF=-25.0743798\
 MP2=-25.1566499\MP3=-25.1740459\MP4D=-25.1821325\MP4DQ=-25.1796115\MP4
 SDQ=-25.180351\CCSD=-25.1849032\CCSD(T)=-25.188009\RMSD=1.997e-09\PG=C
 *V [C*(H1B1)]\\@


 UNLESS WE CHANGE DIRECTIONS, WE WILL WIND UP WHERE WE ARE HEADED.
     -- CONFUCIUS
 Job cpu time:       0 days  0 hours  0 minutes 14.5 seconds.
 Elapsed time:       0 days  0 hours  0 minutes 14.6 seconds.
 File lengths (MBytes):  RWF=     81 Int=      0 D2E=      0 Chk=      3 Scr=      1
 Normal termination of Gaussian 16 at Thu May 26 10:35:24 2022.

Sender: Unischeduler System <lcz@mgt01>
Subject: Job 136193: <#!/bin/bash
#BSUB -J intel
#BSUB -o BH-1.8-CCSD_T-G.out
#BSUB -n 8
#BSUB -q cqueue
#BSUB -R span[hosts=1]
export g16root=/apps/software
source /apps/software/g16/bsd/g16.profile
export GAUSS_SCRDIR=/scratch
/apps/software/g16/g16 < BH-1.8-CCSD_T-G.inp > BH-1.8-CCSD_T-G.out> Done

Job <#!/bin/bash
#BSUB -J intel
#BSUB -o BH-1.8-CCSD_T-G.out
#BSUB -n 8
#BSUB -q cqueue
#BSUB -R span[hosts=1]
export g16root=/apps/software
source /apps/software/g16/bsd/g16.profile
export GAUSS_SCRDIR=/scratch
/apps/software/g16/g16 < BH-1.8-CCSD_T-G.inp > BH-1.8-CCSD_T-G.out> was submitted from host <mgt01> by user <lcz>.
Job was executed on host(s) <8*cnode16>, in queue <cqueue>, as user <lcz>.
</apps/users/lcz> was used as the home directory.
</apps/users/lcz/exe13/GCCSD_T> was used as the working directory.
Started at 2022-05-26 10:35:09
Results reported at 2022-05-26 10:35:24

Your job looked like:

------------------------------------------------------------
# User input
#!/bin/bash
#BSUB -J intel
#BSUB -o BH-1.8-CCSD_T-G.out
#BSUB -n 8
#BSUB -q cqueue
#BSUB -R span[hosts=1]
export g16root=/apps/software
source /apps/software/g16/bsd/g16.profile
export GAUSS_SCRDIR=/scratch
/apps/software/g16/g16 < BH-1.8-CCSD_T-G.inp > BH-1.8-CCSD_T-G.out
------------------------------------------------------------

Successfully completed.

Resource usage summary:

    CPU time   :           12.81 sec.
    Max Memory :               480 MB
    Max Processes  :               5


The output (if any) follows:

