 Entering Gaussian System, Link 0=/apps/software/g16/g16
 Initial command:
 /apps/software/g16/l1.exe "/scratch/Gau-285554.inp" -scrdir="/scratch/"
 Entering Link 1 = /apps/software/g16/l1.exe PID=    285555.
  
 Copyright (c) 1988,1990,1992,1993,1995,1998,2003,2009,2016,
            Gaussian, Inc.  All Rights Reserved.
  
 This is part of the Gaussian(R) 16 program.  It is based on
 the Gaussian(R) 09 system (copyright 2009, Gaussian, Inc.),
 the Gaussian(R) 03 system (copyright 2003, Gaussian, Inc.),
 the Gaussian(R) 98 system (copyright 1998, Gaussian, Inc.),
 the Gaussian(R) 94 system (copyright 1995, Gaussian, Inc.),
 the Gaussian 92(TM) system (copyright 1992, Gaussian, Inc.),
 the Gaussian 90(TM) system (copyright 1990, Gaussian, Inc.),
 the Gaussian 88(TM) system (copyright 1988, Gaussian, Inc.),
 the Gaussian 86(TM) system (copyright 1986, Carnegie Mellon
 University), and the Gaussian 82(TM) system (copyright 1983,
 Carnegie Mellon University). Gaussian is a federally registered
 trademark of Gaussian, Inc.
  
 This software contains proprietary and confidential information,
 including trade secrets, belonging to Gaussian, Inc.
  
 This software is provided under written license and may be
 used, copied, transmitted, or stored only in accord with that
 written license.
  
 The following legend is applicable only to US Government
 contracts under FAR:
  
                    RESTRICTED RIGHTS LEGEND
  
 Use, reproduction and disclosure by the US Government is
 subject to restrictions as set forth in subparagraphs (a)
 and (c) of the Commercial Computer Software - Restricted
 Rights clause in FAR 52.227-19.
  
 Gaussian, Inc.
 340 Quinnipiac St., Bldg. 40, Wallingford CT 06492
  
  
 ---------------------------------------------------------------
 Warning -- This program may not be used in any manner that
 competes with the business of Gaussian, Inc. or will provide
 assistance to any competitor of Gaussian, Inc.  The licensee
 of this program is prohibited from giving any competitor of
 Gaussian, Inc. access to this program.  By using this program,
 the user acknowledges that Gaussian, Inc. is engaged in the
 business of creating and licensing software in the field of
 computational chemistry and represents and warrants to the
 licensee that it is not a competitor of Gaussian, Inc. and that
 it will not use this program in any manner prohibited above.
 ---------------------------------------------------------------
  

 Cite this work as:
 Gaussian 16, Revision A.03,
 M. J. Frisch, G. W. Trucks, H. B. Schlegel, G. E. Scuseria, 
 M. A. Robb, J. R. Cheeseman, G. Scalmani, V. Barone, 
 G. A. Petersson, H. Nakatsuji, X. Li, M. Caricato, A. V. Marenich, 
 J. Bloino, B. G. Janesko, R. Gomperts, B. Mennucci, H. P. Hratchian, 
 J. V. Ortiz, A. F. Izmaylov, J. L. Sonnenberg, D. Williams-Young, 
 F. Ding, F. Lipparini, F. Egidi, J. Goings, B. Peng, A. Petrone, 
 T. Henderson, D. Ranasinghe, V. G. Zakrzewski, J. Gao, N. Rega, 
 G. Zheng, W. Liang, M. Hada, M. Ehara, K. Toyota, R. Fukuda, 
 J. Hasegawa, M. Ishida, T. Nakajima, Y. Honda, O. Kitao, H. Nakai, 
 T. Vreven, K. Throssell, J. A. Montgomery, Jr., J. E. Peralta, 
 F. Ogliaro, M. J. Bearpark, J. J. Heyd, E. N. Brothers, K. N. Kudin, 
 V. N. Staroverov, T. A. Keith, R. Kobayashi, J. Normand, 
 K. Raghavachari, A. P. Rendell, J. C. Burant, S. S. Iyengar, 
 J. Tomasi, M. Cossi, J. M. Millam, M. Klene, C. Adamo, R. Cammi, 
 J. W. Ochterski, R. L. Martin, K. Morokuma, O. Farkas, 
 J. B. Foresman, and D. J. Fox, Gaussian, Inc., Wallingford CT, 2016.
 
 ******************************************
 Gaussian 16:  ES64L-G16RevA.03 25-Dec-2016
                26-May-2022 
 ******************************************
 %chk=BH-2.6-CCSD_T-G.chk
 -----------------------------
 #p RHF/aug-cc-pVQZ CCSD(T,FC)
 -----------------------------
 1/38=1,172=1/1;
 2/12=2,17=6,18=5,40=1/2;
 3/5=16,6=2,7=10,11=1,25=1,30=1,116=1/1,2,3;
 4//1;
 5/5=2,38=5/2;
 8/6=4,9=120000,10=1/1,4;
 9/5=7,14=2/13;
 6/7=2,8=2,9=2,10=2/1;
 99/5=1,9=1/99;
 Leave Link    1 at Thu May 26 10:32:11 2022, MaxMem=           0 cpu:               0.0 elap:               0.0
 (Enter /apps/software/g16/l101.exe)
 --------------------------
 BH CCSD(T) at 2.6 Angstrom
 --------------------------
 Symbolic Z-matrix:
 Charge =  0 Multiplicity = 1
 B                     0.        0.        0. 
 H                     2.6       0.        0. 
 
 ITRead=  0  0
 MicOpt= -1 -1
 NAtoms=      2 NQM=        2 NQMF=       0 NMMI=      0 NMMIF=      0
                NMic=       0 NMicF=      0.
                    Isotopes and Nuclear Properties:
 (Nuclear quadrupole moments (NQMom) in fm**2, nuclear magnetic moments (NMagM)
  in nuclear magnetons)

  Atom         1           2
 IAtWgt=          11           1
 AtmWgt=  11.0093053   1.0078250
 NucSpn=           3           1
 AtZEff=  -0.0000000  -0.0000000
 NQMom=    4.0590000   0.0000000
 NMagM=    2.6886370   2.7928460
 AtZNuc=   5.0000000   1.0000000
 Leave Link  101 at Thu May 26 10:32:11 2022, MaxMem=   104857600 cpu:               0.1 elap:               0.1
 (Enter /apps/software/g16/l202.exe)
                          Input orientation:                          
 ---------------------------------------------------------------------
 Center     Atomic      Atomic             Coordinates (Angstroms)
 Number     Number       Type             X           Y           Z
 ---------------------------------------------------------------------
      1          5           0        0.000000    0.000000    0.000000
      2          1           0        2.600000    0.000000    0.000000
 ---------------------------------------------------------------------
 Stoichiometry    BH
 Framework group  C*V[C*(HB)]
 Deg. of freedom     1
 Full point group                 C*V     NOp   4
 Largest Abelian subgroup         C2V     NOp   4
 Largest concise Abelian subgroup C1      NOp   1
                         Standard orientation:                         
 ---------------------------------------------------------------------
 Center     Atomic      Atomic             Coordinates (Angstroms)
 Number     Number       Type             X           Y           Z
 ---------------------------------------------------------------------
      1          5           0        0.000000    0.000000    0.433333
      2          1           0        0.000000    0.000000   -2.166667
 ---------------------------------------------------------------------
 Rotational constants (GHZ):           0.0000000          80.9703873          80.9703873
 Leave Link  202 at Thu May 26 10:32:11 2022, MaxMem=   104857600 cpu:               0.0 elap:               0.0
 (Enter /apps/software/g16/l301.exe)
 Standard basis: Aug-CC-pVQZ (5D, 7F)
 Ernie: Thresh=  0.10000D-02 Tol=  0.10000D-05 Strict=F.
 Ernie:  4 primitive shells out of 54 were deleted.
 There are    68 symmetry adapted cartesian basis functions of A1  symmetry.
 There are    18 symmetry adapted cartesian basis functions of A2  symmetry.
 There are    37 symmetry adapted cartesian basis functions of B1  symmetry.
 There are    37 symmetry adapted cartesian basis functions of B2  symmetry.
 There are    50 symmetry adapted basis functions of A1  symmetry.
 There are    16 symmetry adapted basis functions of A2  symmetry.
 There are    30 symmetry adapted basis functions of B1  symmetry.
 There are    30 symmetry adapted basis functions of B2  symmetry.
   126 basis functions,   180 primitive gaussians,   160 cartesian basis functions
     3 alpha electrons        3 beta electrons
       nuclear repulsion energy         1.0176484825 Hartrees.
 IExCor=    0 DFT=F Ex=HF Corr=None ExCW=0 ScaHFX=  1.000000
 ScaDFX=  1.000000  1.000000  1.000000  1.000000 ScalE2=  1.000000  1.000000
 IRadAn=      5 IRanWt=     -1 IRanGd=            0 ICorTp=0 IEmpDi=  4
 NAtoms=    2 NActive=    2 NUniq=    2 SFac= 1.00D+00 NAtFMM=   60 NAOKFM=F Big=F
 Integral buffers will be    131072 words long.
 Raffenetti 1 integral format.
 Two-electron integral symmetry is turned on.
 Leave Link  301 at Thu May 26 10:32:11 2022, MaxMem=   104857600 cpu:               0.1 elap:               0.1
 (Enter /apps/software/g16/l302.exe)
 NPDir=0 NMtPBC=     1 NCelOv=     1 NCel=       1 NClECP=     1 NCelD=      1
         NCelK=      1 NCelE2=     1 NClLst=     1 CellRange=     0.0.
 One-electron integrals computed using PRISM.
 One-electron integral symmetry used in STVInt
 NBasis=   126 RedAO= T EigKep=  1.22D-03  NBF=    50    16    30    30
 NBsUse=   126 1.00D-06 EigRej= -1.00D+00 NBFU=    50    16    30    30
 Leave Link  302 at Thu May 26 10:32:11 2022, MaxMem=   104857600 cpu:               0.1 elap:               0.1
 (Enter /apps/software/g16/l303.exe)
 DipDrv:  MaxL=1.
 Leave Link  303 at Thu May 26 10:32:11 2022, MaxMem=   104857600 cpu:               0.0 elap:               0.0
 (Enter /apps/software/g16/l401.exe)
 ExpMin= 1.88D-02 ExpMax= 2.39D+04 ExpMxC= 2.30D+02 IAcc=3 IRadAn=         5 AccDes= 0.00D+00
 Harris functional with IExCor=  205 and IRadAn=       5 diagonalized for initial guess.
 HarFok:  IExCor=  205 AccDes= 0.00D+00 IRadAn=         5 IDoV= 1 UseB2=F ITyADJ=14
 ICtDFT=  3500011 ScaDFX=  1.000000  1.000000  1.000000  1.000000
 FoFCou: FMM=F IPFlag=           0 FMFlag=      100000 FMFlg1=           0
         NFxFlg=           0 DoJE=T BraDBF=F KetDBF=T FulRan=T
         wScrn=  0.000000 ICntrl=       500 IOpCl=  0 I1Cent=   200000004 NGrid=           0
         NMat0=    1 NMatS0=      1 NMatT0=    0 NMatD0=    1 NMtDS0=    0 NMtDT0=    0
 Petite list used in FoFCou.
 Harris En= -25.0080191745543    
 JPrj=0 DoOrth=F DoCkMO=F.
 Initial guess orbital symmetries:
       Occupied  (SG) (SG) (SG)
       Virtual   (PI) (PI) (SG) (SG) (PI) (PI) (SG) (SG) (PI) (PI)
                 (DLTA) (DLTA) (SG) (PI) (PI) (SG) (PI) (PI) (SG)
                 (SG) (PI) (PI) (DLTA) (DLTA) (DLTA) (DLTA) (PHI)
                 (PHI) (SG) (PI) (PI) (SG) (SG) (DLTA) (DLTA) (PI)
                 (PI) (SG) (PI) (PI) (SG) (PI) (PI) (SG) (DLTA)
                 (DLTA) (PI) (PI) (DLTA) (DLTA) (SG) (PHI) (PHI)
                 (SG) (?A) (?A) (PI) (PI) (PHI) (PHI) (DLTA) (DLTA)
                 (SG) (PI) (PI) (SG) (PHI) (PHI) (DLTA) (DLTA)
                 (SG) (SG) (PI) (PI) (DLTA) (DLTA) (PI) (PI) (PI)
                 (PI) (SG) (SG) (PI) (PI) (SG) (DLTA) (DLTA) (PI)
                 (PI) (?A) (?A) (PHI) (PHI) (SG) (DLTA) (DLTA)
                 (PHI) (PHI) (DLTA) (DLTA) (PI) (PI) (PI) (PI)
                 (SG) (SG) (PHI) (PHI) (DLTA) (DLTA) (PI) (PI)
                 (SG) (SG) (PI) (PI) (SG) (DLTA) (DLTA) (PI) (PI)
                 (SG) (SG)
 The electronic state of the initial guess is 1-SG.
 Leave Link  401 at Thu May 26 10:32:11 2022, MaxMem=   104857600 cpu:               0.2 elap:               0.2
 (Enter /apps/software/g16/l502.exe)
 Keep R1 ints in memory in symmetry-blocked form, NReq=40143665.
 FoFCou: FMM=F IPFlag=           0 FMFlag=           0 FMFlg1=           0
         NFxFlg=           0 DoJE=F BraDBF=F KetDBF=F FulRan=T
         wScrn=  0.000000 ICntrl=       600 IOpCl=  0 I1Cent=           0 NGrid=           0
         NMat0=    1 NMatS0=   8001 NMatT0=    0 NMatD0=    1 NMtDS0=    0 NMtDT0=    0
 Petite list used in FoFCou.
 Closed shell SCF:
 Using DIIS extrapolation, IDIIS=  1040.
 NGot=   104857600 LenX=    96673173 LenY=    96647132
 Requested convergence on RMS density matrix=1.00D-08 within 128 cycles.
 Requested convergence on MAX density matrix=1.00D-06.
 Requested convergence on             energy=1.00D-06.
 No special actions if energy rises.

 Cycle   1  Pass 1  IDiag  1:
 E= -24.9202064609913    
 DIIS: error= 3.58D-02 at cycle   1 NSaved=   1.
 NSaved= 1 IEnMin= 1 EnMin= -24.9202064609913     IErMin= 1 ErrMin= 3.58D-02
 ErrMax= 3.58D-02  0.00D+00 EMaxC= 1.00D-01 BMatC= 5.32D-02 BMatP= 5.32D-02
 IDIUse=3 WtCom= 6.42D-01 WtEn= 3.58D-01
 Coeff-Com:  0.100D+01
 Coeff-En:   0.100D+01
 Coeff:      0.100D+01
 Gap=     0.154 Goal=   None    Shift=    0.000
 GapD=    0.154 DampG=1.000 DampE=0.500 DampFc=0.5000 IDamp=-1.
 Damping current iteration by 5.00D-01
 RMSDP=2.05D-03 MaxDP=8.03D-02              OVMax= 3.08D-01

 Cycle   2  Pass 1  IDiag  1:
 E= -24.9542331158940     Delta-E=       -0.034026654903 Rises=F Damp=T
 DIIS: error= 1.71D-02 at cycle   2 NSaved=   2.
 NSaved= 2 IEnMin= 2 EnMin= -24.9542331158940     IErMin= 2 ErrMin= 1.71D-02
 ErrMax= 1.71D-02  0.00D+00 EMaxC= 1.00D-01 BMatC= 1.15D-02 BMatP= 5.32D-02
 IDIUse=3 WtCom= 8.29D-01 WtEn= 1.71D-01
 Coeff-Com: -0.802D+00 0.180D+01
 Coeff-En:   0.000D+00 0.100D+01
 Coeff:     -0.665D+00 0.167D+01
 Gap=     0.300 Goal=   None    Shift=    0.000
 RMSDP=7.30D-04 MaxDP=3.74D-02 DE=-3.40D-02 OVMax= 7.75D-02

 Cycle   3  Pass 1  IDiag  1:
 E= -24.9862878328937     Delta-E=       -0.032054717000 Rises=F Damp=F
 DIIS: error= 1.93D-03 at cycle   3 NSaved=   3.
 NSaved= 3 IEnMin= 3 EnMin= -24.9862878328937     IErMin= 3 ErrMin= 1.93D-03
 ErrMax= 1.93D-03  0.00D+00 EMaxC= 1.00D-01 BMatC= 9.44D-05 BMatP= 1.15D-02
 IDIUse=3 WtCom= 9.81D-01 WtEn= 1.93D-02
 Coeff-Com: -0.532D-01 0.603D-01 0.993D+00
 Coeff-En:   0.000D+00 0.000D+00 0.100D+01
 Coeff:     -0.522D-01 0.592D-01 0.993D+00
 Gap=     0.289 Goal=   None    Shift=    0.000
 RMSDP=1.17D-04 MaxDP=3.58D-03 DE=-3.21D-02 OVMax= 9.20D-03

 Cycle   4  Pass 1  IDiag  1:
 E= -24.9865629413723     Delta-E=       -0.000275108479 Rises=F Damp=F
 DIIS: error= 7.05D-04 at cycle   4 NSaved=   4.
 NSaved= 4 IEnMin= 4 EnMin= -24.9865629413723     IErMin= 4 ErrMin= 7.05D-04
 ErrMax= 7.05D-04  0.00D+00 EMaxC= 1.00D-01 BMatC= 1.08D-05 BMatP= 9.44D-05
 IDIUse=3 WtCom= 9.93D-01 WtEn= 7.05D-03
 Coeff-Com:  0.322D-01-0.428D-01-0.649D+00 0.166D+01
 Coeff-En:   0.000D+00 0.000D+00 0.000D+00 0.100D+01
 Coeff:      0.319D-01-0.425D-01-0.644D+00 0.165D+01
 Gap=     0.289 Goal=   None    Shift=    0.000
 RMSDP=6.08D-05 MaxDP=2.11D-03 DE=-2.75D-04 OVMax= 5.56D-03

 Cycle   5  Pass 1  IDiag  1:
 E= -24.9866055108712     Delta-E=       -0.000042569499 Rises=F Damp=F
 DIIS: error= 4.17D-05 at cycle   5 NSaved=   5.
 NSaved= 5 IEnMin= 5 EnMin= -24.9866055108712     IErMin= 5 ErrMin= 4.17D-05
 ErrMax= 4.17D-05  0.00D+00 EMaxC= 1.00D-01 BMatC= 1.10D-07 BMatP= 1.08D-05
 IDIUse=1 WtCom= 1.00D+00 WtEn= 0.00D+00
 Coeff-Com: -0.551D-02 0.751D-02 0.119D+00-0.333D+00 0.121D+01
 Coeff:     -0.551D-02 0.751D-02 0.119D+00-0.333D+00 0.121D+01
 Gap=     0.289 Goal=   None    Shift=    0.000
 RMSDP=4.62D-06 MaxDP=1.32D-04 DE=-4.26D-05 OVMax= 3.96D-04

 Cycle   6  Pass 1  IDiag  1:
 E= -24.9866057573071     Delta-E=       -0.000000246436 Rises=F Damp=F
 DIIS: error= 8.87D-06 at cycle   6 NSaved=   6.
 NSaved= 6 IEnMin= 6 EnMin= -24.9866057573071     IErMin= 6 ErrMin= 8.87D-06
 ErrMax= 8.87D-06  0.00D+00 EMaxC= 1.00D-01 BMatC= 2.56D-09 BMatP= 1.10D-07
 IDIUse=1 WtCom= 1.00D+00 WtEn= 0.00D+00
 Coeff-Com:  0.563D-03-0.991D-03-0.561D-02 0.185D-01-0.184D+00 0.117D+01
 Coeff:      0.563D-03-0.991D-03-0.561D-02 0.185D-01-0.184D+00 0.117D+01
 Gap=     0.289 Goal=   None    Shift=    0.000
 RMSDP=1.06D-06 MaxDP=3.44D-05 DE=-2.46D-07 OVMax= 9.10D-05

 Cycle   7  Pass 1  IDiag  1:
 E= -24.9866057671002     Delta-E=       -0.000000009793 Rises=F Damp=F
 DIIS: error= 2.12D-06 at cycle   7 NSaved=   7.
 NSaved= 7 IEnMin= 7 EnMin= -24.9866057671002     IErMin= 7 ErrMin= 2.12D-06
 ErrMax= 2.12D-06  0.00D+00 EMaxC= 1.00D-01 BMatC= 7.54D-11 BMatP= 2.56D-09
 IDIUse=1 WtCom= 1.00D+00 WtEn= 0.00D+00
 Coeff-Com:  0.155D-05-0.103D-04 0.476D-03-0.154D-02 0.226D-01-0.290D+00
 Coeff-Com:  0.127D+01
 Coeff:      0.155D-05-0.103D-04 0.476D-03-0.154D-02 0.226D-01-0.290D+00
 Coeff:      0.127D+01
 Gap=     0.289 Goal=   None    Shift=    0.000
 RMSDP=2.61D-07 MaxDP=9.23D-06 DE=-9.79D-09 OVMax= 2.26D-05

 Cycle   8  Pass 1  IDiag  1:
 E= -24.9866057674857     Delta-E=       -0.000000000386 Rises=F Damp=F
 DIIS: error= 1.93D-07 at cycle   8 NSaved=   8.
 NSaved= 8 IEnMin= 8 EnMin= -24.9866057674857     IErMin= 8 ErrMin= 1.93D-07
 ErrMax= 1.93D-07  0.00D+00 EMaxC= 1.00D-01 BMatC= 8.86D-13 BMatP= 7.54D-11
 IDIUse=1 WtCom= 1.00D+00 WtEn= 0.00D+00
 Coeff-Com: -0.283D-05 0.652D-05-0.455D-04 0.185D-03-0.371D-02 0.683D-01
 Coeff-Com: -0.371D+00 0.131D+01
 Coeff:     -0.283D-05 0.652D-05-0.455D-04 0.185D-03-0.371D-02 0.683D-01
 Coeff:     -0.371D+00 0.131D+01
 Gap=     0.289 Goal=   None    Shift=    0.000
 RMSDP=3.67D-08 MaxDP=1.30D-06 DE=-3.86D-10 OVMax= 2.94D-06

 Cycle   9  Pass 1  IDiag  1:
 E= -24.9866057674914     Delta-E=       -0.000000000006 Rises=F Damp=F
 DIIS: error= 3.20D-08 at cycle   9 NSaved=   9.
 NSaved= 9 IEnMin= 9 EnMin= -24.9866057674914     IErMin= 9 ErrMin= 3.20D-08
 ErrMax= 3.20D-08  0.00D+00 EMaxC= 1.00D-01 BMatC= 2.65D-14 BMatP= 8.86D-13
 IDIUse=1 WtCom= 1.00D+00 WtEn= 0.00D+00
 Coeff-Com: -0.146D-05 0.212D-05 0.220D-04-0.859D-04 0.804D-03-0.159D-01
 Coeff-Com:  0.928D-01-0.426D+00 0.135D+01
 Coeff:     -0.146D-05 0.212D-05 0.220D-04-0.859D-04 0.804D-03-0.159D-01
 Coeff:      0.928D-01-0.426D+00 0.135D+01
 Gap=     0.289 Goal=   None    Shift=    0.000
 RMSDP=5.74D-09 MaxDP=2.15D-07 DE=-5.66D-12 OVMax= 5.22D-07

 SCF Done:  E(RHF) =  -24.9866057675     A.U. after    9 cycles
            NFock=  9  Conv=0.57D-08     -V/T= 2.0093
 KE= 2.475733010710D+01 PE=-5.936057820774D+01 EE= 8.598993850615D+00
 Leave Link  502 at Thu May 26 10:32:15 2022, MaxMem=   104857600 cpu:               3.6 elap:               3.7
 (Enter /apps/software/g16/l801.exe)
 Windowed orbitals will be sorted by symmetry type.
 ExpMin= 1.88D-02 ExpMax= 2.39D+04 ExpMxC= 2.30D+02 IAcc=3 IRadAn=         5 AccDes= 0.00D+00
 HarFok:  IExCor=  205 AccDes= 0.00D+00 IRadAn=         5 IDoV=-2 UseB2=F ITyADJ=14
 ICtDFT= 12500011 ScaDFX=  1.000000  1.000000  1.000000  1.000000
 DSYEVD-2 returned Info=        3401 IAlg= 4 N=    80 NDim=    80 NE2=     1309686 trying  DSYEV.
 Largest valence mixing into a core orbital is  4.00D-04
 Largest core mixing into a valence orbital is  1.62D-04
 Range of M.O.s used for correlation:     2   126
 NBasis=   126 NAE=     3 NBE=     3 NFC=     1 NFV=     0
 NROrb=    125 NOA=     2 NOB=     2 NVA=   123 NVB=   123
 Leave Link  801 at Thu May 26 10:32:15 2022, MaxMem=   104857600 cpu:               0.1 elap:               0.1
 (Enter /apps/software/g16/l804.exe)
 Closed-shell transformation, MDV=   104857600 ITran=4 ISComp=2.
 Unit  1 TFree=        527294 TCopy=        350885.
 Semi-Direct transformation.
 ModeAB=           2 MOrb=             2 LenV=     104240796
 LASXX=       493564 LTotXX=      493564 LenRXX=      493564
 LTotAB=      509833 MaxLAS=     3220000 LenRXY=     3220000
 NonZer=     3360750 LenScr=     5758976 LnRSAI=           0
 LnScr1=           0 LExtra=           0 Total=      9472540
 MaxDsk=          -1 SrtSym=           F ITran=            4
 DoSDTr:  NPSUse=  1
 JobTyp=0 Pass  1:  I=   1 to   2.
 (rs|ai) integrals will be sorted in core.
 Complete sort for first half transformation.
 First half transformation complete.
 Complete sort for second half transformation.
 Second half transformation complete.
 Spin components of T(2) and E(2):
     alpha-alpha T2 =       0.1572243592D-02 E2=     -0.2448815545D-02
     alpha-beta  T2 =       0.6835271510D-01 E2=     -0.8488420837D-01
     beta-beta   T2 =       0.1572243592D-02 E2=     -0.2448815545D-02
 ANorm=    0.1035131490D+01
 E2 =    -0.8978183946D-01 EUMP2 =    -0.25076387606953D+02
 Leave Link  804 at Thu May 26 10:32:20 2022, MaxMem=   104857600 cpu:               5.1 elap:               5.1
 (Enter /apps/software/g16/l913.exe)
 CIDS:  MDV=   104857600.
 Frozen-core window:  NFC=   1 NFV=   0.
 IFCWin=0 IBDFC=1 NFBD=     0     0 NFCmp=     0     0 NFFFC=     0     0
 Using DD3R+UMP44R for 1st iteration.
 Using DD4RQ for 2nd and later iterations.
 Keep R2 and R3 ints in memory in symmetry-blocked form, NReq=40146875.
 FoFCou: FMM=F IPFlag=           0 FMFlag=           0 FMFlg1=           0
         NFxFlg=           0 DoJE=F BraDBF=F KetDBF=F FulRan=T
         wScrn=  0.000000 ICntrl=       600 IOpCl=  0 I1Cent=           0 NGrid=           0
         NMat0=    1 NMatS0=   8001 NMatT0=    0 NMatD0=    1 NMtDS0=    0 NMtDT0=    0
 Petite list used in FoFCou.
 CIDS: In Core Option IDoMem=           1.
 CCSD(T)
 =======
 Iterations=  50 Convergence= 0.100D-06
 Produce multiple copies of IABC intergrals
 Iteration Nr.   1
 **********************
 DD1Dir will call FoFMem   1 times, MxPair=         6
 NAB=     3 NAA=     0 NBB=     0.
 MP4(R+Q)=  0.42238461D-02
 Maximum subspace dimension=  5
 A-vector RMS=  8.0791439D-03 Max=  4.1658555D-02 conv= 1.00D-05.
 RLE energy=       -0.1113219735
 E3=       -0.21901213D-01        EUMP3=      -0.25098288820D+02
 E4(DQ)=   -0.79474306D-02        UMP4(DQ)=   -0.25106236250D+02
 E4(SDQ)=  -0.11064918D-01        UMP4(SDQ)=  -0.25109353737D+02
 VARIATIONAL ENERGIES WITH THE FIRST-ORDER WAVEFUNCTION:
 DE(Corr)= -0.10715537     E(Corr)=     -25.093761140    
 NORM(A)=   0.10706905D+01
 Iteration Nr.   2
 **********************
 DD1Dir will call FoFMem   1 times, MxPair=         6
 NAB=     3 NAA=     0 NBB=     0.
 A-vector RMS=  2.1870731D-03 Max=  3.2525579D-02 conv= 1.00D-05.
 RLE energy=       -0.1294813418
 DE(Corr)= -0.12110627     E(CORR)=     -25.107712033     Delta=-1.40D-02
 NORM(A)=   0.11118995D+01
 Iteration Nr.   3
 **********************
 DD1Dir will call FoFMem   1 times, MxPair=         6
 NAB=     3 NAA=     0 NBB=     0.
 A-vector RMS=  3.1615384D-03 Max=  1.8508710D-02 conv= 1.00D-05.
 RLE energy=       -0.1309433581
 DE(Corr)= -0.12825946     E(CORR)=     -25.114865226     Delta=-7.15D-03
 NORM(A)=   0.11286537D+01
 Iteration Nr.   4
 **********************
 DD1Dir will call FoFMem   1 times, MxPair=         6
 NAB=     3 NAA=     0 NBB=     0.
 A-vector RMS=  4.5760435D-04 Max=  7.2490009D-03 conv= 1.00D-05.
 RLE energy=       -0.1319942601
 DE(Corr)= -0.13144277     E(CORR)=     -25.118048535     Delta=-3.18D-03
 NORM(A)=   0.11369173D+01
 Iteration Nr.   5
 **********************
 DD1Dir will call FoFMem   1 times, MxPair=         6
 NAB=     3 NAA=     0 NBB=     0.
 A-vector RMS=  5.1671407D-04 Max=  3.2385998D-03 conv= 1.00D-05.
 RLE energy=       -0.1324787363
 DE(Corr)= -0.13202351     E(CORR)=     -25.118629276     Delta=-5.81D-04
 NORM(A)=   0.11413010D+01
 Iteration Nr.   6
 **********************
 DD1Dir will call FoFMem   1 times, MxPair=         6
 NAB=     3 NAA=     0 NBB=     0.
 A-vector RMS=  9.5162359D-05 Max=  4.2377089D-04 conv= 1.00D-05.
 RLE energy=       -0.1322004549
 DE(Corr)= -0.13237695     E(CORR)=     -25.118982717     Delta=-3.53D-04
 NORM(A)=   0.11405738D+01
 Iteration Nr.   7
 **********************
 DD1Dir will call FoFMem   1 times, MxPair=         6
 NAB=     3 NAA=     0 NBB=     0.
 A-vector RMS=  4.3026843D-05 Max=  2.7331026D-04 conv= 1.00D-05.
 RLE energy=       -0.1322471659
 DE(Corr)= -0.13223000     E(CORR)=     -25.118835768     Delta= 1.47D-04
 NORM(A)=   0.11408481D+01
 Iteration Nr.   8
 **********************
 DD1Dir will call FoFMem   1 times, MxPair=         6
 NAB=     3 NAA=     0 NBB=     0.
 A-vector RMS=  7.0336189D-06 Max=  3.6125385D-05 conv= 1.00D-05.
 RLE energy=       -0.1322375955
 DE(Corr)= -0.13224430     E(CORR)=     -25.118850067     Delta=-1.43D-05
 NORM(A)=   0.11408248D+01
 Iteration Nr.   9
 **********************
 DD1Dir will call FoFMem   1 times, MxPair=         6
 NAB=     3 NAA=     0 NBB=     0.
 A-vector RMS=  3.5081748D-06 Max=  2.0894368D-05 conv= 1.00D-05.
 RLE energy=       -0.1322451746
 DE(Corr)= -0.13224290     E(CORR)=     -25.118848671     Delta= 1.40D-06
 NORM(A)=   0.11408428D+01
 Iteration Nr.  10
 **********************
 DD1Dir will call FoFMem   1 times, MxPair=         6
 NAB=     3 NAA=     0 NBB=     0.
 A-vector RMS=  2.6331241D-06 Max=  1.4616542D-05 conv= 1.00D-05.
 RLE energy=       -0.1322443499
 DE(Corr)= -0.13224351     E(CORR)=     -25.118849275     Delta=-6.04D-07
 NORM(A)=   0.11408479D+01
 Iteration Nr.  11
 **********************
 DD1Dir will call FoFMem   1 times, MxPair=         6
 NAB=     3 NAA=     0 NBB=     0.
 A-vector RMS=  5.2560523D-07 Max=  4.5895896D-06 conv= 1.00D-05.
 RLE energy=       -0.1322455235
 DE(Corr)= -0.13224491     E(CORR)=     -25.118850676     Delta=-1.40D-06
 NORM(A)=   0.11408534D+01
 Iteration Nr.  12
 **********************
 DD1Dir will call FoFMem   1 times, MxPair=         6
 NAB=     3 NAA=     0 NBB=     0.
 A-vector RMS=  4.0587028D-07 Max=  2.2974828D-06 conv= 1.00D-05.
 RLE energy=       -0.1322456278
 DE(Corr)= -0.13224537     E(CORR)=     -25.118851138     Delta=-4.62D-07
 NORM(A)=   0.11408561D+01
 Iteration Nr.  13
 **********************
 DD1Dir will call FoFMem   1 times, MxPair=         6
 NAB=     3 NAA=     0 NBB=     0.
 A-vector RMS=  1.1092335D-07 Max=  5.2679651D-07 conv= 1.00D-05.
 RLE energy=       -0.1322456585
 DE(Corr)= -0.13224566     E(CORR)=     -25.118851430     Delta=-2.92D-07
 NORM(A)=   0.11408564D+01
 Iteration Nr.  14
 **********************
 DD1Dir will call FoFMem   1 times, MxPair=         6
 NAB=     3 NAA=     0 NBB=     0.
 A-vector RMS=  3.3104501D-08 Max=  2.0415830D-07 conv= 1.00D-05.
 RLE energy=       -0.1322456741
 DE(Corr)= -0.13224566     E(CORR)=     -25.118851428     Delta= 1.62D-09
 NORM(A)=   0.11408566D+01
 CI/CC converged in   14 iterations to DelEn= 1.62D-09 Conv= 1.00D-07 ErrA1= 3.31D-08 Conv= 1.00D-05
 Wavefunction amplitudes converged. E(Corr)=     -25.118851428    
 Dominant configurations:
 ***********************
 Spin Case        I    J    A    B          Value
    AA            3         6           -0.113642D+00
   ABAB           2    2    4    4      -0.101273D+00
   ABAB           2    2    5    5      -0.101273D+00
   ABAB           3    3    6    6      -0.243785D+00
   ABAB           3    3    6    7       0.151855D+00
   ABAB           3    3    7    6       0.151855D+00
 Largest amplitude= 2.44D-01
 IPart=  1 IA=    8   11.10% done.
 IPart=  1 IA=   14   20.10% done.
 IPart=  1 IA=   22   31.35% done.
 IPart=  1 IA=   29   40.49% done.
 IPart=  1 IA=   37   50.14% done.
 IPart=  1 IA=   47   61.00% done.
 IPart=  1 IA=   57   70.53% done.
 IPart=  1 IA=   69   80.21% done.
 IPart=  1 IA=   85   90.12% done.
 Time for triples=        0.63 seconds.
 T4(CCSD)= -0.84669188D-02
 T5(CCSD)=  0.12827422D-02
 CCSD(T)= -0.25126035605D+02
 Discarding MO integrals.
 Leave Link  913 at Thu May 26 10:32:25 2022, MaxMem=   104857600 cpu:               4.9 elap:               5.0
 (Enter /apps/software/g16/l601.exe)
 Copying SCF densities to generalized density rwf, IOpCl= 0 IROHF=0.

 **********************************************************************

            Population analysis using the SCF density.

 **********************************************************************

 Orbital symmetries:
       Occupied  (SG) (SG) (SG)
       Virtual   (PI) (PI) (SG) (SG) (PI) (PI) (SG) (SG) (DLTA)
                 (DLTA) (PI) (PI) (SG) (PI) (PI) (SG) (PI) (PI)
                 (SG) (SG) (PHI) (PHI) (DLTA) (DLTA) (PI) (PI)
                 (DLTA) (DLTA) (SG) (PI) (PI) (SG) (SG) (DLTA)
                 (DLTA) (PI) (PI) (SG) (PI) (PI) (SG) (PI) (PI)
                 (SG) (?A) (?A) (PHI) (PHI) (DLTA) (DLTA) (DLTA)
                 (DLTA) (PI) (PI) (SG) (SG) (PHI) (PHI) (PI) (PI)
                 (DLTA) (DLTA) (SG) (PI) (PI) (PHI) (PHI) (SG)
                 (DLTA) (DLTA) (SG) (SG) (PI) (PI) (DLTA) (DLTA)
                 (PI) (PI) (PI) (PI) (SG) (SG) (PI) (PI) (?A) (?A)
                 (DLTA) (DLTA) (SG) (PHI) (PHI) (PI) (PI) (DLTA)
                 (DLTA) (SG) (PHI) (PHI) (PI) (PI) (DLTA) (DLTA)
                 (PI) (PI) (SG) (SG) (PHI) (PHI) (DLTA) (DLTA)
                 (PI) (PI) (SG) (SG) (PI) (PI) (SG) (DLTA) (DLTA)
                 (PI) (PI) (SG) (SG)
 The electronic state is 1-SG.
 Alpha  occ. eigenvalues --   -7.83191  -0.57389  -0.29683
 Alpha virt. eigenvalues --   -0.00792  -0.00792   0.00531   0.04157   0.05586
 Alpha virt. eigenvalues --    0.05586   0.06906   0.08617   0.13573   0.13573
 Alpha virt. eigenvalues --    0.13881   0.13881   0.17487   0.26089   0.26089
 Alpha virt. eigenvalues --    0.27370   0.29011   0.29011   0.30380   0.34377
 Alpha virt. eigenvalues --    0.44225   0.44225   0.44947   0.44947   0.46642
 Alpha virt. eigenvalues --    0.46642   0.46722   0.46722   0.48604   0.52130
 Alpha virt. eigenvalues --    0.52130   0.56860   0.61876   0.72853   0.72853
 Alpha virt. eigenvalues --    0.86662   0.86662   0.87945   0.89749   0.89749
 Alpha virt. eigenvalues --    0.92028   0.99883   0.99883   1.24661   1.33231
 Alpha virt. eigenvalues --    1.33231   1.33476   1.33476   1.34348   1.34348
 Alpha virt. eigenvalues --    1.34776   1.34776   1.35168   1.35168   1.36703
 Alpha virt. eigenvalues --    1.38852   1.38969   1.38969   1.40878   1.40878
 Alpha virt. eigenvalues --    1.41699   1.41699   1.51904   1.59018   1.59018
 Alpha virt. eigenvalues --    1.64870   1.64870   1.67236   1.83384   1.83384
 Alpha virt. eigenvalues --    1.91564   2.08730   2.10470   2.10470   2.57372
 Alpha virt. eigenvalues --    2.57372   2.68304   2.68304   2.77525   2.77525
 Alpha virt. eigenvalues --    2.84615   3.08717   3.65178   3.65178   3.84912
 Alpha virt. eigenvalues --    3.84912   3.86128   3.86128   3.86483   3.86698
 Alpha virt. eigenvalues --    3.86698   3.88469   3.88469   3.92437   3.92437
 Alpha virt. eigenvalues --    3.93637   4.00264   4.00264   4.02184   4.02184
 Alpha virt. eigenvalues --    4.02473   4.02473   4.13835   4.13835   4.20005
 Alpha virt. eigenvalues --    4.37886   6.64720   6.64720   6.69564   6.69564
 Alpha virt. eigenvalues --    6.79982   6.79982   6.81698   7.66468   8.09994
 Alpha virt. eigenvalues --    8.09994   8.46907   8.50395   8.50395   8.58035
 Alpha virt. eigenvalues --    8.58035   8.71950  13.12430
          Condensed to atoms (all electrons):
               1          2
     1  B    4.504169   0.252729
     2  H    0.252729   0.990373
 Mulliken charges:
               1
     1  B    0.243102
     2  H   -0.243102
 Sum of Mulliken charges =  -0.00000
 Mulliken charges with hydrogens summed into heavy atoms:
               1
     1  B   -0.000000
 Electronic spatial extent (au):  <R**2>=             44.3596
 Charge=             -0.0000 electrons
 Dipole moment (field-independent basis, Debye):
    X=              0.0000    Y=              0.0000    Z=              3.7590  Tot=              3.7590
 Quadrupole moment (field-independent basis, Debye-Ang):
   XX=             -8.2051   YY=             -8.2051   ZZ=            -16.1969
   XY=              0.0000   XZ=              0.0000   YZ=              0.0000
 Traceless Quadrupole moment (field-independent basis, Debye-Ang):
   XX=              2.6639   YY=              2.6639   ZZ=             -5.3278
   XY=              0.0000   XZ=              0.0000   YZ=              0.0000
 Octapole moment (field-independent basis, Debye-Ang**2):
  XXX=              0.0000  YYY=              0.0000  ZZZ=             17.3970  XYY=              0.0000
  XXY=              0.0000  XXZ=              3.9198  XZZ=              0.0000  YZZ=              0.0000
  YYZ=              3.9198  XYZ=              0.0000
 Hexadecapole moment (field-independent basis, Debye-Ang**3):
 XXXX=            -14.0670 YYYY=            -14.0670 ZZZZ=           -115.2488 XXXY=              0.0000
 XXXZ=              0.0000 YYYX=              0.0000 YYYZ=              0.0000 ZZZX=              0.0000
 ZZZY=              0.0000 XXYY=             -4.6890 XXZZ=            -19.5767 YYZZ=            -19.5767
 XXYZ=              0.0000 YYXZ=              0.0000 ZZXY=              0.0000
 N-N= 1.017648482538D+00 E-N=-5.936057812731D+01  KE= 2.475733010710D+01
 Symmetry A1   KE= 2.475733010710D+01
 Symmetry A2   KE=-2.060436378603D-52
 Symmetry B1   KE= 0.000000000000D+00
 Symmetry B2   KE= 0.000000000000D+00
 Leave Link  601 at Thu May 26 10:32:25 2022, MaxMem=   104857600 cpu:               0.1 elap:               0.1
 (Enter /apps/software/g16/l9999.exe)
 1\1\GINC-CNODE05\SP\RCCSD(T)-FC\Aug-CC-pVQZ\B1H1\ROOT\26-May-2022\0\\#
 p RHF/aug-cc-pVQZ CCSD(T,FC)\\BH CCSD(T) at 2.6 Angstrom\\0,1\B,0,0.,0
 .,0.\H,0,2.6,0.,0.\\Version=ES64L-G16RevA.03\State=1-SG\HF=-24.9866058
 \MP2=-25.0763876\MP3=-25.0982888\MP4D=-25.1104601\MP4DQ=-25.1062363\MP
 4SDQ=-25.1093537\CCSD=-25.1188514\CCSD(T)=-25.1260356\RMSD=5.738e-09\P
 G=C*V [C*(H1B1)]\\@


 KINETICS       FACT
 ---------  =  -------
 MECHANISM     FICTION
 Job cpu time:       0 days  0 hours  0 minutes 14.5 seconds.
 Elapsed time:       0 days  0 hours  0 minutes 14.6 seconds.
 File lengths (MBytes):  RWF=     81 Int=      0 D2E=      0 Chk=      3 Scr=      1
 Normal termination of Gaussian 16 at Thu May 26 10:32:25 2022.

Sender: Unischeduler System <lcz@mgt01>
Subject: Job 136197: <#!/bin/bash
#BSUB -J intel
#BSUB -o BH-2.6-CCSD_T-G.out
#BSUB -n 8
#BSUB -q cqueue
#BSUB -R span[hosts=1]
export g16root=/apps/software
source /apps/software/g16/bsd/g16.profile
export GAUSS_SCRDIR=/scratch
/apps/software/g16/g16 < BH-2.6-CCSD_T-G.inp > BH-2.6-CCSD_T-G.out> Done

Job <#!/bin/bash
#BSUB -J intel
#BSUB -o BH-2.6-CCSD_T-G.out
#BSUB -n 8
#BSUB -q cqueue
#BSUB -R span[hosts=1]
export g16root=/apps/software
source /apps/software/g16/bsd/g16.profile
export GAUSS_SCRDIR=/scratch
/apps/software/g16/g16 < BH-2.6-CCSD_T-G.inp > BH-2.6-CCSD_T-G.out> was submitted from host <mgt01> by user <lcz>.
Job was executed on host(s) <8*cnode05>, in queue <cqueue>, as user <lcz>.
</apps/users/lcz> was used as the home directory.
</apps/users/lcz/exe13/GCCSD_T> was used as the working directory.
Started at 2022-05-26 10:32:11
Results reported at 2022-05-26 10:32:25

Your job looked like:

------------------------------------------------------------
# User input
#!/bin/bash
#BSUB -J intel
#BSUB -o BH-2.6-CCSD_T-G.out
#BSUB -n 8
#BSUB -q cqueue
#BSUB -R span[hosts=1]
export g16root=/apps/software
source /apps/software/g16/bsd/g16.profile
export GAUSS_SCRDIR=/scratch
/apps/software/g16/g16 < BH-2.6-CCSD_T-G.inp > BH-2.6-CCSD_T-G.out
------------------------------------------------------------

Successfully completed.

Resource usage summary:

    CPU time   :           13.18 sec.
    Max Memory :               480 MB
    Max Processes  :               5


The output (if any) follows:

