 Entering Gaussian System, Link 0=/apps/software/g16/g16
 Initial command:
 /apps/software/g16/l1.exe "/scratch/Gau-285543.inp" -scrdir="/scratch/"
 Entering Link 1 = /apps/software/g16/l1.exe PID=    285544.
  
 Copyright (c) 1988,1990,1992,1993,1995,1998,2003,2009,2016,
            Gaussian, Inc.  All Rights Reserved.
  
 This is part of the Gaussian(R) 16 program.  It is based on
 the Gaussian(R) 09 system (copyright 2009, Gaussian, Inc.),
 the Gaussian(R) 03 system (copyright 2003, Gaussian, Inc.),
 the Gaussian(R) 98 system (copyright 1998, Gaussian, Inc.),
 the Gaussian(R) 94 system (copyright 1995, Gaussian, Inc.),
 the Gaussian 92(TM) system (copyright 1992, Gaussian, Inc.),
 the Gaussian 90(TM) system (copyright 1990, Gaussian, Inc.),
 the Gaussian 88(TM) system (copyright 1988, Gaussian, Inc.),
 the Gaussian 86(TM) system (copyright 1986, Carnegie Mellon
 University), and the Gaussian 82(TM) system (copyright 1983,
 Carnegie Mellon University). Gaussian is a federally registered
 trademark of Gaussian, Inc.
  
 This software contains proprietary and confidential information,
 including trade secrets, belonging to Gaussian, Inc.
  
 This software is provided under written license and may be
 used, copied, transmitted, or stored only in accord with that
 written license.
  
 The following legend is applicable only to US Government
 contracts under FAR:
  
                    RESTRICTED RIGHTS LEGEND
  
 Use, reproduction and disclosure by the US Government is
 subject to restrictions as set forth in subparagraphs (a)
 and (c) of the Commercial Computer Software - Restricted
 Rights clause in FAR 52.227-19.
  
 Gaussian, Inc.
 340 Quinnipiac St., Bldg. 40, Wallingford CT 06492
  
  
 ---------------------------------------------------------------
 Warning -- This program may not be used in any manner that
 competes with the business of Gaussian, Inc. or will provide
 assistance to any competitor of Gaussian, Inc.  The licensee
 of this program is prohibited from giving any competitor of
 Gaussian, Inc. access to this program.  By using this program,
 the user acknowledges that Gaussian, Inc. is engaged in the
 business of creating and licensing software in the field of
 computational chemistry and represents and warrants to the
 licensee that it is not a competitor of Gaussian, Inc. and that
 it will not use this program in any manner prohibited above.
 ---------------------------------------------------------------
  

 Cite this work as:
 Gaussian 16, Revision A.03,
 M. J. Frisch, G. W. Trucks, H. B. Schlegel, G. E. Scuseria, 
 M. A. Robb, J. R. Cheeseman, G. Scalmani, V. Barone, 
 G. A. Petersson, H. Nakatsuji, X. Li, M. Caricato, A. V. Marenich, 
 J. Bloino, B. G. Janesko, R. Gomperts, B. Mennucci, H. P. Hratchian, 
 J. V. Ortiz, A. F. Izmaylov, J. L. Sonnenberg, D. Williams-Young, 
 F. Ding, F. Lipparini, F. Egidi, J. Goings, B. Peng, A. Petrone, 
 T. Henderson, D. Ranasinghe, V. G. Zakrzewski, J. Gao, N. Rega, 
 G. Zheng, W. Liang, M. Hada, M. Ehara, K. Toyota, R. Fukuda, 
 J. Hasegawa, M. Ishida, T. Nakajima, Y. Honda, O. Kitao, H. Nakai, 
 T. Vreven, K. Throssell, J. A. Montgomery, Jr., J. E. Peralta, 
 F. Ogliaro, M. J. Bearpark, J. J. Heyd, E. N. Brothers, K. N. Kudin, 
 V. N. Staroverov, T. A. Keith, R. Kobayashi, J. Normand, 
 K. Raghavachari, A. P. Rendell, J. C. Burant, S. S. Iyengar, 
 J. Tomasi, M. Cossi, J. M. Millam, M. Klene, C. Adamo, R. Cammi, 
 J. W. Ochterski, R. L. Martin, K. Morokuma, O. Farkas, 
 J. B. Foresman, and D. J. Fox, Gaussian, Inc., Wallingford CT, 2016.
 
 ******************************************
 Gaussian 16:  ES64L-G16RevA.03 25-Dec-2016
                26-May-2022 
 ******************************************
 %chk=BH-2.4-CCSD_T-G.chk
 -----------------------------
 #p RHF/aug-cc-pVQZ CCSD(T,FC)
 -----------------------------
 1/38=1,172=1/1;
 2/12=2,17=6,18=5,40=1/2;
 3/5=16,6=2,7=10,11=1,25=1,30=1,116=1/1,2,3;
 4//1;
 5/5=2,38=5/2;
 8/6=4,9=120000,10=1/1,4;
 9/5=7,14=2/13;
 6/7=2,8=2,9=2,10=2/1;
 99/5=1,9=1/99;
 Leave Link    1 at Thu May 26 10:32:09 2022, MaxMem=           0 cpu:               0.0 elap:               0.0
 (Enter /apps/software/g16/l101.exe)
 --------------------------
 BH CCSD(T) at 2.4 Angstrom
 --------------------------
 Symbolic Z-matrix:
 Charge =  0 Multiplicity = 1
 B                     0.        0.        0. 
 H                     2.4       0.        0. 
 
 ITRead=  0  0
 MicOpt= -1 -1
 NAtoms=      2 NQM=        2 NQMF=       0 NMMI=      0 NMMIF=      0
                NMic=       0 NMicF=      0.
                    Isotopes and Nuclear Properties:
 (Nuclear quadrupole moments (NQMom) in fm**2, nuclear magnetic moments (NMagM)
  in nuclear magnetons)

  Atom         1           2
 IAtWgt=          11           1
 AtmWgt=  11.0093053   1.0078250
 NucSpn=           3           1
 AtZEff=  -0.0000000  -0.0000000
 NQMom=    4.0590000   0.0000000
 NMagM=    2.6886370   2.7928460
 AtZNuc=   5.0000000   1.0000000
 Leave Link  101 at Thu May 26 10:32:09 2022, MaxMem=   104857600 cpu:               0.1 elap:               0.1
 (Enter /apps/software/g16/l202.exe)
                          Input orientation:                          
 ---------------------------------------------------------------------
 Center     Atomic      Atomic             Coordinates (Angstroms)
 Number     Number       Type             X           Y           Z
 ---------------------------------------------------------------------
      1          5           0        0.000000    0.000000    0.000000
      2          1           0        2.400000    0.000000    0.000000
 ---------------------------------------------------------------------
 Stoichiometry    BH
 Framework group  C*V[C*(HB)]
 Deg. of freedom     1
 Full point group                 C*V     NOp   4
 Largest Abelian subgroup         C2V     NOp   4
 Largest concise Abelian subgroup C1      NOp   1
                         Standard orientation:                         
 ---------------------------------------------------------------------
 Center     Atomic      Atomic             Coordinates (Angstroms)
 Number     Number       Type             X           Y           Z
 ---------------------------------------------------------------------
      1          5           0        0.000000    0.000000    0.400000
      2          1           0        0.000000    0.000000   -2.000000
 ---------------------------------------------------------------------
 Rotational constants (GHZ):           0.0000000          95.0277462          95.0277462
 Leave Link  202 at Thu May 26 10:32:09 2022, MaxMem=   104857600 cpu:               0.0 elap:               0.0
 (Enter /apps/software/g16/l301.exe)
 Standard basis: Aug-CC-pVQZ (5D, 7F)
 Ernie: Thresh=  0.10000D-02 Tol=  0.10000D-05 Strict=F.
 Ernie:  4 primitive shells out of 54 were deleted.
 There are    68 symmetry adapted cartesian basis functions of A1  symmetry.
 There are    18 symmetry adapted cartesian basis functions of A2  symmetry.
 There are    37 symmetry adapted cartesian basis functions of B1  symmetry.
 There are    37 symmetry adapted cartesian basis functions of B2  symmetry.
 There are    50 symmetry adapted basis functions of A1  symmetry.
 There are    16 symmetry adapted basis functions of A2  symmetry.
 There are    30 symmetry adapted basis functions of B1  symmetry.
 There are    30 symmetry adapted basis functions of B2  symmetry.
   126 basis functions,   180 primitive gaussians,   160 cartesian basis functions
     3 alpha electrons        3 beta electrons
       nuclear repulsion energy         1.1024525228 Hartrees.
 IExCor=    0 DFT=F Ex=HF Corr=None ExCW=0 ScaHFX=  1.000000
 ScaDFX=  1.000000  1.000000  1.000000  1.000000 ScalE2=  1.000000  1.000000
 IRadAn=      5 IRanWt=     -1 IRanGd=            0 ICorTp=0 IEmpDi=  4
 NAtoms=    2 NActive=    2 NUniq=    2 SFac= 1.00D+00 NAtFMM=   60 NAOKFM=F Big=F
 Integral buffers will be    131072 words long.
 Raffenetti 1 integral format.
 Two-electron integral symmetry is turned on.
 Leave Link  301 at Thu May 26 10:32:09 2022, MaxMem=   104857600 cpu:               0.1 elap:               0.1
 (Enter /apps/software/g16/l302.exe)
 NPDir=0 NMtPBC=     1 NCelOv=     1 NCel=       1 NClECP=     1 NCelD=      1
         NCelK=      1 NCelE2=     1 NClLst=     1 CellRange=     0.0.
 One-electron integrals computed using PRISM.
 One-electron integral symmetry used in STVInt
 NBasis=   126 RedAO= T EigKep=  9.31D-04  NBF=    50    16    30    30
 NBsUse=   126 1.00D-06 EigRej= -1.00D+00 NBFU=    50    16    30    30
 Leave Link  302 at Thu May 26 10:32:09 2022, MaxMem=   104857600 cpu:               0.1 elap:               0.1
 (Enter /apps/software/g16/l303.exe)
 DipDrv:  MaxL=1.
 Leave Link  303 at Thu May 26 10:32:09 2022, MaxMem=   104857600 cpu:               0.0 elap:               0.0
 (Enter /apps/software/g16/l401.exe)
 ExpMin= 1.88D-02 ExpMax= 2.39D+04 ExpMxC= 2.30D+02 IAcc=3 IRadAn=         5 AccDes= 0.00D+00
 Harris functional with IExCor=  205 and IRadAn=       5 diagonalized for initial guess.
 HarFok:  IExCor=  205 AccDes= 0.00D+00 IRadAn=         5 IDoV= 1 UseB2=F ITyADJ=14
 ICtDFT=  3500011 ScaDFX=  1.000000  1.000000  1.000000  1.000000
 FoFCou: FMM=F IPFlag=           0 FMFlag=      100000 FMFlg1=           0
         NFxFlg=           0 DoJE=T BraDBF=F KetDBF=T FulRan=T
         wScrn=  0.000000 ICntrl=       500 IOpCl=  0 I1Cent=   200000004 NGrid=           0
         NMat0=    1 NMatS0=      1 NMatT0=    0 NMatD0=    1 NMtDS0=    0 NMtDT0=    0
 Petite list used in FoFCou.
 Harris En= -25.0157879491661    
 JPrj=0 DoOrth=F DoCkMO=F.
 Initial guess orbital symmetries:
       Occupied  (SG) (SG) (SG)
       Virtual   (PI) (PI) (SG) (SG) (SG) (PI) (PI) (SG) (PI) (PI)
                 (DLTA) (DLTA) (SG) (PI) (PI) (SG) (PI) (PI) (SG)
                 (SG) (PI) (PI) (DLTA) (DLTA) (DLTA) (DLTA) (PHI)
                 (PHI) (SG) (PI) (PI) (SG) (SG) (DLTA) (DLTA) (PI)
                 (PI) (SG) (SG) (PI) (PI) (PI) (PI) (SG) (PI) (PI)
                 (DLTA) (DLTA) (PHI) (PHI) (DLTA) (DLTA) (SG) (?A)
                 (?A) (SG) (PHI) (PHI) (PI) (PI) (DLTA) (DLTA)
                 (SG) (SG) (PHI) (PHI) (PI) (PI) (SG) (DLTA) (DLTA)
                 (SG) (PI) (PI) (DLTA) (DLTA) (PI) (PI) (PI) (PI)
                 (SG) (SG) (PI) (PI) (SG) (DLTA) (DLTA) (PI) (PI)
                 (?A) (?A) (PHI) (PHI) (SG) (DLTA) (DLTA) (PHI)
                 (PHI) (PI) (PI) (DLTA) (DLTA) (PI) (PI) (SG) (SG)
                 (PHI) (PHI) (DLTA) (DLTA) (PI) (PI) (SG) (SG)
                 (PI) (PI) (SG) (DLTA) (DLTA) (PI) (PI) (SG) (SG)
 The electronic state of the initial guess is 1-SG.
 Leave Link  401 at Thu May 26 10:32:09 2022, MaxMem=   104857600 cpu:               0.2 elap:               0.2
 (Enter /apps/software/g16/l502.exe)
 Keep R1 ints in memory in symmetry-blocked form, NReq=40143665.
 FoFCou: FMM=F IPFlag=           0 FMFlag=           0 FMFlg1=           0
         NFxFlg=           0 DoJE=F BraDBF=F KetDBF=F FulRan=T
         wScrn=  0.000000 ICntrl=       600 IOpCl=  0 I1Cent=           0 NGrid=           0
         NMat0=    1 NMatS0=   8001 NMatT0=    0 NMatD0=    1 NMtDS0=    0 NMtDT0=    0
 Petite list used in FoFCou.
 Closed shell SCF:
 Using DIIS extrapolation, IDIIS=  1040.
 NGot=   104857600 LenX=    96673173 LenY=    96647132
 Requested convergence on RMS density matrix=1.00D-08 within 128 cycles.
 Requested convergence on MAX density matrix=1.00D-06.
 Requested convergence on             energy=1.00D-06.
 No special actions if energy rises.

 Cycle   1  Pass 1  IDiag  1:
 E= -24.9546884125562    
 DIIS: error= 4.12D-02 at cycle   1 NSaved=   1.
 NSaved= 1 IEnMin= 1 EnMin= -24.9546884125562     IErMin= 1 ErrMin= 4.12D-02
 ErrMax= 4.12D-02  0.00D+00 EMaxC= 1.00D-01 BMatC= 4.93D-02 BMatP= 4.93D-02
 IDIUse=3 WtCom= 5.88D-01 WtEn= 4.12D-01
 Coeff-Com:  0.100D+01
 Coeff-En:   0.100D+01
 Coeff:      0.100D+01
 Gap=     0.217 Goal=   None    Shift=    0.000
 GapD=    0.217 DampG=1.000 DampE=0.500 DampFc=0.5000 IDamp=-1.
 Damping current iteration by 5.00D-01
 RMSDP=1.75D-03 MaxDP=6.59D-02              OVMax= 2.34D-01

 Cycle   2  Pass 1  IDiag  1:
 E= -24.9806190628000     Delta-E=       -0.025930650244 Rises=F Damp=T
 DIIS: error= 2.00D-02 at cycle   2 NSaved=   2.
 NSaved= 2 IEnMin= 2 EnMin= -24.9806190628000     IErMin= 2 ErrMin= 2.00D-02
 ErrMax= 2.00D-02  0.00D+00 EMaxC= 1.00D-01 BMatC= 1.15D-02 BMatP= 4.93D-02
 IDIUse=3 WtCom= 8.00D-01 WtEn= 2.00D-01
 Coeff-Com: -0.877D+00 0.188D+01
 Coeff-En:   0.000D+00 0.100D+01
 Coeff:     -0.702D+00 0.170D+01
 Gap=     0.318 Goal=   None    Shift=    0.000
 RMSDP=7.28D-04 MaxDP=3.57D-02 DE=-2.59D-02 OVMax= 4.50D-02

 Cycle   3  Pass 1  IDiag  1:
 E= -25.0051355277803     Delta-E=       -0.024516464980 Rises=F Damp=F
 DIIS: error= 1.45D-03 at cycle   3 NSaved=   3.
 NSaved= 3 IEnMin= 3 EnMin= -25.0051355277803     IErMin= 3 ErrMin= 1.45D-03
 ErrMax= 1.45D-03  0.00D+00 EMaxC= 1.00D-01 BMatC= 5.66D-05 BMatP= 1.15D-02
 IDIUse=3 WtCom= 9.85D-01 WtEn= 1.45D-02
 Coeff-Com:  0.237D-01-0.877D-01 0.106D+01
 Coeff-En:   0.000D+00 0.000D+00 0.100D+01
 Coeff:      0.234D-01-0.864D-01 0.106D+01
 Gap=     0.308 Goal=   None    Shift=    0.000
 RMSDP=9.23D-05 MaxDP=2.67D-03 DE=-2.45D-02 OVMax= 7.20D-03

 Cycle   4  Pass 1  IDiag  1:
 E= -25.0053002091314     Delta-E=       -0.000164681351 Rises=F Damp=F
 DIIS: error= 5.62D-04 at cycle   4 NSaved=   4.
 NSaved= 4 IEnMin= 4 EnMin= -25.0053002091314     IErMin= 4 ErrMin= 5.62D-04
 ErrMax= 5.62D-04  0.00D+00 EMaxC= 1.00D-01 BMatC= 6.31D-06 BMatP= 5.66D-05
 IDIUse=3 WtCom= 9.94D-01 WtEn= 5.62D-03
 Coeff-Com:  0.715D-02 0.216D-02-0.572D+00 0.156D+01
 Coeff-En:   0.000D+00 0.000D+00 0.000D+00 0.100D+01
 Coeff:      0.711D-02 0.214D-02-0.569D+00 0.156D+01
 Gap=     0.309 Goal=   None    Shift=    0.000
 RMSDP=4.21D-05 MaxDP=1.44D-03 DE=-1.65D-04 OVMax= 4.07D-03

 Cycle   5  Pass 1  IDiag  1:
 E= -25.0053230918552     Delta-E=       -0.000022882724 Rises=F Damp=F
 DIIS: error= 3.23D-05 at cycle   5 NSaved=   5.
 NSaved= 5 IEnMin= 5 EnMin= -25.0053230918552     IErMin= 5 ErrMin= 3.23D-05
 ErrMax= 3.23D-05  0.00D+00 EMaxC= 1.00D-01 BMatC= 7.81D-08 BMatP= 6.31D-06
 IDIUse=1 WtCom= 1.00D+00 WtEn= 0.00D+00
 Coeff-Com: -0.144D-02-0.100D-02 0.146D+00-0.450D+00 0.131D+01
 Coeff:     -0.144D-02-0.100D-02 0.146D+00-0.450D+00 0.131D+01
 Gap=     0.309 Goal=   None    Shift=    0.000
 RMSDP=4.14D-06 MaxDP=1.13D-04 DE=-2.29D-05 OVMax= 3.33D-04

 Cycle   6  Pass 1  IDiag  1:
 E= -25.0053232815548     Delta-E=       -0.000000189700 Rises=F Damp=F
 DIIS: error= 5.71D-06 at cycle   6 NSaved=   6.
 NSaved= 6 IEnMin= 6 EnMin= -25.0053232815548     IErMin= 6 ErrMin= 5.71D-06
 ErrMax= 5.71D-06  0.00D+00 EMaxC= 1.00D-01 BMatC= 1.16D-09 BMatP= 7.81D-08
 IDIUse=1 WtCom= 1.00D+00 WtEn= 0.00D+00
 Coeff-Com:  0.601D-03-0.851D-03-0.130D-01 0.493D-01-0.204D+00 0.117D+01
 Coeff:      0.601D-03-0.851D-03-0.130D-01 0.493D-01-0.204D+00 0.117D+01
 Gap=     0.309 Goal=   None    Shift=    0.000
 RMSDP=7.26D-07 MaxDP=2.44D-05 DE=-1.90D-07 OVMax= 4.31D-05

 Cycle   7  Pass 1  IDiag  1:
 E= -25.0053232854097     Delta-E=       -0.000000003855 Rises=F Damp=F
 DIIS: error= 1.33D-06 at cycle   7 NSaved=   7.
 NSaved= 7 IEnMin= 7 EnMin= -25.0053232854097     IErMin= 7 ErrMin= 1.33D-06
 ErrMax= 1.33D-06  0.00D+00 EMaxC= 1.00D-01 BMatC= 4.78D-11 BMatP= 1.16D-09
 IDIUse=1 WtCom= 1.00D+00 WtEn= 0.00D+00
 Coeff-Com:  0.157D-04-0.584D-04 0.114D-02-0.479D-02 0.144D-01-0.249D+00
 Coeff-Com:  0.124D+01
 Coeff:      0.157D-04-0.584D-04 0.114D-02-0.479D-02 0.144D-01-0.249D+00
 Coeff:      0.124D+01
 Gap=     0.309 Goal=   None    Shift=    0.000
 RMSDP=1.66D-07 MaxDP=5.88D-06 DE=-3.85D-09 OVMax= 1.11D-05

 Cycle   8  Pass 1  IDiag  1:
 E= -25.0053232855820     Delta-E=       -0.000000000172 Rises=F Damp=F
 DIIS: error= 1.79D-07 at cycle   8 NSaved=   8.
 NSaved= 8 IEnMin= 8 EnMin= -25.0053232855820     IErMin= 8 ErrMin= 1.79D-07
 ErrMax= 1.79D-07  0.00D+00 EMaxC= 1.00D-01 BMatC= 1.20D-12 BMatP= 4.78D-11
 IDIUse=1 WtCom= 1.00D+00 WtEn= 0.00D+00
 Coeff-Com:  0.953D-05-0.134D-04-0.182D-03 0.101D-02-0.163D-02 0.651D-01
 Coeff-Com: -0.424D+00 0.136D+01
 Coeff:      0.953D-05-0.134D-04-0.182D-03 0.101D-02-0.163D-02 0.651D-01
 Coeff:     -0.424D+00 0.136D+01
 Gap=     0.309 Goal=   None    Shift=    0.000
 RMSDP=2.96D-08 MaxDP=1.87D-06 DE=-1.72D-10 OVMax= 1.81D-06

 Cycle   9  Pass 1  IDiag  1:
 E= -25.0053232855868     Delta-E=       -0.000000000005 Rises=F Damp=F
 DIIS: error= 3.51D-08 at cycle   9 NSaved=   9.
 NSaved= 9 IEnMin= 9 EnMin= -25.0053232855868     IErMin= 9 ErrMin= 3.51D-08
 ErrMax= 3.51D-08  0.00D+00 EMaxC= 1.00D-01 BMatC= 4.58D-14 BMatP= 1.20D-12
 IDIUse=1 WtCom= 1.00D+00 WtEn= 0.00D+00
 Coeff-Com:  0.484D-06-0.135D-05 0.326D-05-0.933D-04-0.482D-03-0.125D-01
 Coeff-Com:  0.107D+00-0.521D+00 0.143D+01
 Coeff:      0.484D-06-0.135D-05 0.326D-05-0.933D-04-0.482D-03-0.125D-01
 Coeff:      0.107D+00-0.521D+00 0.143D+01
 Gap=     0.309 Goal=   None    Shift=    0.000
 RMSDP=6.45D-09 MaxDP=3.67D-07 DE=-4.84D-12 OVMax= 5.65D-07

 SCF Done:  E(RHF) =  -25.0053232856     A.U. after    9 cycles
            NFock=  9  Conv=0.64D-08     -V/T= 2.0096
 KE= 2.476766254932D+01 PE=-5.959940699766D+01 EE= 8.723968640004D+00
 Leave Link  502 at Thu May 26 10:32:13 2022, MaxMem=   104857600 cpu:               3.7 elap:               3.7
 (Enter /apps/software/g16/l801.exe)
 Windowed orbitals will be sorted by symmetry type.
 ExpMin= 1.88D-02 ExpMax= 2.39D+04 ExpMxC= 2.30D+02 IAcc=3 IRadAn=         5 AccDes= 0.00D+00
 HarFok:  IExCor=  205 AccDes= 0.00D+00 IRadAn=         5 IDoV=-2 UseB2=F ITyADJ=14
 ICtDFT= 12500011 ScaDFX=  1.000000  1.000000  1.000000  1.000000
 DSYEVD-2 returned Info=        3401 IAlg= 4 N=    80 NDim=    80 NE2=     1309686 trying  DSYEV.
 Largest valence mixing into a core orbital is  3.98D-04
 Largest core mixing into a valence orbital is  1.56D-04
 Range of M.O.s used for correlation:     2   126
 NBasis=   126 NAE=     3 NBE=     3 NFC=     1 NFV=     0
 NROrb=    125 NOA=     2 NOB=     2 NVA=   123 NVB=   123
 Leave Link  801 at Thu May 26 10:32:13 2022, MaxMem=   104857600 cpu:               0.1 elap:               0.1
 (Enter /apps/software/g16/l804.exe)
 Closed-shell transformation, MDV=   104857600 ITran=4 ISComp=2.
 Unit  1 TFree=        527294 TCopy=        350885.
 Semi-Direct transformation.
 ModeAB=           2 MOrb=             2 LenV=     104240663
 LASXX=       493564 LTotXX=      493564 LenRXX=      493564
 LTotAB=      509833 MaxLAS=     3220000 LenRXY=     3220000
 NonZer=     3361500 LenScr=     5758976 LnRSAI=           0
 LnScr1=           0 LExtra=           0 Total=      9472540
 MaxDsk=          -1 SrtSym=           F ITran=            4
 DoSDTr:  NPSUse=  1
 JobTyp=0 Pass  1:  I=   1 to   2.
 (rs|ai) integrals will be sorted in core.
 Complete sort for first half transformation.
 First half transformation complete.
 Complete sort for second half transformation.
 Second half transformation complete.
 Spin components of T(2) and E(2):
     alpha-alpha T2 =       0.1565180811D-02 E2=     -0.2520262919D-02
     alpha-beta  T2 =       0.6110951238D-01 E2=     -0.8263343066D-01
     beta-beta   T2 =       0.1565180811D-02 E2=     -0.2520262919D-02
 ANorm=    0.1031620024D+01
 E2 =    -0.8767395649D-01 EUMP2 =    -0.25092997242080D+02
 Leave Link  804 at Thu May 26 10:32:18 2022, MaxMem=   104857600 cpu:               5.2 elap:               5.2
 (Enter /apps/software/g16/l913.exe)
 CIDS:  MDV=   104857600.
 Frozen-core window:  NFC=   1 NFV=   0.
 IFCWin=0 IBDFC=1 NFBD=     0     0 NFCmp=     0     0 NFFFC=     0     0
 Using DD3R+UMP44R for 1st iteration.
 Using DD4RQ for 2nd and later iterations.
 Keep R2 and R3 ints in memory in symmetry-blocked form, NReq=40146875.
 FoFCou: FMM=F IPFlag=           0 FMFlag=           0 FMFlg1=           0
         NFxFlg=           0 DoJE=F BraDBF=F KetDBF=F FulRan=T
         wScrn=  0.000000 ICntrl=       600 IOpCl=  0 I1Cent=           0 NGrid=           0
         NMat0=    1 NMatS0=   8001 NMatT0=    0 NMatD0=    1 NMtDS0=    0 NMtDT0=    0
 Petite list used in FoFCou.
 CIDS: In Core Option IDoMem=           1.
 CCSD(T)
 =======
 Iterations=  50 Convergence= 0.100D-06
 Produce multiple copies of IABC intergrals
 Iteration Nr.   1
 **********************
 DD1Dir will call FoFMem   1 times, MxPair=         6
 NAB=     3 NAA=     0 NBB=     0.
 MP4(R+Q)=  0.36900646D-02
 Maximum subspace dimension=  5
 A-vector RMS=  6.3239174D-03 Max=  2.5803488D-02 conv= 1.00D-05.
 RLE energy=       -0.1086075487
 E3=       -0.20771870D-01        EUMP3=      -0.25113769112D+02
 E4(DQ)=   -0.73705909D-02        UMP4(DQ)=   -0.25121139703D+02
 E4(SDQ)=  -0.95612379D-02        UMP4(SDQ)=  -0.25123330350D+02
 VARIATIONAL ENERGIES WITH THE FIRST-ORDER WAVEFUNCTION:
 DE(Corr)= -0.10457317     E(Corr)=     -25.109896457    
 NORM(A)=   0.10616069D+01
 Iteration Nr.   2
 **********************
 DD1Dir will call FoFMem   1 times, MxPair=         6
 NAB=     3 NAA=     0 NBB=     0.
 A-vector RMS=  1.9612264D-03 Max=  1.4828893D-02 conv= 1.00D-05.
 RLE energy=       -0.1238545306
 DE(Corr)= -0.11671297     E(CORR)=     -25.122036256     Delta=-1.21D-02
 NORM(A)=   0.10925217D+01
 Iteration Nr.   3
 **********************
 DD1Dir will call FoFMem   1 times, MxPair=         6
 NAB=     3 NAA=     0 NBB=     0.
 A-vector RMS=  1.9837599D-03 Max=  8.8578830D-03 conv= 1.00D-05.
 RLE energy=       -0.1249699635
 DE(Corr)= -0.12315571     E(CORR)=     -25.128478998     Delta=-6.44D-03
 NORM(A)=   0.11024586D+01
 Iteration Nr.   4
 **********************
 DD1Dir will call FoFMem   1 times, MxPair=         6
 NAB=     3 NAA=     0 NBB=     0.
 A-vector RMS=  3.2401126D-04 Max=  2.9450335D-03 conv= 1.00D-05.
 RLE energy=       -0.1257291025
 DE(Corr)= -0.12528503     E(CORR)=     -25.130608319     Delta=-2.13D-03
 NORM(A)=   0.11069895D+01
 Iteration Nr.   5
 **********************
 DD1Dir will call FoFMem   1 times, MxPair=         6
 NAB=     3 NAA=     0 NBB=     0.
 A-vector RMS=  3.1362812D-04 Max=  1.6084312D-03 conv= 1.00D-05.
 RLE energy=       -0.1259453863
 DE(Corr)= -0.12573066     E(CORR)=     -25.131053950     Delta=-4.46D-04
 NORM(A)=   0.11088264D+01
 Iteration Nr.   6
 **********************
 DD1Dir will call FoFMem   1 times, MxPair=         6
 NAB=     3 NAA=     0 NBB=     0.
 A-vector RMS=  5.1533988D-05 Max=  2.4732929D-04 conv= 1.00D-05.
 RLE energy=       -0.1257923607
 DE(Corr)= -0.12588504     E(CORR)=     -25.131208327     Delta=-1.54D-04
 NORM(A)=   0.11085893D+01
 Iteration Nr.   7
 **********************
 DD1Dir will call FoFMem   1 times, MxPair=         6
 NAB=     3 NAA=     0 NBB=     0.
 A-vector RMS=  2.6866973D-05 Max=  1.4635060D-04 conv= 1.00D-05.
 RLE energy=       -0.1258278316
 DE(Corr)= -0.12581591     E(CORR)=     -25.131139191     Delta= 6.91D-05
 NORM(A)=   0.11087313D+01
 Iteration Nr.   8
 **********************
 DD1Dir will call FoFMem   1 times, MxPair=         6
 NAB=     3 NAA=     0 NBB=     0.
 A-vector RMS=  6.1445711D-06 Max=  2.8463151D-05 conv= 1.00D-05.
 RLE energy=       -0.1258197925
 DE(Corr)= -0.12582456     E(CORR)=     -25.131147850     Delta=-8.66D-06
 NORM(A)=   0.11087160D+01
 Iteration Nr.   9
 **********************
 DD1Dir will call FoFMem   1 times, MxPair=         6
 NAB=     3 NAA=     0 NBB=     0.
 A-vector RMS=  2.4430147D-06 Max=  1.0159225D-05 conv= 1.00D-05.
 RLE energy=       -0.1258250737
 DE(Corr)= -0.12582335     E(CORR)=     -25.131146636     Delta= 1.21D-06
 NORM(A)=   0.11087272D+01
 Iteration Nr.  10
 **********************
 DD1Dir will call FoFMem   1 times, MxPair=         6
 NAB=     3 NAA=     0 NBB=     0.
 A-vector RMS=  1.5157424D-06 Max=  5.3178248D-06 conv= 1.00D-05.
 RLE energy=       -0.1258247759
 DE(Corr)= -0.12582434     E(CORR)=     -25.131147621     Delta=-9.86D-07
 NORM(A)=   0.11087299D+01
 Iteration Nr.  11
 **********************
 DD1Dir will call FoFMem   1 times, MxPair=         6
 NAB=     3 NAA=     0 NBB=     0.
 A-vector RMS=  4.4592362D-07 Max=  1.9629244D-06 conv= 1.00D-05.
 RLE energy=       -0.1258256468
 DE(Corr)= -0.12582520     E(CORR)=     -25.131148488     Delta=-8.67D-07
 NORM(A)=   0.11087329D+01
 Iteration Nr.  12
 **********************
 DD1Dir will call FoFMem   1 times, MxPair=         6
 NAB=     3 NAA=     0 NBB=     0.
 A-vector RMS=  3.0442734D-07 Max=  1.2718262D-06 conv= 1.00D-05.
 RLE energy=       -0.1258257704
 DE(Corr)= -0.12582557     E(CORR)=     -25.131148856     Delta=-3.68D-07
 NORM(A)=   0.11087343D+01
 Iteration Nr.  13
 **********************
 DD1Dir will call FoFMem   1 times, MxPair=         6
 NAB=     3 NAA=     0 NBB=     0.
 A-vector RMS=  8.3428710D-08 Max=  3.6447444D-07 conv= 1.00D-05.
 RLE energy=       -0.1258257809
 DE(Corr)= -0.12582578     E(CORR)=     -25.131149065     Delta=-2.09D-07
 NORM(A)=   0.11087346D+01
 Iteration Nr.  14
 **********************
 DD1Dir will call FoFMem   1 times, MxPair=         6
 NAB=     3 NAA=     0 NBB=     0.
 A-vector RMS=  3.6015094D-08 Max=  1.6383072D-07 conv= 1.00D-05.
 RLE energy=       -0.1258257971
 DE(Corr)= -0.12582578     E(CORR)=     -25.131149069     Delta=-4.40D-09
 NORM(A)=   0.11087347D+01
 CI/CC converged in   14 iterations to DelEn=-4.40D-09 Conv= 1.00D-07 ErrA1= 3.60D-08 Conv= 1.00D-05
 Wavefunction amplitudes converged. E(Corr)=     -25.131149069    
 Dominant configurations:
 ***********************
 Spin Case        I    J    A    B          Value
   ABAB           3    3    6    6      -0.121009D+00
   ABAB           3    3    6    7       0.109642D+00
   ABAB           3    3    7    6       0.109642D+00
   ABAB           3    3    7    7      -0.102893D+00
 Largest amplitude= 1.21D-01
 IPart=  1 IA=    8   11.10% done.
 IPart=  1 IA=   14   20.10% done.
 IPart=  1 IA=   22   31.35% done.
 IPart=  1 IA=   29   40.49% done.
 IPart=  1 IA=   37   50.14% done.
 IPart=  1 IA=   47   61.00% done.
 IPart=  1 IA=   57   70.53% done.
 IPart=  1 IA=   69   80.21% done.
 IPart=  1 IA=   85   90.12% done.
 Time for triples=        0.65 seconds.
 T4(CCSD)= -0.64039318D-02
 T5(CCSD)=  0.79550865D-03
 CCSD(T)= -0.25136757493D+02
 Discarding MO integrals.
 Leave Link  913 at Thu May 26 10:32:23 2022, MaxMem=   104857600 cpu:               4.9 elap:               4.9
 (Enter /apps/software/g16/l601.exe)
 Copying SCF densities to generalized density rwf, IOpCl= 0 IROHF=0.

 **********************************************************************

            Population analysis using the SCF density.

 **********************************************************************

 Orbital symmetries:
       Occupied  (SG) (SG) (SG)
       Virtual   (PI) (PI) (SG) (SG) (PI) (PI) (SG) (SG) (DLTA)
                 (DLTA) (PI) (PI) (SG) (SG) (PI) (PI) (PI) (PI)
                 (SG) (SG) (PHI) (PHI) (DLTA) (DLTA) (PI) (PI)
                 (DLTA) (DLTA) (SG) (PI) (PI) (SG) (SG) (DLTA)
                 (DLTA) (PI) (PI) (SG) (SG) (PI) (PI) (PI) (PI)
                 (SG) (PHI) (PHI) (?A) (?A) (DLTA) (DLTA) (PI)
                 (PI) (DLTA) (DLTA) (SG) (PHI) (PHI) (SG) (PI)
                 (PI) (DLTA) (DLTA) (SG) (PI) (PI) (PHI) (PHI)
                 (SG) (DLTA) (DLTA) (SG) (SG) (PI) (PI) (DLTA)
                 (DLTA) (PI) (PI) (PI) (PI) (SG) (SG) (PI) (PI)
                 (?A) (?A) (DLTA) (DLTA) (PHI) (PHI) (SG) (PI)
                 (PI) (DLTA) (DLTA) (SG) (PHI) (PHI) (PI) (PI)
                 (DLTA) (DLTA) (PI) (PI) (SG) (SG) (PHI) (PHI)
                 (DLTA) (DLTA) (PI) (PI) (SG) (SG) (PI) (PI) (DLTA)
                 (DLTA) (SG) (PI) (PI) (SG) (SG)
 The electronic state is 1-SG.
 Alpha  occ. eigenvalues --   -7.81644  -0.56559  -0.30987
 Alpha virt. eigenvalues --   -0.00097  -0.00097   0.01710   0.04901   0.05872
 Alpha virt. eigenvalues --    0.05872   0.06945   0.08792   0.13789   0.13789
 Alpha virt. eigenvalues --    0.13970   0.13970   0.17993   0.26356   0.26535
 Alpha virt. eigenvalues --    0.26535   0.29311   0.29311   0.31014   0.35078
 Alpha virt. eigenvalues --    0.44621   0.44621   0.45334   0.45334   0.47077
 Alpha virt. eigenvalues --    0.47077   0.47273   0.47273   0.49300   0.52996
 Alpha virt. eigenvalues --    0.52996   0.58017   0.62818   0.74052   0.74052
 Alpha virt. eigenvalues --    0.85886   0.85886   0.89956   0.91346   0.91433
 Alpha virt. eigenvalues --    0.91433   1.02950   1.02950   1.27773   1.33513
 Alpha virt. eigenvalues --    1.33513   1.33904   1.33904   1.35604   1.35604
 Alpha virt. eigenvalues --    1.35621   1.35621   1.36413   1.36413   1.38692
 Alpha virt. eigenvalues --    1.39797   1.39797   1.41630   1.43000   1.43000
 Alpha virt. eigenvalues --    1.43278   1.43278   1.56682   1.65536   1.65536
 Alpha virt. eigenvalues --    1.66155   1.66155   1.69061   1.90263   1.90263
 Alpha virt. eigenvalues --    1.93611   2.11155   2.14587   2.14587   2.57559
 Alpha virt. eigenvalues --    2.57559   2.69512   2.69512   2.83744   2.83744
 Alpha virt. eigenvalues --    2.89376   3.20162   3.67643   3.67643   3.85957
 Alpha virt. eigenvalues --    3.85957   3.87383   3.87383   3.88115   3.88115
 Alpha virt. eigenvalues --    3.89727   3.90664   3.90664   3.94851   3.94851
 Alpha virt. eigenvalues --    3.95685   4.01444   4.01444   4.03745   4.03745
 Alpha virt. eigenvalues --    4.04254   4.04254   4.19749   4.19749   4.30303
 Alpha virt. eigenvalues --    4.46393   6.64693   6.64693   6.71190   6.71190
 Alpha virt. eigenvalues --    6.81700   6.81700   6.82621   7.70331   8.14127
 Alpha virt. eigenvalues --    8.14127   8.50670   8.50670   8.52370   8.59034
 Alpha virt. eigenvalues --    8.59034   8.84593  13.24771
          Condensed to atoms (all electrons):
               1          2
     1  B    4.516987   0.268306
     2  H    0.268306   0.946401
 Mulliken charges:
               1
     1  B    0.214707
     2  H   -0.214707
 Sum of Mulliken charges =  -0.00000
 Mulliken charges with hydrogens summed into heavy atoms:
               1
     1  B   -0.000000
 Electronic spatial extent (au):  <R**2>=             40.1120
 Charge=             -0.0000 electrons
 Dipole moment (field-independent basis, Debye):
    X=              0.0000    Y=              0.0000    Z=              2.9709  Tot=              2.9709
 Quadrupole moment (field-independent basis, Debye-Ang):
   XX=             -7.9917   YY=             -7.9917   ZZ=            -14.9134
   XY=              0.0000   XZ=              0.0000   YZ=              0.0000
 Traceless Quadrupole moment (field-independent basis, Debye-Ang):
   XX=              2.3072   YY=              2.3072   ZZ=             -4.6145
   XY=              0.0000   XZ=              0.0000   YZ=              0.0000
 Octapole moment (field-independent basis, Debye-Ang**2):
  XXX=              0.0000  YYY=              0.0000  ZZZ=             12.1132  XYY=              0.0000
  XXY=              0.0000  XXZ=              3.0441  XZZ=              0.0000  YZZ=              0.0000
  YYZ=              3.0441  XYZ=              0.0000
 Hexadecapole moment (field-independent basis, Debye-Ang**3):
 XXXX=            -13.0505 YYYY=            -13.0505 ZZZZ=            -92.8486 XXXY=              0.0000
 XXXZ=              0.0000 YYYX=              0.0000 YYYZ=              0.0000 ZZZX=              0.0000
 ZZZY=              0.0000 XXYY=             -4.3502 XXZZ=            -16.6623 YYZZ=            -16.6623
 XXYZ=              0.0000 YYXZ=              0.0000 ZZXY=              0.0000
 N-N= 1.102452522750D+00 E-N=-5.959940707499D+01  KE= 2.476766254932D+01
 Symmetry A1   KE= 2.476766254932D+01
 Symmetry A2   KE= 1.251957433899D-52
 Symmetry B1   KE= 0.000000000000D+00
 Symmetry B2   KE= 0.000000000000D+00
 Leave Link  601 at Thu May 26 10:32:23 2022, MaxMem=   104857600 cpu:               0.1 elap:               0.1
 (Enter /apps/software/g16/l9999.exe)
 1\1\GINC-CNODE05\SP\RCCSD(T)-FC\Aug-CC-pVQZ\B1H1\ROOT\26-May-2022\0\\#
 p RHF/aug-cc-pVQZ CCSD(T,FC)\\BH CCSD(T) at 2.4 Angstrom\\0,1\B,0,0.,0
 .,0.\H,0,2.4,0.,0.\\Version=ES64L-G16RevA.03\State=1-SG\HF=-25.0053233
 \MP2=-25.0929972\MP3=-25.1137691\MP4D=-25.1248298\MP4DQ=-25.1211397\MP
 4SDQ=-25.1233304\CCSD=-25.1311491\CCSD(T)=-25.1367575\RMSD=6.447e-09\P
 G=C*V [C*(H1B1)]\\@


 A leading authority is anyone who has guessed right more than once.
 -- Frank A. Clark
 Job cpu time:       0 days  0 hours  0 minutes 14.6 seconds.
 Elapsed time:       0 days  0 hours  0 minutes 14.6 seconds.
 File lengths (MBytes):  RWF=     81 Int=      0 D2E=      0 Chk=      3 Scr=      1
 Normal termination of Gaussian 16 at Thu May 26 10:32:24 2022.

Sender: Unischeduler System <lcz@mgt01>
Subject: Job 136196: <#!/bin/bash
#BSUB -J intel
#BSUB -o BH-2.4-CCSD_T-G.out
#BSUB -n 8
#BSUB -q cqueue
#BSUB -R span[hosts=1]
export g16root=/apps/software
source /apps/software/g16/bsd/g16.profile
export GAUSS_SCRDIR=/scratch
/apps/software/g16/g16 < BH-2.4-CCSD_T-G.inp > BH-2.4-CCSD_T-G.out> Done

Job <#!/bin/bash
#BSUB -J intel
#BSUB -o BH-2.4-CCSD_T-G.out
#BSUB -n 8
#BSUB -q cqueue
#BSUB -R span[hosts=1]
export g16root=/apps/software
source /apps/software/g16/bsd/g16.profile
export GAUSS_SCRDIR=/scratch
/apps/software/g16/g16 < BH-2.4-CCSD_T-G.inp > BH-2.4-CCSD_T-G.out> was submitted from host <mgt01> by user <lcz>.
Job was executed on host(s) <8*cnode05>, in queue <cqueue>, as user <lcz>.
</apps/users/lcz> was used as the home directory.
</apps/users/lcz/exe13/GCCSD_T> was used as the working directory.
Started at 2022-05-26 10:32:09
Results reported at 2022-05-26 10:32:24

Your job looked like:

------------------------------------------------------------
# User input
#!/bin/bash
#BSUB -J intel
#BSUB -o BH-2.4-CCSD_T-G.out
#BSUB -n 8
#BSUB -q cqueue
#BSUB -R span[hosts=1]
export g16root=/apps/software
source /apps/software/g16/bsd/g16.profile
export GAUSS_SCRDIR=/scratch
/apps/software/g16/g16 < BH-2.4-CCSD_T-G.inp > BH-2.4-CCSD_T-G.out
------------------------------------------------------------

Successfully completed.

Resource usage summary:

    CPU time   :            5.17 sec.
    Max Memory :               206 MB
    Max Processes  :               5


The output (if any) follows:

