 Entering Gaussian System, Link 0=/apps/software/g16/g16
 Initial command:
 /apps/software/g16/l1.exe "/scratch/Gau-299226.inp" -scrdir="/scratch/"
 Entering Link 1 = /apps/software/g16/l1.exe PID=    299227.
  
 Copyright (c) 1988,1990,1992,1993,1995,1998,2003,2009,2016,
            Gaussian, Inc.  All Rights Reserved.
  
 This is part of the Gaussian(R) 16 program.  It is based on
 the Gaussian(R) 09 system (copyright 2009, Gaussian, Inc.),
 the Gaussian(R) 03 system (copyright 2003, Gaussian, Inc.),
 the Gaussian(R) 98 system (copyright 1998, Gaussian, Inc.),
 the Gaussian(R) 94 system (copyright 1995, Gaussian, Inc.),
 the Gaussian 92(TM) system (copyright 1992, Gaussian, Inc.),
 the Gaussian 90(TM) system (copyright 1990, Gaussian, Inc.),
 the Gaussian 88(TM) system (copyright 1988, Gaussian, Inc.),
 the Gaussian 86(TM) system (copyright 1986, Carnegie Mellon
 University), and the Gaussian 82(TM) system (copyright 1983,
 Carnegie Mellon University). Gaussian is a federally registered
 trademark of Gaussian, Inc.
  
 This software contains proprietary and confidential information,
 including trade secrets, belonging to Gaussian, Inc.
  
 This software is provided under written license and may be
 used, copied, transmitted, or stored only in accord with that
 written license.
  
 The following legend is applicable only to US Government
 contracts under FAR:
  
                    RESTRICTED RIGHTS LEGEND
  
 Use, reproduction and disclosure by the US Government is
 subject to restrictions as set forth in subparagraphs (a)
 and (c) of the Commercial Computer Software - Restricted
 Rights clause in FAR 52.227-19.
  
 Gaussian, Inc.
 340 Quinnipiac St., Bldg. 40, Wallingford CT 06492
  
  
 ---------------------------------------------------------------
 Warning -- This program may not be used in any manner that
 competes with the business of Gaussian, Inc. or will provide
 assistance to any competitor of Gaussian, Inc.  The licensee
 of this program is prohibited from giving any competitor of
 Gaussian, Inc. access to this program.  By using this program,
 the user acknowledges that Gaussian, Inc. is engaged in the
 business of creating and licensing software in the field of
 computational chemistry and represents and warrants to the
 licensee that it is not a competitor of Gaussian, Inc. and that
 it will not use this program in any manner prohibited above.
 ---------------------------------------------------------------
  

 Cite this work as:
 Gaussian 16, Revision A.03,
 M. J. Frisch, G. W. Trucks, H. B. Schlegel, G. E. Scuseria, 
 M. A. Robb, J. R. Cheeseman, G. Scalmani, V. Barone, 
 G. A. Petersson, H. Nakatsuji, X. Li, M. Caricato, A. V. Marenich, 
 J. Bloino, B. G. Janesko, R. Gomperts, B. Mennucci, H. P. Hratchian, 
 J. V. Ortiz, A. F. Izmaylov, J. L. Sonnenberg, D. Williams-Young, 
 F. Ding, F. Lipparini, F. Egidi, J. Goings, B. Peng, A. Petrone, 
 T. Henderson, D. Ranasinghe, V. G. Zakrzewski, J. Gao, N. Rega, 
 G. Zheng, W. Liang, M. Hada, M. Ehara, K. Toyota, R. Fukuda, 
 J. Hasegawa, M. Ishida, T. Nakajima, Y. Honda, O. Kitao, H. Nakai, 
 T. Vreven, K. Throssell, J. A. Montgomery, Jr., J. E. Peralta, 
 F. Ogliaro, M. J. Bearpark, J. J. Heyd, E. N. Brothers, K. N. Kudin, 
 V. N. Staroverov, T. A. Keith, R. Kobayashi, J. Normand, 
 K. Raghavachari, A. P. Rendell, J. C. Burant, S. S. Iyengar, 
 J. Tomasi, M. Cossi, J. M. Millam, M. Klene, C. Adamo, R. Cammi, 
 J. W. Ochterski, R. L. Martin, K. Morokuma, O. Farkas, 
 J. B. Foresman, and D. J. Fox, Gaussian, Inc., Wallingford CT, 2016.
 
 ******************************************
 Gaussian 16:  ES64L-G16RevA.03 25-Dec-2016
                26-May-2022 
 ******************************************
 %chk=BH-2.2-CCSD_T-G.chk
 -----------------------------
 #p RHF/aug-cc-pVQZ CCSD(T,FC)
 -----------------------------
 1/38=1,172=1/1;
 2/12=2,17=6,18=5,40=1/2;
 3/5=16,6=2,7=10,11=1,25=1,30=1,116=1/1,2,3;
 4//1;
 5/5=2,38=5/2;
 8/6=4,9=120000,10=1/1,4;
 9/5=7,14=2/13;
 6/7=2,8=2,9=2,10=2/1;
 99/5=1,9=1/99;
 Leave Link    1 at Thu May 26 10:35:01 2022, MaxMem=           0 cpu:               0.0 elap:               0.0
 (Enter /apps/software/g16/l101.exe)
 --------------------------
 BH CCSD(T) at 2.2 Angstrom
 --------------------------
 Symbolic Z-matrix:
 Charge =  0 Multiplicity = 1
 B                     0.        0.        0. 
 H                     2.2       0.        0. 
 
 ITRead=  0  0
 MicOpt= -1 -1
 NAtoms=      2 NQM=        2 NQMF=       0 NMMI=      0 NMMIF=      0
                NMic=       0 NMicF=      0.
                    Isotopes and Nuclear Properties:
 (Nuclear quadrupole moments (NQMom) in fm**2, nuclear magnetic moments (NMagM)
  in nuclear magnetons)

  Atom         1           2
 IAtWgt=          11           1
 AtmWgt=  11.0093053   1.0078250
 NucSpn=           3           1
 AtZEff=  -0.0000000  -0.0000000
 NQMom=    4.0590000   0.0000000
 NMagM=    2.6886370   2.7928460
 AtZNuc=   5.0000000   1.0000000
 Leave Link  101 at Thu May 26 10:35:01 2022, MaxMem=   104857600 cpu:               0.1 elap:               0.1
 (Enter /apps/software/g16/l202.exe)
                          Input orientation:                          
 ---------------------------------------------------------------------
 Center     Atomic      Atomic             Coordinates (Angstroms)
 Number     Number       Type             X           Y           Z
 ---------------------------------------------------------------------
      1          5           0        0.000000    0.000000    0.000000
      2          1           0        2.200000    0.000000    0.000000
 ---------------------------------------------------------------------
 Stoichiometry    BH
 Framework group  C*V[C*(HB)]
 Deg. of freedom     1
 Full point group                 C*V     NOp   4
 Largest Abelian subgroup         C2V     NOp   4
 Largest concise Abelian subgroup C1      NOp   1
                         Standard orientation:                         
 ---------------------------------------------------------------------
 Center     Atomic      Atomic             Coordinates (Angstroms)
 Number     Number       Type             X           Y           Z
 ---------------------------------------------------------------------
      1          5           0        0.000000    0.000000    0.366667
      2          1           0        0.000000    0.000000   -1.833333
 ---------------------------------------------------------------------
 Rotational constants (GHZ):           0.0000000         113.0908715         113.0908715
 Leave Link  202 at Thu May 26 10:35:01 2022, MaxMem=   104857600 cpu:               0.0 elap:               0.0
 (Enter /apps/software/g16/l301.exe)
 Standard basis: Aug-CC-pVQZ (5D, 7F)
 Ernie: Thresh=  0.10000D-02 Tol=  0.10000D-05 Strict=F.
 Ernie:  4 primitive shells out of 54 were deleted.
 There are    68 symmetry adapted cartesian basis functions of A1  symmetry.
 There are    18 symmetry adapted cartesian basis functions of A2  symmetry.
 There are    37 symmetry adapted cartesian basis functions of B1  symmetry.
 There are    37 symmetry adapted cartesian basis functions of B2  symmetry.
 There are    50 symmetry adapted basis functions of A1  symmetry.
 There are    16 symmetry adapted basis functions of A2  symmetry.
 There are    30 symmetry adapted basis functions of B1  symmetry.
 There are    30 symmetry adapted basis functions of B2  symmetry.
   126 basis functions,   180 primitive gaussians,   160 cartesian basis functions
     3 alpha electrons        3 beta electrons
       nuclear repulsion energy         1.2026754794 Hartrees.
 IExCor=    0 DFT=F Ex=HF Corr=None ExCW=0 ScaHFX=  1.000000
 ScaDFX=  1.000000  1.000000  1.000000  1.000000 ScalE2=  1.000000  1.000000
 IRadAn=      5 IRanWt=     -1 IRanGd=            0 ICorTp=0 IEmpDi=  4
 NAtoms=    2 NActive=    2 NUniq=    2 SFac= 1.00D+00 NAtFMM=   60 NAOKFM=F Big=F
 Integral buffers will be    131072 words long.
 Raffenetti 1 integral format.
 Two-electron integral symmetry is turned on.
 Leave Link  301 at Thu May 26 10:35:01 2022, MaxMem=   104857600 cpu:               0.1 elap:               0.1
 (Enter /apps/software/g16/l302.exe)
 NPDir=0 NMtPBC=     1 NCelOv=     1 NCel=       1 NClECP=     1 NCelD=      1
         NCelK=      1 NCelE2=     1 NClLst=     1 CellRange=     0.0.
 One-electron integrals computed using PRISM.
 One-electron integral symmetry used in STVInt
 NBasis=   126 RedAO= T EigKep=  7.12D-04  NBF=    50    16    30    30
 NBsUse=   126 1.00D-06 EigRej= -1.00D+00 NBFU=    50    16    30    30
 Leave Link  302 at Thu May 26 10:35:01 2022, MaxMem=   104857600 cpu:               0.1 elap:               0.1
 (Enter /apps/software/g16/l303.exe)
 DipDrv:  MaxL=1.
 Leave Link  303 at Thu May 26 10:35:02 2022, MaxMem=   104857600 cpu:               0.0 elap:               0.0
 (Enter /apps/software/g16/l401.exe)
 ExpMin= 1.88D-02 ExpMax= 2.39D+04 ExpMxC= 2.30D+02 IAcc=3 IRadAn=         5 AccDes= 0.00D+00
 Harris functional with IExCor=  205 and IRadAn=       5 diagonalized for initial guess.
 HarFok:  IExCor=  205 AccDes= 0.00D+00 IRadAn=         5 IDoV= 1 UseB2=F ITyADJ=14
 ICtDFT=  3500011 ScaDFX=  1.000000  1.000000  1.000000  1.000000
 FoFCou: FMM=F IPFlag=           0 FMFlag=      100000 FMFlg1=           0
         NFxFlg=           0 DoJE=T BraDBF=F KetDBF=T FulRan=T
         wScrn=  0.000000 ICntrl=       500 IOpCl=  0 I1Cent=   200000004 NGrid=           0
         NMat0=    1 NMatS0=      1 NMatT0=    0 NMatD0=    1 NMtDS0=    0 NMtDT0=    0
 Petite list used in FoFCou.
 Harris En= -25.0261755171683    
 JPrj=0 DoOrth=F DoCkMO=F.
 Initial guess orbital symmetries:
       Occupied  (SG) (SG) (SG)
       Virtual   (PI) (PI) (SG) (SG) (SG) (PI) (PI) (SG) (PI) (PI)
                 (DLTA) (DLTA) (SG) (PI) (PI) (SG) (PI) (PI) (SG)
                 (SG) (PI) (PI) (DLTA) (DLTA) (DLTA) (DLTA) (PHI)
                 (PHI) (SG) (PI) (PI) (SG) (SG) (DLTA) (DLTA) (PI)
                 (PI) (SG) (PI) (PI) (SG) (PI) (PI) (SG) (PI) (PI)
                 (PHI) (PHI) (DLTA) (DLTA) (DLTA) (DLTA) (SG) (?A)
                 (?A) (PHI) (PHI) (SG) (PI) (PI) (DLTA) (DLTA)
                 (SG) (PHI) (PHI) (SG) (PI) (PI) (SG) (DLTA) (DLTA)
                 (SG) (PI) (PI) (DLTA) (DLTA) (PI) (PI) (PI) (PI)
                 (SG) (SG) (PI) (PI) (SG) (DLTA) (DLTA) (PI) (PI)
                 (?A) (?A) (PHI) (PHI) (SG) (DLTA) (DLTA) (PHI)
                 (PHI) (DLTA) (DLTA) (PI) (PI) (PI) (PI) (SG) (SG)
                 (PHI) (PHI) (DLTA) (DLTA) (PI) (PI) (SG) (SG)
                 (PI) (PI) (DLTA) (DLTA) (SG) (PI) (PI) (SG) (SG)
 The electronic state of the initial guess is 1-SG.
 Leave Link  401 at Thu May 26 10:35:02 2022, MaxMem=   104857600 cpu:               0.2 elap:               0.2
 (Enter /apps/software/g16/l502.exe)
 Keep R1 ints in memory in symmetry-blocked form, NReq=40143665.
 FoFCou: FMM=F IPFlag=           0 FMFlag=           0 FMFlg1=           0
         NFxFlg=           0 DoJE=F BraDBF=F KetDBF=F FulRan=T
         wScrn=  0.000000 ICntrl=       600 IOpCl=  0 I1Cent=           0 NGrid=           0
         NMat0=    1 NMatS0=   8001 NMatT0=    0 NMatD0=    1 NMtDS0=    0 NMtDT0=    0
 Petite list used in FoFCou.
 Closed shell SCF:
 Using DIIS extrapolation, IDIIS=  1040.
 NGot=   104857600 LenX=    96673173 LenY=    96647132
 Requested convergence on RMS density matrix=1.00D-08 within 128 cycles.
 Requested convergence on MAX density matrix=1.00D-06.
 Requested convergence on             energy=1.00D-06.
 No special actions if energy rises.

 Cycle   1  Pass 1  IDiag  1:
 E= -24.9903451775423    
 DIIS: error= 4.19D-02 at cycle   1 NSaved=   1.
 NSaved= 1 IEnMin= 1 EnMin= -24.9903451775423     IErMin= 1 ErrMin= 4.19D-02
 ErrMax= 4.19D-02  0.00D+00 EMaxC= 1.00D-01 BMatC= 4.50D-02 BMatP= 4.50D-02
 IDIUse=3 WtCom= 5.81D-01 WtEn= 4.19D-01
 Coeff-Com:  0.100D+01
 Coeff-En:   0.100D+01
 Coeff:      0.100D+01
 Gap=     0.280 Goal=   None    Shift=    0.000
 GapD=    0.280 DampG=1.000 DampE=0.500 DampFc=0.5000 IDamp=-1.
 Damping current iteration by 5.00D-01
 RMSDP=1.46D-03 MaxDP=5.16D-02              OVMax= 1.70D-01

 Cycle   2  Pass 1  IDiag  1:
 E= -25.0085020466867     Delta-E=       -0.018156869144 Rises=F Damp=T
 DIIS: error= 2.06D-02 at cycle   2 NSaved=   2.
 NSaved= 2 IEnMin= 2 EnMin= -25.0085020466867     IErMin= 2 ErrMin= 2.06D-02
 ErrMax= 2.06D-02  0.00D+00 EMaxC= 1.00D-01 BMatC= 1.11D-02 BMatP= 4.50D-02
 IDIUse=3 WtCom= 7.94D-01 WtEn= 2.06D-01
 Coeff-Com: -0.950D+00 0.195D+01
 Coeff-En:   0.000D+00 0.100D+01
 Coeff:     -0.754D+00 0.175D+01
 Gap=     0.336 Goal=   None    Shift=    0.000
 RMSDP=6.93D-04 MaxDP=3.31D-02 DE=-1.82D-02 OVMax= 2.46D-02

 Cycle   3  Pass 1  IDiag  1:
 E= -25.0261331887207     Delta-E=       -0.017631142034 Rises=F Damp=F
 DIIS: error= 1.28D-03 at cycle   3 NSaved=   3.
 NSaved= 3 IEnMin= 3 EnMin= -25.0261331887207     IErMin= 3 ErrMin= 1.28D-03
 ErrMax= 1.28D-03  0.00D+00 EMaxC= 1.00D-01 BMatC= 3.89D-05 BMatP= 1.11D-02
 IDIUse=3 WtCom= 9.87D-01 WtEn= 1.28D-02
 Coeff-Com:  0.824D-01-0.197D+00 0.111D+01
 Coeff-En:   0.000D+00 0.000D+00 0.100D+01
 Coeff:      0.814D-01-0.195D+00 0.111D+01
 Gap=     0.328 Goal=   None    Shift=    0.000
 RMSDP=8.01D-05 MaxDP=2.22D-03 DE=-1.76D-02 OVMax= 6.00D-03

 Cycle   4  Pass 1  IDiag  1:
 E= -25.0262405138354     Delta-E=       -0.000107325115 Rises=F Damp=F
 DIIS: error= 4.21D-04 at cycle   4 NSaved=   4.
 NSaved= 4 IEnMin= 4 EnMin= -25.0262405138354     IErMin= 4 ErrMin= 4.21D-04
 ErrMax= 4.21D-04  0.00D+00 EMaxC= 1.00D-01 BMatC= 3.68D-06 BMatP= 3.89D-05
 IDIUse=3 WtCom= 9.96D-01 WtEn= 4.21D-03
 Coeff-Com: -0.346D-02 0.194D-01-0.504D+00 0.149D+01
 Coeff-En:   0.000D+00 0.000D+00 0.000D+00 0.100D+01
 Coeff:     -0.344D-02 0.194D-01-0.502D+00 0.149D+01
 Gap=     0.329 Goal=   None    Shift=    0.000
 RMSDP=3.12D-05 MaxDP=9.89D-04 DE=-1.07D-04 OVMax= 2.95D-03

 Cycle   5  Pass 1  IDiag  1:
 E= -25.0262528613239     Delta-E=       -0.000012347489 Rises=F Damp=F
 DIIS: error= 2.42D-05 at cycle   5 NSaved=   5.
 NSaved= 5 IEnMin= 5 EnMin= -25.0262528613239     IErMin= 5 ErrMin= 2.42D-05
 ErrMax= 2.42D-05  0.00D+00 EMaxC= 1.00D-01 BMatC= 5.40D-08 BMatP= 3.68D-06
 IDIUse=1 WtCom= 1.00D+00 WtEn= 0.00D+00
 Coeff-Com:  0.141D-02-0.593D-02 0.136D+00-0.460D+00 0.133D+01
 Coeff:      0.141D-02-0.593D-02 0.136D+00-0.460D+00 0.133D+01
 Gap=     0.329 Goal=   None    Shift=    0.000
 RMSDP=3.50D-06 MaxDP=1.07D-04 DE=-1.23D-05 OVMax= 2.73D-04

 Cycle   6  Pass 1  IDiag  1:
 E= -25.0262529995085     Delta-E=       -0.000000138185 Rises=F Damp=F
 DIIS: error= 3.97D-06 at cycle   6 NSaved=   6.
 NSaved= 6 IEnMin= 6 EnMin= -25.0262529995085     IErMin= 6 ErrMin= 3.97D-06
 ErrMax= 3.97D-06  0.00D+00 EMaxC= 1.00D-01 BMatC= 7.87D-10 BMatP= 5.40D-08
 IDIUse=1 WtCom= 1.00D+00 WtEn= 0.00D+00
 Coeff-Com:  0.278D-03-0.137D-03-0.176D-01 0.712D-01-0.271D+00 0.122D+01
 Coeff:      0.278D-03-0.137D-03-0.176D-01 0.712D-01-0.271D+00 0.122D+01
 Gap=     0.329 Goal=   None    Shift=    0.000
 RMSDP=6.82D-07 MaxDP=2.31D-05 DE=-1.38D-07 OVMax= 3.64D-05

 Cycle   7  Pass 1  IDiag  1:
 E= -25.0262530022656     Delta-E=       -0.000000002757 Rises=F Damp=F
 DIIS: error= 8.49D-07 at cycle   7 NSaved=   7.
 NSaved= 7 IEnMin= 7 EnMin= -25.0262530022656     IErMin= 7 ErrMin= 8.49D-07
 ErrMax= 8.49D-07  0.00D+00 EMaxC= 1.00D-01 BMatC= 3.27D-11 BMatP= 7.87D-10
 IDIUse=1 WtCom= 1.00D+00 WtEn= 0.00D+00
 Coeff-Com:  0.424D-04-0.155D-03 0.322D-02-0.133D-01 0.437D-01-0.321D+00
 Coeff-Com:  0.129D+01
 Coeff:      0.424D-04-0.155D-03 0.322D-02-0.133D-01 0.437D-01-0.321D+00
 Coeff:      0.129D+01
 Gap=     0.329 Goal=   None    Shift=    0.000
 RMSDP=1.38D-07 MaxDP=6.80D-06 DE=-2.76D-09 OVMax= 9.29D-06

 Cycle   8  Pass 1  IDiag  1:
 E= -25.0262530023964     Delta-E=       -0.000000000131 Rises=F Damp=F
 DIIS: error= 1.68D-07 at cycle   8 NSaved=   8.
 NSaved= 8 IEnMin= 8 EnMin= -25.0262530023964     IErMin= 8 ErrMin= 1.68D-07
 ErrMax= 1.68D-07  0.00D+00 EMaxC= 1.00D-01 BMatC= 1.17D-12 BMatP= 3.27D-11
 IDIUse=1 WtCom= 1.00D+00 WtEn= 0.00D+00
 Coeff-Com: -0.271D-05 0.207D-04-0.662D-03 0.318D-02-0.852D-02 0.947D-01
 Coeff-Com: -0.546D+00 0.146D+01
 Coeff:     -0.271D-05 0.207D-04-0.662D-03 0.318D-02-0.852D-02 0.947D-01
 Coeff:     -0.546D+00 0.146D+01
 Gap=     0.329 Goal=   None    Shift=    0.000
 RMSDP=3.40D-08 MaxDP=2.07D-06 DE=-1.31D-10 OVMax= 2.76D-06

 Cycle   9  Pass 1  IDiag  1:
 E= -25.0262530024030     Delta-E=       -0.000000000007 Rises=F Damp=F
 DIIS: error= 2.36D-08 at cycle   9 NSaved=   9.
 NSaved= 9 IEnMin= 9 EnMin= -25.0262530024030     IErMin= 9 ErrMin= 2.36D-08
 ErrMax= 2.36D-08  0.00D+00 EMaxC= 1.00D-01 BMatC= 2.90D-14 BMatP= 1.17D-12
 IDIUse=1 WtCom= 1.00D+00 WtEn= 0.00D+00
 Coeff-Com:  0.149D-05-0.391D-05 0.349D-04-0.248D-03 0.556D-07-0.940D-02
 Coeff-Com:  0.842D-01-0.375D+00 0.130D+01
 Coeff:      0.149D-05-0.391D-05 0.349D-04-0.248D-03 0.556D-07-0.940D-02
 Coeff:      0.842D-01-0.375D+00 0.130D+01
 Gap=     0.329 Goal=   None    Shift=    0.000
 RMSDP=5.28D-09 MaxDP=2.10D-07 DE=-6.60D-12 OVMax= 4.96D-07

 SCF Done:  E(RHF) =  -25.0262530024     A.U. after    9 cycles
            NFock=  9  Conv=0.53D-08     -V/T= 2.0098
 KE= 2.478347797164D+01 PE=-5.987883644720D+01 EE= 8.866429993796D+00
 Leave Link  502 at Thu May 26 10:35:05 2022, MaxMem=   104857600 cpu:               3.7 elap:               3.7
 (Enter /apps/software/g16/l801.exe)
 Windowed orbitals will be sorted by symmetry type.
 ExpMin= 1.88D-02 ExpMax= 2.39D+04 ExpMxC= 2.30D+02 IAcc=3 IRadAn=         5 AccDes= 0.00D+00
 HarFok:  IExCor=  205 AccDes= 0.00D+00 IRadAn=         5 IDoV=-2 UseB2=F ITyADJ=14
 ICtDFT= 12500011 ScaDFX=  1.000000  1.000000  1.000000  1.000000
 Largest valence mixing into a core orbital is  3.94D-04
 Largest core mixing into a valence orbital is  1.47D-04
 Range of M.O.s used for correlation:     2   126
 NBasis=   126 NAE=     3 NBE=     3 NFC=     1 NFV=     0
 NROrb=    125 NOA=     2 NOB=     2 NVA=   123 NVB=   123

 **** Warning!!: The largest alpha MO coefficient is  0.12262799D+02

 Leave Link  801 at Thu May 26 10:35:06 2022, MaxMem=   104857600 cpu:               0.1 elap:               0.1
 (Enter /apps/software/g16/l804.exe)
 Closed-shell transformation, MDV=   104857600 ITran=4 ISComp=2.
 Unit  1 TFree=        527294 TCopy=        350885.
 Semi-Direct transformation.
 ModeAB=           2 MOrb=             2 LenV=     104240464
 LASXX=       493564 LTotXX=      493564 LenRXX=      493564
 LTotAB=      509833 MaxLAS=     3220000 LenRXY=     3220000
 NonZer=     3361750 LenScr=     5758976 LnRSAI=           0
 LnScr1=           0 LExtra=           0 Total=      9472540
 MaxDsk=          -1 SrtSym=           F ITran=            4
 DoSDTr:  NPSUse=  1
 JobTyp=0 Pass  1:  I=   1 to   2.
 (rs|ai) integrals will be sorted in core.
 Complete sort for first half transformation.
 First half transformation complete.
 Complete sort for second half transformation.
 Second half transformation complete.
 Spin components of T(2) and E(2):
     alpha-alpha T2 =       0.1547676458D-02 E2=     -0.2587430432D-02
     alpha-beta  T2 =       0.5479500432D-01 E2=     -0.8057422244D-01
     beta-beta   T2 =       0.1547676458D-02 E2=     -0.2587430432D-02
 ANorm=    0.1028537971D+01
 E2 =    -0.8574908330D-01 EUMP2 =    -0.25112002085707D+02
 Leave Link  804 at Thu May 26 10:35:11 2022, MaxMem=   104857600 cpu:               5.0 elap:               5.1
 (Enter /apps/software/g16/l913.exe)
 CIDS:  MDV=   104857600.
 Frozen-core window:  NFC=   1 NFV=   0.
 IFCWin=0 IBDFC=1 NFBD=     0     0 NFCmp=     0     0 NFFFC=     0     0
 Using DD3R+UMP44R for 1st iteration.
 Using DD4RQ for 2nd and later iterations.
 Keep R2 and R3 ints in memory in symmetry-blocked form, NReq=40146875.
 FoFCou: FMM=F IPFlag=           0 FMFlag=           0 FMFlg1=           0
         NFxFlg=           0 DoJE=F BraDBF=F KetDBF=F FulRan=T
         wScrn=  0.000000 ICntrl=       600 IOpCl=  0 I1Cent=           0 NGrid=           0
         NMat0=    1 NMatS0=   8001 NMatT0=    0 NMatD0=    1 NMtDS0=    0 NMtDT0=    0
 Petite list used in FoFCou.
 CIDS: In Core Option IDoMem=           1.
 CCSD(T)
 =======
 Iterations=  50 Convergence= 0.100D-06
 Produce multiple copies of IABC intergrals
 Iteration Nr.   1
 **********************
 DD1Dir will call FoFMem   1 times, MxPair=         6
 NAB=     3 NAA=     0 NBB=     0.
 MP4(R+Q)=  0.32403367D-02
 Maximum subspace dimension=  5
 A-vector RMS=  4.9314942D-03 Max=  2.8805233D-02 conv= 1.00D-05.
 RLE energy=       -0.1058489746
 E3=       -0.19634094D-01        EUMP3=      -0.25131636180D+02
 E4(DQ)=   -0.67623233D-02        UMP4(DQ)=   -0.25138398503D+02
 E4(SDQ)=  -0.82898321D-02        UMP4(SDQ)=  -0.25139926012D+02
 VARIATIONAL ENERGIES WITH THE FIRST-ORDER WAVEFUNCTION:
 DE(Corr)= -0.10203234     E(Corr)=     -25.128285341    
 NORM(A)=   0.10539066D+01
 Iteration Nr.   2
 **********************
 DD1Dir will call FoFMem   1 times, MxPair=         6
 NAB=     3 NAA=     0 NBB=     0.
 A-vector RMS=  1.6369374D-03 Max=  1.6636977D-02 conv= 1.00D-05.
 RLE energy=       -0.1186664438
 DE(Corr)= -0.11266724     E(CORR)=     -25.138920238     Delta=-1.06D-02
 NORM(A)=   0.10770220D+01
 Iteration Nr.   3
 **********************
 DD1Dir will call FoFMem   1 times, MxPair=         6
 NAB=     3 NAA=     0 NBB=     0.
 A-vector RMS=  1.2020580D-03 Max=  4.1231981D-03 conv= 1.00D-05.
 RLE energy=       -0.1195527079
 DE(Corr)= -0.11827136     E(CORR)=     -25.144524367     Delta=-5.60D-03
 NORM(A)=   0.10830516D+01
 Iteration Nr.   4
 **********************
 DD1Dir will call FoFMem   1 times, MxPair=         6
 NAB=     3 NAA=     0 NBB=     0.
 A-vector RMS=  2.2026637D-04 Max=  1.6957951D-03 conv= 1.00D-05.
 RLE energy=       -0.1200616779
 DE(Corr)= -0.11975868     E(CORR)=     -25.146011680     Delta=-1.49D-03
 NORM(A)=   0.10853121D+01
 Iteration Nr.   5
 **********************
 DD1Dir will call FoFMem   1 times, MxPair=         6
 NAB=     3 NAA=     0 NBB=     0.
 A-vector RMS=  1.7002070D-04 Max=  6.4982754D-04 conv= 1.00D-05.
 RLE energy=       -0.1201396605
 DE(Corr)= -0.12005221     E(CORR)=     -25.146305212     Delta=-2.94D-04
 NORM(A)=   0.10859512D+01
 Iteration Nr.   6
 **********************
 DD1Dir will call FoFMem   1 times, MxPair=         6
 NAB=     3 NAA=     0 NBB=     0.
 A-vector RMS=  3.0048108D-05 Max=  1.3347450D-04 conv= 1.00D-05.
 RLE energy=       -0.1200670979
 DE(Corr)= -0.12010990     E(CORR)=     -25.146362903     Delta=-5.77D-05
 NORM(A)=   0.10858843D+01
 Iteration Nr.   7
 **********************
 DD1Dir will call FoFMem   1 times, MxPair=         6
 NAB=     3 NAA=     0 NBB=     0.
 A-vector RMS=  1.5372075D-05 Max=  6.5231468D-05 conv= 1.00D-05.
 RLE energy=       -0.1200895229
 DE(Corr)= -0.12008094     E(CORR)=     -25.146333941     Delta= 2.90D-05
 NORM(A)=   0.10859478D+01
 Iteration Nr.   8
 **********************
 DD1Dir will call FoFMem   1 times, MxPair=         6
 NAB=     3 NAA=     0 NBB=     0.
 A-vector RMS=  4.7839920D-06 Max=  2.0279479D-05 conv= 1.00D-05.
 RLE energy=       -0.1200835898
 DE(Corr)= -0.12008633     E(CORR)=     -25.146339335     Delta=-5.39D-06
 NORM(A)=   0.10859393D+01
 Iteration Nr.   9
 **********************
 DD1Dir will call FoFMem   1 times, MxPair=         6
 NAB=     3 NAA=     0 NBB=     0.
 A-vector RMS=  1.4397358D-06 Max=  1.0184711D-05 conv= 1.00D-05.
 RLE energy=       -0.1200863633
 DE(Corr)= -0.12008536     E(CORR)=     -25.146338367     Delta= 9.68D-07
 NORM(A)=   0.10859446D+01
 Iteration Nr.  10
 **********************
 DD1Dir will call FoFMem   1 times, MxPair=         6
 NAB=     3 NAA=     0 NBB=     0.
 A-vector RMS=  7.4339657D-07 Max=  4.0814861D-06 conv= 1.00D-05.
 RLE energy=       -0.1200862391
 DE(Corr)= -0.12008606     E(CORR)=     -25.146339058     Delta=-6.91D-07
 NORM(A)=   0.10859455D+01
 Iteration Nr.  11
 **********************
 DD1Dir will call FoFMem   1 times, MxPair=         6
 NAB=     3 NAA=     0 NBB=     0.
 A-vector RMS=  2.9262667D-07 Max=  1.4490085D-06 conv= 1.00D-05.
 RLE energy=       -0.1200866853
 DE(Corr)= -0.12008646     E(CORR)=     -25.146339462     Delta=-4.05D-07
 NORM(A)=   0.10859465D+01
 Iteration Nr.  12
 **********************
 DD1Dir will call FoFMem   1 times, MxPair=         6
 NAB=     3 NAA=     0 NBB=     0.
 A-vector RMS=  1.7079053D-07 Max=  7.4237750D-07 conv= 1.00D-05.
 RLE energy=       -0.1200867191
 DE(Corr)= -0.12008664     E(CORR)=     -25.146339640     Delta=-1.77D-07
 NORM(A)=   0.10859470D+01
 Iteration Nr.  13
 **********************
 DD1Dir will call FoFMem   1 times, MxPair=         6
 NAB=     3 NAA=     0 NBB=     0.
 A-vector RMS=  5.4367802D-08 Max=  2.2579075D-07 conv= 1.00D-05.
 RLE energy=       -0.1200867335
 DE(Corr)= -0.12008672     E(CORR)=     -25.146339727     Delta=-8.77D-08
 NORM(A)=   0.10859471D+01
 CI/CC converged in   13 iterations to DelEn=-8.77D-08 Conv= 1.00D-07 ErrA1= 5.44D-08 Conv= 1.00D-05
 Wavefunction amplitudes converged. E(Corr)=     -25.146339727    
 Dominant configurations:
 ***********************
 Spin Case        I    J    A    B          Value
   ABAB           3    3   10   10      -0.152561D+00
 Largest amplitude= 1.53D-01
 IPart=  1 IA=    8   11.10% done.
 IPart=  1 IA=   14   20.10% done.
 IPart=  1 IA=   22   31.35% done.
 IPart=  1 IA=   29   40.49% done.
 IPart=  1 IA=   37   50.14% done.
 IPart=  1 IA=   47   61.00% done.
 IPart=  1 IA=   57   70.53% done.
 IPart=  1 IA=   69   80.21% done.
 IPart=  1 IA=   85   90.12% done.
 Time for triples=        0.63 seconds.
 T4(CCSD)= -0.49581426D-02
 T5(CCSD)=  0.47323838D-03
 CCSD(T)= -0.25150824632D+02
 Discarding MO integrals.
 Leave Link  913 at Thu May 26 10:35:15 2022, MaxMem=   104857600 cpu:               4.8 elap:               4.8
 (Enter /apps/software/g16/l601.exe)
 Copying SCF densities to generalized density rwf, IOpCl= 0 IROHF=0.

 **********************************************************************

            Population analysis using the SCF density.

 **********************************************************************

 Orbital symmetries:
       Occupied  (SG) (SG) (SG)
       Virtual   (PI) (PI) (SG) (SG) (PI) (PI) (SG) (SG) (DLTA)
                 (DLTA) (PI) (PI) (SG) (SG) (PI) (PI) (PI) (PI)
                 (SG) (SG) (PHI) (PHI) (DLTA) (DLTA) (PI) (PI)
                 (DLTA) (DLTA) (SG) (PI) (PI) (SG) (SG) (DLTA)
                 (DLTA) (PI) (PI) (SG) (PI) (PI) (SG) (PI) (PI)
                 (SG) (PHI) (PHI) (?A) (?A) (PI) (PI) (DLTA) (DLTA)
                 (DLTA) (DLTA) (SG) (PHI) (PHI) (SG) (PI) (PI)
                 (DLTA) (DLTA) (SG) (PHI) (PHI) (PI) (PI) (SG)
                 (SG) (DLTA) (DLTA) (SG) (PI) (PI) (DLTA) (DLTA)
                 (PI) (PI) (PI) (PI) (SG) (SG) (PI) (PI) (?A) (?A)
                 (DLTA) (DLTA) (PHI) (PHI) (SG) (PI) (PI) (DLTA)
                 (DLTA) (SG) (PHI) (PHI) (DLTA) (DLTA) (PI) (PI)
                 (PI) (PI) (SG) (SG) (PHI) (PHI) (DLTA) (DLTA)
                 (PI) (PI) (SG) (SG) (PI) (PI) (DLTA) (DLTA) (SG)
                 (PI) (PI) (SG) (SG)
 The electronic state is 1-SG.
 Alpha  occ. eigenvalues --   -7.79872  -0.55891  -0.32362
 Alpha virt. eigenvalues --    0.00573   0.00573   0.02485   0.05390   0.06203
 Alpha virt. eigenvalues --    0.06203   0.07842   0.09062   0.13991   0.13991
 Alpha virt. eigenvalues --    0.14027   0.14027   0.18651   0.25289   0.26967
 Alpha virt. eigenvalues --    0.26967   0.29483   0.29483   0.31614   0.35793
 Alpha virt. eigenvalues --    0.45000   0.45000   0.45690   0.45690   0.47563
 Alpha virt. eigenvalues --    0.47563   0.47836   0.47836   0.49979   0.53733
 Alpha virt. eigenvalues --    0.53733   0.58675   0.64076   0.75432   0.75432
 Alpha virt. eigenvalues --    0.84133   0.84133   0.86631   0.93092   0.93092
 Alpha virt. eigenvalues --    0.96765   1.07220   1.07220   1.29487   1.33539
 Alpha virt. eigenvalues --    1.33539   1.34584   1.34584   1.35761   1.35761
 Alpha virt. eigenvalues --    1.36445   1.36445   1.38740   1.38740   1.39622
 Alpha virt. eigenvalues --    1.40651   1.40651   1.44666   1.45175   1.45175
 Alpha virt. eigenvalues --    1.45637   1.45637   1.60323   1.68193   1.68193
 Alpha virt. eigenvalues --    1.71992   1.71992   1.74222   1.96535   1.97914
 Alpha virt. eigenvalues --    1.97914   2.10589   2.14921   2.14921   2.57677
 Alpha virt. eigenvalues --    2.57677   2.72437   2.72437   2.92701   2.92701
 Alpha virt. eigenvalues --    2.96228   3.32820   3.70115   3.70115   3.87074
 Alpha virt. eigenvalues --    3.87074   3.88827   3.88827   3.89686   3.89686
 Alpha virt. eigenvalues --    3.92517   3.93432   3.93432   3.96677   3.96677
 Alpha virt. eigenvalues --    3.98044   4.02734   4.02734   4.06661   4.06661
 Alpha virt. eigenvalues --    4.07758   4.07758   4.25496   4.25496   4.42340
 Alpha virt. eigenvalues --    4.57676   6.64746   6.64746   6.72914   6.72914
 Alpha virt. eigenvalues --    6.81224   6.81224   6.84508   7.74477   8.19968
 Alpha virt. eigenvalues --    8.19968   8.51028   8.51028   8.54991   8.62240
 Alpha virt. eigenvalues --    8.62240   9.05802  13.39729
          Condensed to atoms (all electrons):
               1          2
     1  B    4.526498   0.280377
     2  H    0.280377   0.912748
 Mulliken charges:
               1
     1  B    0.193125
     2  H   -0.193125
 Sum of Mulliken charges =   0.00000
 Mulliken charges with hydrogens summed into heavy atoms:
               1
     1  B    0.000000
 Electronic spatial extent (au):  <R**2>=             36.2071
 Charge=              0.0000 electrons
 Dipole moment (field-independent basis, Debye):
    X=              0.0000    Y=              0.0000    Z=              2.1437  Tot=              2.1437
 Quadrupole moment (field-independent basis, Debye-Ang):
   XX=             -7.7643   YY=             -7.7643   ZZ=            -13.7982
   XY=              0.0000   XZ=              0.0000   YZ=              0.0000
 Traceless Quadrupole moment (field-independent basis, Debye-Ang):
   XX=              2.0113   YY=              2.0113   ZZ=             -4.0226
   XY=              0.0000   XZ=              0.0000   YZ=              0.0000
 Octapole moment (field-independent basis, Debye-Ang**2):
  XXX=              0.0000  YYY=              0.0000  ZZZ=              7.5489  XYY=              0.0000
  XXY=              0.0000  XXZ=              2.1598  XZZ=              0.0000  YZZ=              0.0000
  YYZ=              2.1598  XYZ=              0.0000
 Hexadecapole moment (field-independent basis, Debye-Ang**3):
 XXXX=            -12.0976 YYYY=            -12.0976 ZZZZ=            -74.6534 XXXY=              0.0000
 XXXZ=              0.0000 YYYX=              0.0000 YYYZ=              0.0000 ZZZX=              0.0000
 ZZZY=              0.0000 XXYY=             -4.0325 XXZZ=            -14.0978 YYZZ=            -14.0978
 XXYZ=              0.0000 YYXZ=              0.0000 ZZXY=              0.0000
 N-N= 1.202675479364D+00 E-N=-5.987883646013D+01  KE= 2.478347797164D+01
 Symmetry A1   KE= 2.478347797164D+01
 Symmetry A2   KE=-2.081425921833D-52
 Symmetry B1   KE= 0.000000000000D+00
 Symmetry B2   KE= 0.000000000000D+00
 Leave Link  601 at Thu May 26 10:35:15 2022, MaxMem=   104857600 cpu:               0.1 elap:               0.1
 (Enter /apps/software/g16/l9999.exe)
 1\1\GINC-CNODE07\SP\RCCSD(T)-FC\Aug-CC-pVQZ\B1H1\LCZ\26-May-2022\0\\#p
  RHF/aug-cc-pVQZ CCSD(T,FC)\\BH CCSD(T) at 2.2 Angstrom\\0,1\B,0,0.,0.
 ,0.\H,0,2.2,0.,0.\\Version=ES64L-G16RevA.03\State=1-SG\HF=-25.026253\M
 P2=-25.1120021\MP3=-25.1316362\MP4D=-25.1416388\MP4DQ=-25.1383985\MP4S
 DQ=-25.139926\CCSD=-25.1463397\CCSD(T)=-25.1508246\RMSD=5.280e-09\PG=C
 *V [C*(H1B1)]\\@


 NEVER LOSE YOUR IGNORANCE, IT CAN'T BE REPLACED.
   -- ANDY CAPP
 Job cpu time:       0 days  0 hours  0 minutes 14.3 seconds.
 Elapsed time:       0 days  0 hours  0 minutes 14.3 seconds.
 File lengths (MBytes):  RWF=     81 Int=      0 D2E=      0 Chk=      3 Scr=      1
 Normal termination of Gaussian 16 at Thu May 26 10:35:16 2022.

Sender: Unischeduler System <lcz@mgt01>
Subject: Job 136195: <#!/bin/bash
#BSUB -J intel
#BSUB -o BH-2.2-CCSD_T-G.out
#BSUB -n 8
#BSUB -q cqueue
#BSUB -R span[hosts=1]
export g16root=/apps/software
source /apps/software/g16/bsd/g16.profile
export GAUSS_SCRDIR=/scratch
/apps/software/g16/g16 < BH-2.2-CCSD_T-G.inp > BH-2.2-CCSD_T-G.out> Done

Job <#!/bin/bash
#BSUB -J intel
#BSUB -o BH-2.2-CCSD_T-G.out
#BSUB -n 8
#BSUB -q cqueue
#BSUB -R span[hosts=1]
export g16root=/apps/software
source /apps/software/g16/bsd/g16.profile
export GAUSS_SCRDIR=/scratch
/apps/software/g16/g16 < BH-2.2-CCSD_T-G.inp > BH-2.2-CCSD_T-G.out> was submitted from host <mgt01> by user <lcz>.
Job was executed on host(s) <8*cnode07>, in queue <cqueue>, as user <lcz>.
</apps/users/lcz> was used as the home directory.
</apps/users/lcz/exe13/GCCSD_T> was used as the working directory.
Started at 2022-05-26 10:35:01
Results reported at 2022-05-26 10:35:16

Your job looked like:

------------------------------------------------------------
# User input
#!/bin/bash
#BSUB -J intel
#BSUB -o BH-2.2-CCSD_T-G.out
#BSUB -n 8
#BSUB -q cqueue
#BSUB -R span[hosts=1]
export g16root=/apps/software
source /apps/software/g16/bsd/g16.profile
export GAUSS_SCRDIR=/scratch
/apps/software/g16/g16 < BH-2.2-CCSD_T-G.inp > BH-2.2-CCSD_T-G.out
------------------------------------------------------------

Successfully completed.

Resource usage summary:

    CPU time   :            7.27 sec.
    Max Memory :               216 MB
    Max Processes  :               5


The output (if any) follows:

