
                                        *****************
                                        * O   R   C   A *
                                        *****************

                                            #,                                       
                                            ###                                      
                                            ####                                     
                                            #####                                    
                                            ######                                   
                                           ########,                                 
                                     ,,################,,,,,                         
                               ,,#################################,,                 
                          ,,##########################################,,             
                       ,#########################################, ''#####,          
                    ,#############################################,,   '####,        
                  ,##################################################,,,,####,       
                ,###########''''           ''''###############################       
              ,#####''   ,,,,##########,,,,          '''####'''          '####       
            ,##' ,,,,###########################,,,                        '##       
           ' ,,###''''                  '''############,,,                           
         ,,##''                                '''############,,,,        ,,,,,,###''
      ,#''                                            '''#######################'''  
     '                                                          ''''####''''         
             ,#######,   #######,   ,#######,      ##                                
            ,#'     '#,  ##    ##  ,#'     '#,    #''#        ######   ,####,        
            ##       ##  ##   ,#'  ##            #'  '#       #        #'  '#        
            ##       ##  #######   ##           ,######,      #####,   #    #        
            '#,     ,#'  ##    ##  '#,     ,#' ,#      #,         ##   #,  ,#        
             '#######'   ##     ##  '#######'  #'      '#     #####' # '####'        



                  #######################################################
                  #                        -***-                        #
                  #          Department of theory and spectroscopy      #
                  #    Directorship and core code : Frank Neese         #
                  #        Max Planck Institute fuer Kohlenforschung    #
                  #                Kaiser Wilhelm Platz 1               #
                  #                 D-45470 Muelheim/Ruhr               #
                  #                      Germany                        #
                  #                                                     #
                  #                  All rights reserved                #
                  #                        -***-                        #
                  #######################################################


                         Program Version 5.0.0 -  RELEASE  -
                                (SVN: $Rev: 19529$)
                ($Date: 2021-06-28 11:36:33 +0200 (Mo, 28 Jun 2021) $)


 With contributions from (in alphabetic order):
   Daniel Aravena         : Magnetic Suceptibility
   Michael Atanasov       : Ab Initio Ligand Field Theory (pilot matlab implementation)
   Alexander A. Auer      : GIAO ZORA, VPT2 properties, NMR spectrum
   Ute Becker             : Parallelization
   Giovanni Bistoni       : ED, misc. LED, open-shell LED, HFLD
   Martin Brehm           : Molecular dynamics
   Dmytro Bykov           : SCF Hessian
   Vijay G. Chilkuri      : MRCI spin determinant printing, contributions to CSF-ICE
   Dipayan Datta          : RHF DLPNO-CCSD density
   Achintya Kumar Dutta   : EOM-CC, STEOM-CC
   Dmitry Ganyushin       : Spin-Orbit,Spin-Spin,Magnetic field MRCI
   Miquel Garcia          : C-PCM Hessian, Gaussian charge scheme
   Yang Guo               : DLPNO-NEVPT2, F12-NEVPT2, CIM, IAO-localization
   Andreas Hansen         : Spin unrestricted coupled pair/coupled cluster methods
   Benjamin Helmich-Paris : MC-RPA, TRAH-SCF, COSX integrals
   Lee Huntington         : MR-EOM, pCC
   Robert Izsak           : Overlap fitted RIJCOSX, COSX-SCS-MP3, EOM
   Marcus Kettner         : VPT2
   Christian Kollmar      : KDIIS, OOCD, Brueckner-CCSD(T), CCSD density, CASPT2, CASPT2-K
   Simone Kossmann        : Meta GGA functionals, TD-DFT gradient, OOMP2, MP2 Hessian
   Martin Krupicka        : Initial AUTO-CI
   Lucas Lang             : DCDCAS
   Marvin Lechner         : AUTO-CI (C++ implementation), FIC-MRCC
   Dagmar Lenk            : GEPOL surface, SMD
   Dimitrios Liakos       : Extrapolation schemes; Compound Job, initial MDCI parallelization
   Dimitrios Manganas     : Further ROCIS development; embedding schemes
   Dimitrios Pantazis     : SARC Basis sets
   Anastasios Papadopoulos: AUTO-CI, single reference methods and gradients
   Taras Petrenko         : DFT Hessian,TD-DFT gradient, ASA, ECA, R-Raman, ABS, FL, XAS/XES, NRVS
   Peter Pinski           : DLPNO-MP2, DLPNO-MP2 Gradient
   Christoph Reimann      : Effective Core Potentials
   Marius Retegan         : Local ZFS, SOC
   Christoph Riplinger    : Optimizer, TS searches, QM/MM, DLPNO-CCSD(T), (RO)-DLPNO pert. Triples
   Tobias Risthaus        : Range-separated hybrids, TD-DFT gradient, RPA, STAB
   Michael Roemelt        : Original ROCIS implementation
   Masaaki Saitow         : Open-shell DLPNO-CCSD energy and density
   Barbara Sandhoefer     : DKH picture change effects
   Avijit Sen             : IP-ROCIS
   Kantharuban Sivalingam : CASSCF convergence, NEVPT2, FIC-MRCI
   Bernardo de Souza      : ESD, SOC TD-DFT
   Georgi Stoychev        : AutoAux, RI-MP2 NMR
   Willem Van den Heuvel  : Paramagnetic NMR
   Boris Wezisla          : Elementary symmetry handling
   Frank Wennmohs         : Technical directorship


 We gratefully acknowledge several colleagues who have allowed us to
 interface, adapt or use parts of their codes:
   Stefan Grimme, W. Hujo, H. Kruse, P. Pracht,  : VdW corrections, initial TS optimization,
                  C. Bannwarth, S. Ehlert          DFT functionals, gCP, sTDA/sTD-DF
   Ed Valeev, F. Pavosevic, A. Kumar             : LibInt (2-el integral package), F12 methods
   Garnet Chan, S. Sharma, J. Yang, R. Olivares  : DMRG
   Ulf Ekstrom                                   : XCFun DFT Library
   Mihaly Kallay                                 : mrcc  (arbitrary order and MRCC methods)
   Jiri Pittner, Ondrej Demel                    : Mk-CCSD
   Frank Weinhold                                : gennbo (NPA and NBO analysis)
   Christopher J. Cramer and Donald G. Truhlar   : smd solvation model
   Lars Goerigk                                  : TD-DFT with DH, B97 family of functionals
   V. Asgeirsson, H. Jonsson                     : NEB implementation
   FAccTs GmbH                                   : IRC, NEB, NEB-TS, DLPNO-Multilevel, CI-OPT
                                                   MM, QMMM, 2- and 3-layer-ONIOM, Crystal-QMMM,
                                                   LR-CPCM, SF, NACMEs, symmetry and pop. for TD-DFT,
                                                   nearIR, NL-DFT gradient (VV10), updates on ESD,
                                                   ML-optimized integration grids
   S Lehtola, MJT Oliveira, MAL Marques          : LibXC Library
   Liviu Ungur et al                             : ANISO software


 Your calculation uses the libint2 library for the computation of 2-el integrals
 For citations please refer to: http://libint.valeyev.net

 Your ORCA version has been built with support for libXC version: 5.1.0
 For citations please refer to: https://tddft.org/programs/libxc/

 This ORCA versions uses:
   CBLAS   interface :  Fast vector & matrix operations
   LAPACKE interface :  Fast linear algebra routines
   SCALAPACK package :  Parallel linear algebra routines
   Shared memory     :  Shared parallel matrices
   BLAS/LAPACK       :  OpenBLAS 0.3.15  USE64BITINT DYNAMIC_ARCH NO_AFFINITY SkylakeX SINGLE_THREADED
        Core in use  :  SkylakeX
   Copyright (c) 2011-2014, The OpenBLAS Project


================================================================================

----- Orbital basis set information -----
Your calculation utilizes the basis: aug-cc-pVQZ 
    H, B-Ne : Obtained from the ccRepo (grant-hill.group.shef.ac.uk/ccrepo) Feb. 2017
              R. A. Kendall, T. H. Dunning, Jr., R. J. Harrison, J. Chem. Phys. 96, 6796 (1992)
         He : Obtained from the ccRepo (grant-hill.group.shef.ac.uk/ccrepo) Feb. 2017
              D. E. Woon, T. H. Dunning, Jr., J. Chem. Phys. 100, 2975 (1994)
  Li-Be, Na : Obtained from the ccRepo (grant-hill.group.shef.ac.uk/ccrepo) Feb. 2017
              B. P. Prascher, D. E. Woon, K. A. Peterson, T. H. Dunning, Jr., A. K. Wilson, Theor. Chem. Acc. 128, 69 (2011)
         Mg : Obtained from the Peterson Research Group Website (tyr0.chem.wsu.edu/~kipeters) Feb. 2017
              B. P. Prascher, D. E. Woon, K. A. Peterson, T. H. Dunning, Jr., A. K. Wilson, Theor. Chem. Acc. 128, 69 (2011)
      Al-Ar : Obtained from the ccRepo (grant-hill.group.shef.ac.uk/ccrepo) Feb. 2017
              D. E. Woon, T. H. Dunning, Jr., J. Chem. Phys. 98, 1358 (1993)
      Sc-Zn : Obtained from the ccRepo (grant-hill.group.shef.ac.uk/ccrepo) Feb. 2017
              N. B. Balabanov, K. A. Peterson, J. Chem. Phys. 123, 064107 (2005)
              N. B. Balabanov, K. A. Peterson, J. Chem. Phys. 125, 074110 (2006)
      Ga-Kr : Obtained from the ccRepo (grant-hill.group.shef.ac.uk/ccrepo) Feb. 2017
              A. K. Wilson, D. E. Woon, K. A. Peterson, T. H. Dunning, Jr., J. Chem. Phys. 110, 7667 (1999)

================================================================================
                                        WARNINGS
                       Please study these warnings very carefully!
================================================================================


WARNING: Post HF methods need fully converged wavefunctions
  ===> : Setting SCFConvForced true
         You can overwrite this default with %scf ConvForced false 


WARNING: MDCI localization with Augmented Hessian Foster-Boys
  ===> : Switching off randomization!

INFO   : the flag for use of the SHARK integral package has been found!

================================================================================
                                       INPUT FILE
================================================================================
NAME = /scratch/BH-3.2-CCSD_T-O_120/BH-3.2-CCSD_T-O.inp
|  1> ! RHF CCSD(T) aug-cc-pVQZ VeryTightSCF
|  2> 
|  3> *xyz 0 1
|  4>  B	0.0	0.0	0.0
|  5>  H	3.2	0.0	0.0
|  6> **                         ****END OF INPUT****
================================================================================

                       ****************************
                       * Single Point Calculation *
                       ****************************

---------------------------------
CARTESIAN COORDINATES (ANGSTROEM)
---------------------------------
  B      0.000000    0.000000    0.000000
  H      3.200000    0.000000    0.000000

----------------------------
CARTESIAN COORDINATES (A.U.)
----------------------------
  NO LB      ZA    FRAG     MASS         X           Y           Z
   0 B     5.0000    0    10.810    0.000000    0.000000    0.000000
   1 H     1.0000    0     1.008    6.047124    0.000000    0.000000

--------------------------------
INTERNAL COORDINATES (ANGSTROEM)
--------------------------------
 B      0   0   0     0.000000000000     0.00000000     0.00000000
 H      1   0   0     3.200000000000     0.00000000     0.00000000

---------------------------
INTERNAL COORDINATES (A.U.)
---------------------------
 B      0   0   0     0.000000000000     0.00000000     0.00000000
 H      1   0   0     6.047123628548     0.00000000     0.00000000

---------------------
BASIS SET INFORMATION
---------------------
There are 2 groups of distinct atoms

 Group   1 Type B   : 22s7p4d3f2g contracted to 6s5p4d3f2g pattern {991111/31111/1111/111/11}
 Group   2 Type H   : 7s4p3d2f contracted to 5s4p3d2f pattern {31111/1111/111/11}

Atom   0B    basis set group =>   1
Atom   1H    basis set group =>   2
------------------------------------------------------------------------------
                           ORCA GTO INTEGRAL CALCULATION
------------------------------------------------------------------------------
------------------------------------------------------------------------------
                   ___                                                        
                  /   \      - P O W E R E D   B Y -                         
                 /     \                                                     
                 |  |  |   _    _      __       _____    __    __             
                 |  |  |  | |  | |    /  \     |  _  \  |  |  /  |          
                  \  \/   | |  | |   /    \    | | | |  |  | /  /          
                 / \  \   | |__| |  /  /\  \   | |_| |  |  |/  /          
                |  |  |   |  __  | /  /__\  \  |    /   |      \           
                |  |  |   | |  | | |   __   |  |    \   |  |\   \          
                \     /   | |  | | |  |  |  |  | |\  \  |  | \   \       
                 \___/    |_|  |_| |__|  |__|  |_| \__\ |__|  \__/        
                                                                              
                      - O R C A' S   B I G   F R I E N D -                    
                                      &                                       
                       - I N T E G R A L  F E E D E R -                       
                                                                              
 v1 FN, 2020, v2 2021                                                         
------------------------------------------------------------------------------


Reading SHARK input file /scratch/BH-3.2-CCSD_T-O_120/BH-3.2-CCSD_T-O.SHARKINP.tmp ... ok
----------------------
SHARK INTEGRAL PACKAGE
----------------------

Number of atoms                             ...      2
Number of basis functions                   ...    126
Number of shells                            ...     34
Maximum angular momentum                    ...      4
Integral batch strategy                     ... SHARK/LIBINT Hybrid
RI-J (if used) integral strategy            ... SPLIT-RIJ (Revised 2003 algorithm where possible)
Printlevel                                  ...      1
Contraction scheme used                     ... SEGMENTED contraction
Coulomb Range Separation                    ... NOT USED
Exchange Range Separation                   ... NOT USED
Finite Nucleus Model                        ... NOT USED
Auxiliary Coulomb fitting basis             ... NOT available
Auxiliary J/K fitting basis                 ... NOT available
Auxiliary Correlation fitting basis         ... NOT available
Auxiliary 'external' fitting basis          ... NOT available
Integral threshold                          ...     1.000000e-12
Primitive cut-off                           ...     1.000000e-14
Primitive pair pre-selection threshold      ...     1.000000e-14

Calculating pre-screening integrals         ... done (  0.1 sec) Dimension = 34
Organizing shell pair data                  ... done (  0.0 sec)
Shell pair information
Total number of shell pairs                 ...       595
Shell pairs after pre-screening             ...       590
Total number of primitive shell pairs       ...      1563
Primitive shell pairs kept                  ...      1442
          la=0 lb=0:     64 shell pairs
          la=1 lb=0:     96 shell pairs
          la=1 lb=1:     45 shell pairs
          la=2 lb=0:     77 shell pairs
          la=2 lb=1:     63 shell pairs
          la=2 lb=2:     28 shell pairs
          la=3 lb=0:     55 shell pairs
          la=3 lb=1:     45 shell pairs
          la=3 lb=2:     35 shell pairs
          la=3 lb=3:     15 shell pairs
          la=4 lb=0:     22 shell pairs
          la=4 lb=1:     18 shell pairs
          la=4 lb=2:     14 shell pairs
          la=4 lb=3:     10 shell pairs
          la=4 lb=4:      3 shell pairs

Calculating one electron integrals          ... done (  0.0 sec)
Calculating Nuclear repulsion               ... done (  0.0 sec) ENN=      0.826839387969 Eh

SHARK setup successfully completed in   0.1 seconds

Maximum memory used throughout the entire GTOINT-calculation: 32.9 MB
-------------------------------------------------------------------------------
                                 ORCA SCF
-------------------------------------------------------------------------------

------------
SCF SETTINGS
------------
Hamiltonian:
 Ab initio Hamiltonian  Method          .... Hartree-Fock(GTOs)


General Settings:
 Integral files         IntName         .... /scratch/BH-3.2-CCSD_T-O_120/BH-3.2-CCSD_T-O
 Hartree-Fock type      HFTyp           .... RHF
 Total Charge           Charge          ....    0
 Multiplicity           Mult            ....    1
 Number of Electrons    NEL             ....    6
 Basis Dimension        Dim             ....  126
 Nuclear Repulsion      ENuc            ....      0.8268393880 Eh

Convergence Acceleration:
 DIIS                   CNVDIIS         .... on
   Start iteration      DIISMaxIt       ....    12
   Startup error        DIISStart       ....  0.200000
   # of expansion vecs  DIISMaxEq       ....     5
   Bias factor          DIISBfac        ....   1.050
   Max. coefficient     DIISMaxC        ....  10.000
 Trust-Rad. Augm. Hess. CNVTRAH         .... auto
   Auto Start mean grad. ratio tolernc. ....  1.125000
   Auto Start start iteration           ....    20
   Auto Start num. interpolation iter.  ....    10
   Max. Number of Micro iterations      ....    16
   Max. Number of Macro iterations      .... Maxiter - #DIIS iter
   Number of Davidson start vectors     ....     2
   Converg. threshold I  (grad. norm)   ....   2.000e-06
   Converg. threshold II (energy diff.) ....   1.000e-09
   Grad. Scal. Fac. for Micro threshold ....   0.100
   Minimum threshold for Micro iter.    ....   0.010
   NR start threshold (gradient norm)   ....   0.001
   Initial trust radius                 ....   0.400
   Minimum AH scaling param. (alpha)    ....   1.000
   Maximum AH scaling param. (alpha)    .... 1000.000
   Orbital update algorithm             .... Taylor
   White noise on init. David. guess    .... on
   Maximum white noise                  ....   0.010
   Quad. conv. algorithm                .... NR
 SOSCF                  CNVSOSCF        .... on
   Start iteration      SOSCFMaxIt      ....   150
   Startup grad/error   SOSCFStart      ....  0.003300
 Level Shifting         CNVShift        .... on
   Level shift para.    LevelShift      ....    0.2500
   Turn off err/grad.   ShiftErr        ....    0.0010
 Zerner damping         CNVZerner       .... off
 Static damping         CNVDamp         .... on
   Fraction old density DampFac         ....    0.7000
   Max. Damping (<1)    DampMax         ....    0.9800
   Min. Damping (>=0)   DampMin         ....    0.0000
   Turn off err/grad.   DampErr         ....    0.1000
 Fernandez-Rico         CNVRico         .... off

SCF Procedure:
 Maximum # iterations   MaxIter         ....   125
 SCF integral mode      SCFMode         .... Direct
   Integral package                     .... SHARK and LIBINT hybrid scheme
 Reset frequency        DirectResetFreq ....    20
 Integral Threshold     Thresh          ....  1.000e-12 Eh
 Primitive CutOff       TCut            ....  1.000e-14 Eh

Convergence Tolerance:
 Convergence Check Mode ConvCheckMode   .... Total+1el-Energy
 Convergence forced     ConvForced      .... 1
 Energy Change          TolE            ....  1.000e-09 Eh
 1-El. energy change                    ....  1.000e-06 Eh
 Orbital Gradient       TolG            ....  2.000e-06
 Orbital Rotation angle TolX            ....  2.000e-06
 DIIS Error             TolErr          ....  1.000e-08


Diagonalization of the overlap matrix:
Smallest eigenvalue                        ... 3.242e-03
Time for diagonalization                   ...    0.002 sec
Threshold for overlap eigenvalues          ... 1.000e-08
Number of eigenvalues below threshold      ... 0
Time for construction of square roots      ...    0.000 sec
Total time needed                          ...    0.002 sec

Time for model grid setup =    0.013 sec

------------------------------
INITIAL GUESS: MODEL POTENTIAL
------------------------------
Loading Hartree-Fock densities                     ... done
Calculating cut-offs                               ... done
Initializing the effective Hamiltonian             ... done
Setting up the integral package (SHARK)            ... done
Starting the Coulomb interaction                   ... done (   0.0 sec)
Reading the grid                                   ... done
Mapping shells                                     ... done
Starting the XC term evaluation                    ... done (   0.0 sec)
Transforming the Hamiltonian                       ... done (   0.0 sec)
Diagonalizing the Hamiltonian                      ... done (   0.0 sec)
Back transforming the eigenvectors                 ... done (   0.0 sec)
Now organizing SCF variables                       ... done
                      ------------------
                      INITIAL GUESS DONE (   0.0 sec)
                      ------------------
--------------
SCF ITERATIONS
--------------
ITER       Energy         Delta-E        Max-DP      RMS-DP      [F,P]     Damp
               ***  Starting incremental Fock matrix formation  ***
  0    -24.8543222745   0.000000000000 0.04459042  0.00084631  0.1781129 0.7000
  1    -24.8774951215  -0.023172847054 0.03998050  0.00079764  0.1344058 0.7000
                               ***Turning on DIIS***
  2    -24.8977729885  -0.020277867000 0.10653121  0.00211301  0.0970888 0.0000
  3    -24.9676326671  -0.069859678553 0.01829095  0.00033485  0.0215826 0.0000
  4    -24.9546861549   0.012946512185 0.00909586  0.00018346  0.0071813 0.0000
                      *** Initiating the SOSCF procedure ***
                           *** Shutting down DIIS ***
                      *** Re-Reading the Fockian *** 
                      *** Removing any level shift *** 
ITER      Energy       Delta-E        Grad      Rot      Max-DP    RMS-DP
  5    -24.94566443   0.0090217209  0.002817  0.002817  0.005405  0.000083
               *** Restarting incremental Fock matrix formation ***
  6    -24.94211228   0.0035521584  0.000883  0.001568  0.001912  0.000045
  7    -24.94212179  -0.0000095150  0.000328  0.001075  0.001335  0.000031
  8    -24.94212371  -0.0000019216  0.000086  0.000187  0.000189  0.000003
  9    -24.94212376  -0.0000000508  0.000011  0.000039  0.000045  0.000001
 10    -24.94212377  -0.0000000027  0.000003  0.000015  0.000009  0.000000
                 **** Energy Check signals convergence ****
              ***Rediagonalizing the Fockian in SOSCF/NRSCF***

               *****************************************************
               *                     SUCCESS                       *
               *           SCF CONVERGED AFTER  11 CYCLES          *
               *****************************************************


----------------
TOTAL SCF ENERGY
----------------

Total Energy       :          -24.94212377 Eh            -678.70969 eV

Components:
Nuclear Repulsion  :            0.82683939 Eh              22.49944 eV
Electronic Energy  :          -25.76896315 Eh            -701.20914 eV
One Electron Energy:          -34.07993235 Eh            -927.36211 eV
Two Electron Energy:            8.31096919 Eh             226.15297 eV

Virial components:
Potential Energy   :          -49.68841770 Eh           -1352.09058 eV
Kinetic Energy     :           24.74629394 Eh             673.38089 eV
Virial Ratio       :            2.00791350


---------------
SCF CONVERGENCE
---------------

  Last Energy change         ...   -2.3386e-10  Tolerance :   1.0000e-09
  Last MAX-Density change    ...    1.8165e-06  Tolerance :   1.0000e-08
  Last RMS-Density change    ...    2.7617e-08  Tolerance :   1.0000e-09
  Last Orbital Gradient      ...    3.9855e-07  Tolerance :   2.0000e-06
  Last Orbital Rotation      ...    1.0783e-06  Tolerance :   2.0000e-06

             **** THE GBW FILE WAS UPDATED (/scratch/BH-3.2-CCSD_T-O_120/BH-3.2-CCSD_T-O.gbw) ****
             **** DENSITY /scratch/BH-3.2-CCSD_T-O_120/BH-3.2-CCSD_T-O.scfp WAS UPDATED ****
             **** ENERGY FILE WAS UPDATED (/scratch/BH-3.2-CCSD_T-O_120/BH-3.2-CCSD_T-O.en.tmp) ****
             **** THE GBW FILE WAS UPDATED (/scratch/BH-3.2-CCSD_T-O_120/BH-3.2-CCSD_T-O.gbw) ****
             **** DENSITY /scratch/BH-3.2-CCSD_T-O_120/BH-3.2-CCSD_T-O.scfp WAS UPDATED ****
----------------
ORBITAL ENERGIES
----------------

  NO   OCC          E(Eh)            E(eV) 
   0   2.0000      -7.865800      -214.0393 
   1   2.0000      -0.597997       -16.2723 
   2   2.0000      -0.265200        -7.2165 
   3   0.0000      -0.034187        -0.9303 
   4   0.0000      -0.027118        -0.7379 
   5   0.0000      -0.027118        -0.7379 
   6   0.0000       0.030527         0.8307 
   7   0.0000       0.049336         1.3425 
   8   0.0000       0.049336         1.3425 
   9   0.0000       0.069626         1.8946 
  10   0.0000       0.087876         2.3912 
  11   0.0000       0.128954         3.5090 
  12   0.0000       0.128954         3.5090 
  13   0.0000       0.134888         3.6705 
  14   0.0000       0.134888         3.6705 
  15   0.0000       0.165880         4.5138 
  16   0.0000       0.250467         6.8155 
  17   0.0000       0.250467         6.8155 
  18   0.0000       0.276310         7.5188 
  19   0.0000       0.276310         7.5188 
  20   0.0000       0.277316         7.5462 
  21   0.0000       0.297641         8.0992 
  22   0.0000       0.337328         9.1792 
  23   0.0000       0.430666        11.7190 
  24   0.0000       0.430666        11.7190 
  25   0.0000       0.437548        11.9063 
  26   0.0000       0.437548        11.9063 
  27   0.0000       0.452235        12.3059 
  28   0.0000       0.452235        12.3059 
  29   0.0000       0.455662        12.3992 
  30   0.0000       0.455662        12.3992 
  31   0.0000       0.465428        12.6650 
  32   0.0000       0.492087        13.3904 
  33   0.0000       0.492087        13.3904 
  34   0.0000       0.517685        14.0869 
  35   0.0000       0.599239        16.3061 
  36   0.0000       0.704671        19.1751 
  37   0.0000       0.704671        19.1751 
  38   0.0000       0.811635        22.0857 
  39   0.0000       0.811635        22.0857 
  40   0.0000       0.884866        24.0784 
  41   0.0000       0.884866        24.0784 
  42   0.0000       0.904348        24.6086 
  43   0.0000       0.918681        24.9986 
  44   0.0000       0.962503        26.1910 
  45   0.0000       0.962503        26.1910 
  46   0.0000       1.085503        29.5380 
  47   0.0000       1.312460        35.7139 
  48   0.0000       1.314348        35.7652 
  49   0.0000       1.314348        35.7652 
  50   0.0000       1.321030        35.9470 
  51   0.0000       1.321030        35.9470 
  52   0.0000       1.324997        36.0550 
  53   0.0000       1.324997        36.0550 
  54   0.0000       1.327191        36.1147 
  55   0.0000       1.327191        36.1147 
  56   0.0000       1.337030        36.3824 
  57   0.0000       1.337030        36.3824 
  58   0.0000       1.341762        36.5112 
  59   0.0000       1.344461        36.5846 
  60   0.0000       1.344461        36.5846 
  61   0.0000       1.368669        37.2434 
  62   0.0000       1.368669        37.2434 
  63   0.0000       1.386972        37.7414 
  64   0.0000       1.386972        37.7414 
  65   0.0000       1.433665        39.0120 
  66   0.0000       1.457988        39.6739 
  67   0.0000       1.457988        39.6739 
  68   0.0000       1.640714        44.6461 
  69   0.0000       1.640714        44.6461 
  70   0.0000       1.665444        45.3190 
  71   0.0000       1.695752        46.1438 
  72   0.0000       1.695752        46.1438 
  73   0.0000       1.805697        49.1355 
  74   0.0000       1.874895        51.0185 
  75   0.0000       1.874895        51.0185 
  76   0.0000       1.948706        53.0270 
  77   0.0000       2.564544        69.7848 
  78   0.0000       2.564544        69.7848 
  79   0.0000       2.660352        72.3919 
  80   0.0000       2.660352        72.3919 
  81   0.0000       2.694232        73.3138 
  82   0.0000       2.694232        73.3138 
  83   0.0000       2.766479        75.2797 
  84   0.0000       2.876285        78.2677 
  85   0.0000       3.606206        98.1299 
  86   0.0000       3.606206        98.1299 
  87   0.0000       3.706692       100.8642 
  88   0.0000       3.823735       104.0491 
  89   0.0000       3.823735       104.0491 
  90   0.0000       3.832548       104.2889 
  91   0.0000       3.832548       104.2889 
  92   0.0000       3.836315       104.3914 
  93   0.0000       3.836315       104.3914 
  94   0.0000       3.848071       104.7113 
  95   0.0000       3.848071       104.7113 
  96   0.0000       3.856625       104.9441 
  97   0.0000       3.856625       104.9441 
  98   0.0000       3.870327       105.3169 
  99   0.0000       3.946969       107.4025 
 100   0.0000       3.946969       107.4025 
 101   0.0000       3.974700       108.1571 
 102   0.0000       3.974700       108.1571 
 103   0.0000       3.992400       108.6387 
 104   0.0000       3.992400       108.6387 
 105   0.0000       4.023332       109.4804 
 106   0.0000       4.023332       109.4804 
 107   0.0000       4.072855       110.8280 
 108   0.0000       4.155298       113.0714 
 109   0.0000       6.651140       180.9867 
 110   0.0000       6.651140       180.9867 
 111   0.0000       6.664241       181.3432 
 112   0.0000       6.664241       181.3432 
 113   0.0000       6.717057       182.7804 
 114   0.0000       6.717057       182.7804 
 115   0.0000       6.760699       183.9680 
 116   0.0000       7.591809       206.5836 
 117   0.0000       8.054467       219.1732 
 118   0.0000       8.054467       219.1732 
 119   0.0000       8.194378       222.9804 
 120   0.0000       8.496995       231.2150 
 121   0.0000       8.496995       231.2150 
 122   0.0000       8.556788       232.8420 
 123   0.0000       8.556788       232.8420 
 124   0.0000       8.655278       235.5221 
 125   0.0000      12.955128       352.5269 

                    ********************************
                    * MULLIKEN POPULATION ANALYSIS *
                    ********************************

-----------------------
MULLIKEN ATOMIC CHARGES
-----------------------
   0 B :    0.331018
   1 H :   -0.331018
Sum of atomic charges:    0.0000000

--------------------------------
MULLIKEN REDUCED ORBITAL CHARGES
--------------------------------
  0 B s       :     3.999346  s :     3.999346
      pz      :     0.000000  p :     0.642937
      px      :     0.642937
      py      :     0.000000
      dz2     :     0.006274  d :     0.025094
      dxz     :     0.000000
      dyz     :     0.000000
      dx2y2   :     0.018821
      dxy     :     0.000000
      f0      :     0.000000  f :     0.001543
      f+1     :     0.000578
      f-1     :     0.000000
      f+2     :     0.000000
      f-2     :     0.000000
      f+3     :     0.000964
      f-3     :     0.000000
      g0      :     0.000009  g :     0.000061
      g+1     :     0.000000
      g-1     :     0.000000
      g+2     :     0.000019
      g-2     :     0.000000
      g+3     :     0.000000
      g-3     :     0.000000
      g+4     :     0.000034
      g-4     :     0.000000
  1 H s       :     1.322059  s :     1.322059
      pz      :    -0.000000  p :     0.008363
      px      :     0.008363
      py      :    -0.000000
      dz2     :     0.000146  d :     0.000582
      dxz     :    -0.000000
      dyz     :     0.000000
      dx2y2   :     0.000437
      dxy     :    -0.000000
      f0      :    -0.000000  f :     0.000013
      f+1     :     0.000005
      f-1     :     0.000000
      f+2     :     0.000000
      f-2     :     0.000000
      f+3     :     0.000008
      f-3     :    -0.000000


                     *******************************
                     * LOEWDIN POPULATION ANALYSIS *
                     *******************************

----------------------
LOEWDIN ATOMIC CHARGES
----------------------
   0 B :    0.244870
   1 H :   -0.244870

-------------------------------
LOEWDIN REDUCED ORBITAL CHARGES
-------------------------------
  0 B s       :     3.980175  s :     3.980175
      pz      :     0.000000  p :     0.693174
      px      :     0.693174
      py      :     0.000000
      dz2     :     0.016500  d :     0.066001
      dxz     :     0.000000
      dyz     :     0.000000
      dx2y2   :     0.049500
      dxy     :     0.000000
      f0      :     0.000000  f :     0.015211
      f+1     :     0.005704
      f-1     :     0.000000
      f+2     :     0.000000
      f-2     :     0.000000
      f+3     :     0.009507
      f-3     :     0.000000
      g0      :     0.000080  g :     0.000569
      g+1     :     0.000000
      g-1     :     0.000000
      g+2     :     0.000178
      g-2     :     0.000000
      g+3     :     0.000000
      g-3     :     0.000000
      g+4     :     0.000311
      g-4     :     0.000000
  1 H s       :     1.211446  s :     1.211446
      pz      :     0.000000  p :     0.026387
      px      :     0.026387
      py      :     0.000000
      dz2     :     0.001615  d :     0.006462
      dxz     :     0.000000
      dyz     :     0.000000
      dx2y2   :     0.004846
      dxy     :     0.000000
      f0      :     0.000000  f :     0.000575
      f+1     :     0.000216
      f-1     :     0.000000
      f+2     :     0.000000
      f-2     :     0.000000
      f+3     :     0.000359
      f-3     :     0.000000


                      *****************************
                      * MAYER POPULATION ANALYSIS *
                      *****************************

  NA   - Mulliken gross atomic population
  ZA   - Total nuclear charge
  QA   - Mulliken gross atomic charge
  VA   - Mayer's total valence
  BVA  - Mayer's bonded valence
  FA   - Mayer's free valence

  ATOM       NA         ZA         QA         VA         BVA        FA
  0 B      4.6690     5.0000     0.3310     0.8963     0.8963     0.0000
  1 H      1.3310     1.0000    -0.3310     0.8963     0.8963    -0.0000

  Mayer bond orders larger than 0.100000
B(  0-B ,  1-H ) :   0.8963 

-------
TIMINGS
-------

Total SCF time: 0 days 0 hours 0 min 10 sec 

Total time                  ....      10.783 sec
Sum of individual times     ....      10.653 sec  ( 98.8%)

Fock matrix formation       ....      10.597 sec  ( 98.3%)
Diagonalization             ....       0.009 sec  (  0.1%)
Density matrix formation    ....       0.001 sec  (  0.0%)
Population analysis         ....       0.001 sec  (  0.0%)
Initial guess               ....       0.023 sec  (  0.2%)
Orbital Transformation      ....       0.000 sec  (  0.0%)
Orbital Orthonormalization  ....       0.000 sec  (  0.0%)
DIIS solution               ....       0.003 sec  (  0.0%)
SOSCF solution              ....       0.006 sec  (  0.1%)

Maximum memory used throughout the entire SCF-calculation: 256.9 MB


------------------------------------------------------------------------------- 
                              ORCA-MATRIX DRIVEN CI                            
------------------------------------------------------------------------------- 

--------------------------------
AUTOMATIC CHOICE OF INCORE LEVEL
--------------------------------

Memory available                           ...    256.00 MB
Memory needed for S+T                      ...      1.04 MB
Memory needed for J+K                      ...      2.08 MB
Memory needed for DIIS                     ...     14.54 MB
Memory needed for 3-ext                    ...     28.39 MB
Memory needed for 4-ext                    ...    880.23 MB
Memory needed for triples                  ...     70.99 MB
 -> Final InCoreLevel    ... 4
 -> check shows that triples correction can be computed


Wavefunction type
-----------------
Correlation treatment                      ...      CCSD     
Single excitations                         ... ON
Orbital optimization                       ... OFF
Calculation of Z vector                    ... OFF
Calculation of Brueckner orbitals          ... OFF
Perturbative triple excitations            ... ON
Calculation of F12 correction              ... OFF
Frozen core treatment                      ... chemical core (2 el)
Reference Wavefunction                     ... RHF
  Internal Orbitals:     1 ...    2 (  2 MO's/  4 electrons)
  Virtual  Orbitals:     3 ...  125 (123 MO's              )
Number of AO's                             ...    126
Number of electrons                        ...      6
Number of correlated electrons             ...      4

Algorithmic settings
--------------------
Integral transformation                    ... AO direct full transformation
K(C) Formation                             ... FULL-MO TRAFO
Maximum number of iterations               ...        50
Convergence tolerance (max. residuum)      ... 1.000e-06
Level shift for amplitude update           ... 2.000e-01
Maximum number of DIIS vectors             ...         7
DIIS turned on at iteration                ...         0
Damping before turning on DIIS             ...     0.500
Damping after turning on DIIS              ...     0.000
Pair specific amplitude update             ... OFF
Natural orbital iterations                 ... OFF
Perturbative natural orbital generation    ... OFF
Printlevel                                 ... 2

Memory handling:
----------------
Maximum memory for working arrays          ...    256 MB
Data storage in matrix containers          ... UNCOMPRESSED
Data type for integral storage             ... DOUBLE
In-Core Storage of quantities:
   Amplitudes+Sigma Vector      ... YES
   J+K operators                ... YES
   DIIS vectors                 ... YES
   3-external integrals         ... YES
   4-external integrals         ... NO


Initializing the integral package          ... done
Warning: reference  - re-canonicalizations have been set to INT 1 VIRT 1

--------------------------
CLOSED-SHELL FOCK OPERATOR
--------------------------

Restoring SHARK [2] ... ok
Recanonicalizing the internal orbitals
Recanonicalizing the virtual orbitals
Time needed for Fock operator              ...            1.134 sec
Reference energy                           ...    -24.942123766

------------------------------
PARTIAL COULOMB TRANSFORMATION
------------------------------

Transformation type                        ... one-operator
Dimension of the basis                     ...  126
Number of internal MOs                     ...  125 (1-125)
Pair cutoff                                ... 0.000e+00 Eh
Number of AO pairs included in the trafo   ... 8001
Total Number of distinct AO pairs          ... 8001
Memory devoted for trafo                   ...  256.0 MB 
Max. Number of MO pairs treated together   ... 4193      
Max. Number of MOs treated per batch       ...   33      
Number Format for Storage                  ... Double (8 Byte)
AO-integral source                         ... DIRECT
Integral package used                      ... LIBINT

Starting integral evaluation:
<ss|**>:        37568 b        0 skpd     0.070 s (  0.002 ms/b)
<sp|**>:        56352 b        0 skpd     0.128 s (  0.002 ms/b)
<sd|**>:        44025 b        0 skpd     0.176 s (  0.004 ms/b)
<sf|**>:        32285 b        0 skpd     0.219 s (  0.007 ms/b)
<sg|**>:        12914 b        0 skpd     0.157 s (  0.012 ms/b)
<pp|**>:        25828 b        0 skpd     0.134 s (  0.005 ms/b)
<pd|**>:        36981 b        0 skpd     0.328 s (  0.009 ms/b)
<pf|**>:        26415 b        0 skpd     0.351 s (  0.013 ms/b)
<pg|**>:        10566 b        0 skpd     0.212 s (  0.020 ms/b)
<dd|**>:        16436 b        0 skpd     0.241 s (  0.015 ms/b)
<df|**>:        20545 b        0 skpd     0.494 s (  0.024 ms/b)
<dg|**>:         8218 b        0 skpd     0.283 s (  0.034 ms/b)
<ff|**>:         8805 b        0 skpd     0.327 s (  0.037 ms/b)
<fg|**>:         5870 b        0 skpd     0.319 s (  0.054 ms/b)
<gg|**>:         1761 b        0 skpd     0.132 s (  0.075 ms/b)
Closing buffer AOJ ( 0.47 GB; CompressionRatio= 1.00)
Collecting buffer AOJ 
    ... done with AO integral generation
Number of MO pairs included in the trafo   ... 7875
    ... Now sorting integrals
IBATCH = 1 of  2
IBATCH = 2 of  2
Closing buffer JAO ( 0.47 GB; CompressionRatio= 1.00)
Collecting buffer JAO 
TOTAL TIME for half transformation         ...     6.813 sec
AO-integral generation                     ...     2.000 sec
Half transformation                        ...     1.575 sec
J-integral sorting                         ...     3.196 sec

-------------------------- SECOND HALF TRANSFORMATION -------------------------
Formation of (pq|rs)                       ... ok (     1.653 sec)
Integral sorting                           ... ok (     2.016 sec)

------------------
CLOSED SHELL GUESS
------------------

Initial guess performed in     0.000 sec
E(0)                                       ...    -24.942123766
E(MP2)                                     ...     -0.097800748
Initial E(tot)                             ...    -25.039924514
<T|T>                                      ...      0.101094911
Number of pairs included                   ... 3
Total number of pairs                      ... 3

------------------------------------------------
                  RHF COUPLED CLUSTER ITERATIONS
------------------------------------------------

Number of amplitudes to be optimized       ... 45633

Iter       E(tot)           E(Corr)          Delta-E          Residual     Time
  0    -25.039924514     -0.097800748      0.000000000      0.028566373    0.55
                           *** Turning on DIIS ***
  1    -25.053921306     -0.111797540     -0.013996792      0.038593448    1.77
  2    -25.067871541     -0.125747775     -0.013950235      0.029351926    1.75
  3    -25.082303406     -0.140179640     -0.014431865      0.022081926    1.73
  4    -25.089900041     -0.147776275     -0.007596635      0.013744367    1.85
  5    -25.094314934     -0.152191168     -0.004414894      0.006105525    1.87
  6    -25.096685253     -0.154561487     -0.002370319      0.001195984    1.78
  7    -25.096931199     -0.154807433     -0.000245946      0.000283301    1.79
  8    -25.096906074     -0.154782308      0.000025125      0.000098879    1.79
  9    -25.096932397     -0.154808631     -0.000026323      0.000038758    1.74
 10    -25.096925749     -0.154801983      0.000006648      0.000019624    1.76
 11    -25.096926514     -0.154802748     -0.000000766      0.000009740    1.86
 12    -25.096927136     -0.154803370     -0.000000622      0.000004758    1.82
 13    -25.096927437     -0.154803671     -0.000000301      0.000001848    1.76
 14    -25.096927251     -0.154803485      0.000000186      0.000000648    1.75
               --- The Coupled-Cluster iterations have converged ---

----------------------
COUPLED CLUSTER ENERGY
----------------------

E(0)                                       ...    -24.942123766
E(CORR)                                    ...     -0.154803485
E(TOT)                                     ...    -25.096927251
Singles Norm <S|S>**1/2                    ...      0.298825759  
T1 diagnostic                              ...      0.149412879  

------------------
LARGEST AMPLITUDES
------------------
   2->  3   2->  3       0.574284
   2->  3  -1-> -1       0.265025
   2->  3   2->  6       0.145834
   2->  6   2->  3       0.145834
   1->  4   1->  4       0.116263
   1->  5   1->  5       0.116263
   2->  3   2-> 15       0.086936
   2-> 15   2->  3       0.086936
   2->  3   2-> 34       0.072318
   2-> 34   2->  3       0.072318
   2-> 20  -1-> -1       0.068916
   2-> 10   2->  3       0.066760
   2->  3   2-> 10       0.066760
   2->  6  -1-> -1       0.056683
   2->  9  -1-> -1       0.050097
   2->  3   2-> 31       0.049728


        !!!!!!!!!!!!!!!!!!!!!!!!!!!!!!!!!!!!!!!!!!!!!!!!!!!!!!!!!!!!!!!!!!!!!!!!!! 
        !  Warning: Densities are linearized densities !                         !
        !!!!!!!!!!!!!!!!!!!!!!!!!!!!!!!!!!!!!!!!!!!!!!!!!!!!!!!!!!!!!!!!!!!!!!!!!! 

Trace of internal density part =     -1.207667347
Trace of external density part =      1.207667347
----------------------
RHF TRIPLES CORRECTION (Algorithm 1)
----------------------

Multiplier for the singles contribution    ...      1.000000000

10% done
20% done
30% done
40% done
50% done
60% done
70% done
80% done
90% done

Triples Correction (T)                     ...     -0.015858044
Scaling of triples based on CCSD energies (Peterson et al. Molecular Physics 113, 1551 (2015))
E(T*) = f*E(T) where f = E(F12-CCSD)/E(CCSD) 
f = CCSD (with F12)/ CCSD (without F12)    ...      1.000000000
Scaled triples correction (T)              ...     -0.015858044

Final correlation energy                   ...     -0.170661529
E(CCSD)                                    ...    -25.096927251
E(CCSD(T))                                 ...    -25.112785295

NORM  =      1.693130508 sqrt=     1.301203484
W(HF) =      0.590621925
------------------------------------------------------------------------------
                           ORCA POPULATION ANALYSIS
------------------------------------------------------------------------------
Input electron density              ... /scratch/BH-3.2-CCSD_T-O_120/BH-3.2-CCSD_T-O.mdcip
BaseName (.gbw .S,...)              ... /scratch/BH-3.2-CCSD_T-O_120/BH-3.2-CCSD_T-O

                    ********************************
                    * MULLIKEN POPULATION ANALYSIS *
                    ********************************

-----------------------
MULLIKEN ATOMIC CHARGES
-----------------------
   0 B :   -0.177241
   1 H :    0.177241
Sum of atomic charges:    0.0000000

--------------------------------
MULLIKEN REDUCED ORBITAL CHARGES
--------------------------------
  0 B s       :     3.865168  s :     3.865168
      pz      :     0.054325  p :     1.297209
      px      :     1.188560
      py      :     0.054325
      dz2     :     0.000898  d :     0.014653
      dxz     :     0.005648
      dyz     :     0.000233
      dx2y2   :     0.002227
      dxy     :     0.005648
      f0      :     0.000128  f :     0.000077
      f+1     :    -0.000231
      f-1     :     0.000039
      f+2     :     0.000199
      f-2     :     0.000115
      f+3     :    -0.000461
      f-3     :     0.000288
      g0      :     0.000007  g :     0.000134
      g+1     :     0.000025
      g-1     :     0.000004
      g+2     :     0.000006
      g-2     :     0.000013
      g+3     :     0.000021
      g-3     :     0.000015
      g+4     :     0.000009
      g-4     :     0.000033
  1 H s       :     0.818421  s :     0.818421
      pz      :     0.001139  p :     0.003040
      px      :     0.000762
      py      :     0.001139
      dz2     :     0.000231  d :     0.001228
      dxz     :     0.000163
      dyz     :     0.000020
      dx2y2   :     0.000652
      dxy     :     0.000163
      f0      :     0.000008  f :     0.000070
      f+1     :     0.000011
      f-1     :     0.000002
      f+2     :     0.000012
      f-2     :     0.000004
      f+3     :     0.000015
      f-3     :     0.000017


                     *******************************
                     * LOEWDIN POPULATION ANALYSIS *
                     *******************************

----------------------
LOEWDIN ATOMIC CHARGES
----------------------
   0 B :   -0.146001
   1 H :    0.146001

-------------------------------
LOEWDIN REDUCED ORBITAL CHARGES
-------------------------------
  0 B s       :     3.830640  s :     3.830640
      pz      :     0.054319  p :     1.257884
      px      :     1.149246
      py      :     0.054319
      dz2     :     0.007925  d :     0.042787
      dxz     :     0.005660
      dyz     :     0.000233
      dx2y2   :     0.023309
      dxy     :     0.005660
      f0      :     0.000137  f :     0.013799
      f+1     :     0.004898
      f-1     :     0.000040
      f+2     :     0.000214
      f-2     :     0.000115
      f+3     :     0.008086
      f-3     :     0.000310
      g0      :     0.000113  g :     0.000890
      g+1     :     0.000026
      g-1     :     0.000004
      g+2     :     0.000242
      g-2     :     0.000013
      g+3     :     0.000022
      g-3     :     0.000015
      g+4     :     0.000421
      g-4     :     0.000035
  1 H s       :     0.780494  s :     0.780494
      pz      :     0.001088  p :     0.053955
      px      :     0.051779
      py      :     0.001088
      dz2     :     0.004337  d :     0.017676
      dxz     :     0.000174
      dyz     :     0.000020
      dx2y2   :     0.012971
      dxy     :     0.000174
      f0      :     0.000011  f :     0.001873
      f+1     :     0.000681
      f-1     :     0.000003
      f+2     :     0.000017
      f-2     :     0.000004
      f+3     :     0.001133
      f-3     :     0.000025


                      *****************************
                      * MAYER POPULATION ANALYSIS *
                      *****************************

  NA   - Mulliken gross atomic population
  ZA   - Total nuclear charge
  QA   - Mulliken gross atomic charge
  VA   - Mayer's total valence
  BVA  - Mayer's bonded valence
  FA   - Mayer's free valence

  ATOM       NA         ZA         QA         VA         BVA        FA
  0 B      5.1772     5.0000    -0.1772     1.4079    -0.0177     1.4255
  1 H      0.8228     1.0000     0.1772     0.9014    -0.0177     0.9191

  Mayer bond orders larger than 0.100000




------------------------------------------------------------------------------- 
                                     TIMINGS                                   
------------------------------------------------------------------------------- 


Total execution time                   ...       37.677 sec

Fock Matrix Formation                  ...        1.134 sec (  3.0%)
Initial Guess                          ...        0.000 sec (  0.0%)
DIIS Solver                            ...        0.038 sec (  0.1%)
State Vector Update                    ...        0.001 sec (  0.0%)
Sigma-vector construction              ...       25.541 sec ( 67.8%)
  <0|H|D>                              ...        0.004 sec (  0.0% of sigma)
  <D|H|D>(0-ext)                       ...        0.009 sec (  0.0% of sigma)
  <D|H|D>(2-ext Fock)                  ...        0.007 sec (  0.0% of sigma)
  <D|H|D>(2-ext)                       ...        0.053 sec (  0.2% of sigma)
  <D|H|D>(4-ext)                       ...        6.296 sec ( 24.6% of sigma)
  <D|H|D>(4-ext-corr)                  ...        1.252 sec (  4.9% of sigma)
  <S|H|0>                              ...        0.002 sec (  0.0% of sigma)
  <S|H|S>                              ...        0.004 sec (  0.0% of sigma)
  <S|H|D>(1-ext)                       ...        0.006 sec (  0.0% of sigma)
  <D|H|S>(1-ext)                       ...        0.010 sec (  0.0% of sigma)
  <S|H|D>(3-ext)                       ...        0.200 sec (  0.8% of sigma)
  Fock-dressing                        ...       17.320 sec ( 67.8% of sigma)
  (ik|jl)-dressing                     ...        0.005 sec (  0.0% of sigma)
  (ij|ab),(ia|jb)-dressing             ...        0.313 sec (  1.2% of sigma)
  Pair energies                        ...        0.004 sec (  0.0% of sigma)
Total Time for computing (T)           ...        0.249 sec (  0.7% of ALL)
  I/O of integral and amplitudes       ...        0.034 sec ( 13.6% of (T))
  N**6 sorting step                    ...        0.058 sec ( 23.2% of (T))
  External N**7 contributions          ...        0.115 sec ( 46.3% of (T))
  Internal N**7 contributions          ...        0.012 sec (  5.0% of (T))
  N**6 triples energy contributions    ...        0.030 sec ( 12.0% of (T))
One-particle density matrix            ...        0.001 sec (  0.0%)


Maximum memory used throughout the entire MDCI-calculation: 400.0 MB

-------------------------   --------------------
FINAL SINGLE POINT ENERGY       -25.112785295447
-------------------------   --------------------


                            ***************************************
                            *     ORCA property calculations      *
                            ***************************************

                                    ---------------------
                                    Active property flags
                                    ---------------------
   (+) Dipole Moment


------------------------------------------------------------------------------
                       ORCA ELECTRIC PROPERTIES CALCULATION
------------------------------------------------------------------------------

Dipole Moment Calculation                       ... on
Quadrupole Moment Calculation                   ... off
Polarizability Calculation                      ... off
GBWName                                         ... /scratch/BH-3.2-CCSD_T-O_120/BH-3.2-CCSD_T-O.gbw
Electron density file                           ... /scratch/BH-3.2-CCSD_T-O_120/BH-3.2-CCSD_T-O.scfp
The origin for moment calculation is the CENTER OF MASS  = ( 0.515781,  0.000000  0.000000)

-------------
DIPOLE MOMENT
-------------
                                X             Y             Z
Electronic contribution:     -5.25844      -0.00000       0.00000
Nuclear contribution   :      2.95244       0.00000       0.00000
                        -----------------------------------------
Total Dipole Moment    :     -2.30600      -0.00000       0.00000
                        -----------------------------------------
Magnitude (a.u.)       :      2.30600
Magnitude (Debye)      :      5.86140



--------------------
Rotational spectrum 
--------------------
 
Rotational constants in cm-1:     0.000000     1.785479     1.785479 
Rotational constants in MHz :     0.000000 53527.308559 53527.308559 

 Dipole components along the rotational axes: 
x,y,z [a.u.] :    -2.306004    -0.000000     0.000000 
x,y,z [Debye]:    -5.861397    -0.000000     0.000000 

 

                           *** MDCI DENSITY ***

------------------------------------------------------------------------------
                       ORCA ELECTRIC PROPERTIES CALCULATION
------------------------------------------------------------------------------

Dipole Moment Calculation                       ... on
Quadrupole Moment Calculation                   ... off
Polarizability Calculation                      ... off
GBWName                                         ... /scratch/BH-3.2-CCSD_T-O_120/BH-3.2-CCSD_T-O.gbw
Electron density file                           ... /scratch/BH-3.2-CCSD_T-O_120/BH-3.2-CCSD_T-O.mdcip
The origin for moment calculation is the CENTER OF MASS  = ( 0.515781,  0.000000  0.000000)

-------------
DIPOLE MOMENT
-------------
                                X             Y             Z
Electronic contribution:     -1.82268      -0.00000      -0.00000
Nuclear contribution   :      2.95244       0.00000       0.00000
                        -----------------------------------------
Total Dipole Moment    :      1.12976      -0.00000      -0.00000
                        -----------------------------------------
Magnitude (a.u.)       :      1.12976
Magnitude (Debye)      :      2.87162



--------------------
Rotational spectrum 
--------------------
 
Rotational constants in cm-1:     0.000000     1.785479     1.785479 
Rotational constants in MHz :     0.000000 53527.308559 53527.308559 

 Dipole components along the rotational axes: 
x,y,z [a.u.] :     1.129760    -0.000000    -0.000000 
x,y,z [Debye]:     2.871621    -0.000000    -0.000000 

 

Timings for individual modules:

Sum of individual times         ...       48.768 sec (=   0.813 min)
GTO integral calculation        ...        0.128 sec (=   0.002 min)   0.3 %
SCF iterations                  ...       10.800 sec (=   0.180 min)  22.1 %
MDCI module                     ...       37.841 sec (=   0.631 min)  77.6 %
                             ****ORCA TERMINATED NORMALLY****
TOTAL RUN TIME: 0 days 0 hours 0 minutes 48 seconds 906 msec

Sender: Unischeduler System <lcz@mgt01>
Subject: Job 134130: <#!/bin/bash
#BSUB -J intel
#BSUB -o BH-3.2-CCSD_T-O.out
#BSUB -n 1
#BSUB -q cqueue
export LD_LIBRARY_PATH=/apps/software/openmpi-4.1.1/lib:/apps/software/orca_5_0_0:$LD_LIBRARY_PATH
export PATH=/apps/software/openmpi-4.1.1/bin:/apps/software/orca_5_0_0:$PATH
mkdir /scratch/BH-3.2-CCSD_T-O_120
scp $USER@mgt01:/apps/users/lcz/exe13/CCSD_T/BH-3.2-CCSD_T-O.inp /scratch/BH-3.2-CCSD_T-O_120
/apps/software/orca_5_0_0/orca /scratch/BH-3.2-CCSD_T-O_120/BH-3.2-CCSD_T-O.inp >& BH-3.2-CCSD_T-O.out
scp /scratch/BH-3.2-CCSD_T-O_120/*.gbw $USER@mgt01:/apps/users/lcz/exe13/CCSD_T
scp /scratch/BH-3.2-CCSD_T-O_120/*.xyz $USER@mgt01:/apps/users/lcz/exe13/CCSD_T
scp /scratch/BH-3.2-CCSD_T-O_120/*.trj $USER@mgt01:/apps/users/lcz/exe13/CCSD_T> Exited

Job <#!/bin/bash
#BSUB -J intel
#BSUB -o BH-3.2-CCSD_T-O.out
#BSUB -n 1
#BSUB -q cqueue
export LD_LIBRARY_PATH=/apps/software/openmpi-4.1.1/lib:/apps/software/orca_5_0_0:$LD_LIBRARY_PATH
export PATH=/apps/software/openmpi-4.1.1/bin:/apps/software/orca_5_0_0:$PATH
mkdir /scratch/BH-3.2-CCSD_T-O_120
scp $USER@mgt01:/apps/users/lcz/exe13/CCSD_T/BH-3.2-CCSD_T-O.inp /scratch/BH-3.2-CCSD_T-O_120
/apps/software/orca_5_0_0/orca /scratch/BH-3.2-CCSD_T-O_120/BH-3.2-CCSD_T-O.inp >& BH-3.2-CCSD_T-O.out
scp /scratch/BH-3.2-CCSD_T-O_120/*.gbw $USER@mgt01:/apps/users/lcz/exe13/CCSD_T
scp /scratch/BH-3.2-CCSD_T-O_120/*.xyz $USER@mgt01:/apps/users/lcz/exe13/CCSD_T
scp /scratch/BH-3.2-CCSD_T-O_120/*.trj $USER@mgt01:/apps/users/lcz/exe13/CCSD_T> was submitted from host <mgt01> by user <lcz>.
Job was executed on host(s) <1*cnode13>, in queue <cqueue>, as user <lcz>.
</apps/users/lcz> was used as the home directory.
</apps/users/lcz/exe13/CCSD_T> was used as the working directory.
Started at 2022-05-22 16:54:19
Results reported at 2022-05-22 16:55:09

Your job looked like:

------------------------------------------------------------
# User input
#!/bin/bash
#BSUB -J intel
#BSUB -o BH-3.2-CCSD_T-O.out
#BSUB -n 1
#BSUB -q cqueue
export LD_LIBRARY_PATH=/apps/software/openmpi-4.1.1/lib:/apps/software/orca_5_0_0:$LD_LIBRARY_PATH
export PATH=/apps/software/openmpi-4.1.1/bin:/apps/software/orca_5_0_0:$PATH
mkdir /scratch/BH-3.2-CCSD_T-O_120
scp $USER@mgt01:/apps/users/lcz/exe13/CCSD_T/BH-3.2-CCSD_T-O.inp /scratch/BH-3.2-CCSD_T-O_120
/apps/software/orca_5_0_0/orca /scratch/BH-3.2-CCSD_T-O_120/BH-3.2-CCSD_T-O.inp >& BH-3.2-CCSD_T-O.out
scp /scratch/BH-3.2-CCSD_T-O_120/*.gbw $USER@mgt01:/apps/users/lcz/exe13/CCSD_T
scp /scratch/BH-3.2-CCSD_T-O_120/*.xyz $USER@mgt01:/apps/users/lcz/exe13/CCSD_T
scp /scratch/BH-3.2-CCSD_T-O_120/*.trj $USER@mgt01:/apps/users/lcz/exe13/CCSD_T
------------------------------------------------------------

Exited with exit code 1.

Resource usage summary:

    CPU time   :           39.84 sec.
    Max Memory :               325 MB
    Max Processes  :               5


The output (if any) follows:

/scratch/BH-3.2-CCSD_T-O_120/*.xyz: No such file or directory
/scratch/BH-3.2-CCSD_T-O_120/*.trj: No such file or directory
