
                                        *****************
                                        * O   R   C   A *
                                        *****************

                                            #,                                       
                                            ###                                      
                                            ####                                     
                                            #####                                    
                                            ######                                   
                                           ########,                                 
                                     ,,################,,,,,                         
                               ,,#################################,,                 
                          ,,##########################################,,             
                       ,#########################################, ''#####,          
                    ,#############################################,,   '####,        
                  ,##################################################,,,,####,       
                ,###########''''           ''''###############################       
              ,#####''   ,,,,##########,,,,          '''####'''          '####       
            ,##' ,,,,###########################,,,                        '##       
           ' ,,###''''                  '''############,,,                           
         ,,##''                                '''############,,,,        ,,,,,,###''
      ,#''                                            '''#######################'''  
     '                                                          ''''####''''         
             ,#######,   #######,   ,#######,      ##                                
            ,#'     '#,  ##    ##  ,#'     '#,    #''#        ######   ,####,        
            ##       ##  ##   ,#'  ##            #'  '#       #        #'  '#        
            ##       ##  #######   ##           ,######,      #####,   #    #        
            '#,     ,#'  ##    ##  '#,     ,#' ,#      #,         ##   #,  ,#        
             '#######'   ##     ##  '#######'  #'      '#     #####' # '####'        



                  #######################################################
                  #                        -***-                        #
                  #          Department of theory and spectroscopy      #
                  #    Directorship and core code : Frank Neese         #
                  #        Max Planck Institute fuer Kohlenforschung    #
                  #                Kaiser Wilhelm Platz 1               #
                  #                 D-45470 Muelheim/Ruhr               #
                  #                      Germany                        #
                  #                                                     #
                  #                  All rights reserved                #
                  #                        -***-                        #
                  #######################################################


                         Program Version 5.0.0 -  RELEASE  -
                                (SVN: $Rev: 19529$)
                ($Date: 2021-06-28 11:36:33 +0200 (Mo, 28 Jun 2021) $)


 With contributions from (in alphabetic order):
   Daniel Aravena         : Magnetic Suceptibility
   Michael Atanasov       : Ab Initio Ligand Field Theory (pilot matlab implementation)
   Alexander A. Auer      : GIAO ZORA, VPT2 properties, NMR spectrum
   Ute Becker             : Parallelization
   Giovanni Bistoni       : ED, misc. LED, open-shell LED, HFLD
   Martin Brehm           : Molecular dynamics
   Dmytro Bykov           : SCF Hessian
   Vijay G. Chilkuri      : MRCI spin determinant printing, contributions to CSF-ICE
   Dipayan Datta          : RHF DLPNO-CCSD density
   Achintya Kumar Dutta   : EOM-CC, STEOM-CC
   Dmitry Ganyushin       : Spin-Orbit,Spin-Spin,Magnetic field MRCI
   Miquel Garcia          : C-PCM Hessian, Gaussian charge scheme
   Yang Guo               : DLPNO-NEVPT2, F12-NEVPT2, CIM, IAO-localization
   Andreas Hansen         : Spin unrestricted coupled pair/coupled cluster methods
   Benjamin Helmich-Paris : MC-RPA, TRAH-SCF, COSX integrals
   Lee Huntington         : MR-EOM, pCC
   Robert Izsak           : Overlap fitted RIJCOSX, COSX-SCS-MP3, EOM
   Marcus Kettner         : VPT2
   Christian Kollmar      : KDIIS, OOCD, Brueckner-CCSD(T), CCSD density, CASPT2, CASPT2-K
   Simone Kossmann        : Meta GGA functionals, TD-DFT gradient, OOMP2, MP2 Hessian
   Martin Krupicka        : Initial AUTO-CI
   Lucas Lang             : DCDCAS
   Marvin Lechner         : AUTO-CI (C++ implementation), FIC-MRCC
   Dagmar Lenk            : GEPOL surface, SMD
   Dimitrios Liakos       : Extrapolation schemes; Compound Job, initial MDCI parallelization
   Dimitrios Manganas     : Further ROCIS development; embedding schemes
   Dimitrios Pantazis     : SARC Basis sets
   Anastasios Papadopoulos: AUTO-CI, single reference methods and gradients
   Taras Petrenko         : DFT Hessian,TD-DFT gradient, ASA, ECA, R-Raman, ABS, FL, XAS/XES, NRVS
   Peter Pinski           : DLPNO-MP2, DLPNO-MP2 Gradient
   Christoph Reimann      : Effective Core Potentials
   Marius Retegan         : Local ZFS, SOC
   Christoph Riplinger    : Optimizer, TS searches, QM/MM, DLPNO-CCSD(T), (RO)-DLPNO pert. Triples
   Tobias Risthaus        : Range-separated hybrids, TD-DFT gradient, RPA, STAB
   Michael Roemelt        : Original ROCIS implementation
   Masaaki Saitow         : Open-shell DLPNO-CCSD energy and density
   Barbara Sandhoefer     : DKH picture change effects
   Avijit Sen             : IP-ROCIS
   Kantharuban Sivalingam : CASSCF convergence, NEVPT2, FIC-MRCI
   Bernardo de Souza      : ESD, SOC TD-DFT
   Georgi Stoychev        : AutoAux, RI-MP2 NMR
   Willem Van den Heuvel  : Paramagnetic NMR
   Boris Wezisla          : Elementary symmetry handling
   Frank Wennmohs         : Technical directorship


 We gratefully acknowledge several colleagues who have allowed us to
 interface, adapt or use parts of their codes:
   Stefan Grimme, W. Hujo, H. Kruse, P. Pracht,  : VdW corrections, initial TS optimization,
                  C. Bannwarth, S. Ehlert          DFT functionals, gCP, sTDA/sTD-DF
   Ed Valeev, F. Pavosevic, A. Kumar             : LibInt (2-el integral package), F12 methods
   Garnet Chan, S. Sharma, J. Yang, R. Olivares  : DMRG
   Ulf Ekstrom                                   : XCFun DFT Library
   Mihaly Kallay                                 : mrcc  (arbitrary order and MRCC methods)
   Jiri Pittner, Ondrej Demel                    : Mk-CCSD
   Frank Weinhold                                : gennbo (NPA and NBO analysis)
   Christopher J. Cramer and Donald G. Truhlar   : smd solvation model
   Lars Goerigk                                  : TD-DFT with DH, B97 family of functionals
   V. Asgeirsson, H. Jonsson                     : NEB implementation
   FAccTs GmbH                                   : IRC, NEB, NEB-TS, DLPNO-Multilevel, CI-OPT
                                                   MM, QMMM, 2- and 3-layer-ONIOM, Crystal-QMMM,
                                                   LR-CPCM, SF, NACMEs, symmetry and pop. for TD-DFT,
                                                   nearIR, NL-DFT gradient (VV10), updates on ESD,
                                                   ML-optimized integration grids
   S Lehtola, MJT Oliveira, MAL Marques          : LibXC Library
   Liviu Ungur et al                             : ANISO software


 Your calculation uses the libint2 library for the computation of 2-el integrals
 For citations please refer to: http://libint.valeyev.net

 Your ORCA version has been built with support for libXC version: 5.1.0
 For citations please refer to: https://tddft.org/programs/libxc/

 This ORCA versions uses:
   CBLAS   interface :  Fast vector & matrix operations
   LAPACKE interface :  Fast linear algebra routines
   SCALAPACK package :  Parallel linear algebra routines
   Shared memory     :  Shared parallel matrices
   BLAS/LAPACK       :  OpenBLAS 0.3.15  USE64BITINT DYNAMIC_ARCH NO_AFFINITY SkylakeX SINGLE_THREADED
        Core in use  :  SkylakeX
   Copyright (c) 2011-2014, The OpenBLAS Project


================================================================================

----- Orbital basis set information -----
Your calculation utilizes the basis: aug-cc-pVQZ 
    H, B-Ne : Obtained from the ccRepo (grant-hill.group.shef.ac.uk/ccrepo) Feb. 2017
              R. A. Kendall, T. H. Dunning, Jr., R. J. Harrison, J. Chem. Phys. 96, 6796 (1992)
         He : Obtained from the ccRepo (grant-hill.group.shef.ac.uk/ccrepo) Feb. 2017
              D. E. Woon, T. H. Dunning, Jr., J. Chem. Phys. 100, 2975 (1994)
  Li-Be, Na : Obtained from the ccRepo (grant-hill.group.shef.ac.uk/ccrepo) Feb. 2017
              B. P. Prascher, D. E. Woon, K. A. Peterson, T. H. Dunning, Jr., A. K. Wilson, Theor. Chem. Acc. 128, 69 (2011)
         Mg : Obtained from the Peterson Research Group Website (tyr0.chem.wsu.edu/~kipeters) Feb. 2017
              B. P. Prascher, D. E. Woon, K. A. Peterson, T. H. Dunning, Jr., A. K. Wilson, Theor. Chem. Acc. 128, 69 (2011)
      Al-Ar : Obtained from the ccRepo (grant-hill.group.shef.ac.uk/ccrepo) Feb. 2017
              D. E. Woon, T. H. Dunning, Jr., J. Chem. Phys. 98, 1358 (1993)
      Sc-Zn : Obtained from the ccRepo (grant-hill.group.shef.ac.uk/ccrepo) Feb. 2017
              N. B. Balabanov, K. A. Peterson, J. Chem. Phys. 123, 064107 (2005)
              N. B. Balabanov, K. A. Peterson, J. Chem. Phys. 125, 074110 (2006)
      Ga-Kr : Obtained from the ccRepo (grant-hill.group.shef.ac.uk/ccrepo) Feb. 2017
              A. K. Wilson, D. E. Woon, K. A. Peterson, T. H. Dunning, Jr., J. Chem. Phys. 110, 7667 (1999)

================================================================================
                                        WARNINGS
                       Please study these warnings very carefully!
================================================================================


WARNING: Post HF methods need fully converged wavefunctions
  ===> : Setting SCFConvForced true
         You can overwrite this default with %scf ConvForced false 


WARNING: MDCI localization with Augmented Hessian Foster-Boys
  ===> : Switching off randomization!

INFO   : the flag for use of the SHARK integral package has been found!

================================================================================
                                       INPUT FILE
================================================================================
NAME = /scratch/BH-3.0-CCSD_T-O_594/BH-3.0-CCSD_T-O.inp
|  1> ! RHF CCSD(T) aug-cc-pVQZ VeryTightSCF
|  2> 
|  3> *xyz 0 1
|  4>  B	0.0	0.0	0.0
|  5>  H	3.0	0.0	0.0
|  6> **                         ****END OF INPUT****
================================================================================

                       ****************************
                       * Single Point Calculation *
                       ****************************

---------------------------------
CARTESIAN COORDINATES (ANGSTROEM)
---------------------------------
  B      0.000000    0.000000    0.000000
  H      3.000000    0.000000    0.000000

----------------------------
CARTESIAN COORDINATES (A.U.)
----------------------------
  NO LB      ZA    FRAG     MASS         X           Y           Z
   0 B     5.0000    0    10.810    0.000000    0.000000    0.000000
   1 H     1.0000    0     1.008    5.669178    0.000000    0.000000

--------------------------------
INTERNAL COORDINATES (ANGSTROEM)
--------------------------------
 B      0   0   0     0.000000000000     0.00000000     0.00000000
 H      1   0   0     3.000000000000     0.00000000     0.00000000

---------------------------
INTERNAL COORDINATES (A.U.)
---------------------------
 B      0   0   0     0.000000000000     0.00000000     0.00000000
 H      1   0   0     5.669178401764     0.00000000     0.00000000

---------------------
BASIS SET INFORMATION
---------------------
There are 2 groups of distinct atoms

 Group   1 Type B   : 22s7p4d3f2g contracted to 6s5p4d3f2g pattern {991111/31111/1111/111/11}
 Group   2 Type H   : 7s4p3d2f contracted to 5s4p3d2f pattern {31111/1111/111/11}

Atom   0B    basis set group =>   1
Atom   1H    basis set group =>   2
------------------------------------------------------------------------------
                           ORCA GTO INTEGRAL CALCULATION
------------------------------------------------------------------------------
------------------------------------------------------------------------------
                   ___                                                        
                  /   \      - P O W E R E D   B Y -                         
                 /     \                                                     
                 |  |  |   _    _      __       _____    __    __             
                 |  |  |  | |  | |    /  \     |  _  \  |  |  /  |          
                  \  \/   | |  | |   /    \    | | | |  |  | /  /          
                 / \  \   | |__| |  /  /\  \   | |_| |  |  |/  /          
                |  |  |   |  __  | /  /__\  \  |    /   |      \           
                |  |  |   | |  | | |   __   |  |    \   |  |\   \          
                \     /   | |  | | |  |  |  |  | |\  \  |  | \   \       
                 \___/    |_|  |_| |__|  |__|  |_| \__\ |__|  \__/        
                                                                              
                      - O R C A' S   B I G   F R I E N D -                    
                                      &                                       
                       - I N T E G R A L  F E E D E R -                       
                                                                              
 v1 FN, 2020, v2 2021                                                         
------------------------------------------------------------------------------


Reading SHARK input file /scratch/BH-3.0-CCSD_T-O_594/BH-3.0-CCSD_T-O.SHARKINP.tmp ... ok
----------------------
SHARK INTEGRAL PACKAGE
----------------------

Number of atoms                             ...      2
Number of basis functions                   ...    126
Number of shells                            ...     34
Maximum angular momentum                    ...      4
Integral batch strategy                     ... SHARK/LIBINT Hybrid
RI-J (if used) integral strategy            ... SPLIT-RIJ (Revised 2003 algorithm where possible)
Printlevel                                  ...      1
Contraction scheme used                     ... SEGMENTED contraction
Coulomb Range Separation                    ... NOT USED
Exchange Range Separation                   ... NOT USED
Finite Nucleus Model                        ... NOT USED
Auxiliary Coulomb fitting basis             ... NOT available
Auxiliary J/K fitting basis                 ... NOT available
Auxiliary Correlation fitting basis         ... NOT available
Auxiliary 'external' fitting basis          ... NOT available
Integral threshold                          ...     1.000000e-12
Primitive cut-off                           ...     1.000000e-14
Primitive pair pre-selection threshold      ...     1.000000e-14

Calculating pre-screening integrals         ... done (  0.1 sec) Dimension = 34
Organizing shell pair data                  ... done (  0.0 sec)
Shell pair information
Total number of shell pairs                 ...       595
Shell pairs after pre-screening             ...       593
Total number of primitive shell pairs       ...      1563
Primitive shell pairs kept                  ...      1449
          la=0 lb=0:     64 shell pairs
          la=1 lb=0:     99 shell pairs
          la=1 lb=1:     45 shell pairs
          la=2 lb=0:     77 shell pairs
          la=2 lb=1:     63 shell pairs
          la=2 lb=2:     28 shell pairs
          la=3 lb=0:     55 shell pairs
          la=3 lb=1:     45 shell pairs
          la=3 lb=2:     35 shell pairs
          la=3 lb=3:     15 shell pairs
          la=4 lb=0:     22 shell pairs
          la=4 lb=1:     18 shell pairs
          la=4 lb=2:     14 shell pairs
          la=4 lb=3:     10 shell pairs
          la=4 lb=4:      3 shell pairs

Calculating one electron integrals          ... done (  0.0 sec)
Calculating Nuclear repulsion               ... done (  0.0 sec) ENN=      0.881962013833 Eh

SHARK setup successfully completed in   0.1 seconds

Maximum memory used throughout the entire GTOINT-calculation: 33.0 MB
-------------------------------------------------------------------------------
                                 ORCA SCF
-------------------------------------------------------------------------------

------------
SCF SETTINGS
------------
Hamiltonian:
 Ab initio Hamiltonian  Method          .... Hartree-Fock(GTOs)


General Settings:
 Integral files         IntName         .... /scratch/BH-3.0-CCSD_T-O_594/BH-3.0-CCSD_T-O
 Hartree-Fock type      HFTyp           .... RHF
 Total Charge           Charge          ....    0
 Multiplicity           Mult            ....    1
 Number of Electrons    NEL             ....    6
 Basis Dimension        Dim             ....  126
 Nuclear Repulsion      ENuc            ....      0.8819620138 Eh

Convergence Acceleration:
 DIIS                   CNVDIIS         .... on
   Start iteration      DIISMaxIt       ....    12
   Startup error        DIISStart       ....  0.200000
   # of expansion vecs  DIISMaxEq       ....     5
   Bias factor          DIISBfac        ....   1.050
   Max. coefficient     DIISMaxC        ....  10.000
 Trust-Rad. Augm. Hess. CNVTRAH         .... auto
   Auto Start mean grad. ratio tolernc. ....  1.125000
   Auto Start start iteration           ....    20
   Auto Start num. interpolation iter.  ....    10
   Max. Number of Micro iterations      ....    16
   Max. Number of Macro iterations      .... Maxiter - #DIIS iter
   Number of Davidson start vectors     ....     2
   Converg. threshold I  (grad. norm)   ....   2.000e-06
   Converg. threshold II (energy diff.) ....   1.000e-09
   Grad. Scal. Fac. for Micro threshold ....   0.100
   Minimum threshold for Micro iter.    ....   0.010
   NR start threshold (gradient norm)   ....   0.001
   Initial trust radius                 ....   0.400
   Minimum AH scaling param. (alpha)    ....   1.000
   Maximum AH scaling param. (alpha)    .... 1000.000
   Orbital update algorithm             .... Taylor
   White noise on init. David. guess    .... on
   Maximum white noise                  ....   0.010
   Quad. conv. algorithm                .... NR
 SOSCF                  CNVSOSCF        .... on
   Start iteration      SOSCFMaxIt      ....   150
   Startup grad/error   SOSCFStart      ....  0.003300
 Level Shifting         CNVShift        .... on
   Level shift para.    LevelShift      ....    0.2500
   Turn off err/grad.   ShiftErr        ....    0.0010
 Zerner damping         CNVZerner       .... off
 Static damping         CNVDamp         .... on
   Fraction old density DampFac         ....    0.7000
   Max. Damping (<1)    DampMax         ....    0.9800
   Min. Damping (>=0)   DampMin         ....    0.0000
   Turn off err/grad.   DampErr         ....    0.1000
 Fernandez-Rico         CNVRico         .... off

SCF Procedure:
 Maximum # iterations   MaxIter         ....   125
 SCF integral mode      SCFMode         .... Direct
   Integral package                     .... SHARK and LIBINT hybrid scheme
 Reset frequency        DirectResetFreq ....    20
 Integral Threshold     Thresh          ....  1.000e-12 Eh
 Primitive CutOff       TCut            ....  1.000e-14 Eh

Convergence Tolerance:
 Convergence Check Mode ConvCheckMode   .... Total+1el-Energy
 Convergence forced     ConvForced      .... 1
 Energy Change          TolE            ....  1.000e-09 Eh
 1-El. energy change                    ....  1.000e-06 Eh
 Orbital Gradient       TolG            ....  2.000e-06
 Orbital Rotation angle TolX            ....  2.000e-06
 DIIS Error             TolErr          ....  1.000e-08


Diagonalization of the overlap matrix:
Smallest eigenvalue                        ... 2.276e-03
Time for diagonalization                   ...    0.002 sec
Threshold for overlap eigenvalues          ... 1.000e-08
Number of eigenvalues below threshold      ... 0
Time for construction of square roots      ...    0.000 sec
Total time needed                          ...    0.002 sec

Time for model grid setup =    0.014 sec

------------------------------
INITIAL GUESS: MODEL POTENTIAL
------------------------------
Loading Hartree-Fock densities                     ... done
Calculating cut-offs                               ... done
Initializing the effective Hamiltonian             ... done
Setting up the integral package (SHARK)            ... done
Starting the Coulomb interaction                   ... done (   0.0 sec)
Reading the grid                                   ... done
Mapping shells                                     ... done
Starting the XC term evaluation                    ... done (   0.0 sec)
Transforming the Hamiltonian                       ... done (   0.0 sec)
Diagonalizing the Hamiltonian                      ... done (   0.0 sec)
Back transforming the eigenvectors                 ... done (   0.0 sec)
Now organizing SCF variables                       ... done
                      ------------------
                      INITIAL GUESS DONE (   0.0 sec)
                      ------------------
--------------
SCF ITERATIONS
--------------
ITER       Energy         Delta-E        Max-DP      RMS-DP      [F,P]     Damp
               ***  Starting incremental Fock matrix formation  ***
  0    -24.8788622705   0.000000000000 0.04443029  0.00080510  0.1657492 0.7000
  1    -24.8998246163  -0.020962345866 0.03665648  0.00074512  0.1310753 0.7000
                               ***Turning on DIIS***
  2    -24.9173112548  -0.017486638443 0.09685682  0.00193854  0.0957640 0.0000
  3    -24.9759867825  -0.058675527757 0.01626425  0.00029617  0.0193013 0.0000
  4    -24.9665139237   0.009472858833 0.00719651  0.00015710  0.0065590 0.0000
                      *** Initiating the SOSCF procedure ***
                           *** Shutting down DIIS ***
                      *** Re-Reading the Fockian *** 
                      *** Removing any level shift *** 
ITER      Energy       Delta-E        Grad      Rot      Max-DP    RMS-DP
  5    -24.95850930   0.0080046222  0.002739  0.002739  0.004642  0.000071
               *** Restarting incremental Fock matrix formation ***
  6    -24.95518577   0.0033235278  0.000845  0.001487  0.001438  0.000038
  7    -24.95519361  -0.0000078381  0.000302  0.000971  0.001042  0.000026
  8    -24.95519518  -0.0000015641  0.000071  0.000121  0.000151  0.000003
  9    -24.95519521  -0.0000000293  0.000009  0.000031  0.000038  0.000001
 10    -24.95519521  -0.0000000019  0.000002  0.000009  0.000006  0.000000
                 **** Energy Check signals convergence ****
              ***Rediagonalizing the Fockian in SOSCF/NRSCF***

               *****************************************************
               *                     SUCCESS                       *
               *           SCF CONVERGED AFTER  11 CYCLES          *
               *****************************************************


----------------
TOTAL SCF ENERGY
----------------

Total Energy       :          -24.95519521 Eh            -679.06538 eV

Components:
Nuclear Repulsion  :            0.88196201 Eh              23.99941 eV
Electronic Energy  :          -25.83715722 Eh            -703.06479 eV
One Electron Energy:          -34.23128077 Eh            -931.48051 eV
Two Electron Energy:            8.39412355 Eh             228.41571 eV

Virial components:
Potential Energy   :          -49.70274197 Eh           -1352.48037 eV
Kinetic Energy     :           24.74754677 Eh             673.41498 eV
Virial Ratio       :            2.00839067


---------------
SCF CONVERGENCE
---------------

  Last Energy change         ...   -1.0737e-10  Tolerance :   1.0000e-09
  Last MAX-Density change    ...    1.5644e-06  Tolerance :   1.0000e-08
  Last RMS-Density change    ...    2.2596e-08  Tolerance :   1.0000e-09
  Last Orbital Gradient      ...    2.9442e-07  Tolerance :   2.0000e-06
  Last Orbital Rotation      ...    7.8283e-07  Tolerance :   2.0000e-06

             **** THE GBW FILE WAS UPDATED (/scratch/BH-3.0-CCSD_T-O_594/BH-3.0-CCSD_T-O.gbw) ****
             **** DENSITY /scratch/BH-3.0-CCSD_T-O_594/BH-3.0-CCSD_T-O.scfp WAS UPDATED ****
             **** ENERGY FILE WAS UPDATED (/scratch/BH-3.0-CCSD_T-O_594/BH-3.0-CCSD_T-O.en.tmp) ****
             **** THE GBW FILE WAS UPDATED (/scratch/BH-3.0-CCSD_T-O_594/BH-3.0-CCSD_T-O.gbw) ****
             **** DENSITY /scratch/BH-3.0-CCSD_T-O_594/BH-3.0-CCSD_T-O.scfp WAS UPDATED ****
----------------
ORBITAL ENERGIES
----------------

  NO   OCC          E(Eh)            E(eV) 
   0   2.0000      -7.856440      -213.7846 
   1   2.0000      -0.590609       -16.0713 
   2   2.0000      -0.274468        -7.4686 
   3   0.0000      -0.021904        -0.5960 
   4   0.0000      -0.021209        -0.5771 
   5   0.0000      -0.021209        -0.5771 
   6   0.0000       0.033090         0.9004 
   7   0.0000       0.051232         1.3941 
   8   0.0000       0.051232         1.3941 
   9   0.0000       0.070270         1.9121 
  10   0.0000       0.086258         2.3472 
  11   0.0000       0.131202         3.5702 
  12   0.0000       0.131202         3.5702 
  13   0.0000       0.136347         3.7102 
  14   0.0000       0.136347         3.7102 
  15   0.0000       0.168159         4.5758 
  16   0.0000       0.253388         6.8950 
  17   0.0000       0.253388         6.8950 
  18   0.0000       0.281301         7.6546 
  19   0.0000       0.281301         7.6546 
  20   0.0000       0.283491         7.7142 
  21   0.0000       0.296410         8.0657 
  22   0.0000       0.336002         9.1431 
  23   0.0000       0.434380        11.8201 
  24   0.0000       0.434380        11.8201 
  25   0.0000       0.441432        12.0120 
  26   0.0000       0.441432        12.0120 
  27   0.0000       0.456911        12.4332 
  28   0.0000       0.456911        12.4332 
  29   0.0000       0.458997        12.4899 
  30   0.0000       0.458997        12.4899 
  31   0.0000       0.471888        12.8407 
  32   0.0000       0.502034        13.6610 
  33   0.0000       0.502034        13.6610 
  34   0.0000       0.534695        14.5498 
  35   0.0000       0.606712        16.5095 
  36   0.0000       0.710687        19.3388 
  37   0.0000       0.710687        19.3388 
  38   0.0000       0.835074        22.7235 
  39   0.0000       0.835074        22.7235 
  40   0.0000       0.881275        23.9807 
  41   0.0000       0.886249        24.1161 
  42   0.0000       0.886249        24.1161 
  43   0.0000       0.924582        25.1592 
  44   0.0000       0.969181        26.3728 
  45   0.0000       0.969181        26.3728 
  46   0.0000       1.141803        31.0701 
  47   0.0000       1.319848        35.9149 
  48   0.0000       1.319848        35.9149 
  49   0.0000       1.324237        36.0343 
  50   0.0000       1.324237        36.0343 
  51   0.0000       1.325077        36.0572 
  52   0.0000       1.329492        36.1773 
  53   0.0000       1.329492        36.1773 
  54   0.0000       1.332463        36.2582 
  55   0.0000       1.332463        36.2582 
  56   0.0000       1.340965        36.4895 
  57   0.0000       1.340965        36.4895 
  58   0.0000       1.352554        36.8049 
  59   0.0000       1.363634        37.1064 
  60   0.0000       1.363634        37.1064 
  61   0.0000       1.374913        37.4133 
  62   0.0000       1.374913        37.4133 
  63   0.0000       1.395692        37.9787 
  64   0.0000       1.395692        37.9787 
  65   0.0000       1.454391        39.5760 
  66   0.0000       1.489471        40.5306 
  67   0.0000       1.489471        40.5306 
  68   0.0000       1.640236        44.6331 
  69   0.0000       1.640236        44.6331 
  70   0.0000       1.688048        45.9341 
  71   0.0000       1.728945        47.0470 
  72   0.0000       1.728945        47.0470 
  73   0.0000       1.841851        50.1193 
  74   0.0000       1.953513        53.1578 
  75   0.0000       1.953513        53.1578 
  76   0.0000       1.981643        53.9232 
  77   0.0000       2.567536        69.8662 
  78   0.0000       2.567536        69.8662 
  79   0.0000       2.681517        72.9678 
  80   0.0000       2.681517        72.9678 
  81   0.0000       2.700175        73.4755 
  82   0.0000       2.700175        73.4755 
  83   0.0000       2.777279        75.5736 
  84   0.0000       2.938446        79.9592 
  85   0.0000       3.616966        98.4226 
  86   0.0000       3.616966        98.4226 
  87   0.0000       3.762116       102.3724 
  88   0.0000       3.831144       104.2507 
  89   0.0000       3.831144       104.2507 
  90   0.0000       3.840765       104.5125 
  91   0.0000       3.840765       104.5125 
  92   0.0000       3.844763       104.6213 
  93   0.0000       3.844763       104.6213 
  94   0.0000       3.857038       104.9553 
  95   0.0000       3.857038       104.9553 
  96   0.0000       3.874843       105.4398 
  97   0.0000       3.874843       105.4398 
  98   0.0000       3.889975       105.8516 
  99   0.0000       3.982744       108.3760 
 100   0.0000       3.982744       108.3760 
 101   0.0000       3.992326       108.6367 
 102   0.0000       3.992326       108.6367 
 103   0.0000       4.001486       108.8860 
 104   0.0000       4.001486       108.8860 
 105   0.0000       4.037076       109.8544 
 106   0.0000       4.037076       109.8544 
 107   0.0000       4.092205       111.3546 
 108   0.0000       4.229821       115.0993 
 109   0.0000       6.649579       180.9442 
 110   0.0000       6.649579       180.9442 
 111   0.0000       6.671139       181.5309 
 112   0.0000       6.671139       181.5309 
 113   0.0000       6.744044       183.5148 
 114   0.0000       6.744044       183.5148 
 115   0.0000       6.780166       184.4977 
 116   0.0000       7.607591       207.0131 
 117   0.0000       8.061319       219.3596 
 118   0.0000       8.061319       219.3596 
 119   0.0000       8.276473       225.2143 
 120   0.0000       8.499020       231.2701 
 121   0.0000       8.499020       231.2701 
 122   0.0000       8.566787       233.1141 
 123   0.0000       8.566787       233.1141 
 124   0.0000       8.659678       235.6418 
 125   0.0000      12.978283       353.1570 

                    ********************************
                    * MULLIKEN POPULATION ANALYSIS *
                    ********************************

-----------------------
MULLIKEN ATOMIC CHARGES
-----------------------
   0 B :    0.305399
   1 H :   -0.305399
Sum of atomic charges:    0.0000000

--------------------------------
MULLIKEN REDUCED ORBITAL CHARGES
--------------------------------
  0 B s       :     3.994488  s :     3.994488
      pz      :     0.000000  p :     0.669525
      px      :     0.669525
      py      :     0.000000
      dz2     :     0.007086  d :     0.028343
      dxz     :     0.000000
      dyz     :     0.000000
      dx2y2   :     0.021258
      dxy     :     0.000000
      f0      :     0.000000  f :     0.002144
      f+1     :     0.000804
      f-1     :     0.000000
      f+2     :     0.000000
      f-2     :     0.000000
      f+3     :     0.001340
      f-3     :     0.000000
      g0      :     0.000014  g :     0.000100
      g+1     :     0.000000
      g-1     :     0.000000
      g+2     :     0.000031
      g-2     :     0.000000
      g+3     :     0.000000
      g-3     :     0.000000
      g+4     :     0.000055
      g-4     :     0.000000
  1 H s       :     1.296440  s :     1.296440
      pz      :    -0.000000  p :     0.008394
      px      :     0.008394
      py      :    -0.000000
      dz2     :     0.000142  d :     0.000568
      dxz     :    -0.000000
      dyz     :     0.000000
      dx2y2   :     0.000426
      dxy     :     0.000000
      f0      :     0.000000  f :    -0.000003
      f+1     :    -0.000001
      f-1     :     0.000000
      f+2     :     0.000000
      f-2     :     0.000000
      f+3     :    -0.000002
      f-3     :     0.000000


                     *******************************
                     * LOEWDIN POPULATION ANALYSIS *
                     *******************************

----------------------
LOEWDIN ATOMIC CHARGES
----------------------
   0 B :    0.229855
   1 H :   -0.229855

-------------------------------
LOEWDIN REDUCED ORBITAL CHARGES
-------------------------------
  0 B s       :     3.956704  s :     3.956704
      pz      :     0.000000  p :     0.722618
      px      :     0.722618
      py      :     0.000000
      dz2     :     0.017788  d :     0.071150
      dxz     :     0.000000
      dyz     :     0.000000
      dx2y2   :     0.053363
      dxy     :     0.000000
      f0      :     0.000000  f :     0.018736
      f+1     :     0.007026
      f-1     :     0.000000
      f+2     :     0.000000
      f-2     :     0.000000
      f+3     :     0.011710
      f-3     :     0.000000
      g0      :     0.000132  g :     0.000936
      g+1     :     0.000000
      g-1     :     0.000000
      g+2     :     0.000293
      g-2     :     0.000000
      g+3     :     0.000000
      g-3     :     0.000000
      g+4     :     0.000512
      g-4     :     0.000000
  1 H s       :     1.179919  s :     1.179919
      pz      :     0.000000  p :     0.037545
      px      :     0.037545
      py      :     0.000000
      dz2     :     0.002801  d :     0.011202
      dxz     :     0.000000
      dyz     :     0.000000
      dx2y2   :     0.008402
      dxy     :     0.000000
      f0      :     0.000000  f :     0.001188
      f+1     :     0.000446
      f-1     :     0.000000
      f+2     :     0.000000
      f-2     :     0.000000
      f+3     :     0.000743
      f-3     :     0.000000


                      *****************************
                      * MAYER POPULATION ANALYSIS *
                      *****************************

  NA   - Mulliken gross atomic population
  ZA   - Total nuclear charge
  QA   - Mulliken gross atomic charge
  VA   - Mayer's total valence
  BVA  - Mayer's bonded valence
  FA   - Mayer's free valence

  ATOM       NA         ZA         QA         VA         BVA        FA
  0 B      4.6946     5.0000     0.3054     0.9136     0.9136     0.0000
  1 H      1.3054     1.0000    -0.3054     0.9136     0.9136     0.0000

  Mayer bond orders larger than 0.100000
B(  0-B ,  1-H ) :   0.9136 

-------
TIMINGS
-------

Total SCF time: 0 days 0 hours 0 min 11 sec 

Total time                  ....      11.139 sec
Sum of individual times     ....      11.007 sec  ( 98.8%)

Fock matrix formation       ....      10.950 sec  ( 98.3%)
Diagonalization             ....       0.009 sec  (  0.1%)
Density matrix formation    ....       0.001 sec  (  0.0%)
Population analysis         ....       0.001 sec  (  0.0%)
Initial guess               ....       0.024 sec  (  0.2%)
Orbital Transformation      ....       0.000 sec  (  0.0%)
Orbital Orthonormalization  ....       0.000 sec  (  0.0%)
DIIS solution               ....       0.003 sec  (  0.0%)
SOSCF solution              ....       0.006 sec  (  0.1%)

Maximum memory used throughout the entire SCF-calculation: 256.9 MB


------------------------------------------------------------------------------- 
                              ORCA-MATRIX DRIVEN CI                            
------------------------------------------------------------------------------- 

--------------------------------
AUTOMATIC CHOICE OF INCORE LEVEL
--------------------------------

Memory available                           ...    256.00 MB
Memory needed for S+T                      ...      1.04 MB
Memory needed for J+K                      ...      2.08 MB
Memory needed for DIIS                     ...     14.54 MB
Memory needed for 3-ext                    ...     28.39 MB
Memory needed for 4-ext                    ...    880.23 MB
Memory needed for triples                  ...     70.99 MB
 -> Final InCoreLevel    ... 4
 -> check shows that triples correction can be computed


Wavefunction type
-----------------
Correlation treatment                      ...      CCSD     
Single excitations                         ... ON
Orbital optimization                       ... OFF
Calculation of Z vector                    ... OFF
Calculation of Brueckner orbitals          ... OFF
Perturbative triple excitations            ... ON
Calculation of F12 correction              ... OFF
Frozen core treatment                      ... chemical core (2 el)
Reference Wavefunction                     ... RHF
  Internal Orbitals:     1 ...    2 (  2 MO's/  4 electrons)
  Virtual  Orbitals:     3 ...  125 (123 MO's              )
Number of AO's                             ...    126
Number of electrons                        ...      6
Number of correlated electrons             ...      4

Algorithmic settings
--------------------
Integral transformation                    ... AO direct full transformation
K(C) Formation                             ... FULL-MO TRAFO
Maximum number of iterations               ...        50
Convergence tolerance (max. residuum)      ... 1.000e-06
Level shift for amplitude update           ... 2.000e-01
Maximum number of DIIS vectors             ...         7
DIIS turned on at iteration                ...         0
Damping before turning on DIIS             ...     0.500
Damping after turning on DIIS              ...     0.000
Pair specific amplitude update             ... OFF
Natural orbital iterations                 ... OFF
Perturbative natural orbital generation    ... OFF
Printlevel                                 ... 2

Memory handling:
----------------
Maximum memory for working arrays          ...    256 MB
Data storage in matrix containers          ... UNCOMPRESSED
Data type for integral storage             ... DOUBLE
In-Core Storage of quantities:
   Amplitudes+Sigma Vector      ... YES
   J+K operators                ... YES
   DIIS vectors                 ... YES
   3-external integrals         ... YES
   4-external integrals         ... NO


Initializing the integral package          ... done
Warning: reference  - re-canonicalizations have been set to INT 1 VIRT 1

--------------------------
CLOSED-SHELL FOCK OPERATOR
--------------------------

Restoring SHARK [2] ... ok
Recanonicalizing the internal orbitals
Recanonicalizing the virtual orbitals
Time needed for Fock operator              ...            1.173 sec
Reference energy                           ...    -24.955195207

------------------------------
PARTIAL COULOMB TRANSFORMATION
------------------------------

Transformation type                        ... one-operator
Dimension of the basis                     ...  126
Number of internal MOs                     ...  125 (1-125)
Pair cutoff                                ... 0.000e+00 Eh
Number of AO pairs included in the trafo   ... 8001
Total Number of distinct AO pairs          ... 8001
Memory devoted for trafo                   ...  256.0 MB 
Max. Number of MO pairs treated together   ... 4193      
Max. Number of MOs treated per batch       ...   33      
Number Format for Storage                  ... Double (8 Byte)
AO-integral source                         ... DIRECT
Integral package used                      ... LIBINT

Starting integral evaluation:
<ss|**>:        37632 b        0 skpd     0.070 s (  0.002 ms/b)
<sp|**>:        56448 b        0 skpd     0.135 s (  0.002 ms/b)
<sd|**>:        44100 b        0 skpd     0.182 s (  0.004 ms/b)
<sf|**>:        32340 b        0 skpd     0.223 s (  0.007 ms/b)
<sg|**>:        12936 b        0 skpd     0.157 s (  0.012 ms/b)
<pp|**>:        26460 b        0 skpd     0.136 s (  0.005 ms/b)
<pd|**>:        37044 b        0 skpd     0.339 s (  0.009 ms/b)
<pf|**>:        26460 b        0 skpd     0.354 s (  0.013 ms/b)
<pg|**>:        10584 b        0 skpd     0.211 s (  0.020 ms/b)
<dd|**>:        16464 b        0 skpd     0.242 s (  0.015 ms/b)
<df|**>:        20580 b        0 skpd     0.499 s (  0.024 ms/b)
<dg|**>:         8232 b        0 skpd     0.290 s (  0.035 ms/b)
<ff|**>:         8820 b        0 skpd     0.327 s (  0.037 ms/b)
<fg|**>:         5880 b        0 skpd     0.321 s (  0.055 ms/b)
<gg|**>:         1764 b        0 skpd     0.132 s (  0.075 ms/b)
Closing buffer AOJ ( 0.47 GB; CompressionRatio= 1.00)
Collecting buffer AOJ 
    ... done with AO integral generation
Number of MO pairs included in the trafo   ... 7875
    ... Now sorting integrals
IBATCH = 1 of  2
IBATCH = 2 of  2
Closing buffer JAO ( 0.47 GB; CompressionRatio= 1.00)
Collecting buffer JAO 
TOTAL TIME for half transformation         ...     6.787 sec
AO-integral generation                     ...     2.019 sec
Half transformation                        ...     1.600 sec
J-integral sorting                         ...     3.123 sec

-------------------------- SECOND HALF TRANSFORMATION -------------------------
Formation of (pq|rs)                       ... ok (     1.585 sec)
Integral sorting                           ... ok (     1.847 sec)

------------------
CLOSED SHELL GUESS
------------------

Initial guess performed in     0.000 sec
E(0)                                       ...    -24.955195207
E(MP2)                                     ...     -0.094791163
Initial E(tot)                             ...    -25.049986370
<T|T>                                      ...      0.089648067
Number of pairs included                   ... 3
Total number of pairs                      ... 3

------------------------------------------------
                  RHF COUPLED CLUSTER ITERATIONS
------------------------------------------------

Number of amplitudes to be optimized       ... 45633

Iter       E(tot)           E(Corr)          Delta-E          Residual     Time
  0    -25.049986370     -0.094791163      0.000000000      0.028757832    0.54
                           *** Turning on DIIS ***
  1    -25.064262715     -0.109067508     -0.014276345      0.033862177    1.72
  2    -25.077867771     -0.122672564     -0.013605056      0.025093799    1.74
  3    -25.090809703     -0.135614495     -0.012941931      0.017588108    1.74
  4    -25.096808053     -0.141612846     -0.005998351      0.010678514    1.75
  5    -25.100138258     -0.144943051     -0.003330204      0.004783341    1.74
  6    -25.101892593     -0.146697386     -0.001754335      0.001055348    1.74
  7    -25.102096827     -0.146901620     -0.000204234      0.000257224    1.76
  8    -25.102093536     -0.146898329      0.000003291      0.000080226    1.75
  9    -25.102105591     -0.146910384     -0.000012056      0.000026908    1.74
 10    -25.102100760     -0.146905553      0.000004831      0.000015370    1.77
 11    -25.102103083     -0.146907875     -0.000002322      0.000007452    1.75
 12    -25.102103504     -0.146908296     -0.000000421      0.000003351    1.74
 13    -25.102103740     -0.146908533     -0.000000236      0.000001177    1.76
 14    -25.102103635     -0.146908428      0.000000104      0.000000441    1.75
               --- The Coupled-Cluster iterations have converged ---

----------------------
COUPLED CLUSTER ENERGY
----------------------

E(0)                                       ...    -24.955195207
E(CORR)                                    ...     -0.146908428
E(TOT)                                     ...    -25.102103635
Singles Norm <S|S>**1/2                    ...      0.249733019  
T1 diagnostic                              ...      0.124866510  

------------------
LARGEST AMPLITUDES
------------------
   2->  3   2->  3       0.472464
   2->  3  -1-> -1       0.216004
   2->  6   2->  3       0.150403
   2->  3   2->  6       0.150403
   1->  4   1->  4       0.112806
   1->  5   1->  5       0.112806
   2-> 15   2->  3       0.082847
   2->  3   2-> 15       0.082847
   2-> 34   2->  3       0.066543
   2->  3   2-> 34       0.066543
   2->  3   2->  9       0.061846
   2->  9   2->  3       0.061846
   2->  6  -1-> -1       0.060409
   2-> 20  -1-> -1       0.056182
   2-> 10   2->  3       0.054567
   2->  3   2-> 10       0.054567


        !!!!!!!!!!!!!!!!!!!!!!!!!!!!!!!!!!!!!!!!!!!!!!!!!!!!!!!!!!!!!!!!!!!!!!!!!! 
        !  Warning: Densities are linearized densities !                         !
        !!!!!!!!!!!!!!!!!!!!!!!!!!!!!!!!!!!!!!!!!!!!!!!!!!!!!!!!!!!!!!!!!!!!!!!!!! 

Trace of internal density part =     -0.941343752
Trace of external density part =      0.941343752
----------------------
RHF TRIPLES CORRECTION (Algorithm 1)
----------------------

Multiplier for the singles contribution    ...      1.000000000

10% done
20% done
30% done
40% done
50% done
60% done
70% done
80% done
90% done

Triples Correction (T)                     ...     -0.012241844
Scaling of triples based on CCSD energies (Peterson et al. Molecular Physics 113, 1551 (2015))
E(T*) = f*E(T) where f = E(F12-CCSD)/E(CCSD) 
f = CCSD (with F12)/ CCSD (without F12)    ...      1.000000000
Scaled triples correction (T)              ...     -0.012241844

Final correlation energy                   ...     -0.159150272
E(CCSD)                                    ...    -25.102103635
E(CCSD(T))                                 ...    -25.114345479

NORM  =      1.533038457 sqrt=     1.238159302
W(HF) =      0.652299357
------------------------------------------------------------------------------
                           ORCA POPULATION ANALYSIS
------------------------------------------------------------------------------
Input electron density              ... /scratch/BH-3.0-CCSD_T-O_594/BH-3.0-CCSD_T-O.mdcip
BaseName (.gbw .S,...)              ... /scratch/BH-3.0-CCSD_T-O_594/BH-3.0-CCSD_T-O

                    ********************************
                    * MULLIKEN POPULATION ANALYSIS *
                    ********************************

-----------------------
MULLIKEN ATOMIC CHARGES
-----------------------
   0 B :   -0.092302
   1 H :    0.092302
Sum of atomic charges:    0.0000000

--------------------------------
MULLIKEN REDUCED ORBITAL CHARGES
--------------------------------
  0 B s       :     3.865079  s :     3.865079
      pz      :     0.054326  p :     1.209817
      px      :     1.101166
      py      :     0.054326
      dz2     :     0.001610  d :     0.017021
      dxz     :     0.005403
      dyz     :     0.000226
      dx2y2   :     0.004378
      dxy     :     0.005403
      f0      :     0.000133  f :     0.000258
      f+1     :    -0.000172
      f-1     :     0.000039
      f+2     :     0.000207
      f-2     :     0.000109
      f+3     :    -0.000359
      f-3     :     0.000301
      g0      :     0.000005  g :     0.000127
      g+1     :     0.000028
      g-1     :     0.000004
      g+2     :     0.000001
      g-2     :     0.000013
      g+3     :     0.000024
      g-3     :     0.000015
      g+4     :    -0.000000
      g-4     :     0.000038
  1 H s       :     0.899694  s :     0.899694
      pz      :     0.001542  p :     0.006535
      px      :     0.003452
      py      :     0.001542
      dz2     :     0.000255  d :     0.001417
      dxz     :     0.000211
      dyz     :     0.000028
      dx2y2   :     0.000711
      dxy     :     0.000211
      f0      :     0.000011  f :     0.000052
      f+1     :    -0.000002
      f-1     :     0.000003
      f+2     :     0.000017
      f-2     :     0.000005
      f+3     :    -0.000006
      f-3     :     0.000024


                     *******************************
                     * LOEWDIN POPULATION ANALYSIS *
                     *******************************

----------------------
LOEWDIN ATOMIC CHARGES
----------------------
   0 B :   -0.061591
   1 H :    0.061591

-------------------------------
LOEWDIN REDUCED ORBITAL CHARGES
-------------------------------
  0 B s       :     3.811116  s :     3.811116
      pz      :     0.054289  p :     1.179046
      px      :     1.070468
      py      :     0.054289
      dz2     :     0.010177  d :     0.051318
      dxz     :     0.005417
      dyz     :     0.000226
      dx2y2   :     0.030080
      dxy     :     0.005417
      f0      :     0.000148  f :     0.018641
      f+1     :     0.006690
      f-1     :     0.000042
      f+2     :     0.000234
      f-2     :     0.000109
      f+3     :     0.011078
      f-3     :     0.000340
      g0      :     0.000192  g :     0.001471
      g+1     :     0.000031
      g-1     :     0.000004
      g+2     :     0.000418
      g-2     :     0.000014
      g+3     :     0.000026
      g-3     :     0.000015
      g+4     :     0.000729
      g-4     :     0.000043
  1 H s       :     0.842066  s :     0.842066
      pz      :     0.001464  p :     0.069075
      px      :     0.066148
      py      :     0.001464
      dz2     :     0.005966  d :     0.024330
      dxz     :     0.000247
      dyz     :     0.000027
      dx2y2   :     0.017843
      dxy     :     0.000247
      f0      :     0.000017  f :     0.002938
      f+1     :     0.001067
      f-1     :     0.000004
      f+2     :     0.000028
      f-2     :     0.000005
      f+3     :     0.001775
      f-3     :     0.000041


                      *****************************
                      * MAYER POPULATION ANALYSIS *
                      *****************************

  NA   - Mulliken gross atomic population
  ZA   - Total nuclear charge
  QA   - Mulliken gross atomic charge
  VA   - Mayer's total valence
  BVA  - Mayer's bonded valence
  FA   - Mayer's free valence

  ATOM       NA         ZA         QA         VA         BVA        FA
  0 B      5.0923     5.0000    -0.0923     1.4741     0.0851     1.3890
  1 H      0.9077     1.0000     0.0923     0.9765     0.0851     0.8913

  Mayer bond orders larger than 0.100000




------------------------------------------------------------------------------- 
                                     TIMINGS                                   
------------------------------------------------------------------------------- 


Total execution time                   ...       36.846 sec

Fock Matrix Formation                  ...        1.173 sec (  3.2%)
Initial Guess                          ...        0.000 sec (  0.0%)
DIIS Solver                            ...        0.034 sec (  0.1%)
State Vector Update                    ...        0.001 sec (  0.0%)
Sigma-vector construction              ...       24.952 sec ( 67.7%)
  <0|H|D>                              ...        0.004 sec (  0.0% of sigma)
  <D|H|D>(0-ext)                       ...        0.007 sec (  0.0% of sigma)
  <D|H|D>(2-ext Fock)                  ...        0.007 sec (  0.0% of sigma)
  <D|H|D>(2-ext)                       ...        0.049 sec (  0.2% of sigma)
  <D|H|D>(4-ext)                       ...        5.852 sec ( 23.5% of sigma)
  <D|H|D>(4-ext-corr)                  ...        1.192 sec (  4.8% of sigma)
  <S|H|0>                              ...        0.002 sec (  0.0% of sigma)
  <S|H|S>                              ...        0.004 sec (  0.0% of sigma)
  <S|H|D>(1-ext)                       ...        0.005 sec (  0.0% of sigma)
  <D|H|S>(1-ext)                       ...        0.009 sec (  0.0% of sigma)
  <S|H|D>(3-ext)                       ...        0.192 sec (  0.8% of sigma)
  Fock-dressing                        ...       17.301 sec ( 69.3% of sigma)
  (ik|jl)-dressing                     ...        0.004 sec (  0.0% of sigma)
  (ij|ab),(ia|jb)-dressing             ...        0.271 sec (  1.1% of sigma)
  Pair energies                        ...        0.004 sec (  0.0% of sigma)
Total Time for computing (T)           ...        0.235 sec (  0.6% of ALL)
  I/O of integral and amplitudes       ...        0.032 sec ( 13.6% of (T))
  N**6 sorting step                    ...        0.052 sec ( 22.2% of (T))
  External N**7 contributions          ...        0.111 sec ( 47.2% of (T))
  Internal N**7 contributions          ...        0.011 sec (  4.8% of (T))
  N**6 triples energy contributions    ...        0.028 sec ( 12.1% of (T))
One-particle density matrix            ...        0.001 sec (  0.0%)


Maximum memory used throughout the entire MDCI-calculation: 400.0 MB

-------------------------   --------------------
FINAL SINGLE POINT ENERGY       -25.114345479217
-------------------------   --------------------


                            ***************************************
                            *     ORCA property calculations      *
                            ***************************************

                                    ---------------------
                                    Active property flags
                                    ---------------------
   (+) Dipole Moment


------------------------------------------------------------------------------
                       ORCA ELECTRIC PROPERTIES CALCULATION
------------------------------------------------------------------------------

Dipole Moment Calculation                       ... on
Quadrupole Moment Calculation                   ... off
Polarizability Calculation                      ... off
GBWName                                         ... /scratch/BH-3.0-CCSD_T-O_594/BH-3.0-CCSD_T-O.gbw
Electron density file                           ... /scratch/BH-3.0-CCSD_T-O_594/BH-3.0-CCSD_T-O.scfp
The origin for moment calculation is the CENTER OF MASS  = ( 0.483545,  0.000000  0.000000)

-------------
DIPOLE MOMENT
-------------
                                X             Y             Z
Electronic contribution:     -4.81549      -0.00000       0.00000
Nuclear contribution   :      2.76791       0.00000       0.00000
                        -----------------------------------------
Total Dipole Moment    :     -2.04758      -0.00000       0.00000
                        -----------------------------------------
Magnitude (a.u.)       :      2.04758
Magnitude (Debye)      :      5.20454



--------------------
Rotational spectrum 
--------------------
 
Rotational constants in cm-1:     0.000000     2.031478     2.031478 
Rotational constants in MHz :     0.000000 60902.182182 60902.182182 

 Dipole components along the rotational axes: 
x,y,z [a.u.] :    -2.047582    -0.000000     0.000000 
x,y,z [Debye]:    -5.204539    -0.000000     0.000000 

 

                           *** MDCI DENSITY ***

------------------------------------------------------------------------------
                       ORCA ELECTRIC PROPERTIES CALCULATION
------------------------------------------------------------------------------

Dipole Moment Calculation                       ... on
Quadrupole Moment Calculation                   ... off
Polarizability Calculation                      ... off
GBWName                                         ... /scratch/BH-3.0-CCSD_T-O_594/BH-3.0-CCSD_T-O.gbw
Electron density file                           ... /scratch/BH-3.0-CCSD_T-O_594/BH-3.0-CCSD_T-O.mdcip
The origin for moment calculation is the CENTER OF MASS  = ( 0.483545,  0.000000  0.000000)

-------------
DIPOLE MOMENT
-------------
                                X             Y             Z
Electronic contribution:     -2.25540       0.00000      -0.00000
Nuclear contribution   :      2.76791       0.00000       0.00000
                        -----------------------------------------
Total Dipole Moment    :      0.51251       0.00000      -0.00000
                        -----------------------------------------
Magnitude (a.u.)       :      0.51251
Magnitude (Debye)      :      1.30269



--------------------
Rotational spectrum 
--------------------
 
Rotational constants in cm-1:     0.000000     2.031478     2.031478 
Rotational constants in MHz :     0.000000 60902.182182 60902.182182 

 Dipole components along the rotational axes: 
x,y,z [a.u.] :     0.512508     0.000000    -0.000000 
x,y,z [Debye]:     1.302691     0.000000    -0.000000 

 

Timings for individual modules:

Sum of individual times         ...       48.330 sec (=   0.806 min)
GTO integral calculation        ...        0.124 sec (=   0.002 min)   0.3 %
SCF iterations                  ...       11.156 sec (=   0.186 min)  23.1 %
MDCI module                     ...       37.049 sec (=   0.617 min)  76.7 %
                             ****ORCA TERMINATED NORMALLY****
TOTAL RUN TIME: 0 days 0 hours 0 minutes 48 seconds 455 msec

Sender: Unischeduler System <lcz@mgt01>
Subject: Job 134129: <#!/bin/bash
#BSUB -J intel
#BSUB -o BH-3.0-CCSD_T-O.out
#BSUB -n 1
#BSUB -q cqueue
export LD_LIBRARY_PATH=/apps/software/openmpi-4.1.1/lib:/apps/software/orca_5_0_0:$LD_LIBRARY_PATH
export PATH=/apps/software/openmpi-4.1.1/bin:/apps/software/orca_5_0_0:$PATH
mkdir /scratch/BH-3.0-CCSD_T-O_594
scp $USER@mgt01:/apps/users/lcz/exe13/CCSD_T/BH-3.0-CCSD_T-O.inp /scratch/BH-3.0-CCSD_T-O_594
/apps/software/orca_5_0_0/orca /scratch/BH-3.0-CCSD_T-O_594/BH-3.0-CCSD_T-O.inp >& BH-3.0-CCSD_T-O.out
scp /scratch/BH-3.0-CCSD_T-O_594/*.gbw $USER@mgt01:/apps/users/lcz/exe13/CCSD_T
scp /scratch/BH-3.0-CCSD_T-O_594/*.xyz $USER@mgt01:/apps/users/lcz/exe13/CCSD_T
scp /scratch/BH-3.0-CCSD_T-O_594/*.trj $USER@mgt01:/apps/users/lcz/exe13/CCSD_T> Exited

Job <#!/bin/bash
#BSUB -J intel
#BSUB -o BH-3.0-CCSD_T-O.out
#BSUB -n 1
#BSUB -q cqueue
export LD_LIBRARY_PATH=/apps/software/openmpi-4.1.1/lib:/apps/software/orca_5_0_0:$LD_LIBRARY_PATH
export PATH=/apps/software/openmpi-4.1.1/bin:/apps/software/orca_5_0_0:$PATH
mkdir /scratch/BH-3.0-CCSD_T-O_594
scp $USER@mgt01:/apps/users/lcz/exe13/CCSD_T/BH-3.0-CCSD_T-O.inp /scratch/BH-3.0-CCSD_T-O_594
/apps/software/orca_5_0_0/orca /scratch/BH-3.0-CCSD_T-O_594/BH-3.0-CCSD_T-O.inp >& BH-3.0-CCSD_T-O.out
scp /scratch/BH-3.0-CCSD_T-O_594/*.gbw $USER@mgt01:/apps/users/lcz/exe13/CCSD_T
scp /scratch/BH-3.0-CCSD_T-O_594/*.xyz $USER@mgt01:/apps/users/lcz/exe13/CCSD_T
scp /scratch/BH-3.0-CCSD_T-O_594/*.trj $USER@mgt01:/apps/users/lcz/exe13/CCSD_T> was submitted from host <mgt01> by user <lcz>.
Job was executed on host(s) <1*cnode12>, in queue <cqueue>, as user <lcz>.
</apps/users/lcz> was used as the home directory.
</apps/users/lcz/exe13/CCSD_T> was used as the working directory.
Started at 2022-05-22 17:05:51
Results reported at 2022-05-22 17:06:41

Your job looked like:

------------------------------------------------------------
# User input
#!/bin/bash
#BSUB -J intel
#BSUB -o BH-3.0-CCSD_T-O.out
#BSUB -n 1
#BSUB -q cqueue
export LD_LIBRARY_PATH=/apps/software/openmpi-4.1.1/lib:/apps/software/orca_5_0_0:$LD_LIBRARY_PATH
export PATH=/apps/software/openmpi-4.1.1/bin:/apps/software/orca_5_0_0:$PATH
mkdir /scratch/BH-3.0-CCSD_T-O_594
scp $USER@mgt01:/apps/users/lcz/exe13/CCSD_T/BH-3.0-CCSD_T-O.inp /scratch/BH-3.0-CCSD_T-O_594
/apps/software/orca_5_0_0/orca /scratch/BH-3.0-CCSD_T-O_594/BH-3.0-CCSD_T-O.inp >& BH-3.0-CCSD_T-O.out
scp /scratch/BH-3.0-CCSD_T-O_594/*.gbw $USER@mgt01:/apps/users/lcz/exe13/CCSD_T
scp /scratch/BH-3.0-CCSD_T-O_594/*.xyz $USER@mgt01:/apps/users/lcz/exe13/CCSD_T
scp /scratch/BH-3.0-CCSD_T-O_594/*.trj $USER@mgt01:/apps/users/lcz/exe13/CCSD_T
------------------------------------------------------------

Exited with exit code 1.

Resource usage summary:

    CPU time   :           46.78 sec.
    Max Memory :               413 MB
    Max Processes  :               5


The output (if any) follows:

/scratch/BH-3.0-CCSD_T-O_594/*.xyz: No such file or directory
/scratch/BH-3.0-CCSD_T-O_594/*.trj: No such file or directory
