 Entering Gaussian System, Link 0=/apps/software/g16/g16
 Initial command:
 /apps/software/g16/l1.exe "/scratch/Gau-314492.inp" -scrdir="/scratch/"
 Entering Link 1 = /apps/software/g16/l1.exe PID=    314493.
  
 Copyright (c) 1988,1990,1992,1993,1995,1998,2003,2009,2016,
            Gaussian, Inc.  All Rights Reserved.
  
 This is part of the Gaussian(R) 16 program.  It is based on
 the Gaussian(R) 09 system (copyright 2009, Gaussian, Inc.),
 the Gaussian(R) 03 system (copyright 2003, Gaussian, Inc.),
 the Gaussian(R) 98 system (copyright 1998, Gaussian, Inc.),
 the Gaussian(R) 94 system (copyright 1995, Gaussian, Inc.),
 the Gaussian 92(TM) system (copyright 1992, Gaussian, Inc.),
 the Gaussian 90(TM) system (copyright 1990, Gaussian, Inc.),
 the Gaussian 88(TM) system (copyright 1988, Gaussian, Inc.),
 the Gaussian 86(TM) system (copyright 1986, Carnegie Mellon
 University), and the Gaussian 82(TM) system (copyright 1983,
 Carnegie Mellon University). Gaussian is a federally registered
 trademark of Gaussian, Inc.
  
 This software contains proprietary and confidential information,
 including trade secrets, belonging to Gaussian, Inc.
  
 This software is provided under written license and may be
 used, copied, transmitted, or stored only in accord with that
 written license.
  
 The following legend is applicable only to US Government
 contracts under FAR:
  
                    RESTRICTED RIGHTS LEGEND
  
 Use, reproduction and disclosure by the US Government is
 subject to restrictions as set forth in subparagraphs (a)
 and (c) of the Commercial Computer Software - Restricted
 Rights clause in FAR 52.227-19.
  
 Gaussian, Inc.
 340 Quinnipiac St., Bldg. 40, Wallingford CT 06492
  
  
 ---------------------------------------------------------------
 Warning -- This program may not be used in any manner that
 competes with the business of Gaussian, Inc. or will provide
 assistance to any competitor of Gaussian, Inc.  The licensee
 of this program is prohibited from giving any competitor of
 Gaussian, Inc. access to this program.  By using this program,
 the user acknowledges that Gaussian, Inc. is engaged in the
 business of creating and licensing software in the field of
 computational chemistry and represents and warrants to the
 licensee that it is not a competitor of Gaussian, Inc. and that
 it will not use this program in any manner prohibited above.
 ---------------------------------------------------------------
  

 Cite this work as:
 Gaussian 16, Revision A.03,
 M. J. Frisch, G. W. Trucks, H. B. Schlegel, G. E. Scuseria, 
 M. A. Robb, J. R. Cheeseman, G. Scalmani, V. Barone, 
 G. A. Petersson, H. Nakatsuji, X. Li, M. Caricato, A. V. Marenich, 
 J. Bloino, B. G. Janesko, R. Gomperts, B. Mennucci, H. P. Hratchian, 
 J. V. Ortiz, A. F. Izmaylov, J. L. Sonnenberg, D. Williams-Young, 
 F. Ding, F. Lipparini, F. Egidi, J. Goings, B. Peng, A. Petrone, 
 T. Henderson, D. Ranasinghe, V. G. Zakrzewski, J. Gao, N. Rega, 
 G. Zheng, W. Liang, M. Hada, M. Ehara, K. Toyota, R. Fukuda, 
 J. Hasegawa, M. Ishida, T. Nakajima, Y. Honda, O. Kitao, H. Nakai, 
 T. Vreven, K. Throssell, J. A. Montgomery, Jr., J. E. Peralta, 
 F. Ogliaro, M. J. Bearpark, J. J. Heyd, E. N. Brothers, K. N. Kudin, 
 V. N. Staroverov, T. A. Keith, R. Kobayashi, J. Normand, 
 K. Raghavachari, A. P. Rendell, J. C. Burant, S. S. Iyengar, 
 J. Tomasi, M. Cossi, J. M. Millam, M. Klene, C. Adamo, R. Cammi, 
 J. W. Ochterski, R. L. Martin, K. Morokuma, O. Farkas, 
 J. B. Foresman, and D. J. Fox, Gaussian, Inc., Wallingford CT, 2016.
 
 ******************************************
 Gaussian 16:  ES64L-G16RevA.03 25-Dec-2016
                26-May-2022 
 ******************************************
 %chk=BH-3.2-CCSD_T-G.chk
 -----------------------------
 #p RHF/aug-cc-pVQZ CCSD(T,FC)
 -----------------------------
 1/38=1,172=1/1;
 2/12=2,17=6,18=5,40=1/2;
 3/5=16,6=2,7=10,11=1,25=1,30=1,116=1/1,2,3;
 4//1;
 5/5=2,38=5/2;
 8/6=4,9=120000,10=1/1,4;
 9/5=7,14=2/13;
 6/7=2,8=2,9=2,10=2/1;
 99/5=1,9=1/99;
 Leave Link    1 at Thu May 26 10:45:59 2022, MaxMem=           0 cpu:               0.0 elap:               0.0
 (Enter /apps/software/g16/l101.exe)
 --------------------------
 BH CCSD(T) at 3.2 Angstrom
 --------------------------
 Symbolic Z-matrix:
 Charge =  0 Multiplicity = 1
 B                     0.        0.        0. 
 H                     3.2       0.        0. 
 
 ITRead=  0  0
 MicOpt= -1 -1
 NAtoms=      2 NQM=        2 NQMF=       0 NMMI=      0 NMMIF=      0
                NMic=       0 NMicF=      0.
                    Isotopes and Nuclear Properties:
 (Nuclear quadrupole moments (NQMom) in fm**2, nuclear magnetic moments (NMagM)
  in nuclear magnetons)

  Atom         1           2
 IAtWgt=          11           1
 AtmWgt=  11.0093053   1.0078250
 NucSpn=           3           1
 AtZEff=  -0.0000000  -0.0000000
 NQMom=    4.0590000   0.0000000
 NMagM=    2.6886370   2.7928460
 AtZNuc=   5.0000000   1.0000000
 Leave Link  101 at Thu May 26 10:45:59 2022, MaxMem=   104857600 cpu:               0.1 elap:               0.1
 (Enter /apps/software/g16/l202.exe)
                          Input orientation:                          
 ---------------------------------------------------------------------
 Center     Atomic      Atomic             Coordinates (Angstroms)
 Number     Number       Type             X           Y           Z
 ---------------------------------------------------------------------
      1          5           0        0.000000    0.000000    0.000000
      2          1           0        3.200000    0.000000    0.000000
 ---------------------------------------------------------------------
 Stoichiometry    BH
 Framework group  C*V[C*(HB)]
 Deg. of freedom     1
 Full point group                 C*V     NOp   4
 Largest Abelian subgroup         C2V     NOp   4
 Largest concise Abelian subgroup C1      NOp   1
                         Standard orientation:                         
 ---------------------------------------------------------------------
 Center     Atomic      Atomic             Coordinates (Angstroms)
 Number     Number       Type             X           Y           Z
 ---------------------------------------------------------------------
      1          5           0        0.000000    0.000000    0.533333
      2          1           0        0.000000    0.000000   -2.666667
 ---------------------------------------------------------------------
 Rotational constants (GHZ):           0.0000000          53.4531073          53.4531073
 Leave Link  202 at Thu May 26 10:45:59 2022, MaxMem=   104857600 cpu:               0.0 elap:               0.0
 (Enter /apps/software/g16/l301.exe)
 Standard basis: Aug-CC-pVQZ (5D, 7F)
 Ernie: Thresh=  0.10000D-02 Tol=  0.10000D-05 Strict=F.
 Ernie:  4 primitive shells out of 54 were deleted.
 There are    68 symmetry adapted cartesian basis functions of A1  symmetry.
 There are    18 symmetry adapted cartesian basis functions of A2  symmetry.
 There are    37 symmetry adapted cartesian basis functions of B1  symmetry.
 There are    37 symmetry adapted cartesian basis functions of B2  symmetry.
 There are    50 symmetry adapted basis functions of A1  symmetry.
 There are    16 symmetry adapted basis functions of A2  symmetry.
 There are    30 symmetry adapted basis functions of B1  symmetry.
 There are    30 symmetry adapted basis functions of B2  symmetry.
   126 basis functions,   180 primitive gaussians,   160 cartesian basis functions
     3 alpha electrons        3 beta electrons
       nuclear repulsion energy         0.8268393921 Hartrees.
 IExCor=    0 DFT=F Ex=HF Corr=None ExCW=0 ScaHFX=  1.000000
 ScaDFX=  1.000000  1.000000  1.000000  1.000000 ScalE2=  1.000000  1.000000
 IRadAn=      5 IRanWt=     -1 IRanGd=            0 ICorTp=0 IEmpDi=  4
 NAtoms=    2 NActive=    2 NUniq=    2 SFac= 1.00D+00 NAtFMM=   60 NAOKFM=F Big=F
 Integral buffers will be    131072 words long.
 Raffenetti 1 integral format.
 Two-electron integral symmetry is turned on.
 Leave Link  301 at Thu May 26 10:45:59 2022, MaxMem=   104857600 cpu:               0.1 elap:               0.1
 (Enter /apps/software/g16/l302.exe)
 NPDir=0 NMtPBC=     1 NCelOv=     1 NCel=       1 NClECP=     1 NCelD=      1
         NCelK=      1 NCelE2=     1 NClLst=     1 CellRange=     0.0.
 One-electron integrals computed using PRISM.
 One-electron integral symmetry used in STVInt
 NBasis=   126 RedAO= T EigKep=  3.34D-03  NBF=    50    16    30    30
 NBsUse=   126 1.00D-06 EigRej= -1.00D+00 NBFU=    50    16    30    30
 Leave Link  302 at Thu May 26 10:45:59 2022, MaxMem=   104857600 cpu:               0.1 elap:               0.1
 (Enter /apps/software/g16/l303.exe)
 DipDrv:  MaxL=1.
 Leave Link  303 at Thu May 26 10:45:59 2022, MaxMem=   104857600 cpu:               0.0 elap:               0.0
 (Enter /apps/software/g16/l401.exe)
 ExpMin= 1.88D-02 ExpMax= 2.39D+04 ExpMxC= 2.30D+02 IAcc=3 IRadAn=         5 AccDes= 0.00D+00
 Harris functional with IExCor=  205 and IRadAn=       5 diagonalized for initial guess.
 HarFok:  IExCor=  205 AccDes= 0.00D+00 IRadAn=         5 IDoV= 1 UseB2=F ITyADJ=14
 ICtDFT=  3500011 ScaDFX=  1.000000  1.000000  1.000000  1.000000
 FoFCou: FMM=F IPFlag=           0 FMFlag=      100000 FMFlg1=           0
         NFxFlg=           0 DoJE=T BraDBF=F KetDBF=T FulRan=T
         wScrn=  0.000000 ICntrl=       500 IOpCl=  0 I1Cent=   200000004 NGrid=           0
         NMat0=    1 NMatS0=      1 NMatT0=    0 NMatD0=    1 NMtDS0=    0 NMtDT0=    0
 Petite list used in FoFCou.
 Harris En= -24.9952048440398    
 JPrj=0 DoOrth=F DoCkMO=F.
 Initial guess orbital symmetries:
       Occupied  (SG) (SG) (SG)
       Virtual   (PI) (PI) (SG) (SG) (PI) (PI) (SG) (SG) (PI) (PI)
                 (DLTA) (DLTA) (SG) (PI) (PI) (SG) (PI) (PI) (SG)
                 (SG) (SG) (PI) (PI) (DLTA) (DLTA) (DLTA) (DLTA)
                 (PHI) (PHI) (SG) (PI) (PI) (SG) (DLTA) (DLTA)
                 (PI) (PI) (PI) (PI) (SG) (SG) (PI) (PI) (SG) (SG)
                 (PI) (PI) (DLTA) (DLTA) (SG) (DLTA) (DLTA) (PI)
                 (PI) (PHI) (PHI) (?A) (?A) (PHI) (PHI) (DLTA)
                 (DLTA) (SG) (PI) (PI) (PHI) (PHI) (SG) (DLTA)
                 (DLTA) (SG) (PI) (PI) (SG) (DLTA) (DLTA) (PI)
                 (PI) (PI) (PI) (SG) (SG) (PI) (PI) (SG) (DLTA)
                 (DLTA) (PI) (PI) (SG) (?A) (?A) (PHI) (PHI) (DLTA)
                 (DLTA) (PI) (PI) (PHI) (PHI) (DLTA) (DLTA) (PI)
                 (PI) (SG) (SG) (PHI) (PHI) (DLTA) (DLTA) (PI)
                 (PI) (SG) (SG) (PI) (PI) (SG) (DLTA) (DLTA) (PI)
                 (PI) (SG) (SG)
 The electronic state of the initial guess is 1-SG.
 Leave Link  401 at Thu May 26 10:45:59 2022, MaxMem=   104857600 cpu:               0.2 elap:               0.2
 (Enter /apps/software/g16/l502.exe)
 Keep R1 ints in memory in symmetry-blocked form, NReq=40143665.
 FoFCou: FMM=F IPFlag=           0 FMFlag=           0 FMFlg1=           0
         NFxFlg=           0 DoJE=F BraDBF=F KetDBF=F FulRan=T
         wScrn=  0.000000 ICntrl=       600 IOpCl=  0 I1Cent=           0 NGrid=           0
         NMat0=    1 NMatS0=   8001 NMatT0=    0 NMatD0=    1 NMtDS0=    0 NMtDT0=    0
 Petite list used in FoFCou.
 Closed shell SCF:
 Using DIIS extrapolation, IDIIS=  1040.
 NGot=   104857600 LenX=    96673173 LenY=    96647132
 Requested convergence on RMS density matrix=1.00D-08 within 128 cycles.
 Requested convergence on MAX density matrix=1.00D-06.
 Requested convergence on             energy=1.00D-06.
 No special actions if energy rises.

 Cycle   1  Pass 1  IDiag  1:
 E= -24.8376818698535    
 DIIS: error= 4.30D-02 at cycle   1 NSaved=   1.
 NSaved= 1 IEnMin= 1 EnMin= -24.8376818698535     IErMin= 1 ErrMin= 4.30D-02
 ErrMax= 4.30D-02  0.00D+00 EMaxC= 1.00D-01 BMatC= 5.96D-02 BMatP= 5.96D-02
 IDIUse=3 WtCom= 5.70D-01 WtEn= 4.30D-01
 Coeff-Com:  0.100D+01
 Coeff-En:   0.100D+01
 Coeff:      0.100D+01
 Gap=     0.003 Goal=   None    Shift=    0.000
 GapD=    0.003 DampG=0.250 DampE=0.500 DampFc=0.2500 IDamp=-1.
 Damping current iteration by 2.50D-01
 RMSDP=3.14D-03 MaxDP=1.25D-01              OVMax= 6.01D-01

 Cycle   2  Pass 1  IDiag  1:
 E= -24.8657024975434     Delta-E=       -0.028020627690 Rises=F Damp=T
 DIIS: error= 2.92D-02 at cycle   2 NSaved=   2.
 NSaved= 2 IEnMin= 2 EnMin= -24.8657024975434     IErMin= 2 ErrMin= 2.92D-02
 ErrMax= 2.92D-02  0.00D+00 EMaxC= 1.00D-01 BMatC= 2.81D-02 BMatP= 5.96D-02
 IDIUse=3 WtCom= 7.08D-01 WtEn= 2.92D-01
 Coeff-Com: -0.198D+01 0.298D+01
 Coeff-En:   0.000D+00 0.100D+01
 Coeff:     -0.140D+01 0.240D+01
 Gap=     0.174 Goal=   None    Shift=    0.000
 RMSDP=1.21D-03 MaxDP=5.24D-02 DE=-2.80D-02 OVMax= 3.01D-01

 Cycle   3  Pass 1  IDiag  1:
 E= -24.9398597375656     Delta-E=       -0.074157240022 Rises=F Damp=F
 DIIS: error= 5.55D-03 at cycle   3 NSaved=   3.
 NSaved= 3 IEnMin= 3 EnMin= -24.9398597375656     IErMin= 3 ErrMin= 5.55D-03
 ErrMax= 5.55D-03  0.00D+00 EMaxC= 1.00D-01 BMatC= 6.87D-04 BMatP= 2.81D-02
 IDIUse=3 WtCom= 9.44D-01 WtEn= 5.55D-02
 Coeff-Com: -0.504D+00 0.643D+00 0.861D+00
 Coeff-En:   0.000D+00 0.000D+00 0.100D+01
 Coeff:     -0.476D+00 0.608D+00 0.869D+00
 Gap=     0.228 Goal=   None    Shift=    0.000
 RMSDP=2.52D-04 MaxDP=1.02D-02 DE=-7.42D-02 OVMax= 2.77D-02

 Cycle   4  Pass 1  IDiag  1:
 E= -24.9417610808578     Delta-E=       -0.001901343292 Rises=F Damp=F
 DIIS: error= 1.89D-03 at cycle   4 NSaved=   4.
 NSaved= 4 IEnMin= 4 EnMin= -24.9417610808578     IErMin= 4 ErrMin= 1.89D-03
 ErrMax= 1.89D-03  0.00D+00 EMaxC= 1.00D-01 BMatC= 9.57D-05 BMatP= 6.87D-04
 IDIUse=3 WtCom= 9.81D-01 WtEn= 1.89D-02
 Coeff-Com: -0.905D-02 0.311D-01-0.618D+00 0.160D+01
 Coeff-En:   0.000D+00 0.000D+00 0.000D+00 0.100D+01
 Coeff:     -0.888D-02 0.305D-01-0.606D+00 0.158D+01
 Gap=     0.231 Goal=   None    Shift=    0.000
 RMSDP=1.55D-04 MaxDP=5.16D-03 DE=-1.90D-03 OVMax= 1.25D-02

 Cycle   5  Pass 1  IDiag  1:
 E= -24.9421040996174     Delta-E=       -0.000343018760 Rises=F Damp=F
 DIIS: error= 4.48D-04 at cycle   5 NSaved=   5.
 NSaved= 5 IEnMin= 5 EnMin= -24.9421040996174     IErMin= 5 ErrMin= 4.48D-04
 ErrMax= 4.48D-04  0.00D+00 EMaxC= 1.00D-01 BMatC= 5.56D-06 BMatP= 9.57D-05
 IDIUse=3 WtCom= 9.96D-01 WtEn= 4.48D-03
 Coeff-Com: -0.138D-01 0.177D-01 0.442D-01-0.376D+00 0.133D+01
 Coeff-En:   0.000D+00 0.000D+00 0.000D+00 0.000D+00 0.100D+01
 Coeff:     -0.137D-01 0.176D-01 0.440D-01-0.374D+00 0.133D+01
 Gap=     0.231 Goal=   None    Shift=    0.000
 RMSDP=4.59D-05 MaxDP=1.47D-03 DE=-3.43D-04 OVMax= 3.66D-03

 Cycle   6  Pass 1  IDiag  1:
 E= -24.9421232748607     Delta-E=       -0.000019175243 Rises=F Damp=F
 DIIS: error= 5.14D-05 at cycle   6 NSaved=   6.
 NSaved= 6 IEnMin= 6 EnMin= -24.9421232748607     IErMin= 6 ErrMin= 5.14D-05
 ErrMax= 5.14D-05  0.00D+00 EMaxC= 1.00D-01 BMatC= 6.78D-08 BMatP= 5.56D-06
 IDIUse=1 WtCom= 1.00D+00 WtEn= 0.00D+00
 Coeff-Com: -0.109D-02 0.155D-02-0.773D-02 0.909D-01-0.389D+00 0.131D+01
 Coeff:     -0.109D-02 0.155D-02-0.773D-02 0.909D-01-0.389D+00 0.131D+01
 Gap=     0.231 Goal=   None    Shift=    0.000
 RMSDP=5.82D-06 MaxDP=2.41D-04 DE=-1.92D-05 OVMax= 5.58D-04

 Cycle   7  Pass 1  IDiag  1:
 E= -24.9421235753431     Delta-E=       -0.000000300482 Rises=F Damp=F
 DIIS: error= 1.42D-05 at cycle   7 NSaved=   7.
 NSaved= 7 IEnMin= 7 EnMin= -24.9421235753431     IErMin= 7 ErrMin= 1.42D-05
 ErrMax= 1.42D-05  0.00D+00 EMaxC= 1.00D-01 BMatC= 3.18D-09 BMatP= 6.78D-08
 IDIUse=1 WtCom= 1.00D+00 WtEn= 0.00D+00
 Coeff-Com: -0.393D-03 0.474D-03 0.313D-02-0.373D-01 0.151D+00-0.606D+00
 Coeff-Com:  0.149D+01
 Coeff:     -0.393D-03 0.474D-03 0.313D-02-0.373D-01 0.151D+00-0.606D+00
 Coeff:      0.149D+01
 Gap=     0.231 Goal=   None    Shift=    0.000
 RMSDP=1.87D-06 MaxDP=7.51D-05 DE=-3.00D-07 OVMax= 1.90D-04

 Cycle   8  Pass 1  IDiag  1:
 E= -24.9421235958844     Delta-E=       -0.000000020541 Rises=F Damp=F
 DIIS: error= 2.34D-06 at cycle   8 NSaved=   8.
 NSaved= 8 IEnMin= 8 EnMin= -24.9421235958844     IErMin= 8 ErrMin= 2.34D-06
 ErrMax= 2.34D-06  0.00D+00 EMaxC= 1.00D-01 BMatC= 1.35D-10 BMatP= 3.18D-09
 IDIUse=1 WtCom= 1.00D+00 WtEn= 0.00D+00
 Coeff-Com: -0.149D-03 0.232D-03-0.149D-02 0.130D-01-0.482D-01 0.208D+00
 Coeff-Com: -0.634D+00 0.146D+01
 Coeff:     -0.149D-03 0.232D-03-0.149D-02 0.130D-01-0.482D-01 0.208D+00
 Coeff:     -0.634D+00 0.146D+01
 Gap=     0.231 Goal=   None    Shift=    0.000
 RMSDP=2.42D-07 MaxDP=7.78D-06 DE=-2.05D-08 OVMax= 2.26D-05

 Cycle   9  Pass 1  IDiag  1:
 E= -24.9421235963411     Delta-E=       -0.000000000457 Rises=F Damp=F
 DIIS: error= 6.03D-07 at cycle   9 NSaved=   9.
 NSaved= 9 IEnMin= 9 EnMin= -24.9421235963411     IErMin= 9 ErrMin= 6.03D-07
 ErrMax= 6.03D-07  0.00D+00 EMaxC= 1.00D-01 BMatC= 1.37D-11 BMatP= 1.35D-10
 IDIUse=1 WtCom= 1.00D+00 WtEn= 0.00D+00
 Coeff-Com: -0.110D-04 0.128D-04 0.748D-04-0.152D-02 0.544D-02-0.282D-01
 Coeff-Com:  0.975D-01-0.302D+00 0.123D+01
 Coeff:     -0.110D-04 0.128D-04 0.748D-04-0.152D-02 0.544D-02-0.282D-01
 Coeff:      0.975D-01-0.302D+00 0.123D+01
 Gap=     0.231 Goal=   None    Shift=    0.000
 RMSDP=6.41D-08 MaxDP=2.71D-06 DE=-4.57D-10 OVMax= 4.42D-06

 Cycle  10  Pass 1  IDiag  1:
 E= -24.9421235963781     Delta-E=       -0.000000000037 Rises=F Damp=F
 DIIS: error= 6.93D-08 at cycle  10 NSaved=  10.
 NSaved=10 IEnMin=10 EnMin= -24.9421235963781     IErMin=10 ErrMin= 6.93D-08
 ErrMax= 6.93D-08  0.00D+00 EMaxC= 1.00D-01 BMatC= 1.15D-13 BMatP= 1.37D-11
 IDIUse=1 WtCom= 1.00D+00 WtEn= 0.00D+00
 Coeff-Com: -0.143D-05 0.180D-05 0.130D-04 0.789D-05 0.176D-03 0.688D-03
 Coeff-Com: -0.601D-02 0.348D-01-0.347D+00 0.132D+01
 Coeff:     -0.143D-05 0.180D-05 0.130D-04 0.789D-05 0.176D-03 0.688D-03
 Coeff:     -0.601D-02 0.348D-01-0.347D+00 0.132D+01
 Gap=     0.231 Goal=   None    Shift=    0.000
 RMSDP=7.16D-09 MaxDP=2.81D-07 DE=-3.70D-11 OVMax= 4.42D-07

 SCF Done:  E(RHF) =  -24.9421235964     A.U. after   10 cycles
            NFock= 10  Conv=0.72D-08     -V/T= 2.0079
 KE= 2.474626370427D+01 PE=-5.882620206896D+01 EE= 8.310975376244D+00
 Leave Link  502 at Thu May 26 10:46:03 2022, MaxMem=   104857600 cpu:               3.7 elap:               3.8
 (Enter /apps/software/g16/l801.exe)
 Windowed orbitals will be sorted by symmetry type.
 ExpMin= 1.88D-02 ExpMax= 2.39D+04 ExpMxC= 2.30D+02 IAcc=3 IRadAn=         5 AccDes= 0.00D+00
 HarFok:  IExCor=  205 AccDes= 0.00D+00 IRadAn=         5 IDoV=-2 UseB2=F ITyADJ=14
 ICtDFT= 12500011 ScaDFX=  1.000000  1.000000  1.000000  1.000000
 Largest valence mixing into a core orbital is  4.03D-04
 Largest core mixing into a valence orbital is  1.71D-04
 Range of M.O.s used for correlation:     2   126
 NBasis=   126 NAE=     3 NBE=     3 NFC=     1 NFV=     0
 NROrb=    125 NOA=     2 NOB=     2 NVA=   123 NVB=   123
 Leave Link  801 at Thu May 26 10:46:03 2022, MaxMem=   104857600 cpu:               0.1 elap:               0.1
 (Enter /apps/software/g16/l804.exe)
 Closed-shell transformation, MDV=   104857600 ITran=4 ISComp=2.
 Unit  1 TFree=        527294 TCopy=        350885.
 Semi-Direct transformation.
 ModeAB=           2 MOrb=             2 LenV=     104241337
 LASXX=       493564 LTotXX=      493564 LenRXX=      493564
 LTotAB=      509833 MaxLAS=     3220000 LenRXY=     3220000
 NonZer=     3355000 LenScr=     5750784 LnRSAI=           0
 LnScr1=           0 LExtra=           0 Total=      9464348
 MaxDsk=          -1 SrtSym=           F ITran=            4
 DoSDTr:  NPSUse=  1
 JobTyp=0 Pass  1:  I=   1 to   2.
 (rs|ai) integrals will be sorted in core.
 Complete sort for first half transformation.
 First half transformation complete.
 Complete sort for second half transformation.
 Second half transformation complete.
 Spin components of T(2) and E(2):
     alpha-alpha T2 =       0.1579991959D-02 E2=     -0.2277567750D-02
     alpha-beta  T2 =       0.9793482379D-01 E2=     -0.9324554064D-01
     beta-beta   T2 =       0.1579991959D-02 E2=     -0.2277567750D-02
 ANorm=    0.1049330647D+01
 E2 =    -0.9780067614D-01 EUMP2 =    -0.25039924272515D+02
 Leave Link  804 at Thu May 26 10:46:08 2022, MaxMem=   104857600 cpu:               5.1 elap:               5.1
 (Enter /apps/software/g16/l913.exe)
 CIDS:  MDV=   104857600.
 Frozen-core window:  NFC=   1 NFV=   0.
 IFCWin=0 IBDFC=1 NFBD=     0     0 NFCmp=     0     0 NFFFC=     0     0
 Using DD3R+UMP44R for 1st iteration.
 Using DD4RQ for 2nd and later iterations.
 Keep R2 and R3 ints in memory in symmetry-blocked form, NReq=40146875.
 FoFCou: FMM=F IPFlag=           0 FMFlag=           0 FMFlg1=           0
         NFxFlg=           0 DoJE=F BraDBF=F KetDBF=F FulRan=T
         wScrn=  0.000000 ICntrl=       600 IOpCl=  0 I1Cent=           0 NGrid=           0
         NMat0=    1 NMatS0=   8001 NMatT0=    0 NMatD0=    1 NMtDS0=    0 NMtDT0=    0
 Petite list used in FoFCou.
 CIDS: In Core Option IDoMem=           1.
 CCSD(T)
 =======
 Iterations=  50 Convergence= 0.100D-06
 Produce multiple copies of IABC intergrals
 Iteration Nr.   1
 **********************
 DD1Dir will call FoFMem   1 times, MxPair=         6
 NAB=     3 NAA=     0 NBB=     0.
 MP4(R+Q)=  0.66589939D-02
 Maximum subspace dimension=  5
 A-vector RMS=  1.5971003D-02 Max=  1.0902515D-01 conv= 1.00D-05.
 RLE energy=       -0.1187016122
 E3=       -0.25211748D-01        EUMP3=      -0.25065136020D+02
 E4(DQ)=   -0.91995563D-02        UMP4(DQ)=   -0.25074335577D+02
 E4(SDQ)=  -0.17649141D-01        UMP4(SDQ)=  -0.25082785161D+02
 VARIATIONAL ENERGIES WITH THE FIRST-ORDER WAVEFUNCTION:
 DE(Corr)= -0.11504340     E(Corr)=     -25.057166999    
 NORM(A)=   0.11095486D+01
 Iteration Nr.   2
 **********************
 DD1Dir will call FoFMem   1 times, MxPair=         6
 NAB=     3 NAA=     0 NBB=     0.
 A-vector RMS=  3.4594192D-03 Max=  1.0749138D-01 conv= 1.00D-05.
 RLE energy=       -0.1487441310
 DE(Corr)= -0.13786417     E(CORR)=     -25.079987767     Delta=-2.28D-02
 NORM(A)=   0.11937396D+01
 Iteration Nr.   3
 **********************
 DD1Dir will call FoFMem   1 times, MxPair=         6
 NAB=     3 NAA=     0 NBB=     0.
 A-vector RMS=  1.0068469D-02 Max=  7.2464436D-02 conv= 1.00D-05.
 RLE energy=       -0.1520553702
 DE(Corr)= -0.14338270     E(CORR)=     -25.085506296     Delta=-5.52D-03
 NORM(A)=   0.12618376D+01
 Iteration Nr.   4
 **********************
 DD1Dir will call FoFMem   1 times, MxPair=         6
 NAB=     3 NAA=     0 NBB=     0.
 A-vector RMS=  2.6617407D-03 Max=  2.8255708D-02 conv= 1.00D-05.
 RLE energy=       -0.1532019031
 DE(Corr)= -0.15436519     E(CORR)=     -25.096488787     Delta=-1.10D-02
 NORM(A)=   0.12774912D+01
 Iteration Nr.   5
 **********************
 DD1Dir will call FoFMem   1 times, MxPair=         6
 NAB=     3 NAA=     0 NBB=     0.
 A-vector RMS=  2.0778384D-03 Max=  1.5307423D-02 conv= 1.00D-05.
 RLE energy=       -0.1557657400
 DE(Corr)= -0.15318888     E(CORR)=     -25.095312475     Delta= 1.18D-03
 NORM(A)=   0.13078998D+01
 Iteration Nr.   6
 **********************
 DD1Dir will call FoFMem   1 times, MxPair=         6
 NAB=     3 NAA=     0 NBB=     0.
 A-vector RMS=  6.5464996D-04 Max=  4.8206351D-03 conv= 1.00D-05.
 RLE energy=       -0.1547566656
 DE(Corr)= -0.15562422     E(CORR)=     -25.097747816     Delta=-2.44D-03
 NORM(A)=   0.12999252D+01
 Iteration Nr.   7
 **********************
 DD1Dir will call FoFMem   1 times, MxPair=         6
 NAB=     3 NAA=     0 NBB=     0.
 A-vector RMS=  1.6726842D-04 Max=  1.2030004D-03 conv= 1.00D-05.
 RLE energy=       -0.1547540525
 DE(Corr)= -0.15471995     E(CORR)=     -25.096843545     Delta= 9.04D-04
 NORM(A)=   0.13006743D+01
 Iteration Nr.   8
 **********************
 DD1Dir will call FoFMem   1 times, MxPair=         6
 NAB=     3 NAA=     0 NBB=     0.
 A-vector RMS=  4.4518738D-05 Max=  3.0297520D-04 conv= 1.00D-05.
 RLE energy=       -0.1548095616
 DE(Corr)= -0.15476623     E(CORR)=     -25.096889829     Delta=-4.63D-05
 NORM(A)=   0.13012562D+01
 Iteration Nr.   9
 **********************
 DD1Dir will call FoFMem   1 times, MxPair=         6
 NAB=     3 NAA=     0 NBB=     0.
 A-vector RMS=  9.1342398D-06 Max=  4.7239899D-05 conv= 1.00D-05.
 RLE energy=       -0.1548085888
 DE(Corr)= -0.15481107     E(CORR)=     -25.096934667     Delta=-4.48D-05
 NORM(A)=   0.13011876D+01
 Iteration Nr.  10
 **********************
 DD1Dir will call FoFMem   1 times, MxPair=         6
 NAB=     3 NAA=     0 NBB=     0.
 A-vector RMS=  7.3841434D-06 Max=  5.1254143D-05 conv= 1.00D-05.
 RLE energy=       -0.1547980910
 DE(Corr)= -0.15479899     E(CORR)=     -25.096922588     Delta= 1.21D-05
 NORM(A)=   0.13011827D+01
 Iteration Nr.  11
 **********************
 DD1Dir will call FoFMem   1 times, MxPair=         6
 NAB=     3 NAA=     0 NBB=     0.
 A-vector RMS=  2.7169304D-06 Max=  2.3623752D-05 conv= 1.00D-05.
 RLE energy=       -0.1548035810
 DE(Corr)= -0.15480339     E(CORR)=     -25.096926988     Delta=-4.40D-06
 NORM(A)=   0.13011993D+01
 Iteration Nr.  12
 **********************
 DD1Dir will call FoFMem   1 times, MxPair=         6
 NAB=     3 NAA=     0 NBB=     0.
 A-vector RMS=  5.0607917D-07 Max=  3.2233615D-06 conv= 1.00D-05.
 RLE energy=       -0.1548031475
 DE(Corr)= -0.15480290     E(CORR)=     -25.096926500     Delta= 4.88D-07
 NORM(A)=   0.13012001D+01
 Iteration Nr.  13
 **********************
 DD1Dir will call FoFMem   1 times, MxPair=         6
 NAB=     3 NAA=     0 NBB=     0.
 A-vector RMS=  1.0692453D-07 Max=  7.3812704D-07 conv= 1.00D-05.
 RLE energy=       -0.1548030577
 DE(Corr)= -0.15480313     E(CORR)=     -25.096926722     Delta=-2.22D-07
 NORM(A)=   0.13012003D+01
 Iteration Nr.  14
 **********************
 DD1Dir will call FoFMem   1 times, MxPair=         6
 NAB=     3 NAA=     0 NBB=     0.
 A-vector RMS=  8.6982173D-08 Max=  5.0971131D-07 conv= 1.00D-05.
 RLE energy=       -0.1548031617
 DE(Corr)= -0.15480308     E(CORR)=     -25.096926672     Delta= 4.91D-08
 NORM(A)=   0.13012014D+01
 CI/CC converged in   14 iterations to DelEn= 4.91D-08 Conv= 1.00D-07 ErrA1= 8.70D-08 Conv= 1.00D-05
 Wavefunction amplitudes converged. E(Corr)=     -25.096926672    
 Dominant configurations:
 ***********************
 Spin Case        I    J    A    B          Value
    AA            3         4           -0.265025D+00
   ABAB           2    2    5    5      -0.116263D+00
   ABAB           2    2    6    6      -0.116263D+00
   ABAB           3    3    4    4      -0.574281D+00
   ABAB           3    3    4    7       0.145833D+00
   ABAB           3    3    7    4       0.145833D+00
 Largest amplitude= 5.74D-01
 IPart=  1 IA=    8   11.10% done.
 IPart=  1 IA=   14   20.10% done.
 IPart=  1 IA=   22   31.35% done.
 IPart=  1 IA=   29   40.49% done.
 IPart=  1 IA=   37   50.14% done.
 IPart=  1 IA=   47   61.00% done.
 IPart=  1 IA=   57   70.53% done.
 IPart=  1 IA=   69   80.21% done.
 IPart=  1 IA=   85   90.12% done.
 Time for triples=        0.65 seconds.
 T4(CCSD)= -0.19892997D-01
 T5(CCSD)=  0.40351353D-02
 CCSD(T)= -0.25112784534D+02
 Discarding MO integrals.
 Leave Link  913 at Thu May 26 10:46:13 2022, MaxMem=   104857600 cpu:               4.8 elap:               4.8
 (Enter /apps/software/g16/l601.exe)
 Copying SCF densities to generalized density rwf, IOpCl= 0 IROHF=0.

 **********************************************************************

            Population analysis using the SCF density.

 **********************************************************************

 Orbital symmetries:
       Occupied  (SG) (SG) (SG)
       Virtual   (SG) (PI) (PI) (SG) (PI) (PI) (SG) (SG) (DLTA)
                 (DLTA) (PI) (PI) (SG) (PI) (PI) (PI) (PI) (SG)
                 (SG) (SG) (PHI) (PHI) (DLTA) (DLTA) (DLTA) (DLTA)
                 (PI) (PI) (SG) (PI) (PI) (SG) (SG) (DLTA) (DLTA)
                 (PI) (PI) (PI) (PI) (SG) (SG) (PI) (PI) (SG) (SG)
                 (?A) (?A) (DLTA) (DLTA) (PHI) (PHI) (DLTA) (DLTA)
                 (PI) (PI) (SG) (PI) (PI) (PHI) (PHI) (DLTA) (DLTA)
                 (SG) (PI) (PI) (PHI) (PHI) (SG) (DLTA) (DLTA)
                 (SG) (PI) (PI) (SG) (DLTA) (DLTA) (PI) (PI) (PI)
                 (PI) (SG) (SG) (PI) (PI) (SG) (?A) (?A) (DLTA)
                 (DLTA) (PHI) (PHI) (PI) (PI) (DLTA) (DLTA) (SG)
                 (PI) (PI) (PHI) (PHI) (DLTA) (DLTA) (PI) (PI)
                 (SG) (SG) (PHI) (PHI) (DLTA) (DLTA) (PI) (PI)
                 (SG) (SG) (PI) (PI) (SG) (DLTA) (DLTA) (PI) (PI)
                 (SG) (SG)
 The electronic state is 1-SG.
 Alpha  occ. eigenvalues --   -7.86580  -0.59800  -0.26520
 Alpha virt. eigenvalues --   -0.03419  -0.02712  -0.02712   0.03053   0.04934
 Alpha virt. eigenvalues --    0.04934   0.06963   0.08788   0.12895   0.12895
 Alpha virt. eigenvalues --    0.13489   0.13489   0.16588   0.25047   0.25047
 Alpha virt. eigenvalues --    0.27631   0.27631   0.27732   0.29764   0.33733
 Alpha virt. eigenvalues --    0.43067   0.43067   0.43755   0.43755   0.45223
 Alpha virt. eigenvalues --    0.45223   0.45566   0.45566   0.46543   0.49209
 Alpha virt. eigenvalues --    0.49209   0.51769   0.59924   0.70467   0.70467
 Alpha virt. eigenvalues --    0.81163   0.81163   0.88487   0.88487   0.90435
 Alpha virt. eigenvalues --    0.91868   0.96250   0.96250   1.08550   1.31246
 Alpha virt. eigenvalues --    1.31435   1.31435   1.32103   1.32103   1.32500
 Alpha virt. eigenvalues --    1.32500   1.32719   1.32719   1.33703   1.33703
 Alpha virt. eigenvalues --    1.34176   1.34446   1.34446   1.36867   1.36867
 Alpha virt. eigenvalues --    1.38697   1.38697   1.43367   1.45799   1.45799
 Alpha virt. eigenvalues --    1.64071   1.64071   1.66544   1.69575   1.69575
 Alpha virt. eigenvalues --    1.80570   1.87489   1.87489   1.94871   2.56454
 Alpha virt. eigenvalues --    2.56454   2.66035   2.66035   2.69423   2.69423
 Alpha virt. eigenvalues --    2.76648   2.87628   3.60621   3.60621   3.70669
 Alpha virt. eigenvalues --    3.82373   3.82373   3.83255   3.83255   3.83631
 Alpha virt. eigenvalues --    3.83631   3.84807   3.84807   3.85662   3.85662
 Alpha virt. eigenvalues --    3.87033   3.94697   3.94697   3.97470   3.97470
 Alpha virt. eigenvalues --    3.99240   3.99240   4.02333   4.02333   4.07285
 Alpha virt. eigenvalues --    4.15530   6.65114   6.65114   6.66424   6.66424
 Alpha virt. eigenvalues --    6.71706   6.71706   6.76070   7.59181   8.05447
 Alpha virt. eigenvalues --    8.05447   8.19438   8.49699   8.49699   8.55679
 Alpha virt. eigenvalues --    8.55679   8.65528  12.95573
          Condensed to atoms (all electrons):
               1          2
     1  B    4.472922   0.196059
     2  H    0.196059   1.134960
 Mulliken charges:
               1
     1  B    0.331019
     2  H   -0.331019
 Sum of Mulliken charges =  -0.00000
 Mulliken charges with hydrogens summed into heavy atoms:
               1
     1  B   -0.000000
 Electronic spatial extent (au):  <R**2>=             59.0448
 Charge=             -0.0000 electrons
 Dipole moment (field-independent basis, Debye):
    X=              0.0000    Y=              0.0000    Z=              5.8613  Tot=              5.8613
 Quadrupole moment (field-independent basis, Debye-Ang):
   XX=             -8.7269   YY=             -8.7269   ZZ=            -20.9762
   XY=              0.0000   XZ=              0.0000   YZ=              0.0000
 Traceless Quadrupole moment (field-independent basis, Debye-Ang):
   XX=              4.0831   YY=              4.0831   ZZ=             -8.1662
   XY=              0.0000   XZ=              0.0000   YZ=              0.0000
 Octapole moment (field-independent basis, Debye-Ang**2):
  XXX=              0.0000  YYY=              0.0000  ZZZ=             38.0905  XYY=              0.0000
  XXY=              0.0000  XXZ=              6.4182  XZZ=              0.0000  YZZ=              0.0000
  YYZ=              6.4182  XYZ=              0.0000
 Hexadecapole moment (field-independent basis, Debye-Ang**3):
 XXXX=            -17.0986 YYYY=            -17.0986 ZZZZ=           -212.9736 XXXY=              0.0000
 XXXZ=              0.0000 YYYX=              0.0000 YYYZ=              0.0000 ZZZX=              0.0000
 ZZZY=              0.0000 XXYY=             -5.6995 XXZZ=            -30.2691 YYZZ=            -30.2691
 XXYZ=              0.0000 YYXZ=              0.0000 ZZXY=              0.0000
 N-N= 8.268393920625D-01 E-N=-5.882620271261D+01  KE= 2.474626370427D+01
 Symmetry A1   KE= 2.474626370427D+01
 Symmetry A2   KE= 2.876261234888D-52
 Symmetry B1   KE= 0.000000000000D+00
 Symmetry B2   KE= 0.000000000000D+00
 Leave Link  601 at Thu May 26 10:46:13 2022, MaxMem=   104857600 cpu:               0.1 elap:               0.1
 (Enter /apps/software/g16/l9999.exe)
 1\1\GINC-CNODE03\SP\RCCSD(T)-FC\Aug-CC-pVQZ\B1H1\LCZ\26-May-2022\0\\#p
  RHF/aug-cc-pVQZ CCSD(T,FC)\\BH CCSD(T) at 3.2 Angstrom\\0,1\B,0,0.,0.
 ,0.\H,0,3.2,0.,0.\\Version=ES64L-G16RevA.03\State=1-SG\HF=-24.9421236\
 MP2=-25.0399243\MP3=-25.065136\MP4D=-25.0809946\MP4DQ=-25.0743356\MP4S
 DQ=-25.0827852\CCSD=-25.0969267\CCSD(T)=-25.1127845\RMSD=7.162e-09\PG=
 C*V [C*(H1B1)]\\@


 NATURE REVEALS EVERY SECRET ONCE.
                    - RALPH WALDO EMERSON
 Job cpu time:       0 days  0 hours  0 minutes 14.4 seconds.
 Elapsed time:       0 days  0 hours  0 minutes 14.4 seconds.
 File lengths (MBytes):  RWF=     81 Int=      0 D2E=      0 Chk=      3 Scr=      1
 Normal termination of Gaussian 16 at Thu May 26 10:46:13 2022.

Sender: Unischeduler System <lcz@mgt01>
Subject: Job 136200: <#!/bin/bash
#BSUB -J intel
#BSUB -o BH-3.2-CCSD_T-G.out
#BSUB -n 8
#BSUB -q cqueue
#BSUB -R span[hosts=1]
export g16root=/apps/software
source /apps/software/g16/bsd/g16.profile
export GAUSS_SCRDIR=/scratch
/apps/software/g16/g16 < BH-3.2-CCSD_T-G.inp > BH-3.2-CCSD_T-G.out> Done

Job <#!/bin/bash
#BSUB -J intel
#BSUB -o BH-3.2-CCSD_T-G.out
#BSUB -n 8
#BSUB -q cqueue
#BSUB -R span[hosts=1]
export g16root=/apps/software
source /apps/software/g16/bsd/g16.profile
export GAUSS_SCRDIR=/scratch
/apps/software/g16/g16 < BH-3.2-CCSD_T-G.inp > BH-3.2-CCSD_T-G.out> was submitted from host <mgt01> by user <lcz>.
Job was executed on host(s) <8*cnode03>, in queue <cqueue>, as user <lcz>.
</apps/users/lcz> was used as the home directory.
</apps/users/lcz/exe13/GCCSD_T> was used as the working directory.
Started at 2022-05-26 10:45:58
Results reported at 2022-05-26 10:46:13

Your job looked like:

------------------------------------------------------------
# User input
#!/bin/bash
#BSUB -J intel
#BSUB -o BH-3.2-CCSD_T-G.out
#BSUB -n 8
#BSUB -q cqueue
#BSUB -R span[hosts=1]
export g16root=/apps/software
source /apps/software/g16/bsd/g16.profile
export GAUSS_SCRDIR=/scratch
/apps/software/g16/g16 < BH-3.2-CCSD_T-G.inp > BH-3.2-CCSD_T-G.out
------------------------------------------------------------

Successfully completed.

Resource usage summary:

    CPU time   :           14.06 sec.
    Max Memory :               489 MB
    Max Processes  :               5


The output (if any) follows:

