
                                        *****************
                                        * O   R   C   A *
                                        *****************

                                            #,                                       
                                            ###                                      
                                            ####                                     
                                            #####                                    
                                            ######                                   
                                           ########,                                 
                                     ,,################,,,,,                         
                               ,,#################################,,                 
                          ,,##########################################,,             
                       ,#########################################, ''#####,          
                    ,#############################################,,   '####,        
                  ,##################################################,,,,####,       
                ,###########''''           ''''###############################       
              ,#####''   ,,,,##########,,,,          '''####'''          '####       
            ,##' ,,,,###########################,,,                        '##       
           ' ,,###''''                  '''############,,,                           
         ,,##''                                '''############,,,,        ,,,,,,###''
      ,#''                                            '''#######################'''  
     '                                                          ''''####''''         
             ,#######,   #######,   ,#######,      ##                                
            ,#'     '#,  ##    ##  ,#'     '#,    #''#        ######   ,####,        
            ##       ##  ##   ,#'  ##            #'  '#       #        #'  '#        
            ##       ##  #######   ##           ,######,      #####,   #    #        
            '#,     ,#'  ##    ##  '#,     ,#' ,#      #,         ##   #,  ,#        
             '#######'   ##     ##  '#######'  #'      '#     #####' # '####'        



                  #######################################################
                  #                        -***-                        #
                  #          Department of theory and spectroscopy      #
                  #    Directorship and core code : Frank Neese         #
                  #        Max Planck Institute fuer Kohlenforschung    #
                  #                Kaiser Wilhelm Platz 1               #
                  #                 D-45470 Muelheim/Ruhr               #
                  #                      Germany                        #
                  #                                                     #
                  #                  All rights reserved                #
                  #                        -***-                        #
                  #######################################################


                         Program Version 5.0.0 -  RELEASE  -
                                (SVN: $Rev: 19529$)
                ($Date: 2021-06-28 11:36:33 +0200 (Mo, 28 Jun 2021) $)


 With contributions from (in alphabetic order):
   Daniel Aravena         : Magnetic Suceptibility
   Michael Atanasov       : Ab Initio Ligand Field Theory (pilot matlab implementation)
   Alexander A. Auer      : GIAO ZORA, VPT2 properties, NMR spectrum
   Ute Becker             : Parallelization
   Giovanni Bistoni       : ED, misc. LED, open-shell LED, HFLD
   Martin Brehm           : Molecular dynamics
   Dmytro Bykov           : SCF Hessian
   Vijay G. Chilkuri      : MRCI spin determinant printing, contributions to CSF-ICE
   Dipayan Datta          : RHF DLPNO-CCSD density
   Achintya Kumar Dutta   : EOM-CC, STEOM-CC
   Dmitry Ganyushin       : Spin-Orbit,Spin-Spin,Magnetic field MRCI
   Miquel Garcia          : C-PCM Hessian, Gaussian charge scheme
   Yang Guo               : DLPNO-NEVPT2, F12-NEVPT2, CIM, IAO-localization
   Andreas Hansen         : Spin unrestricted coupled pair/coupled cluster methods
   Benjamin Helmich-Paris : MC-RPA, TRAH-SCF, COSX integrals
   Lee Huntington         : MR-EOM, pCC
   Robert Izsak           : Overlap fitted RIJCOSX, COSX-SCS-MP3, EOM
   Marcus Kettner         : VPT2
   Christian Kollmar      : KDIIS, OOCD, Brueckner-CCSD(T), CCSD density, CASPT2, CASPT2-K
   Simone Kossmann        : Meta GGA functionals, TD-DFT gradient, OOMP2, MP2 Hessian
   Martin Krupicka        : Initial AUTO-CI
   Lucas Lang             : DCDCAS
   Marvin Lechner         : AUTO-CI (C++ implementation), FIC-MRCC
   Dagmar Lenk            : GEPOL surface, SMD
   Dimitrios Liakos       : Extrapolation schemes; Compound Job, initial MDCI parallelization
   Dimitrios Manganas     : Further ROCIS development; embedding schemes
   Dimitrios Pantazis     : SARC Basis sets
   Anastasios Papadopoulos: AUTO-CI, single reference methods and gradients
   Taras Petrenko         : DFT Hessian,TD-DFT gradient, ASA, ECA, R-Raman, ABS, FL, XAS/XES, NRVS
   Peter Pinski           : DLPNO-MP2, DLPNO-MP2 Gradient
   Christoph Reimann      : Effective Core Potentials
   Marius Retegan         : Local ZFS, SOC
   Christoph Riplinger    : Optimizer, TS searches, QM/MM, DLPNO-CCSD(T), (RO)-DLPNO pert. Triples
   Tobias Risthaus        : Range-separated hybrids, TD-DFT gradient, RPA, STAB
   Michael Roemelt        : Original ROCIS implementation
   Masaaki Saitow         : Open-shell DLPNO-CCSD energy and density
   Barbara Sandhoefer     : DKH picture change effects
   Avijit Sen             : IP-ROCIS
   Kantharuban Sivalingam : CASSCF convergence, NEVPT2, FIC-MRCI
   Bernardo de Souza      : ESD, SOC TD-DFT
   Georgi Stoychev        : AutoAux, RI-MP2 NMR
   Willem Van den Heuvel  : Paramagnetic NMR
   Boris Wezisla          : Elementary symmetry handling
   Frank Wennmohs         : Technical directorship


 We gratefully acknowledge several colleagues who have allowed us to
 interface, adapt or use parts of their codes:
   Stefan Grimme, W. Hujo, H. Kruse, P. Pracht,  : VdW corrections, initial TS optimization,
                  C. Bannwarth, S. Ehlert          DFT functionals, gCP, sTDA/sTD-DF
   Ed Valeev, F. Pavosevic, A. Kumar             : LibInt (2-el integral package), F12 methods
   Garnet Chan, S. Sharma, J. Yang, R. Olivares  : DMRG
   Ulf Ekstrom                                   : XCFun DFT Library
   Mihaly Kallay                                 : mrcc  (arbitrary order and MRCC methods)
   Jiri Pittner, Ondrej Demel                    : Mk-CCSD
   Frank Weinhold                                : gennbo (NPA and NBO analysis)
   Christopher J. Cramer and Donald G. Truhlar   : smd solvation model
   Lars Goerigk                                  : TD-DFT with DH, B97 family of functionals
   V. Asgeirsson, H. Jonsson                     : NEB implementation
   FAccTs GmbH                                   : IRC, NEB, NEB-TS, DLPNO-Multilevel, CI-OPT
                                                   MM, QMMM, 2- and 3-layer-ONIOM, Crystal-QMMM,
                                                   LR-CPCM, SF, NACMEs, symmetry and pop. for TD-DFT,
                                                   nearIR, NL-DFT gradient (VV10), updates on ESD,
                                                   ML-optimized integration grids
   S Lehtola, MJT Oliveira, MAL Marques          : LibXC Library
   Liviu Ungur et al                             : ANISO software


 Your calculation uses the libint2 library for the computation of 2-el integrals
 For citations please refer to: http://libint.valeyev.net

 Your ORCA version has been built with support for libXC version: 5.1.0
 For citations please refer to: https://tddft.org/programs/libxc/

 This ORCA versions uses:
   CBLAS   interface :  Fast vector & matrix operations
   LAPACKE interface :  Fast linear algebra routines
   SCALAPACK package :  Parallel linear algebra routines
   Shared memory     :  Shared parallel matrices
   BLAS/LAPACK       :  OpenBLAS 0.3.15  USE64BITINT DYNAMIC_ARCH NO_AFFINITY SkylakeX SINGLE_THREADED
        Core in use  :  SkylakeX
   Copyright (c) 2011-2014, The OpenBLAS Project


================================================================================

----- Orbital basis set information -----
Your calculation utilizes the basis: aug-cc-pVQZ 
    H, B-Ne : Obtained from the ccRepo (grant-hill.group.shef.ac.uk/ccrepo) Feb. 2017
              R. A. Kendall, T. H. Dunning, Jr., R. J. Harrison, J. Chem. Phys. 96, 6796 (1992)
         He : Obtained from the ccRepo (grant-hill.group.shef.ac.uk/ccrepo) Feb. 2017
              D. E. Woon, T. H. Dunning, Jr., J. Chem. Phys. 100, 2975 (1994)
  Li-Be, Na : Obtained from the ccRepo (grant-hill.group.shef.ac.uk/ccrepo) Feb. 2017
              B. P. Prascher, D. E. Woon, K. A. Peterson, T. H. Dunning, Jr., A. K. Wilson, Theor. Chem. Acc. 128, 69 (2011)
         Mg : Obtained from the Peterson Research Group Website (tyr0.chem.wsu.edu/~kipeters) Feb. 2017
              B. P. Prascher, D. E. Woon, K. A. Peterson, T. H. Dunning, Jr., A. K. Wilson, Theor. Chem. Acc. 128, 69 (2011)
      Al-Ar : Obtained from the ccRepo (grant-hill.group.shef.ac.uk/ccrepo) Feb. 2017
              D. E. Woon, T. H. Dunning, Jr., J. Chem. Phys. 98, 1358 (1993)
      Sc-Zn : Obtained from the ccRepo (grant-hill.group.shef.ac.uk/ccrepo) Feb. 2017
              N. B. Balabanov, K. A. Peterson, J. Chem. Phys. 123, 064107 (2005)
              N. B. Balabanov, K. A. Peterson, J. Chem. Phys. 125, 074110 (2006)
      Ga-Kr : Obtained from the ccRepo (grant-hill.group.shef.ac.uk/ccrepo) Feb. 2017
              A. K. Wilson, D. E. Woon, K. A. Peterson, T. H. Dunning, Jr., J. Chem. Phys. 110, 7667 (1999)

================================================================================
                                        WARNINGS
                       Please study these warnings very carefully!
================================================================================


WARNING: Post HF methods need fully converged wavefunctions
  ===> : Setting SCFConvForced true
         You can overwrite this default with %scf ConvForced false 


WARNING: MDCI localization with Augmented Hessian Foster-Boys
  ===> : Switching off randomization!

INFO   : the flag for use of the SHARK integral package has been found!

================================================================================
                                       INPUT FILE
================================================================================
NAME = /scratch/BH-4.4-CCSD_T-O_682/BH-4.4-CCSD_T-O.inp
|  1> ! RHF CCSD(T) aug-cc-pVQZ VeryTightSCF
|  2> 
|  3> *xyz 0 1
|  4>  B	0.0	0.0	0.0
|  5>  H	4.4	0.0	0.0
|  6> **                         ****END OF INPUT****
================================================================================

                       ****************************
                       * Single Point Calculation *
                       ****************************

---------------------------------
CARTESIAN COORDINATES (ANGSTROEM)
---------------------------------
  B      0.000000    0.000000    0.000000
  H      4.400000    0.000000    0.000000

----------------------------
CARTESIAN COORDINATES (A.U.)
----------------------------
  NO LB      ZA    FRAG     MASS         X           Y           Z
   0 B     5.0000    0    10.810    0.000000    0.000000    0.000000
   1 H     1.0000    0     1.008    8.314795    0.000000    0.000000

--------------------------------
INTERNAL COORDINATES (ANGSTROEM)
--------------------------------
 B      0   0   0     0.000000000000     0.00000000     0.00000000
 H      1   0   0     4.400000000000     0.00000000     0.00000000

---------------------------
INTERNAL COORDINATES (A.U.)
---------------------------
 B      0   0   0     0.000000000000     0.00000000     0.00000000
 H      1   0   0     8.314794989254     0.00000000     0.00000000

---------------------
BASIS SET INFORMATION
---------------------
There are 2 groups of distinct atoms

 Group   1 Type B   : 22s7p4d3f2g contracted to 6s5p4d3f2g pattern {991111/31111/1111/111/11}
 Group   2 Type H   : 7s4p3d2f contracted to 5s4p3d2f pattern {31111/1111/111/11}

Atom   0B    basis set group =>   1
Atom   1H    basis set group =>   2
------------------------------------------------------------------------------
                           ORCA GTO INTEGRAL CALCULATION
------------------------------------------------------------------------------
------------------------------------------------------------------------------
                   ___                                                        
                  /   \      - P O W E R E D   B Y -                         
                 /     \                                                     
                 |  |  |   _    _      __       _____    __    __             
                 |  |  |  | |  | |    /  \     |  _  \  |  |  /  |          
                  \  \/   | |  | |   /    \    | | | |  |  | /  /          
                 / \  \   | |__| |  /  /\  \   | |_| |  |  |/  /          
                |  |  |   |  __  | /  /__\  \  |    /   |      \           
                |  |  |   | |  | | |   __   |  |    \   |  |\   \          
                \     /   | |  | | |  |  |  |  | |\  \  |  | \   \       
                 \___/    |_|  |_| |__|  |__|  |_| \__\ |__|  \__/        
                                                                              
                      - O R C A' S   B I G   F R I E N D -                    
                                      &                                       
                       - I N T E G R A L  F E E D E R -                       
                                                                              
 v1 FN, 2020, v2 2021                                                         
------------------------------------------------------------------------------


Reading SHARK input file /scratch/BH-4.4-CCSD_T-O_682/BH-4.4-CCSD_T-O.SHARKINP.tmp ... ok
----------------------
SHARK INTEGRAL PACKAGE
----------------------

Number of atoms                             ...      2
Number of basis functions                   ...    126
Number of shells                            ...     34
Maximum angular momentum                    ...      4
Integral batch strategy                     ... SHARK/LIBINT Hybrid
RI-J (if used) integral strategy            ... SPLIT-RIJ (Revised 2003 algorithm where possible)
Printlevel                                  ...      1
Contraction scheme used                     ... SEGMENTED contraction
Coulomb Range Separation                    ... NOT USED
Exchange Range Separation                   ... NOT USED
Finite Nucleus Model                        ... NOT USED
Auxiliary Coulomb fitting basis             ... NOT available
Auxiliary J/K fitting basis                 ... NOT available
Auxiliary Correlation fitting basis         ... NOT available
Auxiliary 'external' fitting basis          ... NOT available
Integral threshold                          ...     1.000000e-12
Primitive cut-off                           ...     1.000000e-14
Primitive pair pre-selection threshold      ...     1.000000e-14

Calculating pre-screening integrals         ... done (  0.1 sec) Dimension = 34
Organizing shell pair data                  ... done (  0.0 sec)
Shell pair information
Total number of shell pairs                 ...       595
Shell pairs after pre-screening             ...       570
Total number of primitive shell pairs       ...      1563
Primitive shell pairs kept                  ...      1362
          la=0 lb=0:     62 shell pairs
          la=1 lb=0:     93 shell pairs
          la=1 lb=1:     43 shell pairs
          la=2 lb=0:     74 shell pairs
          la=2 lb=1:     61 shell pairs
          la=2 lb=2:     27 shell pairs
          la=3 lb=0:     52 shell pairs
          la=3 lb=1:     43 shell pairs
          la=3 lb=2:     33 shell pairs
          la=3 lb=3:     15 shell pairs
          la=4 lb=0:     22 shell pairs
          la=4 lb=1:     18 shell pairs
          la=4 lb=2:     14 shell pairs
          la=4 lb=3:     10 shell pairs
          la=4 lb=4:      3 shell pairs

Calculating one electron integrals          ... done (  0.0 sec)
Calculating Nuclear repulsion               ... done (  0.0 sec) ENN=      0.601337736705 Eh

SHARK setup successfully completed in   0.1 seconds

Maximum memory used throughout the entire GTOINT-calculation: 32.2 MB
-------------------------------------------------------------------------------
                                 ORCA SCF
-------------------------------------------------------------------------------

------------
SCF SETTINGS
------------
Hamiltonian:
 Ab initio Hamiltonian  Method          .... Hartree-Fock(GTOs)


General Settings:
 Integral files         IntName         .... /scratch/BH-4.4-CCSD_T-O_682/BH-4.4-CCSD_T-O
 Hartree-Fock type      HFTyp           .... RHF
 Total Charge           Charge          ....    0
 Multiplicity           Mult            ....    1
 Number of Electrons    NEL             ....    6
 Basis Dimension        Dim             ....  126
 Nuclear Repulsion      ENuc            ....      0.6013377367 Eh

Convergence Acceleration:
 DIIS                   CNVDIIS         .... on
   Start iteration      DIISMaxIt       ....    12
   Startup error        DIISStart       ....  0.200000
   # of expansion vecs  DIISMaxEq       ....     5
   Bias factor          DIISBfac        ....   1.050
   Max. coefficient     DIISMaxC        ....  10.000
 Trust-Rad. Augm. Hess. CNVTRAH         .... auto
   Auto Start mean grad. ratio tolernc. ....  1.125000
   Auto Start start iteration           ....    20
   Auto Start num. interpolation iter.  ....    10
   Max. Number of Micro iterations      ....    16
   Max. Number of Macro iterations      .... Maxiter - #DIIS iter
   Number of Davidson start vectors     ....     2
   Converg. threshold I  (grad. norm)   ....   2.000e-06
   Converg. threshold II (energy diff.) ....   1.000e-09
   Grad. Scal. Fac. for Micro threshold ....   0.100
   Minimum threshold for Micro iter.    ....   0.010
   NR start threshold (gradient norm)   ....   0.001
   Initial trust radius                 ....   0.400
   Minimum AH scaling param. (alpha)    ....   1.000
   Maximum AH scaling param. (alpha)    .... 1000.000
   Orbital update algorithm             .... Taylor
   White noise on init. David. guess    .... on
   Maximum white noise                  ....   0.010
   Quad. conv. algorithm                .... NR
 SOSCF                  CNVSOSCF        .... on
   Start iteration      SOSCFMaxIt      ....   150
   Startup grad/error   SOSCFStart      ....  0.003300
 Level Shifting         CNVShift        .... on
   Level shift para.    LevelShift      ....    0.2500
   Turn off err/grad.   ShiftErr        ....    0.0010
 Zerner damping         CNVZerner       .... off
 Static damping         CNVDamp         .... on
   Fraction old density DampFac         ....    0.7000
   Max. Damping (<1)    DampMax         ....    0.9800
   Min. Damping (>=0)   DampMin         ....    0.0000
   Turn off err/grad.   DampErr         ....    0.1000
 Fernandez-Rico         CNVRico         .... off

SCF Procedure:
 Maximum # iterations   MaxIter         ....   125
 SCF integral mode      SCFMode         .... Direct
   Integral package                     .... SHARK and LIBINT hybrid scheme
 Reset frequency        DirectResetFreq ....    20
 Integral Threshold     Thresh          ....  1.000e-12 Eh
 Primitive CutOff       TCut            ....  1.000e-14 Eh

Convergence Tolerance:
 Convergence Check Mode ConvCheckMode   .... Total+1el-Energy
 Convergence forced     ConvForced      .... 1
 Energy Change          TolE            ....  1.000e-09 Eh
 1-El. energy change                    ....  1.000e-06 Eh
 Orbital Gradient       TolG            ....  2.000e-06
 Orbital Rotation angle TolX            ....  2.000e-06
 DIIS Error             TolErr          ....  1.000e-08


Diagonalization of the overlap matrix:
Smallest eigenvalue                        ... 4.869e-03
Time for diagonalization                   ...    0.001 sec
Threshold for overlap eigenvalues          ... 1.000e-08
Number of eigenvalues below threshold      ... 0
Time for construction of square roots      ...    0.000 sec
Total time needed                          ...    0.002 sec

Time for model grid setup =    0.013 sec

------------------------------
INITIAL GUESS: MODEL POTENTIAL
------------------------------
Loading Hartree-Fock densities                     ... done
Calculating cut-offs                               ... done
Initializing the effective Hamiltonian             ... done
Setting up the integral package (SHARK)            ... done
Starting the Coulomb interaction                   ... done (   0.0 sec)
Reading the grid                                   ... done
Mapping shells                                     ... done
Starting the XC term evaluation                    ... done (   0.0 sec)
Transforming the Hamiltonian                       ... done (   0.0 sec)
Diagonalizing the Hamiltonian                      ... done (   0.0 sec)
Back transforming the eigenvectors                 ... done (   0.0 sec)
Now organizing SCF variables                       ... done
                      ------------------
                      INITIAL GUESS DONE (   0.0 sec)
                      ------------------
--------------
SCF ITERATIONS
--------------
ITER       Energy         Delta-E        Max-DP      RMS-DP      [F,P]     Damp
               ***  Starting incremental Fock matrix formation  ***
  0    -24.7740399856   0.000000000000 0.04509831  0.00093575  0.2049316 0.7000
  1    -24.7956395269  -0.021599541329 0.04637437  0.00092574  0.1600798 0.7000
                               ***Turning on DIIS***
  2    -24.8199989567  -0.024359429776 0.04000313  0.00084033  0.1117186 0.7000
  3    -24.7554526159   0.064546340770 0.09407831  0.00209654  0.0690954 0.0000
  4    -24.9215801907  -0.166127574757 0.01654274  0.00031334  0.0190231 0.0000
  5    -24.9024865088   0.019093681867 0.01060989  0.00023992  0.0089888 0.0000
                      *** Initiating the SOSCF procedure ***
                           *** Shutting down DIIS ***
                      *** Re-Reading the Fockian *** 
                      *** Removing any level shift *** 
ITER      Energy       Delta-E        Grad      Rot      Max-DP    RMS-DP
  6    -24.89250573   0.0099807791  0.002019  0.002019  0.006666  0.000112
               *** Restarting incremental Fock matrix formation ***
  7    -24.88985966   0.0026460669  0.000930  0.002832  0.004153  0.000074
  8    -24.88987321  -0.0000135443  0.000348  0.001866  0.002896  0.000050
  9    -24.88987564  -0.0000024336  0.000159  0.000822  0.000275  0.000007
 10    -24.88987579  -0.0000001489  0.000080  0.000241  0.000182  0.000004
 11    -24.88987586  -0.0000000712  0.000006  0.000016  0.000013  0.000000
                 **** Energy Check signals convergence ****
              ***Rediagonalizing the Fockian in SOSCF/NRSCF***

               *****************************************************
               *                     SUCCESS                       *
               *           SCF CONVERGED AFTER  12 CYCLES          *
               *****************************************************


----------------
TOTAL SCF ENERGY
----------------

Total Energy       :          -24.88987586 Eh            -677.28795 eV

Components:
Nuclear Repulsion  :            0.60133774 Eh              16.36323 eV
Electronic Energy  :          -25.49121360 Eh            -693.65119 eV
One Electron Energy:          -33.48933756 Eh            -911.29120 eV
Two Electron Energy:            7.99812396 Eh             217.64002 eV

Virial components:
Potential Energy   :          -49.65049120 Eh           -1351.05855 eV
Kinetic Energy     :           24.76061534 Eh             673.77060 eV
Virial Ratio       :            2.00522041


---------------
SCF CONVERGENCE
---------------

  Last Energy change         ...   -6.4464e-10  Tolerance :   1.0000e-09
  Last MAX-Density change    ...    7.7633e-06  Tolerance :   1.0000e-08
  Last RMS-Density change    ...    1.8899e-07  Tolerance :   1.0000e-09
  Last Orbital Gradient      ...    2.2669e-06  Tolerance :   2.0000e-06
  Last Orbital Rotation      ...    1.2373e-05  Tolerance :   2.0000e-06

             **** THE GBW FILE WAS UPDATED (/scratch/BH-4.4-CCSD_T-O_682/BH-4.4-CCSD_T-O.gbw) ****
             **** DENSITY /scratch/BH-4.4-CCSD_T-O_682/BH-4.4-CCSD_T-O.scfp WAS UPDATED ****
             **** ENERGY FILE WAS UPDATED (/scratch/BH-4.4-CCSD_T-O_682/BH-4.4-CCSD_T-O.en.tmp) ****
             **** THE GBW FILE WAS UPDATED (/scratch/BH-4.4-CCSD_T-O_682/BH-4.4-CCSD_T-O.gbw) ****
             **** DENSITY /scratch/BH-4.4-CCSD_T-O_682/BH-4.4-CCSD_T-O.scfp WAS UPDATED ****
----------------
ORBITAL ENERGIES
----------------

  NO   OCC          E(Eh)            E(eV) 
   0   2.0000      -7.893333      -214.7885 
   1   2.0000      -0.624478       -16.9929 
   2   2.0000      -0.228734        -6.2242 
   3   0.0000      -0.082715        -2.2508 
   4   0.0000      -0.049648        -1.3510 
   5   0.0000      -0.049648        -1.3510 
   6   0.0000       0.021914         0.5963 
   7   0.0000       0.041454         1.1280 
   8   0.0000       0.041454         1.1280 
   9   0.0000       0.060337         1.6419 
  10   0.0000       0.099064         2.6957 
  11   0.0000       0.117414         3.1950 
  12   0.0000       0.117414         3.1950 
  13   0.0000       0.125404         3.4124 
  14   0.0000       0.125404         3.4124 
  15   0.0000       0.151997         4.1360 
  16   0.0000       0.235879         6.4186 
  17   0.0000       0.241435         6.5698 
  18   0.0000       0.241435         6.5698 
  19   0.0000       0.250030         6.8037 
  20   0.0000       0.250030         6.8037 
  21   0.0000       0.288243         7.8435 
  22   0.0000       0.329079         8.9547 
  23   0.0000       0.413875        11.2621 
  24   0.0000       0.413875        11.2621 
  25   0.0000       0.421296        11.4640 
  26   0.0000       0.421296        11.4640 
  27   0.0000       0.431834        11.7508 
  28   0.0000       0.431834        11.7508 
  29   0.0000       0.432087        11.7577 
  30   0.0000       0.435488        11.8502 
  31   0.0000       0.435488        11.8502 
  32   0.0000       0.444924        12.1070 
  33   0.0000       0.444924        12.1070 
  34   0.0000       0.467456        12.7201 
  35   0.0000       0.547631        14.9018 
  36   0.0000       0.693213        18.8633 
  37   0.0000       0.693213        18.8633 
  38   0.0000       0.723421        19.6853 
  39   0.0000       0.723421        19.6853 
  40   0.0000       0.771383        20.9904 
  41   0.0000       0.870347        23.6833 
  42   0.0000       0.870347        23.6833 
  43   0.0000       0.935356        25.4523 
  44   0.0000       0.939699        25.5705 
  45   0.0000       0.939699        25.5705 
  46   0.0000       1.004282        27.3279 
  47   0.0000       1.287482        35.0342 
  48   0.0000       1.292565        35.1725 
  49   0.0000       1.292565        35.1725 
  50   0.0000       1.299056        35.3491 
  51   0.0000       1.299056        35.3491 
  52   0.0000       1.301567        35.4174 
  53   0.0000       1.301567        35.4174 
  54   0.0000       1.308597        35.6087 
  55   0.0000       1.308597        35.6087 
  56   0.0000       1.311418        35.6855 
  57   0.0000       1.311418        35.6855 
  58   0.0000       1.316999        35.8374 
  59   0.0000       1.316999        35.8374 
  60   0.0000       1.325056        36.0566 
  61   0.0000       1.342836        36.5404 
  62   0.0000       1.345409        36.6104 
  63   0.0000       1.345409        36.6104 
  64   0.0000       1.356300        36.9068 
  65   0.0000       1.356300        36.9068 
  66   0.0000       1.374944        37.4141 
  67   0.0000       1.374944        37.4141 
  68   0.0000       1.434909        39.0459 
  69   0.0000       1.649702        44.8907 
  70   0.0000       1.649702        44.8907 
  71   0.0000       1.651349        44.9355 
  72   0.0000       1.651349        44.9355 
  73   0.0000       1.666035        45.3351 
  74   0.0000       1.666035        45.3351 
  75   0.0000       1.682912        45.7944 
  76   0.0000       1.781481        48.4766 
  77   0.0000       2.559766        69.6548 
  78   0.0000       2.559766        69.6548 
  79   0.0000       2.577657        70.1416 
  80   0.0000       2.577657        70.1416 
  81   0.0000       2.619442        71.2786 
  82   0.0000       2.685281        73.0702 
  83   0.0000       2.685281        73.0702 
  84   0.0000       2.760668        75.1216 
  85   0.0000       3.577905        97.3598 
  86   0.0000       3.577905        97.3598 
  87   0.0000       3.617399        98.4344 
  88   0.0000       3.798083       103.3511 
  89   0.0000       3.798083       103.3511 
  90   0.0000       3.805997       103.5665 
  91   0.0000       3.805997       103.5665 
  92   0.0000       3.808584       103.6368 
  93   0.0000       3.808584       103.6368 
  94   0.0000       3.816364       103.8485 
  95   0.0000       3.816364       103.8485 
  96   0.0000       3.819869       103.9439 
  97   0.0000       3.819869       103.9439 
  98   0.0000       3.822938       104.0274 
  99   0.0000       3.822938       104.0274 
 100   0.0000       3.829842       104.2153 
 101   0.0000       3.847092       104.6847 
 102   0.0000       3.948099       107.4332 
 103   0.0000       3.948099       107.4332 
 104   0.0000       3.959949       107.7557 
 105   0.0000       3.959949       107.7557 
 106   0.0000       3.976294       108.2005 
 107   0.0000       3.976294       108.2005 
 108   0.0000       4.017852       109.3313 
 109   0.0000       6.658208       181.1790 
 110   0.0000       6.658208       181.1790 
 111   0.0000       6.658902       181.1979 
 112   0.0000       6.658902       181.1979 
 113   0.0000       6.662383       181.2927 
 114   0.0000       6.662383       181.2927 
 115   0.0000       6.669692       181.4915 
 116   0.0000       7.540351       205.1834 
 117   0.0000       8.047697       218.9890 
 118   0.0000       8.047697       218.9890 
 119   0.0000       8.090896       220.1645 
 120   0.0000       8.494910       231.1583 
 121   0.0000       8.494910       231.1583 
 122   0.0000       8.506647       231.4776 
 123   0.0000       8.506647       231.4776 
 124   0.0000       8.548510       232.6168 
 125   0.0000      12.871732       350.2576 

                    ********************************
                    * MULLIKEN POPULATION ANALYSIS *
                    ********************************

-----------------------
MULLIKEN ATOMIC CHARGES
-----------------------
   0 B :    0.398636
   1 H :   -0.398636
Sum of atomic charges:   -0.0000000

--------------------------------
MULLIKEN REDUCED ORBITAL CHARGES
--------------------------------
  0 B s       :     4.008185  s :     4.008185
      pz      :     0.000000  p :     0.579608
      px      :     0.579608
      py      :     0.000000
      dz2     :     0.003295  d :     0.013179
      dxz     :     0.000000
      dyz     :     0.000000
      dx2y2   :     0.009885
      dxy     :     0.000000
      f0      :     0.000000  f :     0.000390
      f+1     :     0.000146
      f-1     :     0.000000
      f+2     :     0.000000
      f-2     :     0.000000
      f+3     :     0.000244
      f-3     :     0.000000
      g0      :     0.000000  g :     0.000002
      g+1     :     0.000000
      g-1     :     0.000000
      g+2     :     0.000001
      g-2     :     0.000000
      g+3     :     0.000000
      g-3     :     0.000000
      g+4     :     0.000001
      g-4     :     0.000000
  1 H s       :     1.393343  s :     1.393343
      pz      :    -0.000000  p :     0.005151
      px      :     0.005151
      py      :    -0.000000
      dz2     :     0.000035  d :     0.000140
      dxz     :    -0.000000
      dyz     :     0.000000
      dx2y2   :     0.000105
      dxy     :    -0.000000
      f0      :    -0.000000  f :     0.000003
      f+1     :     0.000001
      f-1     :    -0.000000
      f+2     :    -0.000000
      f-2     :     0.000000
      f+3     :     0.000002
      f-3     :    -0.000000


                     *******************************
                     * LOEWDIN POPULATION ANALYSIS *
                     *******************************

----------------------
LOEWDIN ATOMIC CHARGES
----------------------
   0 B :    0.347338
   1 H :   -0.347338

-------------------------------
LOEWDIN REDUCED ORBITAL CHARGES
-------------------------------
  0 B s       :     4.007864  s :     4.007864
      pz      :     0.000000  p :     0.611892
      px      :     0.611892
      py      :     0.000000
      dz2     :     0.007631  d :     0.030525
      dxz     :     0.000000
      dyz     :     0.000000
      dx2y2   :     0.022894
      dxy     :     0.000000
      f0      :     0.000000  f :     0.002352
      f+1     :     0.000882
      f-1     :     0.000000
      f+2     :     0.000000
      f-2     :     0.000000
      f+3     :     0.001470
      f-3     :     0.000000
      g0      :     0.000004  g :     0.000029
      g+1     :     0.000000
      g-1     :     0.000000
      g+2     :     0.000009
      g-2     :     0.000000
      g+3     :     0.000000
      g-3     :     0.000000
      g+4     :     0.000016
      g-4     :     0.000000
  1 H s       :     1.342230  s :     1.342230
      pz      :     0.000000  p :     0.004764
      px      :     0.004764
      py      :     0.000000
      dz2     :     0.000083  d :     0.000332
      dxz     :     0.000000
      dyz     :     0.000000
      dx2y2   :     0.000249
      dxy     :     0.000000
      f0      :     0.000000  f :     0.000013
      f+1     :     0.000005
      f-1     :     0.000000
      f+2     :     0.000000
      f-2     :     0.000000
      f+3     :     0.000008
      f-3     :     0.000000


                      *****************************
                      * MAYER POPULATION ANALYSIS *
                      *****************************

  NA   - Mulliken gross atomic population
  ZA   - Total nuclear charge
  QA   - Mulliken gross atomic charge
  VA   - Mayer's total valence
  BVA  - Mayer's bonded valence
  FA   - Mayer's free valence

  ATOM       NA         ZA         QA         VA         BVA        FA
  0 B      4.6014     5.0000     0.3986     0.8415     0.8415    -0.0000
  1 H      1.3986     1.0000    -0.3986     0.8415     0.8415    -0.0000

  Mayer bond orders larger than 0.100000
B(  0-B ,  1-H ) :   0.8415 

-------
TIMINGS
-------

Total SCF time: 0 days 0 hours 0 min 9 sec 

Total time                  ....       9.542 sec
Sum of individual times     ....       9.413 sec  ( 98.7%)

Fock matrix formation       ....       9.359 sec  ( 98.1%)
Diagonalization             ....       0.010 sec  (  0.1%)
Density matrix formation    ....       0.001 sec  (  0.0%)
Population analysis         ....       0.001 sec  (  0.0%)
Initial guess               ....       0.020 sec  (  0.2%)
Orbital Transformation      ....       0.000 sec  (  0.0%)
Orbital Orthonormalization  ....       0.000 sec  (  0.0%)
DIIS solution               ....       0.004 sec  (  0.0%)
SOSCF solution              ....       0.006 sec  (  0.1%)

Maximum memory used throughout the entire SCF-calculation: 256.2 MB


------------------------------------------------------------------------------- 
                              ORCA-MATRIX DRIVEN CI                            
------------------------------------------------------------------------------- 

--------------------------------
AUTOMATIC CHOICE OF INCORE LEVEL
--------------------------------

Memory available                           ...    256.00 MB
Memory needed for S+T                      ...      1.04 MB
Memory needed for J+K                      ...      2.08 MB
Memory needed for DIIS                     ...     14.54 MB
Memory needed for 3-ext                    ...     28.39 MB
Memory needed for 4-ext                    ...    880.23 MB
Memory needed for triples                  ...     70.99 MB
 -> Final InCoreLevel    ... 4
 -> check shows that triples correction can be computed


Wavefunction type
-----------------
Correlation treatment                      ...      CCSD     
Single excitations                         ... ON
Orbital optimization                       ... OFF
Calculation of Z vector                    ... OFF
Calculation of Brueckner orbitals          ... OFF
Perturbative triple excitations            ... ON
Calculation of F12 correction              ... OFF
Frozen core treatment                      ... chemical core (2 el)
Reference Wavefunction                     ... RHF
  Internal Orbitals:     1 ...    2 (  2 MO's/  4 electrons)
  Virtual  Orbitals:     3 ...  125 (123 MO's              )
Number of AO's                             ...    126
Number of electrons                        ...      6
Number of correlated electrons             ...      4

Algorithmic settings
--------------------
Integral transformation                    ... AO direct full transformation
K(C) Formation                             ... FULL-MO TRAFO
Maximum number of iterations               ...        50
Convergence tolerance (max. residuum)      ... 1.000e-06
Level shift for amplitude update           ... 2.000e-01
Maximum number of DIIS vectors             ...         7
DIIS turned on at iteration                ...         0
Damping before turning on DIIS             ...     0.500
Damping after turning on DIIS              ...     0.000
Pair specific amplitude update             ... OFF
Natural orbital iterations                 ... OFF
Perturbative natural orbital generation    ... OFF
Printlevel                                 ... 2

Memory handling:
----------------
Maximum memory for working arrays          ...    256 MB
Data storage in matrix containers          ... UNCOMPRESSED
Data type for integral storage             ... DOUBLE
In-Core Storage of quantities:
   Amplitudes+Sigma Vector      ... YES
   J+K operators                ... YES
   DIIS vectors                 ... YES
   3-external integrals         ... YES
   4-external integrals         ... NO


Initializing the integral package          ... done
Warning: reference  - re-canonicalizations have been set to INT 1 VIRT 1

--------------------------
CLOSED-SHELL FOCK OPERATOR
--------------------------

Restoring SHARK [2] ... ok
Recanonicalizing the internal orbitals
Recanonicalizing the virtual orbitals
Time needed for Fock operator              ...            0.945 sec
Reference energy                           ...    -24.889875862

------------------------------
PARTIAL COULOMB TRANSFORMATION
------------------------------

Transformation type                        ... one-operator
Dimension of the basis                     ...  126
Number of internal MOs                     ...  125 (1-125)
Pair cutoff                                ... 0.000e+00 Eh
Number of AO pairs included in the trafo   ... 8001
Total Number of distinct AO pairs          ... 8001
Memory devoted for trafo                   ...  256.0 MB 
Max. Number of MO pairs treated together   ... 4193      
Max. Number of MOs treated per batch       ...   33      
Number Format for Storage                  ... Double (8 Byte)
AO-integral source                         ... DIRECT
Integral package used                      ... LIBINT

Starting integral evaluation:
<ss|**>:        34343 b        0 skpd     0.060 s (  0.002 ms/b)
<sp|**>:        51796 b        0 skpd     0.119 s (  0.002 ms/b)
<sd|**>:        39973 b        0 skpd     0.157 s (  0.004 ms/b)
<sf|**>:        29276 b        0 skpd     0.189 s (  0.006 ms/b)
<sg|**>:        11823 b        0 skpd     0.134 s (  0.011 ms/b)
<pp|**>:        24209 b        0 skpd     0.121 s (  0.005 ms/b)
<pd|**>:        34343 b        0 skpd     0.307 s (  0.009 ms/b)
<pf|**>:        24209 b        0 skpd     0.328 s (  0.014 ms/b)
<pg|**>:        10134 b        0 skpd     0.202 s (  0.020 ms/b)
<dd|**>:        15201 b        0 skpd     0.227 s (  0.015 ms/b)
<df|**>:        18579 b        0 skpd     0.454 s (  0.024 ms/b)
<dg|**>:         7882 b        0 skpd     0.268 s (  0.034 ms/b)
<ff|**>:         7882 b        0 skpd     0.295 s (  0.037 ms/b)
<fg|**>:         5630 b        0 skpd     0.313 s (  0.056 ms/b)
<gg|**>:         1689 b        0 skpd     0.130 s (  0.077 ms/b)
Closing buffer AOJ ( 0.45 GB; CompressionRatio= 1.00)
Collecting buffer AOJ 
    ... done with AO integral generation
Number of MO pairs included in the trafo   ... 7875
    ... Now sorting integrals
IBATCH = 1 of  2
IBATCH = 2 of  2
Closing buffer JAO ( 0.47 GB; CompressionRatio= 1.00)
Collecting buffer JAO 
TOTAL TIME for half transformation         ...     6.396 sec
AO-integral generation                     ...     1.785 sec
Half transformation                        ...     1.521 sec
J-integral sorting                         ...     3.048 sec

-------------------------- SECOND HALF TRANSFORMATION -------------------------
Formation of (pq|rs)                       ... ok (     1.594 sec)
Integral sorting                           ... ok (     1.889 sec)

------------------
CLOSED SHELL GUESS
------------------

Initial guess performed in     0.000 sec
E(0)                                       ...    -24.889875862
E(MP2)                                     ...     -0.124393809
Initial E(tot)                             ...    -25.014269670
<T|T>                                      ...      0.221996899
Number of pairs included                   ... 3
Total number of pairs                      ... 3

------------------------------------------------
                  RHF COUPLED CLUSTER ITERATIONS
------------------------------------------------

Number of amplitudes to be optimized       ... 45633

Iter       E(tot)           E(Corr)          Delta-E          Residual     Time
  0    -25.014269670     -0.124393809      0.000000000      0.052975747    0.54
                           *** Turning on DIIS ***
  1    -25.019413498     -0.129537637     -0.005143828      0.070010414    1.49
  2    -25.037113952     -0.147238091     -0.017700454      0.048239471    1.49
  3    -25.057758883     -0.167883022     -0.020644931      0.040603124    1.50
  4    -25.075717215     -0.185841353     -0.017958331      0.022673720    1.53
  5    -25.083424014     -0.193548153     -0.007706800      0.006851453    1.51
  6    -25.086162382     -0.196286521     -0.002738368      0.001683603    1.51
  7    -25.087010901     -0.197135040     -0.000848519      0.000471998    1.52
  8    -25.086737957     -0.196862095      0.000272944      0.000168033    1.51
  9    -25.086828790     -0.196952929     -0.000090833      0.000108580    1.51
 10    -25.086817068     -0.196941207      0.000011722      0.000026528    1.57
 11    -25.086811409     -0.196935548      0.000005659      0.000009708    1.57
 12    -25.086806661     -0.196930800      0.000004748      0.000005366    1.57
 13    -25.086807605     -0.196931744     -0.000000944      0.000003127    1.58
 14    -25.086807659     -0.196931798     -0.000000054      0.000001618    1.58
 15    -25.086807592     -0.196931731      0.000000067      0.000000622    1.57
               --- The Coupled-Cluster iterations have converged ---

----------------------
COUPLED CLUSTER ENERGY
----------------------

E(0)                                       ...    -24.889875862
E(CORR)                                    ...     -0.196931731
E(TOT)                                     ...    -25.086807592
Singles Norm <S|S>**1/2                    ...      0.495107026  
T1 diagnostic                              ...      0.247553513  

------------------
LARGEST AMPLITUDES
------------------
   2->  3   2->  3       1.015361
   2->  3  -1-> -1       0.451694
   1->  4   1->  4       0.123535
   1->  5   1->  5       0.123535
   2->  6   2->  3       0.122865
   2->  3   2->  6       0.122865
   2-> 16  -1-> -1       0.109052
   2->  3   2-> 10       0.100203
   2-> 10   2->  3       0.100203
   2->  9  -1-> -1       0.095598
   2-> 15   2->  3       0.081235
   2->  3   2-> 15       0.081235
   2-> 29   2->  3       0.077062
   2->  3   2-> 29       0.077062
   2-> 10  -1-> -1       0.067528
   2-> 34   2->  3       0.060359


        !!!!!!!!!!!!!!!!!!!!!!!!!!!!!!!!!!!!!!!!!!!!!!!!!!!!!!!!!!!!!!!!!!!!!!!!!! 
        !  Warning: Densities are linearized densities !                         !
        !!!!!!!!!!!!!!!!!!!!!!!!!!!!!!!!!!!!!!!!!!!!!!!!!!!!!!!!!!!!!!!!!!!!!!!!!! 

Trace of internal density part =     -2.926425043
Trace of external density part =      2.926425043
----------------------
RHF TRIPLES CORRECTION (Algorithm 1)
----------------------

Multiplier for the singles contribution    ...      1.000000000

10% done
20% done
30% done
40% done
50% done
60% done
70% done
80% done
90% done

Triples Correction (T)                     ...     -0.041496388
Scaling of triples based on CCSD energies (Peterson et al. Molecular Physics 113, 1551 (2015))
E(T*) = f*E(T) where f = E(F12-CCSD)/E(CCSD) 
f = CCSD (with F12)/ CCSD (without F12)    ...      1.000000000
Scaled triples correction (T)              ...     -0.041496388

Final correlation energy                   ...     -0.238428119
E(CCSD)                                    ...    -25.086807592
E(CCSD(T))                                 ...    -25.128303980

NORM  =      2.708343489 sqrt=     1.645704557
W(HF) =      0.369229385
------------------------------------------------------------------------------
                           ORCA POPULATION ANALYSIS
------------------------------------------------------------------------------
Input electron density              ... /scratch/BH-4.4-CCSD_T-O_682/BH-4.4-CCSD_T-O.mdcip
BaseName (.gbw .S,...)              ... /scratch/BH-4.4-CCSD_T-O_682/BH-4.4-CCSD_T-O

                    ********************************
                    * MULLIKEN POPULATION ANALYSIS *
                    ********************************

-----------------------
MULLIKEN ATOMIC CHARGES
-----------------------
   0 B :   -0.696393
   1 H :    0.696393
Sum of atomic charges:   -0.0000000

--------------------------------
MULLIKEN REDUCED ORBITAL CHARGES
--------------------------------
  0 B s       :     3.858752  s :     3.858752
      pz      :     0.054459  p :     1.821540
      px      :     1.712623
      py      :     0.054459
      dz2     :     0.000513  d :     0.015568
      dxz     :     0.006893
      dyz     :     0.000272
      dx2y2   :     0.000997
      dxy     :     0.006893
      f0      :     0.000117  f :     0.000389
      f+1     :    -0.000095
      f-1     :     0.000040
      f+2     :     0.000179
      f-2     :     0.000152
      f+3     :    -0.000261
      f-3     :     0.000256
      g0      :     0.000011  g :     0.000144
      g+1     :     0.000020
      g-1     :     0.000005
      g+2     :     0.000013
      g-2     :     0.000014
      g+3     :     0.000018
      g-3     :     0.000018
      g+4     :     0.000021
      g-4     :     0.000024
  1 H s       :     0.312383  s :     0.312383
      pz      :     0.000119  p :    -0.008552
      px      :    -0.008790
      py      :     0.000119
      dz2     :    -0.000065  d :    -0.000228
      dxz     :     0.000016
      dyz     :     0.000001
      dx2y2   :    -0.000198
      dxy     :     0.000016
      f0      :     0.000001  f :     0.000004
      f+1     :     0.000001
      f-1     :     0.000000
      f+2     :     0.000001
      f-2     :     0.000000
      f+3     :     0.000001
      f-3     :     0.000001


                     *******************************
                     * LOEWDIN POPULATION ANALYSIS *
                     *******************************

----------------------
LOEWDIN ATOMIC CHARGES
----------------------
   0 B :   -0.648544
   1 H :    0.648544

-------------------------------
LOEWDIN REDUCED ORBITAL CHARGES
-------------------------------
  0 B s       :     3.856861  s :     3.856861
      pz      :     0.054460  p :     1.777753
      px      :     1.668832
      py      :     0.054460
      dz2     :     0.000062  d :     0.013770
      dxz     :     0.006897
      dyz     :     0.000272
      dx2y2   :    -0.000358
      dxy     :     0.006897
      f0      :     0.000117  f :     0.000027
      f+1     :    -0.000231
      f-1     :     0.000040
      f+2     :     0.000179
      f-2     :     0.000152
      f+3     :    -0.000487
      f-3     :     0.000256
      g0      :     0.000009  g :     0.000133
      g+1     :     0.000020
      g-1     :     0.000005
      g+2     :     0.000010
      g-2     :     0.000014
      g+3     :     0.000018
      g-3     :     0.000018
      g+4     :     0.000015
      g-4     :     0.000024
  1 H s       :     0.350449  s :     0.350449
      pz      :     0.000114  p :     0.000326
      px      :     0.000097
      py      :     0.000114
      dz2     :     0.000151  d :     0.000635
      dxz     :     0.000015
      dyz     :     0.000001
      dx2y2   :     0.000452
      dxy     :     0.000015
      f0      :     0.000001  f :     0.000046
      f+1     :     0.000016
      f-1     :     0.000000
      f+2     :     0.000001
      f-2     :     0.000000
      f+3     :     0.000027
      f-3     :     0.000001


                      *****************************
                      * MAYER POPULATION ANALYSIS *
                      *****************************

  NA   - Mulliken gross atomic population
  ZA   - Total nuclear charge
  QA   - Mulliken gross atomic charge
  VA   - Mayer's total valence
  BVA  - Mayer's bonded valence
  FA   - Mayer's free valence

  ATOM       NA         ZA         QA         VA         BVA        FA
  0 B      5.6964     5.0000    -0.6964     0.5141     2.0889    -1.5748
  1 H      0.3036     1.0000     0.6964    -0.0299     2.0889    -2.1189

  Mayer bond orders larger than 0.100000
B(  0-B ,  1-H ) :   2.0889 



------------------------------------------------------------------------------- 
                                     TIMINGS                                   
------------------------------------------------------------------------------- 


Total execution time                   ...       34.821 sec

Fock Matrix Formation                  ...        0.945 sec (  2.7%)
Initial Guess                          ...        0.000 sec (  0.0%)
DIIS Solver                            ...        0.039 sec (  0.1%)
State Vector Update                    ...        0.001 sec (  0.0%)
Sigma-vector construction              ...       23.494 sec ( 67.5%)
  <0|H|D>                              ...        0.004 sec (  0.0% of sigma)
  <D|H|D>(0-ext)                       ...        0.008 sec (  0.0% of sigma)
  <D|H|D>(2-ext Fock)                  ...        0.008 sec (  0.0% of sigma)
  <D|H|D>(2-ext)                       ...        0.054 sec (  0.2% of sigma)
  <D|H|D>(4-ext)                       ...        6.328 sec ( 26.9% of sigma)
  <D|H|D>(4-ext-corr)                  ...        1.283 sec (  5.5% of sigma)
  <S|H|0>                              ...        0.003 sec (  0.0% of sigma)
  <S|H|S>                              ...        0.004 sec (  0.0% of sigma)
  <S|H|D>(1-ext)                       ...        0.006 sec (  0.0% of sigma)
  <D|H|S>(1-ext)                       ...        0.010 sec (  0.0% of sigma)
  <S|H|D>(3-ext)                       ...        0.213 sec (  0.9% of sigma)
  Fock-dressing                        ...       15.215 sec ( 64.8% of sigma)
  (ik|jl)-dressing                     ...        0.005 sec (  0.0% of sigma)
  (ij|ab),(ia|jb)-dressing             ...        0.296 sec (  1.3% of sigma)
  Pair energies                        ...        0.004 sec (  0.0% of sigma)
Total Time for computing (T)           ...        0.231 sec (  0.7% of ALL)
  I/O of integral and amplitudes       ...        0.032 sec ( 14.0% of (T))
  N**6 sorting step                    ...        0.047 sec ( 20.1% of (T))
  External N**7 contributions          ...        0.113 sec ( 48.9% of (T))
  Internal N**7 contributions          ...        0.010 sec (  4.5% of (T))
  N**6 triples energy contributions    ...        0.029 sec ( 12.4% of (T))
One-particle density matrix            ...        0.001 sec (  0.0%)


Maximum memory used throughout the entire MDCI-calculation: 400.0 MB

-------------------------   --------------------
FINAL SINGLE POINT ENERGY       -25.128303980133
-------------------------   --------------------


                            ***************************************
                            *     ORCA property calculations      *
                            ***************************************

                                    ---------------------
                                    Active property flags
                                    ---------------------
   (+) Dipole Moment


------------------------------------------------------------------------------
                       ORCA ELECTRIC PROPERTIES CALCULATION
------------------------------------------------------------------------------

Dipole Moment Calculation                       ... on
Quadrupole Moment Calculation                   ... off
Polarizability Calculation                      ... off
GBWName                                         ... /scratch/BH-4.4-CCSD_T-O_682/BH-4.4-CCSD_T-O.gbw
Electron density file                           ... /scratch/BH-4.4-CCSD_T-O_682/BH-4.4-CCSD_T-O.scfp
The origin for moment calculation is the CENTER OF MASS  = ( 0.709199,  0.000000  0.000000)

-------------
DIPOLE MOMENT
-------------
                                X             Y             Z
Electronic contribution:     -7.60591      -0.00000      -0.00000
Nuclear contribution   :      4.05960       0.00000       0.00000
                        -----------------------------------------
Total Dipole Moment    :     -3.54631      -0.00000      -0.00000
                        -----------------------------------------
Magnitude (a.u.)       :      3.54631
Magnitude (Debye)      :      9.01400



--------------------
Rotational spectrum 
--------------------
 
Rotational constants in cm-1:     0.000000     0.944385     0.944385 
Rotational constants in MHz :     0.000000 28311.964858 28311.964858 

 Dipole components along the rotational axes: 
x,y,z [a.u.] :    -3.546307    -0.000000    -0.000000 
x,y,z [Debye]:    -9.013996    -0.000000    -0.000000 

 

                           *** MDCI DENSITY ***

------------------------------------------------------------------------------
                       ORCA ELECTRIC PROPERTIES CALCULATION
------------------------------------------------------------------------------

Dipole Moment Calculation                       ... on
Quadrupole Moment Calculation                   ... off
Polarizability Calculation                      ... off
GBWName                                         ... /scratch/BH-4.4-CCSD_T-O_682/BH-4.4-CCSD_T-O.gbw
Electron density file                           ... /scratch/BH-4.4-CCSD_T-O_682/BH-4.4-CCSD_T-O.mdcip
The origin for moment calculation is the CENTER OF MASS  = ( 0.709199,  0.000000  0.000000)

-------------
DIPOLE MOMENT
-------------
                                X             Y             Z
Electronic contribution:      2.07508       0.00000       0.00000
Nuclear contribution   :      4.05960       0.00000       0.00000
                        -----------------------------------------
Total Dipole Moment    :      6.13468       0.00000       0.00000
                        -----------------------------------------
Magnitude (a.u.)       :      6.13468
Magnitude (Debye)      :     15.59312



--------------------
Rotational spectrum 
--------------------
 
Rotational constants in cm-1:     0.000000     0.944385     0.944385 
Rotational constants in MHz :     0.000000 28311.964858 28311.964858 

 Dipole components along the rotational axes: 
x,y,z [a.u.] :     6.134681     0.000000     0.000000 
x,y,z [Debye]:    15.593119     0.000000     0.000000 

 

Timings for individual modules:

Sum of individual times         ...       44.703 sec (=   0.745 min)
GTO integral calculation        ...        0.123 sec (=   0.002 min)   0.3 %
SCF iterations                  ...        9.559 sec (=   0.159 min)  21.4 %
MDCI module                     ...       35.021 sec (=   0.584 min)  78.3 %
                             ****ORCA TERMINATED NORMALLY****
TOTAL RUN TIME: 0 days 0 hours 0 minutes 44 seconds 829 msec

Sender: Unischeduler System <lcz@mgt01>
Subject: Job 134136: <#!/bin/bash
#BSUB -J intel
#BSUB -o BH-4.4-CCSD_T-O.out
#BSUB -n 1
#BSUB -q cqueue
export LD_LIBRARY_PATH=/apps/software/openmpi-4.1.1/lib:/apps/software/orca_5_0_0:$LD_LIBRARY_PATH
export PATH=/apps/software/openmpi-4.1.1/bin:/apps/software/orca_5_0_0:$PATH
mkdir /scratch/BH-4.4-CCSD_T-O_682
scp $USER@mgt01:/apps/users/lcz/exe13/CCSD_T/BH-4.4-CCSD_T-O.inp /scratch/BH-4.4-CCSD_T-O_682
/apps/software/orca_5_0_0/orca /scratch/BH-4.4-CCSD_T-O_682/BH-4.4-CCSD_T-O.inp >& BH-4.4-CCSD_T-O.out
scp /scratch/BH-4.4-CCSD_T-O_682/*.gbw $USER@mgt01:/apps/users/lcz/exe13/CCSD_T
scp /scratch/BH-4.4-CCSD_T-O_682/*.xyz $USER@mgt01:/apps/users/lcz/exe13/CCSD_T
scp /scratch/BH-4.4-CCSD_T-O_682/*.trj $USER@mgt01:/apps/users/lcz/exe13/CCSD_T> Exited

Job <#!/bin/bash
#BSUB -J intel
#BSUB -o BH-4.4-CCSD_T-O.out
#BSUB -n 1
#BSUB -q cqueue
export LD_LIBRARY_PATH=/apps/software/openmpi-4.1.1/lib:/apps/software/orca_5_0_0:$LD_LIBRARY_PATH
export PATH=/apps/software/openmpi-4.1.1/bin:/apps/software/orca_5_0_0:$PATH
mkdir /scratch/BH-4.4-CCSD_T-O_682
scp $USER@mgt01:/apps/users/lcz/exe13/CCSD_T/BH-4.4-CCSD_T-O.inp /scratch/BH-4.4-CCSD_T-O_682
/apps/software/orca_5_0_0/orca /scratch/BH-4.4-CCSD_T-O_682/BH-4.4-CCSD_T-O.inp >& BH-4.4-CCSD_T-O.out
scp /scratch/BH-4.4-CCSD_T-O_682/*.gbw $USER@mgt01:/apps/users/lcz/exe13/CCSD_T
scp /scratch/BH-4.4-CCSD_T-O_682/*.xyz $USER@mgt01:/apps/users/lcz/exe13/CCSD_T
scp /scratch/BH-4.4-CCSD_T-O_682/*.trj $USER@mgt01:/apps/users/lcz/exe13/CCSD_T> was submitted from host <mgt01> by user <lcz>.
Job was executed on host(s) <1*cnode15>, in queue <cqueue>, as user <lcz>.
</apps/users/lcz> was used as the home directory.
</apps/users/lcz/exe13/CCSD_T> was used as the working directory.
Started at 2022-05-22 16:50:49
Results reported at 2022-05-22 16:51:35

Your job looked like:

------------------------------------------------------------
# User input
#!/bin/bash
#BSUB -J intel
#BSUB -o BH-4.4-CCSD_T-O.out
#BSUB -n 1
#BSUB -q cqueue
export LD_LIBRARY_PATH=/apps/software/openmpi-4.1.1/lib:/apps/software/orca_5_0_0:$LD_LIBRARY_PATH
export PATH=/apps/software/openmpi-4.1.1/bin:/apps/software/orca_5_0_0:$PATH
mkdir /scratch/BH-4.4-CCSD_T-O_682
scp $USER@mgt01:/apps/users/lcz/exe13/CCSD_T/BH-4.4-CCSD_T-O.inp /scratch/BH-4.4-CCSD_T-O_682
/apps/software/orca_5_0_0/orca /scratch/BH-4.4-CCSD_T-O_682/BH-4.4-CCSD_T-O.inp >& BH-4.4-CCSD_T-O.out
scp /scratch/BH-4.4-CCSD_T-O_682/*.gbw $USER@mgt01:/apps/users/lcz/exe13/CCSD_T
scp /scratch/BH-4.4-CCSD_T-O_682/*.xyz $USER@mgt01:/apps/users/lcz/exe13/CCSD_T
scp /scratch/BH-4.4-CCSD_T-O_682/*.trj $USER@mgt01:/apps/users/lcz/exe13/CCSD_T
------------------------------------------------------------

Exited with exit code 1.

Resource usage summary:

    CPU time   :           39.71 sec.
    Max Memory :               492 MB
    Max Processes  :               5


The output (if any) follows:

/scratch/BH-4.4-CCSD_T-O_682/*.xyz: No such file or directory
/scratch/BH-4.4-CCSD_T-O_682/*.trj: No such file or directory
