 Entering Gaussian System, Link 0=/apps/software/g16/g16
 Initial command:
 /apps/software/g16/l1.exe "/scratch/Gau-299368.inp" -scrdir="/scratch/"
 Entering Link 1 = /apps/software/g16/l1.exe PID=    299369.
  
 Copyright (c) 1988,1990,1992,1993,1995,1998,2003,2009,2016,
            Gaussian, Inc.  All Rights Reserved.
  
 This is part of the Gaussian(R) 16 program.  It is based on
 the Gaussian(R) 09 system (copyright 2009, Gaussian, Inc.),
 the Gaussian(R) 03 system (copyright 2003, Gaussian, Inc.),
 the Gaussian(R) 98 system (copyright 1998, Gaussian, Inc.),
 the Gaussian(R) 94 system (copyright 1995, Gaussian, Inc.),
 the Gaussian 92(TM) system (copyright 1992, Gaussian, Inc.),
 the Gaussian 90(TM) system (copyright 1990, Gaussian, Inc.),
 the Gaussian 88(TM) system (copyright 1988, Gaussian, Inc.),
 the Gaussian 86(TM) system (copyright 1986, Carnegie Mellon
 University), and the Gaussian 82(TM) system (copyright 1983,
 Carnegie Mellon University). Gaussian is a federally registered
 trademark of Gaussian, Inc.
  
 This software contains proprietary and confidential information,
 including trade secrets, belonging to Gaussian, Inc.
  
 This software is provided under written license and may be
 used, copied, transmitted, or stored only in accord with that
 written license.
  
 The following legend is applicable only to US Government
 contracts under FAR:
  
                    RESTRICTED RIGHTS LEGEND
  
 Use, reproduction and disclosure by the US Government is
 subject to restrictions as set forth in subparagraphs (a)
 and (c) of the Commercial Computer Software - Restricted
 Rights clause in FAR 52.227-19.
  
 Gaussian, Inc.
 340 Quinnipiac St., Bldg. 40, Wallingford CT 06492
  
  
 ---------------------------------------------------------------
 Warning -- This program may not be used in any manner that
 competes with the business of Gaussian, Inc. or will provide
 assistance to any competitor of Gaussian, Inc.  The licensee
 of this program is prohibited from giving any competitor of
 Gaussian, Inc. access to this program.  By using this program,
 the user acknowledges that Gaussian, Inc. is engaged in the
 business of creating and licensing software in the field of
 computational chemistry and represents and warrants to the
 licensee that it is not a competitor of Gaussian, Inc. and that
 it will not use this program in any manner prohibited above.
 ---------------------------------------------------------------
  

 Cite this work as:
 Gaussian 16, Revision A.03,
 M. J. Frisch, G. W. Trucks, H. B. Schlegel, G. E. Scuseria, 
 M. A. Robb, J. R. Cheeseman, G. Scalmani, V. Barone, 
 G. A. Petersson, H. Nakatsuji, X. Li, M. Caricato, A. V. Marenich, 
 J. Bloino, B. G. Janesko, R. Gomperts, B. Mennucci, H. P. Hratchian, 
 J. V. Ortiz, A. F. Izmaylov, J. L. Sonnenberg, D. Williams-Young, 
 F. Ding, F. Lipparini, F. Egidi, J. Goings, B. Peng, A. Petrone, 
 T. Henderson, D. Ranasinghe, V. G. Zakrzewski, J. Gao, N. Rega, 
 G. Zheng, W. Liang, M. Hada, M. Ehara, K. Toyota, R. Fukuda, 
 J. Hasegawa, M. Ishida, T. Nakajima, Y. Honda, O. Kitao, H. Nakai, 
 T. Vreven, K. Throssell, J. A. Montgomery, Jr., J. E. Peralta, 
 F. Ogliaro, M. J. Bearpark, J. J. Heyd, E. N. Brothers, K. N. Kudin, 
 V. N. Staroverov, T. A. Keith, R. Kobayashi, J. Normand, 
 K. Raghavachari, A. P. Rendell, J. C. Burant, S. S. Iyengar, 
 J. Tomasi, M. Cossi, J. M. Millam, M. Klene, C. Adamo, R. Cammi, 
 J. W. Ochterski, R. L. Martin, K. Morokuma, O. Farkas, 
 J. B. Foresman, and D. J. Fox, Gaussian, Inc., Wallingford CT, 2016.
 
 ******************************************
 Gaussian 16:  ES64L-G16RevA.03 25-Dec-2016
                26-May-2022 
 ******************************************
 %chk=BH-4.2-CCSD_T-G.chk
 -----------------------------
 #p RHF/aug-cc-pVQZ CCSD(T,FC)
 -----------------------------
 1/38=1,172=1/1;
 2/12=2,17=6,18=5,40=1/2;
 3/5=16,6=2,7=10,11=1,25=1,30=1,116=1/1,2,3;
 4//1;
 5/5=2,38=5/2;
 8/6=4,9=120000,10=1/1,4;
 9/5=7,14=2/13;
 6/7=2,8=2,9=2,10=2/1;
 99/5=1,9=1/99;
 Leave Link    1 at Thu May 26 10:35:38 2022, MaxMem=           0 cpu:               0.0 elap:               0.0
 (Enter /apps/software/g16/l101.exe)
 --------------------------
 BH CCSD(T) at 4.2 Angstrom
 --------------------------
 Symbolic Z-matrix:
 Charge =  0 Multiplicity = 1
 B                     0.        0.        0. 
 H                     4.2       0.        0. 
 
 ITRead=  0  0
 MicOpt= -1 -1
 NAtoms=      2 NQM=        2 NQMF=       0 NMMI=      0 NMMIF=      0
                NMic=       0 NMicF=      0.
                    Isotopes and Nuclear Properties:
 (Nuclear quadrupole moments (NQMom) in fm**2, nuclear magnetic moments (NMagM)
  in nuclear magnetons)

  Atom         1           2
 IAtWgt=          11           1
 AtmWgt=  11.0093053   1.0078250
 NucSpn=           3           1
 AtZEff=  -0.0000000  -0.0000000
 NQMom=    4.0590000   0.0000000
 NMagM=    2.6886370   2.7928460
 AtZNuc=   5.0000000   1.0000000
 Leave Link  101 at Thu May 26 10:35:38 2022, MaxMem=   104857600 cpu:               0.1 elap:               0.1
 (Enter /apps/software/g16/l202.exe)
                          Input orientation:                          
 ---------------------------------------------------------------------
 Center     Atomic      Atomic             Coordinates (Angstroms)
 Number     Number       Type             X           Y           Z
 ---------------------------------------------------------------------
      1          5           0        0.000000    0.000000    0.000000
      2          1           0        4.200000    0.000000    0.000000
 ---------------------------------------------------------------------
 Stoichiometry    BH
 Framework group  C*V[C*(HB)]
 Deg. of freedom     1
 Full point group                 C*V     NOp   4
 Largest Abelian subgroup         C2V     NOp   4
 Largest concise Abelian subgroup C1      NOp   1
                         Standard orientation:                         
 ---------------------------------------------------------------------
 Center     Atomic      Atomic             Coordinates (Angstroms)
 Number     Number       Type             X           Y           Z
 ---------------------------------------------------------------------
      1          5           0        0.000000    0.000000    0.700000
      2          1           0        0.000000    0.000000   -3.500000
 ---------------------------------------------------------------------
 Rotational constants (GHZ):           0.0000000          31.0294682          31.0294682
 Leave Link  202 at Thu May 26 10:35:38 2022, MaxMem=   104857600 cpu:               0.0 elap:               0.0
 (Enter /apps/software/g16/l301.exe)
 Standard basis: Aug-CC-pVQZ (5D, 7F)
 Ernie: Thresh=  0.10000D-02 Tol=  0.10000D-05 Strict=F.
 Ernie:  4 primitive shells out of 54 were deleted.
 There are    68 symmetry adapted cartesian basis functions of A1  symmetry.
 There are    18 symmetry adapted cartesian basis functions of A2  symmetry.
 There are    37 symmetry adapted cartesian basis functions of B1  symmetry.
 There are    37 symmetry adapted cartesian basis functions of B2  symmetry.
 There are    50 symmetry adapted basis functions of A1  symmetry.
 There are    16 symmetry adapted basis functions of A2  symmetry.
 There are    30 symmetry adapted basis functions of B1  symmetry.
 There are    30 symmetry adapted basis functions of B2  symmetry.
   126 basis functions,   180 primitive gaussians,   160 cartesian basis functions
     3 alpha electrons        3 beta electrons
       nuclear repulsion energy         0.6299728701 Hartrees.
 IExCor=    0 DFT=F Ex=HF Corr=None ExCW=0 ScaHFX=  1.000000
 ScaDFX=  1.000000  1.000000  1.000000  1.000000 ScalE2=  1.000000  1.000000
 IRadAn=      5 IRanWt=     -1 IRanGd=            0 ICorTp=0 IEmpDi=  4
 NAtoms=    2 NActive=    2 NUniq=    2 SFac= 1.00D+00 NAtFMM=   60 NAOKFM=F Big=F
 Integral buffers will be    131072 words long.
 Raffenetti 1 integral format.
 Two-electron integral symmetry is turned on.
 Leave Link  301 at Thu May 26 10:35:38 2022, MaxMem=   104857600 cpu:               0.1 elap:               0.1
 (Enter /apps/software/g16/l302.exe)
 NPDir=0 NMtPBC=     1 NCelOv=     1 NCel=       1 NClECP=     1 NCelD=      1
         NCelK=      1 NCelE2=     1 NClLst=     1 CellRange=     0.0.
 One-electron integrals computed using PRISM.
 One-electron integral symmetry used in STVInt
 NBasis=   126 RedAO= T EigKep=  1.15D-02  NBF=    50    16    30    30
 NBsUse=   126 1.00D-06 EigRej= -1.00D+00 NBFU=    50    16    30    30
 Leave Link  302 at Thu May 26 10:35:38 2022, MaxMem=   104857600 cpu:               0.1 elap:               0.1
 (Enter /apps/software/g16/l303.exe)
 DipDrv:  MaxL=1.
 Leave Link  303 at Thu May 26 10:35:38 2022, MaxMem=   104857600 cpu:               0.0 elap:               0.0
 (Enter /apps/software/g16/l401.exe)
 ExpMin= 1.88D-02 ExpMax= 2.39D+04 ExpMxC= 2.30D+02 IAcc=3 IRadAn=         5 AccDes= 0.00D+00
 Harris functional with IExCor=  205 and IRadAn=       5 diagonalized for initial guess.
 HarFok:  IExCor=  205 AccDes= 0.00D+00 IRadAn=         5 IDoV= 1 UseB2=F ITyADJ=14
 ICtDFT=  3500011 ScaDFX=  1.000000  1.000000  1.000000  1.000000
 FoFCou: FMM=F IPFlag=           0 FMFlag=      100000 FMFlg1=           0
         NFxFlg=           0 DoJE=T BraDBF=F KetDBF=T FulRan=T
         wScrn=  0.000000 ICntrl=       500 IOpCl=  0 I1Cent=   200000004 NGrid=           0
         NMat0=    1 NMatS0=      1 NMatT0=    0 NMatD0=    1 NMtDS0=    0 NMtDT0=    0
 Petite list used in FoFCou.
 Harris En= -24.9892053055128    
 JPrj=0 DoOrth=F DoCkMO=F.
 Initial guess orbital symmetries:
       Occupied  (SG) (SG) (SG)
       Virtual   (PI) (PI) (SG) (SG) (PI) (PI) (SG) (SG) (PI) (PI)
                 (DLTA) (DLTA) (SG) (PI) (PI) (SG) (PI) (PI) (SG)
                 (SG) (SG) (SG) (PI) (PI) (DLTA) (DLTA) (DLTA)
                 (DLTA) (PHI) (PHI) (PI) (PI) (SG) (DLTA) (DLTA)
                 (PI) (PI) (SG) (PI) (PI) (SG) (PI) (PI) (SG) (SG)
                 (PI) (PI) (DLTA) (DLTA) (SG) (DLTA) (DLTA) (?A)
                 (PHI) (PHI) (?A) (PI) (PI) (SG) (DLTA) (DLTA)
                 (PHI) (PHI) (PI) (PI) (SG) (SG) (PHI) (PHI) (DLTA)
                 (DLTA) (PI) (PI) (SG) (DLTA) (DLTA) (PI) (PI)
                 (SG) (PI) (PI) (SG) (PI) (PI) (SG) (DLTA) (DLTA)
                 (PI) (PI) (SG) (?A) (?B) (?B) (?A) (DLTA) (DLTA)
                 (?B) (?B) (SG) (PHI) (PHI) (DLTA) (DLTA) (PI)
                 (PI) (SG) (PHI) (PHI) (DLTA) (DLTA) (PI) (PI)
                 (SG) (SG) (PI) (PI) (SG) (DLTA) (DLTA) (PI) (PI)
                 (SG) (SG)
 The electronic state of the initial guess is 1-SG.
 Leave Link  401 at Thu May 26 10:35:38 2022, MaxMem=   104857600 cpu:               0.2 elap:               0.2
 (Enter /apps/software/g16/l502.exe)
 Keep R1 ints in memory in symmetry-blocked form, NReq=40143665.
 FoFCou: FMM=F IPFlag=           0 FMFlag=           0 FMFlg1=           0
         NFxFlg=           0 DoJE=F BraDBF=F KetDBF=F FulRan=T
         wScrn=  0.000000 ICntrl=       600 IOpCl=  0 I1Cent=           0 NGrid=           0
         NMat0=    1 NMatS0=   8001 NMatT0=    0 NMatD0=    1 NMtDS0=    0 NMtDT0=    0
 Petite list used in FoFCou.
 Closed shell SCF:
 Using DIIS extrapolation, IDIIS=  1040.
 NGot=   104857600 LenX=    96673173 LenY=    96647132
 Requested convergence on RMS density matrix=1.00D-08 within 128 cycles.
 Requested convergence on MAX density matrix=1.00D-06.
 Requested convergence on             energy=1.00D-06.
 No special actions if energy rises.

 Cycle   1  Pass 1  IDiag  1:
 E= -24.7706340106895    
 DIIS: error= 3.48D-02 at cycle   1 NSaved=   1.
 NSaved= 1 IEnMin= 1 EnMin= -24.7706340106895     IErMin= 1 ErrMin= 3.48D-02
 ErrMax= 3.48D-02  0.00D+00 EMaxC= 1.00D-01 BMatC= 6.06D-02 BMatP= 6.06D-02
 IDIUse=3 WtCom= 6.52D-01 WtEn= 3.48D-01
 Coeff-Com:  0.100D+01
 Coeff-En:   0.100D+01
 Coeff:      0.100D+01
 Gap=     0.000 Goal=   None    Shift=    0.000
 GapD=    0.000 DampG=0.250 DampE=0.500 DampFc=0.2500 IDamp=-1.
 Damping current iteration by 2.50D-01
 RMSDP=4.81D-03 MaxDP=2.18D-01              OVMax= 1.08D-01

 Cycle   2  Pass 1  IDiag  1:
 E= -24.8025734775686     Delta-E=       -0.031939466879 Rises=F Damp=T
 DIIS: error= 2.29D-02 at cycle   2 NSaved=   2.
 NSaved= 2 IEnMin= 2 EnMin= -24.8025734775686     IErMin= 2 ErrMin= 2.29D-02
 ErrMax= 2.29D-02  0.00D+00 EMaxC= 1.00D-01 BMatC= 2.33D-02 BMatP= 6.06D-02
 IDIUse=3 WtCom= 7.71D-01 WtEn= 2.29D-01
 Coeff-Com: -0.114D+01 0.214D+01
 Coeff-En:   0.523D-01 0.948D+00
 Coeff:     -0.870D+00 0.187D+01
 Gap=     0.145 Goal=   None    Shift=    0.000
 RMSDP=1.30D-03 MaxDP=8.31D-02 DE=-3.19D-02 OVMax= 1.72D-01

 Cycle   3  Pass 1  IDiag  1:
 E= -24.8109857694625     Delta-E=       -0.008412291894 Rises=F Damp=F
 DIIS: error= 1.51D-02 at cycle   3 NSaved=   3.
 NSaved= 3 IEnMin= 3 EnMin= -24.8109857694625     IErMin= 3 ErrMin= 1.51D-02
 ErrMax= 1.51D-02  0.00D+00 EMaxC= 1.00D-01 BMatC= 1.32D-02 BMatP= 2.33D-02
 IDIUse=3 WtCom= 8.49D-01 WtEn= 1.51D-01
 Coeff-Com: -0.104D+01 0.136D+01 0.686D+00
 Coeff-En:   0.000D+00 0.286D+00 0.714D+00
 Coeff:     -0.884D+00 0.119D+01 0.690D+00
 Gap=     0.063 Goal=   None    Shift=    0.000
 RMSDP=7.12D-04 MaxDP=3.13D-02 DE=-8.41D-03 OVMax= 7.91D-02

 Cycle   4  Pass 1  IDiag  1:
 E= -24.8383533808659     Delta-E=       -0.027367611403 Rises=F Damp=F
 DIIS: error= 1.23D-02 at cycle   4 NSaved=   4.
 NSaved= 4 IEnMin= 4 EnMin= -24.8383533808659     IErMin= 4 ErrMin= 1.23D-02
 ErrMax= 1.23D-02  0.00D+00 EMaxC= 1.00D-01 BMatC= 5.84D-03 BMatP= 1.32D-02
 IDIUse=3 WtCom= 8.77D-01 WtEn= 1.23D-01
 Coeff-Com: -0.878D+00 0.116D+01 0.282D+00 0.435D+00
 Coeff-En:   0.000D+00 0.000D+00 0.000D+00 0.100D+01
 Coeff:     -0.770D+00 0.102D+01 0.247D+00 0.505D+00
 Gap=     0.062 Goal=   None    Shift=    0.000
 RMSDP=2.70D-04 MaxDP=9.98D-03 DE=-2.74D-02 OVMax= 4.06D-02

 Cycle   5  Pass 1  IDiag  1:
 E= -24.8473950286196     Delta-E=       -0.009041647754 Rises=F Damp=F
 DIIS: error= 1.17D-02 at cycle   5 NSaved=   5.
 NSaved= 5 IEnMin= 5 EnMin= -24.8473950286196     IErMin= 5 ErrMin= 1.17D-02
 ErrMax= 1.17D-02  0.00D+00 EMaxC= 1.00D-01 BMatC= 4.31D-03 BMatP= 5.84D-03
 IDIUse=3 WtCom= 8.83D-01 WtEn= 1.17D-01
 Coeff-Com: -0.904D+00 0.117D+01 0.849D+00-0.176D+01 0.164D+01
 Coeff-En:   0.000D+00 0.000D+00 0.000D+00 0.000D+00 0.100D+01
 Coeff:     -0.798D+00 0.103D+01 0.750D+00-0.155D+01 0.157D+01
 Gap=     0.071 Goal=   None    Shift=    0.000
 RMSDP=1.14D-04 MaxDP=6.46D-03 DE=-9.04D-03 OVMax= 2.03D-02

 Cycle   6  Pass 1  IDiag  1:
 E= -24.8493105091994     Delta-E=       -0.001915480580 Rises=F Damp=F
 DIIS: error= 1.23D-02 at cycle   6 NSaved=   6.
 NSaved= 6 IEnMin= 6 EnMin= -24.8493105091994     IErMin= 5 ErrMin= 1.17D-02
 ErrMax= 1.23D-02  0.00D+00 EMaxC= 1.00D-01 BMatC= 4.54D-03 BMatP= 4.31D-03
 IDIUse=3 WtCom= 8.83D-01 WtEn= 1.17D-01
 Coeff-Com: -0.782D+00 0.981D+00 0.164D+01-0.549D+01 0.902D+01-0.436D+01
 Coeff-En:   0.000D+00 0.000D+00 0.000D+00 0.000D+00 0.000D+00 0.100D+01
 Coeff:     -0.690D+00 0.866D+00 0.145D+01-0.485D+01 0.796D+01-0.373D+01
 Gap=     0.059 Goal=   None    Shift=    0.000
 RMSDP=2.30D-04 MaxDP=8.56D-03 DE=-1.92D-03 OVMax= 2.55D-02

 Cycle   7  Pass 1  IDiag  1:
 E= -24.8552147902613     Delta-E=       -0.005904281062 Rises=F Damp=F
 DIIS: error= 1.16D-02 at cycle   7 NSaved=   7.
 NSaved= 7 IEnMin= 7 EnMin= -24.8552147902613     IErMin= 7 ErrMin= 1.16D-02
 ErrMax= 1.16D-02  0.00D+00 EMaxC= 1.00D-01 BMatC= 3.27D-03 BMatP= 4.31D-03
 IDIUse=3 WtCom= 8.84D-01 WtEn= 1.16D-01
 Coeff-Com: -0.779D+00 0.978D+00 0.162D+01-0.531D+01 0.872D+01-0.435D+01
 Coeff-Com:  0.131D+00
 Coeff-En:   0.000D+00 0.000D+00 0.000D+00 0.000D+00 0.000D+00 0.000D+00
 Coeff-En:   0.100D+01
 Coeff:     -0.689D+00 0.865D+00 0.143D+01-0.470D+01 0.771D+01-0.385D+01
 Coeff:      0.231D+00
 Gap=     0.060 Goal=   None    Shift=    0.000
 RMSDP=9.42D-06 MaxDP=6.14D-04 DE=-5.90D-03 OVMax= 1.04D-03

 Cycle   8  Pass 1  IDiag  1:
 E= -24.8553888992541     Delta-E=       -0.000174108993 Rises=F Damp=F
 DIIS: error= 1.16D-02 at cycle   8 NSaved=   8.
 NSaved= 8 IEnMin= 8 EnMin= -24.8553888992541     IErMin= 7 ErrMin= 1.16D-02
 ErrMax= 1.16D-02  0.00D+00 EMaxC= 1.00D-01 BMatC= 3.25D-03 BMatP= 3.27D-03
 IDIUse=3 WtCom= 8.84D-01 WtEn= 1.16D-01
 Large coefficients: NSaved=  8 BigCof=   11.30 CofMax=   10.00 Det=-1.00D-08
 Inversion failed.  Reducing to  7 matrices.
 Large coefficients: NSaved=  7 BigCof=   59.26 CofMax=   10.00 Det=-1.05D-08
 Inversion failed.  Reducing to  6 matrices.
 Large coefficients: NSaved=  6 BigCof=   56.55 CofMax=   10.00 Det=-1.06D-08
 Inversion failed.  Reducing to  5 matrices.
 Large coefficients: NSaved=  5 BigCof=   42.32 CofMax=   10.00 Det=-1.31D-08
 Inversion failed.  Reducing to  4 matrices.
 Large coefficients: NSaved=  4 BigCof=   86.16 CofMax=   10.00 Det=-2.77D-08
 Inversion failed.  Reducing to  3 matrices.
 Coeff-Com: -0.380D+01 0.661D+01-0.180D+01
 Coeff-En:   0.000D+00 0.000D+00 0.100D+01
 Coeff:     -0.336D+01 0.584D+01-0.148D+01
 Gap=     0.041 Goal=   None    Shift=    0.000
 RMSDP=2.03D-03 MaxDP=7.47D-02 DE=-1.74D-04 OVMax= 4.36D-01

 Cycle   9  Pass 1  IDiag  1:
 E= -24.8858831202599     Delta-E=       -0.030494221006 Rises=F Damp=F
 DIIS: error= 1.01D-02 at cycle   9 NSaved=   4.
 NSaved= 4 IEnMin= 4 EnMin= -24.8858831202599     IErMin= 4 ErrMin= 1.01D-02
 ErrMax= 1.01D-02  0.00D+00 EMaxC= 1.00D-01 BMatC= 3.46D-03 BMatP= 3.25D-03
 IDIUse=3 WtCom= 8.99D-01 WtEn= 1.01D-01
 Large coefficients: NSaved=  4 BigCof=   10.32 CofMax=   10.00 Det=-4.39D-08
 Inversion failed.  Reducing to  3 matrices.
 Large coefficients: NSaved=  3 BigCof=   12.44 CofMax=   10.00 Det=-5.94D-08
 Inversion failed.  Reducing to  2 matrices.
 Coeff-Com:  0.508D+00 0.492D+00
 Coeff-En:   0.000D+00 0.100D+01
 Coeff:      0.457D+00 0.543D+00
 Gap=     0.122 Goal=   None    Shift=    0.000
 RMSDP=5.92D-04 MaxDP=1.94D-02 DE=-3.05D-02 OVMax= 8.97D-02

 Cycle  10  Pass 1  IDiag  1:
 E= -24.8954245059449     Delta-E=       -0.009541385685 Rises=F Damp=F
 DIIS: error= 2.22D-03 at cycle  10 NSaved=   3.
 NSaved= 3 IEnMin= 3 EnMin= -24.8954245059449     IErMin= 3 ErrMin= 2.22D-03
 ErrMax= 2.22D-03  0.00D+00 EMaxC= 1.00D-01 BMatC= 1.95D-04 BMatP= 3.25D-03
 IDIUse=3 WtCom= 9.78D-01 WtEn= 2.22D-02
 Coeff-Com:  0.965D-01-0.104D+00 0.101D+01
 Coeff-En:   0.000D+00 0.000D+00 0.100D+01
 Coeff:      0.943D-01-0.101D+00 0.101D+01
 Gap=     0.144 Goal=   None    Shift=    0.000
 RMSDP=1.86D-04 MaxDP=6.69D-03 DE=-9.54D-03 OVMax= 2.04D-02

 Cycle  11  Pass 1  IDiag  1:
 E= -24.8958847606791     Delta-E=       -0.000460254734 Rises=F Damp=F
 DIIS: error= 1.43D-03 at cycle  11 NSaved=   4.
 NSaved= 4 IEnMin= 4 EnMin= -24.8958847606791     IErMin= 4 ErrMin= 1.43D-03
 ErrMax= 1.43D-03  0.00D+00 EMaxC= 1.00D-01 BMatC= 9.18D-05 BMatP= 1.95D-04
 IDIUse=3 WtCom= 9.86D-01 WtEn= 1.43D-02
 Coeff-Com:  0.126D-01-0.137D+00-0.584D+00 0.171D+01
 Coeff-En:   0.000D+00 0.000D+00 0.000D+00 0.100D+01
 Coeff:      0.124D-01-0.135D+00-0.576D+00 0.170D+01
 Gap=     0.156 Goal=   None    Shift=    0.000
 RMSDP=1.93D-04 MaxDP=8.18D-03 DE=-4.60D-04 OVMax= 1.53D-02

 Cycle  12  Pass 1  IDiag  1:
 E= -24.8961709940470     Delta-E=       -0.000286233368 Rises=F Damp=F
 DIIS: error= 8.17D-05 at cycle  12 NSaved=   5.
 NSaved= 5 IEnMin= 5 EnMin= -24.8961709940470     IErMin= 5 ErrMin= 8.17D-05
 ErrMax= 8.17D-05  0.00D+00 EMaxC= 1.00D-01 BMatC= 2.36D-07 BMatP= 9.18D-05
 IDIUse=1 WtCom= 1.00D+00 WtEn= 0.00D+00
 Coeff-Com: -0.667D-02 0.371D-01 0.868D-01-0.373D+00 0.126D+01
 Coeff:     -0.667D-02 0.371D-01 0.868D-01-0.373D+00 0.126D+01
 Gap=     0.156 Goal=   None    Shift=    0.000
 RMSDP=1.27D-05 MaxDP=6.12D-04 DE=-2.86D-04 OVMax= 1.28D-03

 Cycle  13  Pass 1  IDiag  1:
 E= -24.8961718326163     Delta-E=       -0.000000838569 Rises=F Damp=F
 DIIS: error= 2.85D-05 at cycle  13 NSaved=   6.
 NSaved= 6 IEnMin= 6 EnMin= -24.8961718326163     IErMin= 6 ErrMin= 2.85D-05
 ErrMax= 2.85D-05  0.00D+00 EMaxC= 1.00D-01 BMatC= 4.08D-08 BMatP= 2.36D-07
 IDIUse=1 WtCom= 1.00D+00 WtEn= 0.00D+00
 Coeff-Com: -0.734D-03-0.332D-02 0.791D-02 0.281D-01-0.261D+00 0.123D+01
 Coeff:     -0.734D-03-0.332D-02 0.791D-02 0.281D-01-0.261D+00 0.123D+01
 Gap=     0.156 Goal=   None    Shift=    0.000
 RMSDP=3.40D-06 MaxDP=1.43D-04 DE=-8.39D-07 OVMax= 2.68D-04

 Cycle  14  Pass 1  IDiag  1:
 E= -24.8961719515500     Delta-E=       -0.000000118934 Rises=F Damp=F
 DIIS: error= 4.80D-06 at cycle  14 NSaved=   7.
 NSaved= 7 IEnMin= 7 EnMin= -24.8961719515500     IErMin= 7 ErrMin= 4.80D-06
 ErrMax= 4.80D-06  0.00D+00 EMaxC= 1.00D-01 BMatC= 1.15D-09 BMatP= 4.08D-08
 IDIUse=1 WtCom= 1.00D+00 WtEn= 0.00D+00
 Coeff-Com: -0.668D-04-0.210D-03-0.134D-02 0.111D-02 0.118D-01-0.293D+00
 Coeff-Com:  0.128D+01
 Coeff:     -0.668D-04-0.210D-03-0.134D-02 0.111D-02 0.118D-01-0.293D+00
 Coeff:      0.128D+01
 Gap=     0.156 Goal=   None    Shift=    0.000
 RMSDP=6.44D-07 MaxDP=3.11D-05 DE=-1.19D-07 OVMax= 5.56D-05

 Cycle  15  Pass 1  IDiag  1:
 E= -24.8961719554065     Delta-E=       -0.000000003857 Rises=F Damp=F
 DIIS: error= 6.41D-07 at cycle  15 NSaved=   8.
 NSaved= 8 IEnMin= 8 EnMin= -24.8961719554065     IErMin= 8 ErrMin= 6.41D-07
 ErrMax= 6.41D-07  0.00D+00 EMaxC= 1.00D-01 BMatC= 1.36D-11 BMatP= 1.15D-09
 IDIUse=1 WtCom= 1.00D+00 WtEn= 0.00D+00
 Coeff-Com: -0.131D-04 0.462D-04 0.425D-03-0.162D-03-0.262D-02 0.790D-01
 Coeff-Com: -0.388D+00 0.131D+01
 Coeff:     -0.131D-04 0.462D-04 0.425D-03-0.162D-03-0.262D-02 0.790D-01
 Coeff:     -0.388D+00 0.131D+01
 Gap=     0.156 Goal=   None    Shift=    0.000
 RMSDP=8.35D-08 MaxDP=3.58D-06 DE=-3.86D-09 OVMax= 7.02D-06

 Cycle  16  Pass 1  IDiag  1:
 E= -24.8961719554588     Delta-E=       -0.000000000052 Rises=F Damp=F
 DIIS: error= 8.22D-08 at cycle  16 NSaved=   9.
 NSaved= 9 IEnMin= 9 EnMin= -24.8961719554588     IErMin= 9 ErrMin= 8.22D-08
 ErrMax= 8.22D-08  0.00D+00 EMaxC= 1.00D-01 BMatC= 2.28D-13 BMatP= 1.36D-11
 IDIUse=1 WtCom= 1.00D+00 WtEn= 0.00D+00
 Coeff-Com: -0.772D-06-0.104D-04-0.318D-04 0.321D-04-0.110D-03-0.994D-02
 Coeff-Com:  0.520D-01-0.262D+00 0.122D+01
 Coeff:     -0.772D-06-0.104D-04-0.318D-04 0.321D-04-0.110D-03-0.994D-02
 Coeff:      0.520D-01-0.262D+00 0.122D+01
 Gap=     0.156 Goal=   None    Shift=    0.000
 RMSDP=1.21D-08 MaxDP=4.13D-07 DE=-5.23D-11 OVMax= 1.10D-06

 Cycle  17  Pass 1  IDiag  1:
 E= -24.8961719554597     Delta-E=       -0.000000000001 Rises=F Damp=F
 DIIS: error= 9.59D-09 at cycle  17 NSaved=  10.
 NSaved=10 IEnMin=10 EnMin= -24.8961719554597     IErMin=10 ErrMin= 9.59D-09
 ErrMax= 9.59D-09  0.00D+00 EMaxC= 1.00D-01 BMatC= 2.66D-15 BMatP= 2.28D-13
 IDIUse=1 WtCom= 1.00D+00 WtEn= 0.00D+00
 Coeff-Com: -0.338D-07 0.219D-05 0.101D-04-0.113D-04 0.190D-04 0.202D-02
 Coeff-Com: -0.926D-02 0.478D-01-0.356D+00 0.132D+01
 Coeff:     -0.338D-07 0.219D-05 0.101D-04-0.113D-04 0.190D-04 0.202D-02
 Coeff:     -0.926D-02 0.478D-01-0.356D+00 0.132D+01
 Gap=     0.156 Goal=   None    Shift=    0.000
 RMSDP=2.43D-09 MaxDP=1.13D-07 DE=-9.45D-13 OVMax= 2.16D-07

 SCF Done:  E(RHF) =  -24.8961719555     A.U. after   17 cycles
            NFock= 17  Conv=0.24D-08     -V/T= 2.0056
 KE= 2.475703150848D+01 PE=-5.831685085131D+01 EE= 8.033674517229D+00
 Leave Link  502 at Thu May 26 10:35:42 2022, MaxMem=   104857600 cpu:               3.6 elap:               3.6
 (Enter /apps/software/g16/l801.exe)
 Windowed orbitals will be sorted by symmetry type.
 ExpMin= 1.88D-02 ExpMax= 2.39D+04 ExpMxC= 2.30D+02 IAcc=3 IRadAn=         5 AccDes= 0.00D+00
 HarFok:  IExCor=  205 AccDes= 0.00D+00 IRadAn=         5 IDoV=-2 UseB2=F ITyADJ=14
 ICtDFT= 12500011 ScaDFX=  1.000000  1.000000  1.000000  1.000000
 Largest valence mixing into a core orbital is  4.03D-04
 Largest core mixing into a valence orbital is  1.74D-04
 Range of M.O.s used for correlation:     2   126
 NBasis=   126 NAE=     3 NBE=     3 NFC=     1 NFV=     0
 NROrb=    125 NOA=     2 NOB=     2 NVA=   123 NVB=   123
 Leave Link  801 at Thu May 26 10:35:42 2022, MaxMem=   104857600 cpu:               0.1 elap:               0.1
 (Enter /apps/software/g16/l804.exe)
 Closed-shell transformation, MDV=   104857600 ITran=4 ISComp=2.
 Unit  1 TFree=        527294 TCopy=        350885.
 Semi-Direct transformation.
 ModeAB=           2 MOrb=             2 LenV=     104242979
 LASXX=       493564 LTotXX=      493564 LenRXX=      493564
 LTotAB=      509833 MaxLAS=     3220000 LenRXY=     3220000
 NonZer=     3274500 LenScr=     5611520 LnRSAI=           0
 LnScr1=           0 LExtra=           0 Total=      9325084
 MaxDsk=          -1 SrtSym=           F ITran=            4
 DoSDTr:  NPSUse=  1
 JobTyp=0 Pass  1:  I=   1 to   2.
 (rs|ai) integrals will be sorted in core.
 Complete sort for first half transformation.
 First half transformation complete.
 Complete sort for second half transformation.
 Second half transformation complete.
 Spin components of T(2) and E(2):
     alpha-alpha T2 =       0.1652269370D-02 E2=     -0.2217334752D-02
     alpha-beta  T2 =       0.1909367604D+00 E2=     -0.1145159275D+00
     beta-beta   T2 =       0.1652269370D-02 E2=     -0.2217334752D-02
 ANorm=    0.1092813479D+01
 E2 =    -0.1189505970D+00 EUMP2 =    -0.25015122552414D+02
 Leave Link  804 at Thu May 26 10:35:47 2022, MaxMem=   104857600 cpu:               5.1 elap:               5.1
 (Enter /apps/software/g16/l913.exe)
 CIDS:  MDV=   104857600.
 Frozen-core window:  NFC=   1 NFV=   0.
 IFCWin=0 IBDFC=1 NFBD=     0     0 NFCmp=     0     0 NFFFC=     0     0
 Using DD3R+UMP44R for 1st iteration.
 Using DD4RQ for 2nd and later iterations.
 Keep R2 and R3 ints in memory in symmetry-blocked form, NReq=40146875.
 FoFCou: FMM=F IPFlag=           0 FMFlag=           0 FMFlg1=           0
         NFxFlg=           0 DoJE=F BraDBF=F KetDBF=F FulRan=T
         wScrn=  0.000000 ICntrl=       600 IOpCl=  0 I1Cent=           0 NGrid=           0
         NMat0=    1 NMatS0=   8001 NMatT0=    0 NMatD0=    1 NMtDS0=    0 NMtDT0=    0
 Petite list used in FoFCou.
 CIDS: In Core Option IDoMem=           1.
 CCSD(T)
 =======
 Iterations=  50 Convergence= 0.100D-06
 Produce multiple copies of IABC intergrals
 Iteration Nr.   1
 **********************
 DD1Dir will call FoFMem   1 times, MxPair=         6
 NAB=     3 NAA=     0 NBB=     0.
 MP4(R+Q)=  0.16761096D-01
 Maximum subspace dimension=  5
 A-vector RMS=  4.1190124D-02 Max=  3.0636029D-01 conv= 1.00D-05.
 RLE energy=       -0.1206719219
 E3=       -0.30108178D-01        EUMP3=      -0.25045230730D+02
 E4(DQ)=   -0.68574714D-02        UMP4(DQ)=   -0.25052088201D+02
 E4(SDQ)=  -0.42409824D-01        UMP4(SDQ)=  -0.25087640554D+02
 VARIATIONAL ENERGIES WITH THE FIRST-ORDER WAVEFUNCTION:
 DE(Corr)= -0.12180494     E(Corr)=     -25.017976895    
 NORM(A)=   0.12356190D+01
 Iteration Nr.   2
 **********************
 DD1Dir will call FoFMem   1 times, MxPair=         6
 NAB=     3 NAA=     0 NBB=     0.
 A-vector RMS=  3.7336545D-02 Max=  3.6732622D-01 conv= 1.00D-05.
 RLE energy=       -0.1804216957
 DE(Corr)= -0.18748028     E(CORR)=     -25.083652232     Delta=-6.57D-02
 NORM(A)=   0.13591610D+01
 Iteration Nr.   3
 **********************
 DD1Dir will call FoFMem   1 times, MxPair=         6
 NAB=     3 NAA=     0 NBB=     0.
 A-vector RMS=  2.7806160D-02 Max=  2.1035523D-01 conv= 1.00D-05.
 RLE energy=       -0.1887641785
 DE(Corr)= -0.15965367     E(CORR)=     -25.055825622     Delta= 2.78D-02
 NORM(A)=   0.16009611D+01
 Iteration Nr.   4
 **********************
 DD1Dir will call FoFMem   1 times, MxPair=         6
 NAB=     3 NAA=     0 NBB=     0.
 A-vector RMS=  1.8160853D-02 Max=  1.3820286D-01 conv= 1.00D-05.
 RLE energy=       -0.1845864192
 DE(Corr)= -0.20272108     E(CORR)=     -25.098893032     Delta=-4.31D-02
 NORM(A)=   0.15036353D+01
 Iteration Nr.   5
 **********************
 DD1Dir will call FoFMem   1 times, MxPair=         6
 NAB=     3 NAA=     0 NBB=     0.
 A-vector RMS=  1.0529610D-02 Max=  8.0651449D-02 conv= 1.00D-05.
 RLE energy=       -0.1933490470
 DE(Corr)= -0.18152022     E(CORR)=     -25.077692180     Delta= 2.12D-02
 NORM(A)=   0.16287102D+01
 Iteration Nr.   6
 **********************
 DD1Dir will call FoFMem   1 times, MxPair=         6
 NAB=     3 NAA=     0 NBB=     0.
 A-vector RMS=  2.1517918D-03 Max=  1.6156037D-02 conv= 1.00D-05.
 RLE energy=       -0.1911210474
 DE(Corr)= -0.19347457     E(CORR)=     -25.089646530     Delta=-1.20D-02
 NORM(A)=   0.16033645D+01
 Iteration Nr.   7
 **********************
 DD1Dir will call FoFMem   1 times, MxPair=         6
 NAB=     3 NAA=     0 NBB=     0.
 A-vector RMS=  2.5241920D-04 Max=  1.5446127D-03 conv= 1.00D-05.
 RLE energy=       -0.1907633109
 DE(Corr)= -0.19096159     E(CORR)=     -25.087133541     Delta= 2.51D-03
 NORM(A)=   0.16019560D+01
 Iteration Nr.   8
 **********************
 DD1Dir will call FoFMem   1 times, MxPair=         6
 NAB=     3 NAA=     0 NBB=     0.
 A-vector RMS=  2.3119559D-04 Max=  2.1725592D-03 conv= 1.00D-05.
 RLE energy=       -0.1912625012
 DE(Corr)= -0.19095387     E(CORR)=     -25.087125821     Delta= 7.72D-06
 NORM(A)=   0.16072886D+01
 Iteration Nr.   9
 **********************
 DD1Dir will call FoFMem   1 times, MxPair=         6
 NAB=     3 NAA=     0 NBB=     0.
 A-vector RMS=  4.2805055D-05 Max=  6.9544319D-04 conv= 1.00D-05.
 RLE energy=       -0.1911200650
 DE(Corr)= -0.19119515     E(CORR)=     -25.087367109     Delta=-2.41D-04
 NORM(A)=   0.16063080D+01
 Iteration Nr.  10
 **********************
 DD1Dir will call FoFMem   1 times, MxPair=         6
 NAB=     3 NAA=     0 NBB=     0.
 A-vector RMS=  9.7776215D-05 Max=  7.4753612D-04 conv= 1.00D-05.
 RLE energy=       -0.1911775860
 DE(Corr)= -0.19121019     E(CORR)=     -25.087382144     Delta=-1.50D-05
 NORM(A)=   0.16061004D+01
 Iteration Nr.  11
 **********************
 DD1Dir will call FoFMem   1 times, MxPair=         6
 NAB=     3 NAA=     0 NBB=     0.
 A-vector RMS=  6.9642908D-05 Max=  5.2098869D-04 conv= 1.00D-05.
 RLE energy=       -0.1911173331
 DE(Corr)= -0.19107302     E(CORR)=     -25.087244976     Delta= 1.37D-04
 NORM(A)=   0.16058922D+01
 Iteration Nr.  12
 **********************
 DD1Dir will call FoFMem   1 times, MxPair=         6
 NAB=     3 NAA=     0 NBB=     0.
 A-vector RMS=  6.0928037D-06 Max=  8.1898023D-05 conv= 1.00D-05.
 RLE energy=       -0.1911312941
 DE(Corr)= -0.19113455     E(CORR)=     -25.087306509     Delta=-6.15D-05
 NORM(A)=   0.16059789D+01
 Iteration Nr.  13
 **********************
 DD1Dir will call FoFMem   1 times, MxPair=         6
 NAB=     3 NAA=     0 NBB=     0.
 A-vector RMS=  4.7568671D-06 Max=  3.5597443D-05 conv= 1.00D-05.
 RLE energy=       -0.1911270767
 DE(Corr)= -0.19113090     E(CORR)=     -25.087302856     Delta= 3.65D-06
 NORM(A)=   0.16059211D+01
 Iteration Nr.  14
 **********************
 DD1Dir will call FoFMem   1 times, MxPair=         6
 NAB=     3 NAA=     0 NBB=     0.
 A-vector RMS=  1.7997462D-06 Max=  1.3393171D-05 conv= 1.00D-05.
 RLE energy=       -0.1911272010
 DE(Corr)= -0.19112506     E(CORR)=     -25.087297015     Delta= 5.84D-06
 NORM(A)=   0.16059294D+01
 Iteration Nr.  15
 **********************
 DD1Dir will call FoFMem   1 times, MxPair=         6
 NAB=     3 NAA=     0 NBB=     0.
 A-vector RMS=  4.7973157D-07 Max=  2.6701671D-06 conv= 1.00D-05.
 RLE energy=       -0.1911270228
 DE(Corr)= -0.19112739     E(CORR)=     -25.087299346     Delta=-2.33D-06
 NORM(A)=   0.16059269D+01
 Iteration Nr.  16
 **********************
 DD1Dir will call FoFMem   1 times, MxPair=         6
 NAB=     3 NAA=     0 NBB=     0.
 A-vector RMS=  4.3422312D-07 Max=  3.2920232D-06 conv= 1.00D-05.
 RLE energy=       -0.1911270679
 DE(Corr)= -0.19112723     E(CORR)=     -25.087299189     Delta= 1.57D-07
 NORM(A)=   0.16059242D+01
 Iteration Nr.  17
 **********************
 DD1Dir will call FoFMem   1 times, MxPair=         6
 NAB=     3 NAA=     0 NBB=     0.
 A-vector RMS=  4.2051700D-07 Max=  3.1646700D-06 conv= 1.00D-05.
 RLE energy=       -0.1911268085
 DE(Corr)= -0.19112657     E(CORR)=     -25.087298521     Delta= 6.69D-07
 NORM(A)=   0.16059238D+01
 Iteration Nr.  18
 **********************
 DD1Dir will call FoFMem   1 times, MxPair=         6
 NAB=     3 NAA=     0 NBB=     0.
 A-vector RMS=  2.7242016D-08 Max=  6.3034575D-07 conv= 1.00D-05.
 RLE energy=       -0.1911270028
 DE(Corr)= -0.19112691     E(CORR)=     -25.087298864     Delta=-3.43D-07
 NORM(A)=   0.16059254D+01
 Iteration Nr.  19
 **********************
 DD1Dir will call FoFMem   1 times, MxPair=         6
 NAB=     3 NAA=     0 NBB=     0.
 A-vector RMS=  4.5364549D-08 Max=  3.2902220D-07 conv= 1.00D-05.
 RLE energy=       -0.1911269254
 DE(Corr)= -0.19112697     E(CORR)=     -25.087298927     Delta=-6.33D-08
 NORM(A)=   0.16059245D+01
 CI/CC converged in   19 iterations to DelEn=-6.33D-08 Conv= 1.00D-07 ErrA1= 4.54D-08 Conv= 1.00D-05
 Wavefunction amplitudes converged. E(Corr)=     -25.087298927    
 Dominant configurations:
 ***********************
 Spin Case        I    J    A    B          Value
    AA            3         4           -0.435012D+00
    AA            3        17            0.107836D+00
   ABAB           2    2    5    5      -0.123168D+00
   ABAB           2    2    6    6      -0.123168D+00
   ABAB           3    3    4    4      -0.967625D+00
   ABAB           3    3    4    7       0.127319D+00
   ABAB           3    3    7    4       0.127319D+00
 Largest amplitude= 9.68D-01
 IPart=  1 IA=    8   11.10% done.
 IPart=  1 IA=   14   20.10% done.
 IPart=  1 IA=   22   31.35% done.
 IPart=  1 IA=   29   40.49% done.
 IPart=  1 IA=   37   50.14% done.
 IPart=  1 IA=   47   61.00% done.
 IPart=  1 IA=   57   70.53% done.
 IPart=  1 IA=   69   80.21% done.
 IPart=  1 IA=   85   90.12% done.
 Time for triples=        0.71 seconds.
 T4(CCSD)= -0.48481678D-01
 T5(CCSD)=  0.10509388D-01
 CCSD(T)= -0.25125271217D+02
 Discarding MO integrals.
 Leave Link  913 at Thu May 26 10:35:52 2022, MaxMem=   104857600 cpu:               5.1 elap:               5.1
 (Enter /apps/software/g16/l601.exe)
 Copying SCF densities to generalized density rwf, IOpCl= 0 IROHF=0.

 **********************************************************************

            Population analysis using the SCF density.

 **********************************************************************

 Orbital symmetries:
       Occupied  (SG) (SG) (SG)
       Virtual   (SG) (PI) (PI) (SG) (PI) (PI) (SG) (SG) (DLTA)
                 (DLTA) (PI) (PI) (SG) (SG) (PI) (PI) (PI) (PI)
                 (SG) (SG) (PHI) (PHI) (DLTA) (DLTA) (DLTA) (DLTA)
                 (SG) (PI) (PI) (PI) (PI) (SG) (SG) (DLTA) (DLTA)
                 (PI) (PI) (SG) (PI) (PI) (PI) (PI) (SG) (SG) (SG)
                 (?A) (?A) (DLTA) (DLTA) (PHI) (PHI) (DLTA) (DLTA)
                 (PI) (PI) (PI) (PI) (SG) (PHI) (PHI) (SG) (DLTA)
                 (DLTA) (PI) (PI) (SG) (PHI) (PHI) (DLTA) (DLTA)
                 (PI) (PI) (SG) (SG) (DLTA) (DLTA) (PI) (PI) (SG)
                 (PI) (PI) (SG) (PI) (PI) (SG) (?A) (?A) (DLTA)
                 (DLTA) (PHI) (PHI) (DLTA) (DLTA) (PI) (PI) (PI)
                 (PI) (SG) (SG) (PHI) (PHI) (DLTA) (DLTA) (PI)
                 (PI) (SG) (PHI) (PHI) (DLTA) (DLTA) (PI) (PI)
                 (SG) (SG) (PI) (PI) (SG) (DLTA) (DLTA) (PI) (PI)
                 (SG) (SG)
 The electronic state is 1-SG.
 Alpha  occ. eigenvalues --   -7.89122  -0.62189  -0.23313
 Alpha virt. eigenvalues --   -0.07702  -0.04727  -0.04727   0.02287   0.04246
 Alpha virt. eigenvalues --    0.04246   0.06201   0.09752   0.11904   0.11904
 Alpha virt. eigenvalues --    0.12701   0.12701   0.15481   0.24078   0.24209
 Alpha virt. eigenvalues --    0.24209   0.25356   0.25356   0.28966   0.33496
 Alpha virt. eigenvalues --    0.41599   0.41599   0.42330   0.42330   0.43435
 Alpha virt. eigenvalues --    0.43435   0.43654   0.43935   0.43935   0.44943
 Alpha virt. eigenvalues --    0.44943   0.47086   0.55611   0.69334   0.69334
 Alpha virt. eigenvalues --    0.73252   0.73252   0.79407   0.87260   0.87260
 Alpha virt. eigenvalues --    0.94272   0.94272   0.94778   1.00131   1.29016
 Alpha virt. eigenvalues --    1.29500   1.29500   1.30153   1.30153   1.30432
 Alpha virt. eigenvalues --    1.30432   1.31167   1.31167   1.31331   1.31331
 Alpha virt. eigenvalues --    1.32180   1.32180   1.32801   1.34788   1.34788
 Alpha virt. eigenvalues --    1.35682   1.35914   1.35914   1.38223   1.38223
 Alpha virt. eigenvalues --    1.45335   1.64860   1.64860   1.65161   1.65161
 Alpha virt. eigenvalues --    1.67549   1.67549   1.69464   1.80564   2.55951
 Alpha virt. eigenvalues --    2.55951   2.58394   2.58394   2.64073   2.68710
 Alpha virt. eigenvalues --    2.68710   2.76777   3.58054   3.58054   3.62076
 Alpha virt. eigenvalues --    3.80057   3.80057   3.80835   3.80835   3.81120
 Alpha virt. eigenvalues --    3.81120   3.81919   3.81919   3.82243   3.82243
 Alpha virt. eigenvalues --    3.82782   3.82782   3.83203   3.87040   3.95054
 Alpha virt. eigenvalues --    3.95054   3.96280   3.96280   3.98282   3.98282
 Alpha virt. eigenvalues --    4.02918   6.65735   6.65735   6.65840   6.65840
 Alpha virt. eigenvalues --    6.66399   6.66399   6.67515   7.54871   8.04845
 Alpha virt. eigenvalues --    8.04845   8.09128   8.49449   8.49449   8.51087
 Alpha virt. eigenvalues --    8.51087   8.56566  12.88345
          Condensed to atoms (all electrons):
               1          2
     1  B    4.492679   0.114350
     2  H    0.114350   1.278621
 Mulliken charges:
               1
     1  B    0.392971
     2  H   -0.392971
 Sum of Mulliken charges =  -0.00000
 Mulliken charges with hydrogens summed into heavy atoms:
               1
     1  B   -0.000000
 Electronic spatial extent (au):  <R**2>=             89.5545
 Charge=             -0.0000 electrons
 Dipole moment (field-independent basis, Debye):
    X=              0.0000    Y=              0.0000    Z=              8.5668  Tot=              8.5668
 Quadrupole moment (field-independent basis, Debye-Ang):
   XX=             -9.1902   YY=             -9.1902   ZZ=            -31.4664
   XY=              0.0000   XZ=              0.0000   YZ=              0.0000
 Traceless Quadrupole moment (field-independent basis, Debye-Ang):
   XX=              7.4254   YY=              7.4254   ZZ=            -14.8508
   XY=              0.0000   XZ=              0.0000   YZ=              0.0000
 Octapole moment (field-independent basis, Debye-Ang**2):
  XXX=              0.0000  YYY=              0.0000  ZZZ=             91.3365  XYY=              0.0000
  XXY=              0.0000  XXZ=              9.9233  XZZ=              0.0000  YZZ=              0.0000
  YYZ=              9.9233  XYZ=              0.0000
 Hexadecapole moment (field-independent basis, Debye-Ang**3):
 XXXX=            -20.7746 YYYY=            -20.7746 ZZZZ=           -511.3608 XXXY=              0.0000
 XXXZ=              0.0000 YYYX=              0.0000 YYYZ=              0.0000 ZZZX=              0.0000
 ZZZY=              0.0000 XXYY=             -6.9249 XXZZ=            -53.4490 YYZZ=            -53.4490
 XXYZ=              0.0000 YYXZ=              0.0000 ZZXY=              0.0000
 N-N= 6.299728701429D-01 E-N=-5.831685083611D+01  KE= 2.475703150848D+01
 Symmetry A1   KE= 2.475703150848D+01
 Symmetry A2   KE= 2.359171719537D-51
 Symmetry B1   KE= 0.000000000000D+00
 Symmetry B2   KE= 0.000000000000D+00
 Leave Link  601 at Thu May 26 10:35:52 2022, MaxMem=   104857600 cpu:               0.1 elap:               0.1
 (Enter /apps/software/g16/l9999.exe)
 1\1\GINC-CNODE07\SP\RCCSD(T)-FC\Aug-CC-pVQZ\B1H1\LCZ\26-May-2022\0\\#p
  RHF/aug-cc-pVQZ CCSD(T,FC)\\BH CCSD(T) at 4.2 Angstrom\\0,1\B,0,0.,0.
 ,0.\H,0,4.2,0.,0.\\Version=ES64L-G16RevA.03\State=1-SG\HF=-24.896172\M
 P2=-25.0151226\MP3=-25.0452307\MP4D=-25.0688493\MP4DQ=-25.0520882\MP4S
 DQ=-25.0876406\CCSD=-25.0872989\CCSD(T)=-25.1252712\RMSD=2.428e-09\PG=
 C*V [C*(H1B1)]\\@


 Fatherhood is pretending the present you love most is soap-on-a-rope.
 -- Bill Cosby
 Job cpu time:       0 days  0 hours  0 minutes 14.6 seconds.
 Elapsed time:       0 days  0 hours  0 minutes 14.6 seconds.
 File lengths (MBytes):  RWF=     80 Int=      0 D2E=      0 Chk=      3 Scr=      1
 Normal termination of Gaussian 16 at Thu May 26 10:35:52 2022.

Sender: Unischeduler System <lcz@mgt01>
Subject: Job 136206: <#!/bin/bash
#BSUB -J intel
#BSUB -o BH-4.2-CCSD_T-G.out
#BSUB -n 8
#BSUB -q cqueue
#BSUB -R span[hosts=1]
export g16root=/apps/software
source /apps/software/g16/bsd/g16.profile
export GAUSS_SCRDIR=/scratch
/apps/software/g16/g16 < BH-4.2-CCSD_T-G.inp > BH-4.2-CCSD_T-G.out> Done

Job <#!/bin/bash
#BSUB -J intel
#BSUB -o BH-4.2-CCSD_T-G.out
#BSUB -n 8
#BSUB -q cqueue
#BSUB -R span[hosts=1]
export g16root=/apps/software
source /apps/software/g16/bsd/g16.profile
export GAUSS_SCRDIR=/scratch
/apps/software/g16/g16 < BH-4.2-CCSD_T-G.inp > BH-4.2-CCSD_T-G.out> was submitted from host <mgt01> by user <lcz>.
Job was executed on host(s) <8*cnode07>, in queue <cqueue>, as user <lcz>.
</apps/users/lcz> was used as the home directory.
</apps/users/lcz/exe13/GCCSD_T> was used as the working directory.
Started at 2022-05-26 10:35:37
Results reported at 2022-05-26 10:35:52

Your job looked like:

------------------------------------------------------------
# User input
#!/bin/bash
#BSUB -J intel
#BSUB -o BH-4.2-CCSD_T-G.out
#BSUB -n 8
#BSUB -q cqueue
#BSUB -R span[hosts=1]
export g16root=/apps/software
source /apps/software/g16/bsd/g16.profile
export GAUSS_SCRDIR=/scratch
/apps/software/g16/g16 < BH-4.2-CCSD_T-G.inp > BH-4.2-CCSD_T-G.out
------------------------------------------------------------

Successfully completed.

Resource usage summary:

    CPU time   :           11.17 sec.
    Max Memory :               479 MB
    Max Processes  :               5


The output (if any) follows:

