
                                        *****************
                                        * O   R   C   A *
                                        *****************

                                            #,                                       
                                            ###                                      
                                            ####                                     
                                            #####                                    
                                            ######                                   
                                           ########,                                 
                                     ,,################,,,,,                         
                               ,,#################################,,                 
                          ,,##########################################,,             
                       ,#########################################, ''#####,          
                    ,#############################################,,   '####,        
                  ,##################################################,,,,####,       
                ,###########''''           ''''###############################       
              ,#####''   ,,,,##########,,,,          '''####'''          '####       
            ,##' ,,,,###########################,,,                        '##       
           ' ,,###''''                  '''############,,,                           
         ,,##''                                '''############,,,,        ,,,,,,###''
      ,#''                                            '''#######################'''  
     '                                                          ''''####''''         
             ,#######,   #######,   ,#######,      ##                                
            ,#'     '#,  ##    ##  ,#'     '#,    #''#        ######   ,####,        
            ##       ##  ##   ,#'  ##            #'  '#       #        #'  '#        
            ##       ##  #######   ##           ,######,      #####,   #    #        
            '#,     ,#'  ##    ##  '#,     ,#' ,#      #,         ##   #,  ,#        
             '#######'   ##     ##  '#######'  #'      '#     #####' # '####'        



                  #######################################################
                  #                        -***-                        #
                  #          Department of theory and spectroscopy      #
                  #    Directorship and core code : Frank Neese         #
                  #        Max Planck Institute fuer Kohlenforschung    #
                  #                Kaiser Wilhelm Platz 1               #
                  #                 D-45470 Muelheim/Ruhr               #
                  #                      Germany                        #
                  #                                                     #
                  #                  All rights reserved                #
                  #                        -***-                        #
                  #######################################################


                         Program Version 5.0.0 -  RELEASE  -
                                (SVN: $Rev: 19529$)
                ($Date: 2021-06-28 11:36:33 +0200 (Mo, 28 Jun 2021) $)


 With contributions from (in alphabetic order):
   Daniel Aravena         : Magnetic Suceptibility
   Michael Atanasov       : Ab Initio Ligand Field Theory (pilot matlab implementation)
   Alexander A. Auer      : GIAO ZORA, VPT2 properties, NMR spectrum
   Ute Becker             : Parallelization
   Giovanni Bistoni       : ED, misc. LED, open-shell LED, HFLD
   Martin Brehm           : Molecular dynamics
   Dmytro Bykov           : SCF Hessian
   Vijay G. Chilkuri      : MRCI spin determinant printing, contributions to CSF-ICE
   Dipayan Datta          : RHF DLPNO-CCSD density
   Achintya Kumar Dutta   : EOM-CC, STEOM-CC
   Dmitry Ganyushin       : Spin-Orbit,Spin-Spin,Magnetic field MRCI
   Miquel Garcia          : C-PCM Hessian, Gaussian charge scheme
   Yang Guo               : DLPNO-NEVPT2, F12-NEVPT2, CIM, IAO-localization
   Andreas Hansen         : Spin unrestricted coupled pair/coupled cluster methods
   Benjamin Helmich-Paris : MC-RPA, TRAH-SCF, COSX integrals
   Lee Huntington         : MR-EOM, pCC
   Robert Izsak           : Overlap fitted RIJCOSX, COSX-SCS-MP3, EOM
   Marcus Kettner         : VPT2
   Christian Kollmar      : KDIIS, OOCD, Brueckner-CCSD(T), CCSD density, CASPT2, CASPT2-K
   Simone Kossmann        : Meta GGA functionals, TD-DFT gradient, OOMP2, MP2 Hessian
   Martin Krupicka        : Initial AUTO-CI
   Lucas Lang             : DCDCAS
   Marvin Lechner         : AUTO-CI (C++ implementation), FIC-MRCC
   Dagmar Lenk            : GEPOL surface, SMD
   Dimitrios Liakos       : Extrapolation schemes; Compound Job, initial MDCI parallelization
   Dimitrios Manganas     : Further ROCIS development; embedding schemes
   Dimitrios Pantazis     : SARC Basis sets
   Anastasios Papadopoulos: AUTO-CI, single reference methods and gradients
   Taras Petrenko         : DFT Hessian,TD-DFT gradient, ASA, ECA, R-Raman, ABS, FL, XAS/XES, NRVS
   Peter Pinski           : DLPNO-MP2, DLPNO-MP2 Gradient
   Christoph Reimann      : Effective Core Potentials
   Marius Retegan         : Local ZFS, SOC
   Christoph Riplinger    : Optimizer, TS searches, QM/MM, DLPNO-CCSD(T), (RO)-DLPNO pert. Triples
   Tobias Risthaus        : Range-separated hybrids, TD-DFT gradient, RPA, STAB
   Michael Roemelt        : Original ROCIS implementation
   Masaaki Saitow         : Open-shell DLPNO-CCSD energy and density
   Barbara Sandhoefer     : DKH picture change effects
   Avijit Sen             : IP-ROCIS
   Kantharuban Sivalingam : CASSCF convergence, NEVPT2, FIC-MRCI
   Bernardo de Souza      : ESD, SOC TD-DFT
   Georgi Stoychev        : AutoAux, RI-MP2 NMR
   Willem Van den Heuvel  : Paramagnetic NMR
   Boris Wezisla          : Elementary symmetry handling
   Frank Wennmohs         : Technical directorship


 We gratefully acknowledge several colleagues who have allowed us to
 interface, adapt or use parts of their codes:
   Stefan Grimme, W. Hujo, H. Kruse, P. Pracht,  : VdW corrections, initial TS optimization,
                  C. Bannwarth, S. Ehlert          DFT functionals, gCP, sTDA/sTD-DF
   Ed Valeev, F. Pavosevic, A. Kumar             : LibInt (2-el integral package), F12 methods
   Garnet Chan, S. Sharma, J. Yang, R. Olivares  : DMRG
   Ulf Ekstrom                                   : XCFun DFT Library
   Mihaly Kallay                                 : mrcc  (arbitrary order and MRCC methods)
   Jiri Pittner, Ondrej Demel                    : Mk-CCSD
   Frank Weinhold                                : gennbo (NPA and NBO analysis)
   Christopher J. Cramer and Donald G. Truhlar   : smd solvation model
   Lars Goerigk                                  : TD-DFT with DH, B97 family of functionals
   V. Asgeirsson, H. Jonsson                     : NEB implementation
   FAccTs GmbH                                   : IRC, NEB, NEB-TS, DLPNO-Multilevel, CI-OPT
                                                   MM, QMMM, 2- and 3-layer-ONIOM, Crystal-QMMM,
                                                   LR-CPCM, SF, NACMEs, symmetry and pop. for TD-DFT,
                                                   nearIR, NL-DFT gradient (VV10), updates on ESD,
                                                   ML-optimized integration grids
   S Lehtola, MJT Oliveira, MAL Marques          : LibXC Library
   Liviu Ungur et al                             : ANISO software


 Your calculation uses the libint2 library for the computation of 2-el integrals
 For citations please refer to: http://libint.valeyev.net

 Your ORCA version has been built with support for libXC version: 5.1.0
 For citations please refer to: https://tddft.org/programs/libxc/

 This ORCA versions uses:
   CBLAS   interface :  Fast vector & matrix operations
   LAPACKE interface :  Fast linear algebra routines
   SCALAPACK package :  Parallel linear algebra routines
   Shared memory     :  Shared parallel matrices
   BLAS/LAPACK       :  OpenBLAS 0.3.15  USE64BITINT DYNAMIC_ARCH NO_AFFINITY SkylakeX SINGLE_THREADED
        Core in use  :  SkylakeX
   Copyright (c) 2011-2014, The OpenBLAS Project


================================================================================

----- Orbital basis set information -----
Your calculation utilizes the basis: aug-cc-pVQZ 
    H, B-Ne : Obtained from the ccRepo (grant-hill.group.shef.ac.uk/ccrepo) Feb. 2017
              R. A. Kendall, T. H. Dunning, Jr., R. J. Harrison, J. Chem. Phys. 96, 6796 (1992)
         He : Obtained from the ccRepo (grant-hill.group.shef.ac.uk/ccrepo) Feb. 2017
              D. E. Woon, T. H. Dunning, Jr., J. Chem. Phys. 100, 2975 (1994)
  Li-Be, Na : Obtained from the ccRepo (grant-hill.group.shef.ac.uk/ccrepo) Feb. 2017
              B. P. Prascher, D. E. Woon, K. A. Peterson, T. H. Dunning, Jr., A. K. Wilson, Theor. Chem. Acc. 128, 69 (2011)
         Mg : Obtained from the Peterson Research Group Website (tyr0.chem.wsu.edu/~kipeters) Feb. 2017
              B. P. Prascher, D. E. Woon, K. A. Peterson, T. H. Dunning, Jr., A. K. Wilson, Theor. Chem. Acc. 128, 69 (2011)
      Al-Ar : Obtained from the ccRepo (grant-hill.group.shef.ac.uk/ccrepo) Feb. 2017
              D. E. Woon, T. H. Dunning, Jr., J. Chem. Phys. 98, 1358 (1993)
      Sc-Zn : Obtained from the ccRepo (grant-hill.group.shef.ac.uk/ccrepo) Feb. 2017
              N. B. Balabanov, K. A. Peterson, J. Chem. Phys. 123, 064107 (2005)
              N. B. Balabanov, K. A. Peterson, J. Chem. Phys. 125, 074110 (2006)
      Ga-Kr : Obtained from the ccRepo (grant-hill.group.shef.ac.uk/ccrepo) Feb. 2017
              A. K. Wilson, D. E. Woon, K. A. Peterson, T. H. Dunning, Jr., J. Chem. Phys. 110, 7667 (1999)

================================================================================
                                        WARNINGS
                       Please study these warnings very carefully!
================================================================================


WARNING: Post HF methods need fully converged wavefunctions
  ===> : Setting SCFConvForced true
         You can overwrite this default with %scf ConvForced false 


WARNING: MDCI localization with Augmented Hessian Foster-Boys
  ===> : Switching off randomization!

INFO   : the flag for use of the SHARK integral package has been found!

================================================================================
                                       INPUT FILE
================================================================================
NAME = /scratch/BH-5.4-CCSD_T-O_300/BH-5.4-CCSD_T-O.inp
|  1> ! RHF CCSD(T) aug-cc-pVQZ VeryTightSCF
|  2> 
|  3> *xyz 0 1
|  4>  B	0.0	0.0	0.0
|  5>  H	5.4	0.0	0.0
|  6> **                         ****END OF INPUT****
================================================================================

                       ****************************
                       * Single Point Calculation *
                       ****************************

---------------------------------
CARTESIAN COORDINATES (ANGSTROEM)
---------------------------------
  B      0.000000    0.000000    0.000000
  H      5.400000    0.000000    0.000000

----------------------------
CARTESIAN COORDINATES (A.U.)
----------------------------
  NO LB      ZA    FRAG     MASS         X           Y           Z
   0 B     5.0000    0    10.810    0.000000    0.000000    0.000000
   1 H     1.0000    0     1.008   10.204521    0.000000    0.000000

--------------------------------
INTERNAL COORDINATES (ANGSTROEM)
--------------------------------
 B      0   0   0     0.000000000000     0.00000000     0.00000000
 H      1   0   0     5.400000000000     0.00000000     0.00000000

---------------------------
INTERNAL COORDINATES (A.U.)
---------------------------
 B      0   0   0     0.000000000000     0.00000000     0.00000000
 H      1   0   0    10.204521123175     0.00000000     0.00000000

---------------------
BASIS SET INFORMATION
---------------------
There are 2 groups of distinct atoms

 Group   1 Type B   : 22s7p4d3f2g contracted to 6s5p4d3f2g pattern {991111/31111/1111/111/11}
 Group   2 Type H   : 7s4p3d2f contracted to 5s4p3d2f pattern {31111/1111/111/11}

Atom   0B    basis set group =>   1
Atom   1H    basis set group =>   2
------------------------------------------------------------------------------
                           ORCA GTO INTEGRAL CALCULATION
------------------------------------------------------------------------------
------------------------------------------------------------------------------
                   ___                                                        
                  /   \      - P O W E R E D   B Y -                         
                 /     \                                                     
                 |  |  |   _    _      __       _____    __    __             
                 |  |  |  | |  | |    /  \     |  _  \  |  |  /  |          
                  \  \/   | |  | |   /    \    | | | |  |  | /  /          
                 / \  \   | |__| |  /  /\  \   | |_| |  |  |/  /          
                |  |  |   |  __  | /  /__\  \  |    /   |      \           
                |  |  |   | |  | | |   __   |  |    \   |  |\   \          
                \     /   | |  | | |  |  |  |  | |\  \  |  | \   \       
                 \___/    |_|  |_| |__|  |__|  |_| \__\ |__|  \__/        
                                                                              
                      - O R C A' S   B I G   F R I E N D -                    
                                      &                                       
                       - I N T E G R A L  F E E D E R -                       
                                                                              
 v1 FN, 2020, v2 2021                                                         
------------------------------------------------------------------------------


Reading SHARK input file /scratch/BH-5.4-CCSD_T-O_300/BH-5.4-CCSD_T-O.SHARKINP.tmp ... ok
----------------------
SHARK INTEGRAL PACKAGE
----------------------

Number of atoms                             ...      2
Number of basis functions                   ...    126
Number of shells                            ...     34
Maximum angular momentum                    ...      4
Integral batch strategy                     ... SHARK/LIBINT Hybrid
RI-J (if used) integral strategy            ... SPLIT-RIJ (Revised 2003 algorithm where possible)
Printlevel                                  ...      1
Contraction scheme used                     ... SEGMENTED contraction
Coulomb Range Separation                    ... NOT USED
Exchange Range Separation                   ... NOT USED
Finite Nucleus Model                        ... NOT USED
Auxiliary Coulomb fitting basis             ... NOT available
Auxiliary J/K fitting basis                 ... NOT available
Auxiliary Correlation fitting basis         ... NOT available
Auxiliary 'external' fitting basis          ... NOT available
Integral threshold                          ...     1.000000e-12
Primitive cut-off                           ...     1.000000e-14
Primitive pair pre-selection threshold      ...     1.000000e-14

Calculating pre-screening integrals         ... done (  0.1 sec) Dimension = 34
Organizing shell pair data                  ... done (  0.0 sec)
Shell pair information
Total number of shell pairs                 ...       595
Shell pairs after pre-screening             ...       548
Total number of primitive shell pairs       ...      1563
Primitive shell pairs kept                  ...      1314
          la=0 lb=0:     61 shell pairs
          la=1 lb=0:     91 shell pairs
          la=1 lb=1:     42 shell pairs
          la=2 lb=0:     69 shell pairs
          la=2 lb=1:     58 shell pairs
          la=2 lb=2:     26 shell pairs
          la=3 lb=0:     50 shell pairs
          la=3 lb=1:     41 shell pairs
          la=3 lb=2:     33 shell pairs
          la=3 lb=3:     14 shell pairs
          la=4 lb=0:     21 shell pairs
          la=4 lb=1:     17 shell pairs
          la=4 lb=2:     13 shell pairs
          la=4 lb=3:      9 shell pairs
          la=4 lb=4:      3 shell pairs

Calculating one electron integrals          ... done (  0.0 sec)
Calculating Nuclear repulsion               ... done (  0.0 sec) ENN=      0.489978896574 Eh

SHARK setup successfully completed in   0.1 seconds

Maximum memory used throughout the entire GTOINT-calculation: 30.4 MB
-------------------------------------------------------------------------------
                                 ORCA SCF
-------------------------------------------------------------------------------

------------
SCF SETTINGS
------------
Hamiltonian:
 Ab initio Hamiltonian  Method          .... Hartree-Fock(GTOs)


General Settings:
 Integral files         IntName         .... /scratch/BH-5.4-CCSD_T-O_300/BH-5.4-CCSD_T-O
 Hartree-Fock type      HFTyp           .... RHF
 Total Charge           Charge          ....    0
 Multiplicity           Mult            ....    1
 Number of Electrons    NEL             ....    6
 Basis Dimension        Dim             ....  126
 Nuclear Repulsion      ENuc            ....      0.4899788966 Eh

Convergence Acceleration:
 DIIS                   CNVDIIS         .... on
   Start iteration      DIISMaxIt       ....    12
   Startup error        DIISStart       ....  0.200000
   # of expansion vecs  DIISMaxEq       ....     5
   Bias factor          DIISBfac        ....   1.050
   Max. coefficient     DIISMaxC        ....  10.000
 Trust-Rad. Augm. Hess. CNVTRAH         .... auto
   Auto Start mean grad. ratio tolernc. ....  1.125000
   Auto Start start iteration           ....    20
   Auto Start num. interpolation iter.  ....    10
   Max. Number of Micro iterations      ....    16
   Max. Number of Macro iterations      .... Maxiter - #DIIS iter
   Number of Davidson start vectors     ....     2
   Converg. threshold I  (grad. norm)   ....   2.000e-06
   Converg. threshold II (energy diff.) ....   1.000e-09
   Grad. Scal. Fac. for Micro threshold ....   0.100
   Minimum threshold for Micro iter.    ....   0.010
   NR start threshold (gradient norm)   ....   0.001
   Initial trust radius                 ....   0.400
   Minimum AH scaling param. (alpha)    ....   1.000
   Maximum AH scaling param. (alpha)    .... 1000.000
   Orbital update algorithm             .... Taylor
   White noise on init. David. guess    .... on
   Maximum white noise                  ....   0.010
   Quad. conv. algorithm                .... NR
 SOSCF                  CNVSOSCF        .... on
   Start iteration      SOSCFMaxIt      ....   150
   Startup grad/error   SOSCFStart      ....  0.003300
 Level Shifting         CNVShift        .... on
   Level shift para.    LevelShift      ....    0.2500
   Turn off err/grad.   ShiftErr        ....    0.0010
 Zerner damping         CNVZerner       .... off
 Static damping         CNVDamp         .... on
   Fraction old density DampFac         ....    0.7000
   Max. Damping (<1)    DampMax         ....    0.9800
   Min. Damping (>=0)   DampMin         ....    0.0000
   Turn off err/grad.   DampErr         ....    0.1000
 Fernandez-Rico         CNVRico         .... off

SCF Procedure:
 Maximum # iterations   MaxIter         ....   125
 SCF integral mode      SCFMode         .... Direct
   Integral package                     .... SHARK and LIBINT hybrid scheme
 Reset frequency        DirectResetFreq ....    20
 Integral Threshold     Thresh          ....  1.000e-12 Eh
 Primitive CutOff       TCut            ....  1.000e-14 Eh

Convergence Tolerance:
 Convergence Check Mode ConvCheckMode   .... Total+1el-Energy
 Convergence forced     ConvForced      .... 1
 Energy Change          TolE            ....  1.000e-09 Eh
 1-El. energy change                    ....  1.000e-06 Eh
 Orbital Gradient       TolG            ....  2.000e-06
 Orbital Rotation angle TolX            ....  2.000e-06
 DIIS Error             TolErr          ....  1.000e-08


Diagonalization of the overlap matrix:
Smallest eigenvalue                        ... 4.891e-03
Time for diagonalization                   ...    0.002 sec
Threshold for overlap eigenvalues          ... 1.000e-08
Number of eigenvalues below threshold      ... 0
Time for construction of square roots      ...    0.000 sec
Total time needed                          ...    0.002 sec

Time for model grid setup =    0.013 sec

------------------------------
INITIAL GUESS: MODEL POTENTIAL
------------------------------
Loading Hartree-Fock densities                     ... done
Calculating cut-offs                               ... done
Initializing the effective Hamiltonian             ... done
Setting up the integral package (SHARK)            ... done
Starting the Coulomb interaction                   ... done (   0.0 sec)
Reading the grid                                   ... done
Mapping shells                                     ... done
Starting the XC term evaluation                    ... done (   0.0 sec)
Transforming the Hamiltonian                       ... done (   0.0 sec)
Diagonalizing the Hamiltonian                      ... done (   0.0 sec)
Back transforming the eigenvectors                 ... done (   0.0 sec)
Now organizing SCF variables                       ... done
                      ------------------
                      INITIAL GUESS DONE (   0.0 sec)
                      ------------------
--------------
SCF ITERATIONS
--------------
ITER       Energy         Delta-E        Max-DP      RMS-DP      [F,P]     Damp
               ***  Starting incremental Fock matrix formation  ***
  0    -24.7477648603   0.000000000000 0.05075510  0.00093992  0.2074205 0.7000
  1    -24.7662858165  -0.018520956161 0.04482299  0.00090877  0.1642052 0.7000
                               ***Turning on DIIS***
  2    -24.7861853180  -0.019899501526 0.03969884  0.00086897  0.1192506 0.7000
  3    -24.7594919833   0.026693334650 0.10787596  0.00259414  0.0768628 0.0000
  4    -24.9206482564  -0.161156273036 0.02815875  0.00047024  0.0274068 0.0000
  5    -24.8947673602   0.025880896158 0.01605076  0.00036410  0.0165090 0.0000
  6    -24.8764191924   0.018348167844 0.01170794  0.00020651  0.0074831 0.0000
                      *** Initiating the SOSCF procedure ***
                           *** Shutting down DIIS ***
                      *** Re-Reading the Fockian *** 
                      *** Removing any level shift *** 
ITER      Energy       Delta-E        Grad      Rot      Max-DP    RMS-DP
  7    -24.86891761   0.0075015791  0.002112  0.002112  0.005131  0.000094
               *** Restarting incremental Fock matrix formation ***
  8    -24.86732838   0.0015892289  0.000992  0.003128  0.004307  0.000083
  9    -24.86734200  -0.0000136201  0.000384  0.001982  0.002649  0.000052
 10    -24.86734444  -0.0000024390  0.000017  0.000052  0.000059  0.000001
 11    -24.86734445  -0.0000000059  0.000008  0.000071  0.000059  0.000001
 12    -24.86734445  -0.0000000004  0.000011  0.000042  0.000021  0.000001
 13    -24.86734445  -0.0000000014  0.000001  0.000001  0.000001  0.000000
                 **** Energy Check signals convergence ****
              ***Rediagonalizing the Fockian in SOSCF/NRSCF***

               *****************************************************
               *                     SUCCESS                       *
               *           SCF CONVERGED AFTER  14 CYCLES          *
               *****************************************************


----------------
TOTAL SCF ENERGY
----------------

Total Energy       :          -24.86734445 Eh            -676.67484 eV

Components:
Nuclear Repulsion  :            0.48997890 Eh              13.33300 eV
Electronic Energy  :          -25.35732335 Eh            -690.00785 eV
One Electron Energy:          -33.23369367 Eh            -904.33478 eV
Two Electron Energy:            7.87637032 Eh             214.32693 eV

Virial components:
Potential Energy   :          -49.64504638 Eh           -1350.91039 eV
Kinetic Energy     :           24.77770193 Eh             674.23555 eV
Virial Ratio       :            2.00361787


---------------
SCF CONVERGENCE
---------------

  Last Energy change         ...   -5.8691e-12  Tolerance :   1.0000e-09
  Last MAX-Density change    ...    1.0184e-06  Tolerance :   1.0000e-08
  Last RMS-Density change    ...    2.2432e-08  Tolerance :   1.0000e-09
  Last Orbital Gradient      ...    1.6474e-07  Tolerance :   2.0000e-06
  Last Orbital Rotation      ...    9.2092e-07  Tolerance :   2.0000e-06

             **** THE GBW FILE WAS UPDATED (/scratch/BH-5.4-CCSD_T-O_300/BH-5.4-CCSD_T-O.gbw) ****
             **** DENSITY /scratch/BH-5.4-CCSD_T-O_300/BH-5.4-CCSD_T-O.scfp WAS UPDATED ****
             **** ENERGY FILE WAS UPDATED (/scratch/BH-5.4-CCSD_T-O_300/BH-5.4-CCSD_T-O.en.tmp) ****
             **** THE GBW FILE WAS UPDATED (/scratch/BH-5.4-CCSD_T-O_300/BH-5.4-CCSD_T-O.gbw) ****
             **** DENSITY /scratch/BH-5.4-CCSD_T-O_300/BH-5.4-CCSD_T-O.scfp WAS UPDATED ****
----------------
ORBITAL ENERGIES
----------------

  NO   OCC          E(Eh)            E(eV) 
   0   2.0000      -7.896784      -214.8824 
   1   2.0000      -0.631130       -17.1739 
   2   2.0000      -0.212563        -5.7841 
   3   0.0000      -0.102688        -2.7943 
   4   0.0000      -0.056485        -1.5370 
   5   0.0000      -0.056485        -1.5370 
   6   0.0000       0.018613         0.5065 
   7   0.0000       0.037529         1.0212 
   8   0.0000       0.037529         1.0212 
   9   0.0000       0.052505         1.4287 
  10   0.0000       0.104199         2.8354 
  11   0.0000       0.111074         3.0225 
  12   0.0000       0.111074         3.0225 
  13   0.0000       0.117856         3.2070 
  14   0.0000       0.117856         3.2070 
  15   0.0000       0.135288         3.6814 
  16   0.0000       0.228707         6.2234 
  17   0.0000       0.236603         6.4383 
  18   0.0000       0.236603         6.4383 
  19   0.0000       0.242633         6.6024 
  20   0.0000       0.242633         6.6024 
  21   0.0000       0.280567         7.6346 
  22   0.0000       0.294986         8.0270 
  23   0.0000       0.406461        11.0604 
  24   0.0000       0.406461        11.0604 
  25   0.0000       0.413385        11.2488 
  26   0.0000       0.413385        11.2488 
  27   0.0000       0.420387        11.4393 
  28   0.0000       0.420387        11.4393 
  29   0.0000       0.423749        11.5308 
  30   0.0000       0.423749        11.5308 
  31   0.0000       0.424201        11.5431 
  32   0.0000       0.432462        11.7679 
  33   0.0000       0.432462        11.7679 
  34   0.0000       0.453043        12.3279 
  35   0.0000       0.505461        13.7543 
  36   0.0000       0.695142        18.9158 
  37   0.0000       0.695142        18.9158 
  38   0.0000       0.701108        19.0781 
  39   0.0000       0.701108        19.0781 
  40   0.0000       0.717007        19.5108 
  41   0.0000       0.862489        23.4695 
  42   0.0000       0.862489        23.4695 
  43   0.0000       0.899624        24.4800 
  44   0.0000       0.931817        25.3560 
  45   0.0000       0.931817        25.3560 
  46   0.0000       0.966170        26.2908 
  47   0.0000       1.277364        34.7588 
  48   0.0000       1.285010        34.9669 
  49   0.0000       1.285010        34.9669 
  50   0.0000       1.292401        35.1680 
  51   0.0000       1.292401        35.1680 
  52   0.0000       1.293040        35.1854 
  53   0.0000       1.293040        35.1854 
  54   0.0000       1.299028        35.3483 
  55   0.0000       1.299028        35.3483 
  56   0.0000       1.302863        35.4527 
  57   0.0000       1.302863        35.4527 
  58   0.0000       1.304299        35.4918 
  59   0.0000       1.304299        35.4918 
  60   0.0000       1.305201        35.5163 
  61   0.0000       1.322482        35.9866 
  62   0.0000       1.338197        36.4142 
  63   0.0000       1.338197        36.4142 
  64   0.0000       1.348055        36.6824 
  65   0.0000       1.348055        36.6824 
  66   0.0000       1.355850        36.8945 
  67   0.0000       1.355850        36.8945 
  68   0.0000       1.380217        37.5576 
  69   0.0000       1.653296        44.9885 
  70   0.0000       1.653296        44.9885 
  71   0.0000       1.653372        44.9905 
  72   0.0000       1.653372        44.9905 
  73   0.0000       1.654567        45.0231 
  74   0.0000       1.654567        45.0231 
  75   0.0000       1.657626        45.1063 
  76   0.0000       1.731611        47.1195 
  77   0.0000       2.562040        69.7166 
  78   0.0000       2.562040        69.7166 
  79   0.0000       2.565327        69.8061 
  80   0.0000       2.565327        69.8061 
  81   0.0000       2.575485        70.0825 
  82   0.0000       2.679122        72.9026 
  83   0.0000       2.679122        72.9026 
  84   0.0000       2.722104        74.0722 
  85   0.0000       3.572327        97.2080 
  86   0.0000       3.572327        97.2080 
  87   0.0000       3.590859        97.7122 
  88   0.0000       3.791619       103.1752 
  89   0.0000       3.791619       103.1752 
  90   0.0000       3.800636       103.4206 
  91   0.0000       3.800636       103.4206 
  92   0.0000       3.801997       103.4576 
  93   0.0000       3.801997       103.4576 
  94   0.0000       3.809504       103.6619 
  95   0.0000       3.809504       103.6619 
  96   0.0000       3.813592       103.7731 
  97   0.0000       3.813592       103.7731 
  98   0.0000       3.814366       103.7942 
  99   0.0000       3.814366       103.7942 
 100   0.0000       3.816041       103.8398 
 101   0.0000       3.828180       104.1701 
 102   0.0000       3.942230       107.2735 
 103   0.0000       3.942230       107.2735 
 104   0.0000       3.953721       107.5862 
 105   0.0000       3.953721       107.5862 
 106   0.0000       3.961553       107.7993 
 107   0.0000       3.961553       107.7993 
 108   0.0000       3.974483       108.1512 
 109   0.0000       6.661375       181.2652 
 110   0.0000       6.661375       181.2652 
 111   0.0000       6.661539       181.2697 
 112   0.0000       6.661539       181.2697 
 113   0.0000       6.661933       181.2804 
 114   0.0000       6.661933       181.2804 
 115   0.0000       6.662726       181.3020 
 116   0.0000       7.515960       204.5197 
 117   0.0000       8.044352       218.8980 
 118   0.0000       8.044352       218.8980 
 119   0.0000       8.075771       219.7529 
 120   0.0000       8.497561       231.2304 
 121   0.0000       8.497561       231.2304 
 122   0.0000       8.499575       231.2852 
 123   0.0000       8.499575       231.2852 
 124   0.0000       8.508719       231.5340 
 125   0.0000      12.855588       349.8183 

                    ********************************
                    * MULLIKEN POPULATION ANALYSIS *
                    ********************************

-----------------------
MULLIKEN ATOMIC CHARGES
-----------------------
   0 B :    0.411087
   1 H :   -0.411087
Sum of atomic charges:   -0.0000000

--------------------------------
MULLIKEN REDUCED ORBITAL CHARGES
--------------------------------
  0 B s       :     4.004671  s :     4.004671
      pz      :     0.000000  p :     0.578019
      px      :     0.578019
      py      :     0.000000
      dz2     :     0.001524  d :     0.006097
      dxz     :     0.000000
      dyz     :     0.000000
      dx2y2   :     0.004572
      dxy     :     0.000000
      f0      :     0.000000  f :     0.000126
      f+1     :     0.000047
      f-1     :     0.000000
      f+2     :     0.000000
      f-2     :     0.000000
      f+3     :     0.000079
      f-3     :     0.000000
      g0      :     0.000000  g :     0.000001
      g+1     :     0.000000
      g-1     :     0.000000
      g+2     :     0.000000
      g-2     :     0.000000
      g+3     :     0.000000
      g-3     :     0.000000
      g+4     :     0.000000
      g-4     :     0.000000
  1 H s       :     1.408183  s :     1.408183
      pz      :    -0.000000  p :     0.002837
      px      :     0.002837
      py      :    -0.000000
      dz2     :     0.000016  d :     0.000066
      dxz     :    -0.000000
      dyz     :     0.000000
      dx2y2   :     0.000049
      dxy     :    -0.000000
      f0      :    -0.000000  f :     0.000001
      f+1     :     0.000000
      f-1     :    -0.000000
      f+2     :    -0.000000
      f-2     :     0.000000
      f+3     :     0.000000
      f-3     :    -0.000000


                     *******************************
                     * LOEWDIN POPULATION ANALYSIS *
                     *******************************

----------------------
LOEWDIN ATOMIC CHARGES
----------------------
   0 B :    0.388409
   1 H :   -0.388409

-------------------------------
LOEWDIN REDUCED ORBITAL CHARGES
-------------------------------
  0 B s       :     4.003614  s :     4.003614
      pz      :     0.000000  p :     0.597561
      px      :     0.597561
      py      :     0.000000
      dz2     :     0.002532  d :     0.010126
      dxz     :     0.000000
      dyz     :     0.000000
      dx2y2   :     0.007595
      dxy     :     0.000000
      f0      :     0.000000  f :     0.000288
      f+1     :     0.000108
      f-1     :     0.000000
      f+2     :     0.000000
      f-2     :     0.000000
      f+3     :     0.000180
      f-3     :     0.000000
      g0      :     0.000000  g :     0.000002
      g+1     :     0.000000
      g-1     :     0.000000
      g+2     :     0.000001
      g-2     :     0.000000
      g+3     :     0.000000
      g-3     :     0.000000
      g+4     :     0.000001
      g-4     :     0.000000
  1 H s       :     1.386290  s :     1.386290
      pz      :     0.000000  p :     0.002039
      px      :     0.002039
      py      :     0.000000
      dz2     :     0.000019  d :     0.000078
      dxz     :     0.000000
      dyz     :     0.000000
      dx2y2   :     0.000058
      dxy     :     0.000000
      f0      :     0.000000  f :     0.000002
      f+1     :     0.000001
      f-1     :     0.000000
      f+2     :     0.000000
      f-2     :     0.000000
      f+3     :     0.000001
      f-3     :     0.000000


                      *****************************
                      * MAYER POPULATION ANALYSIS *
                      *****************************

  NA   - Mulliken gross atomic population
  ZA   - Total nuclear charge
  QA   - Mulliken gross atomic charge
  VA   - Mayer's total valence
  BVA  - Mayer's bonded valence
  FA   - Mayer's free valence

  ATOM       NA         ZA         QA         VA         BVA        FA
  0 B      4.5889     5.0000     0.4111     0.8310     0.8310    -0.0000
  1 H      1.4111     1.0000    -0.4111     0.8310     0.8310     0.0000

  Mayer bond orders larger than 0.100000
B(  0-B ,  1-H ) :   0.8310 

-------
TIMINGS
-------

Total SCF time: 0 days 0 hours 0 min 9 sec 

Total time                  ....       9.418 sec
Sum of individual times     ....       9.180 sec  ( 97.5%)

Fock matrix formation       ....       9.124 sec  ( 96.9%)
Diagonalization             ....       0.012 sec  (  0.1%)
Density matrix formation    ....       0.001 sec  (  0.0%)
Population analysis         ....       0.001 sec  (  0.0%)
Initial guess               ....       0.019 sec  (  0.2%)
Orbital Transformation      ....       0.000 sec  (  0.0%)
Orbital Orthonormalization  ....       0.000 sec  (  0.0%)
DIIS solution               ....       0.004 sec  (  0.0%)
SOSCF solution              ....       0.007 sec  (  0.1%)

Maximum memory used throughout the entire SCF-calculation: 254.4 MB


------------------------------------------------------------------------------- 
                              ORCA-MATRIX DRIVEN CI                            
------------------------------------------------------------------------------- 

--------------------------------
AUTOMATIC CHOICE OF INCORE LEVEL
--------------------------------

Memory available                           ...    256.00 MB
Memory needed for S+T                      ...      1.04 MB
Memory needed for J+K                      ...      2.08 MB
Memory needed for DIIS                     ...     14.54 MB
Memory needed for 3-ext                    ...     28.39 MB
Memory needed for 4-ext                    ...    880.23 MB
Memory needed for triples                  ...     70.99 MB
 -> Final InCoreLevel    ... 4
 -> check shows that triples correction can be computed


Wavefunction type
-----------------
Correlation treatment                      ...      CCSD     
Single excitations                         ... ON
Orbital optimization                       ... OFF
Calculation of Z vector                    ... OFF
Calculation of Brueckner orbitals          ... OFF
Perturbative triple excitations            ... ON
Calculation of F12 correction              ... OFF
Frozen core treatment                      ... chemical core (2 el)
Reference Wavefunction                     ... RHF
  Internal Orbitals:     1 ...    2 (  2 MO's/  4 electrons)
  Virtual  Orbitals:     3 ...  125 (123 MO's              )
Number of AO's                             ...    126
Number of electrons                        ...      6
Number of correlated electrons             ...      4

Algorithmic settings
--------------------
Integral transformation                    ... AO direct full transformation
K(C) Formation                             ... FULL-MO TRAFO
Maximum number of iterations               ...        50
Convergence tolerance (max. residuum)      ... 1.000e-06
Level shift for amplitude update           ... 2.000e-01
Maximum number of DIIS vectors             ...         7
DIIS turned on at iteration                ...         0
Damping before turning on DIIS             ...     0.500
Damping after turning on DIIS              ...     0.000
Pair specific amplitude update             ... OFF
Natural orbital iterations                 ... OFF
Perturbative natural orbital generation    ... OFF
Printlevel                                 ... 2

Memory handling:
----------------
Maximum memory for working arrays          ...    256 MB
Data storage in matrix containers          ... UNCOMPRESSED
Data type for integral storage             ... DOUBLE
In-Core Storage of quantities:
   Amplitudes+Sigma Vector      ... YES
   J+K operators                ... YES
   DIIS vectors                 ... YES
   3-external integrals         ... YES
   4-external integrals         ... NO


Initializing the integral package          ... done
Warning: reference  - re-canonicalizations have been set to INT 1 VIRT 1

--------------------------
CLOSED-SHELL FOCK OPERATOR
--------------------------

Restoring SHARK [2] ... ok
Recanonicalizing the internal orbitals
Recanonicalizing the virtual orbitals
Time needed for Fock operator              ...            0.844 sec
Reference energy                           ...    -24.867344451

------------------------------
PARTIAL COULOMB TRANSFORMATION
------------------------------

Transformation type                        ... one-operator
Dimension of the basis                     ...  126
Number of internal MOs                     ...  125 (1-125)
Pair cutoff                                ... 0.000e+00 Eh
Number of AO pairs included in the trafo   ... 8001
Total Number of distinct AO pairs          ... 8001
Memory devoted for trafo                   ...  256.0 MB 
Max. Number of MO pairs treated together   ... 4193      
Max. Number of MOs treated per batch       ...   33      
Number Format for Storage                  ... Double (8 Byte)
AO-integral source                         ... DIRECT
Integral package used                      ... LIBINT

Starting integral evaluation:
<ss|**>:        32340 b        0 skpd     0.060 s (  0.002 ms/b)
<sp|**>:        47971 b        0 skpd     0.124 s (  0.003 ms/b)
<sd|**>:        37191 b        0 skpd     0.155 s (  0.004 ms/b)
<sf|**>:        26950 b        0 skpd     0.182 s (  0.007 ms/b)
<sg|**>:        10780 b        0 skpd     0.135 s (  0.012 ms/b)
<pp|**>:        22099 b        0 skpd     0.124 s (  0.006 ms/b)
<pd|**>:        30723 b        0 skpd     0.310 s (  0.010 ms/b)
<pf|**>:        22099 b        0 skpd     0.330 s (  0.015 ms/b)
<pg|**>:         8624 b        0 skpd     0.198 s (  0.023 ms/b)
<dd|**>:        13475 b        0 skpd     0.225 s (  0.017 ms/b)
<df|**>:        17248 b        0 skpd     0.704 s (  0.041 ms/b)
<dg|**>:         7007 b        0 skpd     0.263 s (  0.038 ms/b)
<ff|**>:         7546 b        0 skpd     0.296 s (  0.039 ms/b)
<fg|**>:         4851 b        0 skpd     0.850 s (  0.175 ms/b)
<gg|**>:         1617 b        0 skpd     1.741 s (  1.076 ms/b)
Closing buffer AOJ ( 0.43 GB; CompressionRatio= 1.00)
Collecting buffer AOJ 
    ... done with AO integral generation
Number of MO pairs included in the trafo   ... 7875
    ... Now sorting integrals
IBATCH = 1 of  2
IBATCH = 2 of  2
Closing buffer JAO ( 0.47 GB; CompressionRatio= 1.00)
Collecting buffer JAO 
TOTAL TIME for half transformation         ...    13.900 sec
AO-integral generation                     ...     1.612 sec
Half transformation                        ...     4.086 sec
J-integral sorting                         ...     8.156 sec

-------------------------- SECOND HALF TRANSFORMATION -------------------------
Formation of (pq|rs)                       ... ok (     7.481 sec)
Integral sorting                           ... ok (     7.250 sec)

------------------
CLOSED SHELL GUESS
------------------

Initial guess performed in     0.000 sec
E(0)                                       ...    -24.867344451
E(MP2)                                     ...     -0.156307627
Initial E(tot)                             ...    -25.023652078
<T|T>                                      ...      0.415618599
Number of pairs included                   ... 3
Total number of pairs                      ... 3

------------------------------------------------
                  RHF COUPLED CLUSTER ITERATIONS
------------------------------------------------

Number of amplitudes to be optimized       ... 45633

Iter       E(tot)           E(Corr)          Delta-E          Residual     Time
  0    -25.023652078     -0.156307627      0.000000000      0.080723170    0.56
                           *** Turning on DIIS ***
  1    -25.005764676     -0.138420225      0.017887403      0.106757016    1.42
  2    -25.032370678     -0.165026227     -0.026606003      0.060405059    1.42
  3    -25.056349025     -0.189004574     -0.023978346      0.039713334    1.42
  4    -25.078174574     -0.210830122     -0.021825549      0.016487131    1.48
  5    -25.083828195     -0.216483744     -0.005653622      0.003908154    1.47
  6    -25.084779372     -0.217434921     -0.000951177      0.002335721    1.40
  7    -25.086214286     -0.218869835     -0.001434914      0.000496379    1.47
  8    -25.085920038     -0.218575587      0.000294248      0.000171236    1.46
  9    -25.085949530     -0.218605079     -0.000029492      0.000068407    1.49
 10    -25.085968224     -0.218623773     -0.000018694      0.000024221    1.47
 11    -25.085962037     -0.218617586      0.000006187      0.000006912    1.51
 12    -25.085959796     -0.218615345      0.000002241      0.000002003    1.38
 13    -25.085959508     -0.218615057      0.000000288      0.000001135    1.37
 14    -25.085959505     -0.218615054      0.000000003      0.000000578    1.40
               --- The Coupled-Cluster iterations have converged ---

----------------------
COUPLED CLUSTER ENERGY
----------------------

E(0)                                       ...    -24.867344451
E(CORR)                                    ...     -0.218615054
E(TOT)                                     ...    -25.085959505
Singles Norm <S|S>**1/2                    ...      0.529873070  
T1 diagnostic                              ...      0.264936535  

------------------
LARGEST AMPLITUDES
------------------
   2->  3   2->  3       1.134804
   2->  3  -1-> -1       0.481820
   1->  4   1->  4       0.123649
   1->  5   1->  5       0.123649
   2->  3   2-> 10       0.117510
   2-> 10   2->  3       0.117510
   2->  9  -1-> -1       0.114793
   2-> 10  -1-> -1       0.099303
   2->  3   2->  6       0.099276
   2->  6   2->  3       0.099276
   2-> 16  -1-> -1       0.093527
   2-> 35   2->  3       0.083369
   2->  3   2-> 35       0.083369
   2-> 35  -1-> -1       0.074227
   2->  3   2-> 16       0.065917
   2-> 16   2->  3       0.065917


        !!!!!!!!!!!!!!!!!!!!!!!!!!!!!!!!!!!!!!!!!!!!!!!!!!!!!!!!!!!!!!!!!!!!!!!!!! 
        !  Warning: Densities are linearized densities !                         !
        !!!!!!!!!!!!!!!!!!!!!!!!!!!!!!!!!!!!!!!!!!!!!!!!!!!!!!!!!!!!!!!!!!!!!!!!!! 

Trace of internal density part =     -3.501519824
Trace of external density part =      3.501519824
----------------------
RHF TRIPLES CORRECTION (Algorithm 1)
----------------------

Multiplier for the singles contribution    ...      1.000000000

10% done
20% done
30% done
40% done
50% done
60% done
70% done
80% done
90% done

Triples Correction (T)                     ...     -0.050903243
Scaling of triples based on CCSD energies (Peterson et al. Molecular Physics 113, 1551 (2015))
E(T*) = f*E(T) where f = E(F12-CCSD)/E(CCSD) 
f = CCSD (with F12)/ CCSD (without F12)    ...      1.000000000
Scaled triples correction (T)              ...     -0.050903243

Final correlation energy                   ...     -0.269518297
E(CCSD)                                    ...    -25.085959505
E(CCSD(T))                                 ...    -25.136862748

NORM  =      3.031525382 sqrt=     1.741127618
W(HF) =      0.329866940
------------------------------------------------------------------------------
                           ORCA POPULATION ANALYSIS
------------------------------------------------------------------------------
Input electron density              ... /scratch/BH-5.4-CCSD_T-O_300/BH-5.4-CCSD_T-O.mdcip
BaseName (.gbw .S,...)              ... /scratch/BH-5.4-CCSD_T-O_300/BH-5.4-CCSD_T-O

                    ********************************
                    * MULLIKEN POPULATION ANALYSIS *
                    ********************************

-----------------------
MULLIKEN ATOMIC CHARGES
-----------------------
   0 B :   -0.848584
   1 H :    0.848584
Sum of atomic charges:   -0.0000000

--------------------------------
MULLIKEN REDUCED ORBITAL CHARGES
--------------------------------
  0 B s       :     3.861907  s :     3.861907
      pz      :     0.054091  p :     1.960426
      px      :     1.852245
      py      :     0.054091
      dz2     :     0.002824  d :     0.025098
      dxz     :     0.007042
      dyz     :     0.000282
      dx2y2   :     0.007908
      dxy     :     0.007042
      f0      :     0.000116  f :     0.001000
      f+1     :     0.000135
      f-1     :     0.000041
      f+2     :     0.000177
      f-2     :     0.000162
      f+3     :     0.000116
      f-3     :     0.000253
      g0      :     0.000012  g :     0.000153
      g+1     :     0.000020
      g-1     :     0.000005
      g+2     :     0.000015
      g-2     :     0.000015
      g+3     :     0.000019
      g-3     :     0.000019
      g+4     :     0.000024
      g-4     :     0.000024
  1 H s       :     0.157026  s :     0.157026
      pz      :     0.000019  p :    -0.005469
      px      :    -0.005506
      py      :     0.000019
      dz2     :    -0.000036  d :    -0.000140
      dxz     :     0.000002
      dyz     :     0.000000
      dx2y2   :    -0.000107
      dxy     :     0.000002
      f0      :     0.000000  f :    -0.000002
      f+1     :    -0.000001
      f-1     :     0.000000
      f+2     :     0.000000
      f-2     :     0.000000
      f+3     :    -0.000001
      f-3     :     0.000000


                     *******************************
                     * LOEWDIN POPULATION ANALYSIS *
                     *******************************

----------------------
LOEWDIN ATOMIC CHARGES
----------------------
   0 B :   -0.813368
   1 H :    0.813368

-------------------------------
LOEWDIN REDUCED ORBITAL CHARGES
-------------------------------
  0 B s       :     3.862742  s :     3.862742
      pz      :     0.054091  p :     1.927917
      px      :     1.819735
      py      :     0.054091
      dz2     :     0.001985  d :     0.021746
      dxz     :     0.007043
      dyz     :     0.000282
      dx2y2   :     0.005393
      dxy     :     0.007043
      f0      :     0.000117  f :     0.000812
      f+1     :     0.000064
      f-1     :     0.000041
      f+2     :     0.000177
      f-2     :     0.000162
      f+3     :    -0.000001
      f-3     :     0.000253
      g0      :     0.000012  g :     0.000151
      g+1     :     0.000020
      g-1     :     0.000005
      g+2     :     0.000014
      g-2     :     0.000015
      g+3     :     0.000019
      g-3     :     0.000019
      g+4     :     0.000023
      g-4     :     0.000024
  1 H s       :     0.190160  s :     0.190160
      pz      :     0.000018  p :    -0.003424
      px      :    -0.003460
      py      :     0.000018
      dz2     :    -0.000026  d :    -0.000102
      dxz     :     0.000002
      dyz     :     0.000000
      dx2y2   :    -0.000079
      dxy     :     0.000002
      f0      :     0.000000  f :    -0.000002
      f+1     :    -0.000001
      f-1     :     0.000000
      f+2     :     0.000000
      f-2     :     0.000000
      f+3     :    -0.000001
      f-3     :     0.000000


                      *****************************
                      * MAYER POPULATION ANALYSIS *
                      *****************************

  NA   - Mulliken gross atomic population
  ZA   - Total nuclear charge
  QA   - Mulliken gross atomic charge
  VA   - Mayer's total valence
  BVA  - Mayer's bonded valence
  FA   - Mayer's free valence

  ATOM       NA         ZA         QA         VA         BVA        FA
  0 B      5.8486     5.0000    -0.8486     0.2922     4.1014    -3.8093
  1 H      0.1514     1.0000     0.8486    -0.4134     4.1014    -4.5149

  Mayer bond orders larger than 0.100000
B(  0-B ,  1-H ) :   4.1014 



------------------------------------------------------------------------------- 
                                     TIMINGS                                   
------------------------------------------------------------------------------- 


Total execution time                   ...       50.673 sec

Fock Matrix Formation                  ...        0.844 sec (  1.7%)
Initial Guess                          ...        0.000 sec (  0.0%)
DIIS Solver                            ...        0.051 sec (  0.1%)
State Vector Update                    ...        0.001 sec (  0.0%)
Sigma-vector construction              ...       20.678 sec ( 40.8%)
  <0|H|D>                              ...        0.005 sec (  0.0% of sigma)
  <D|H|D>(0-ext)                       ...        0.008 sec (  0.0% of sigma)
  <D|H|D>(2-ext Fock)                  ...        0.007 sec (  0.0% of sigma)
  <D|H|D>(2-ext)                       ...        0.052 sec (  0.3% of sigma)
  <D|H|D>(4-ext)                       ...        6.629 sec ( 32.1% of sigma)
  <D|H|D>(4-ext-corr)                  ...        1.262 sec (  6.1% of sigma)
  <S|H|0>                              ...        0.003 sec (  0.0% of sigma)
  <S|H|S>                              ...        0.005 sec (  0.0% of sigma)
  <S|H|D>(1-ext)                       ...        0.006 sec (  0.0% of sigma)
  <D|H|S>(1-ext)                       ...        0.011 sec (  0.1% of sigma)
  <S|H|D>(3-ext)                       ...        0.218 sec (  1.1% of sigma)
  Fock-dressing                        ...       11.964 sec ( 57.9% of sigma)
  (ik|jl)-dressing                     ...        0.007 sec (  0.0% of sigma)
  (ij|ab),(ia|jb)-dressing             ...        0.402 sec (  1.9% of sigma)
  Pair energies                        ...        0.004 sec (  0.0% of sigma)
Total Time for computing (T)           ...        0.228 sec (  0.4% of ALL)
  I/O of integral and amplitudes       ...        0.031 sec ( 13.8% of (T))
  N**6 sorting step                    ...        0.048 sec ( 21.0% of (T))
  External N**7 contributions          ...        0.109 sec ( 48.0% of (T))
  Internal N**7 contributions          ...        0.011 sec (  4.7% of (T))
  N**6 triples energy contributions    ...        0.028 sec ( 12.4% of (T))
One-particle density matrix            ...        0.001 sec (  0.0%)


Maximum memory used throughout the entire MDCI-calculation: 400.0 MB

-------------------------   --------------------
FINAL SINGLE POINT ENERGY       -25.136862747812
-------------------------   --------------------


                            ***************************************
                            *     ORCA property calculations      *
                            ***************************************

                                    ---------------------
                                    Active property flags
                                    ---------------------
   (+) Dipole Moment


------------------------------------------------------------------------------
                       ORCA ELECTRIC PROPERTIES CALCULATION
------------------------------------------------------------------------------

Dipole Moment Calculation                       ... on
Quadrupole Moment Calculation                   ... off
Polarizability Calculation                      ... off
GBWName                                         ... /scratch/BH-5.4-CCSD_T-O_300/BH-5.4-CCSD_T-O.gbw
Electron density file                           ... /scratch/BH-5.4-CCSD_T-O_300/BH-5.4-CCSD_T-O.scfp
The origin for moment calculation is the CENTER OF MASS  = ( 0.870381,  0.000000  0.000000)

-------------
DIPOLE MOMENT
-------------
                                X             Y             Z
Electronic contribution:     -9.29411       0.00000      -0.00000
Nuclear contribution   :      4.98224       0.00000       0.00000
                        -----------------------------------------
Total Dipole Moment    :     -4.31187       0.00000      -0.00000
                        -----------------------------------------
Magnitude (a.u.)       :      4.31187
Magnitude (Debye)      :     10.95990



--------------------
Rotational spectrum 
--------------------
 
Rotational constants in cm-1:     0.000000     0.626999     0.626999 
Rotational constants in MHz :     0.000000 18796.969809 18796.969809 

 Dipole components along the rotational axes: 
x,y,z [a.u.] :    -4.311868     0.000000    -0.000000 
x,y,z [Debye]:   -10.959898     0.000000    -0.000000 

 

                           *** MDCI DENSITY ***

------------------------------------------------------------------------------
                       ORCA ELECTRIC PROPERTIES CALCULATION
------------------------------------------------------------------------------

Dipole Moment Calculation                       ... on
Quadrupole Moment Calculation                   ... off
Polarizability Calculation                      ... off
GBWName                                         ... /scratch/BH-5.4-CCSD_T-O_300/BH-5.4-CCSD_T-O.gbw
Electron density file                           ... /scratch/BH-5.4-CCSD_T-O_300/BH-5.4-CCSD_T-O.mdcip
The origin for moment calculation is the CENTER OF MASS  = ( 0.870381,  0.000000  0.000000)

-------------
DIPOLE MOMENT
-------------
                                X             Y             Z
Electronic contribution:      3.90195      -0.00000       0.00000
Nuclear contribution   :      4.98224       0.00000       0.00000
                        -----------------------------------------
Total Dipole Moment    :      8.88419      -0.00000       0.00000
                        -----------------------------------------
Magnitude (a.u.)       :      8.88419
Magnitude (Debye)      :     22.58181



--------------------
Rotational spectrum 
--------------------
 
Rotational constants in cm-1:     0.000000     0.626999     0.626999 
Rotational constants in MHz :     0.000000 18796.969809 18796.969809 

 Dipole components along the rotational axes: 
x,y,z [a.u.] :     8.884187    -0.000000     0.000000 
x,y,z [Debye]:    22.581810    -0.000000     0.000000 

 

Timings for individual modules:

Sum of individual times         ...       60.420 sec (=   1.007 min)
GTO integral calculation        ...        0.121 sec (=   0.002 min)   0.2 %
SCF iterations                  ...        9.432 sec (=   0.157 min)  15.6 %
MDCI module                     ...       50.867 sec (=   0.848 min)  84.2 %
                             ****ORCA TERMINATED NORMALLY****
TOTAL RUN TIME: 0 days 0 hours 1 minutes 0 seconds 546 msec

Sender: Unischeduler System <lcz@mgt01>
Subject: Job 134141: <#!/bin/bash
#BSUB -J intel
#BSUB -o BH-5.4-CCSD_T-O.out
#BSUB -n 1
#BSUB -q cqueue
export LD_LIBRARY_PATH=/apps/software/openmpi-4.1.1/lib:/apps/software/orca_5_0_0:$LD_LIBRARY_PATH
export PATH=/apps/software/openmpi-4.1.1/bin:/apps/software/orca_5_0_0:$PATH
mkdir /scratch/BH-5.4-CCSD_T-O_300
scp $USER@mgt01:/apps/users/lcz/exe13/CCSD_T/BH-5.4-CCSD_T-O.inp /scratch/BH-5.4-CCSD_T-O_300
/apps/software/orca_5_0_0/orca /scratch/BH-5.4-CCSD_T-O_300/BH-5.4-CCSD_T-O.inp >& BH-5.4-CCSD_T-O.out
scp /scratch/BH-5.4-CCSD_T-O_300/*.gbw $USER@mgt01:/apps/users/lcz/exe13/CCSD_T
scp /scratch/BH-5.4-CCSD_T-O_300/*.xyz $USER@mgt01:/apps/users/lcz/exe13/CCSD_T
scp /scratch/BH-5.4-CCSD_T-O_300/*.trj $USER@mgt01:/apps/users/lcz/exe13/CCSD_T> Exited

Job <#!/bin/bash
#BSUB -J intel
#BSUB -o BH-5.4-CCSD_T-O.out
#BSUB -n 1
#BSUB -q cqueue
export LD_LIBRARY_PATH=/apps/software/openmpi-4.1.1/lib:/apps/software/orca_5_0_0:$LD_LIBRARY_PATH
export PATH=/apps/software/openmpi-4.1.1/bin:/apps/software/orca_5_0_0:$PATH
mkdir /scratch/BH-5.4-CCSD_T-O_300
scp $USER@mgt01:/apps/users/lcz/exe13/CCSD_T/BH-5.4-CCSD_T-O.inp /scratch/BH-5.4-CCSD_T-O_300
/apps/software/orca_5_0_0/orca /scratch/BH-5.4-CCSD_T-O_300/BH-5.4-CCSD_T-O.inp >& BH-5.4-CCSD_T-O.out
scp /scratch/BH-5.4-CCSD_T-O_300/*.gbw $USER@mgt01:/apps/users/lcz/exe13/CCSD_T
scp /scratch/BH-5.4-CCSD_T-O_300/*.xyz $USER@mgt01:/apps/users/lcz/exe13/CCSD_T
scp /scratch/BH-5.4-CCSD_T-O_300/*.trj $USER@mgt01:/apps/users/lcz/exe13/CCSD_T> was submitted from host <mgt01> by user <lcz>.
Job was executed on host(s) <1*cnode01>, in queue <cqueue>, as user <lcz>.
</apps/users/lcz> was used as the home directory.
</apps/users/lcz/exe13/CCSD_T> was used as the working directory.
Started at 2022-05-22 16:50:49
Results reported at 2022-05-22 16:51:51

Your job looked like:

------------------------------------------------------------
# User input
#!/bin/bash
#BSUB -J intel
#BSUB -o BH-5.4-CCSD_T-O.out
#BSUB -n 1
#BSUB -q cqueue
export LD_LIBRARY_PATH=/apps/software/openmpi-4.1.1/lib:/apps/software/orca_5_0_0:$LD_LIBRARY_PATH
export PATH=/apps/software/openmpi-4.1.1/bin:/apps/software/orca_5_0_0:$PATH
mkdir /scratch/BH-5.4-CCSD_T-O_300
scp $USER@mgt01:/apps/users/lcz/exe13/CCSD_T/BH-5.4-CCSD_T-O.inp /scratch/BH-5.4-CCSD_T-O_300
/apps/software/orca_5_0_0/orca /scratch/BH-5.4-CCSD_T-O_300/BH-5.4-CCSD_T-O.inp >& BH-5.4-CCSD_T-O.out
scp /scratch/BH-5.4-CCSD_T-O_300/*.gbw $USER@mgt01:/apps/users/lcz/exe13/CCSD_T
scp /scratch/BH-5.4-CCSD_T-O_300/*.xyz $USER@mgt01:/apps/users/lcz/exe13/CCSD_T
scp /scratch/BH-5.4-CCSD_T-O_300/*.trj $USER@mgt01:/apps/users/lcz/exe13/CCSD_T
------------------------------------------------------------

Exited with exit code 1.

Resource usage summary:

    CPU time   :           36.82 sec.
    Max Memory :               491 MB
    Max Processes  :               5


The output (if any) follows:

/scratch/BH-5.4-CCSD_T-O_300/*.xyz: No such file or directory
/scratch/BH-5.4-CCSD_T-O_300/*.trj: No such file or directory
