 Entering Gaussian System, Link 0=/apps/software/g16/g16
 Initial command:
 /apps/software/g16/l1.exe "/scratch/Gau-314617.inp" -scrdir="/scratch/"
 Entering Link 1 = /apps/software/g16/l1.exe PID=    314618.
  
 Copyright (c) 1988,1990,1992,1993,1995,1998,2003,2009,2016,
            Gaussian, Inc.  All Rights Reserved.
  
 This is part of the Gaussian(R) 16 program.  It is based on
 the Gaussian(R) 09 system (copyright 2009, Gaussian, Inc.),
 the Gaussian(R) 03 system (copyright 2003, Gaussian, Inc.),
 the Gaussian(R) 98 system (copyright 1998, Gaussian, Inc.),
 the Gaussian(R) 94 system (copyright 1995, Gaussian, Inc.),
 the Gaussian 92(TM) system (copyright 1992, Gaussian, Inc.),
 the Gaussian 90(TM) system (copyright 1990, Gaussian, Inc.),
 the Gaussian 88(TM) system (copyright 1988, Gaussian, Inc.),
 the Gaussian 86(TM) system (copyright 1986, Carnegie Mellon
 University), and the Gaussian 82(TM) system (copyright 1983,
 Carnegie Mellon University). Gaussian is a federally registered
 trademark of Gaussian, Inc.
  
 This software contains proprietary and confidential information,
 including trade secrets, belonging to Gaussian, Inc.
  
 This software is provided under written license and may be
 used, copied, transmitted, or stored only in accord with that
 written license.
  
 The following legend is applicable only to US Government
 contracts under FAR:
  
                    RESTRICTED RIGHTS LEGEND
  
 Use, reproduction and disclosure by the US Government is
 subject to restrictions as set forth in subparagraphs (a)
 and (c) of the Commercial Computer Software - Restricted
 Rights clause in FAR 52.227-19.
  
 Gaussian, Inc.
 340 Quinnipiac St., Bldg. 40, Wallingford CT 06492
  
  
 ---------------------------------------------------------------
 Warning -- This program may not be used in any manner that
 competes with the business of Gaussian, Inc. or will provide
 assistance to any competitor of Gaussian, Inc.  The licensee
 of this program is prohibited from giving any competitor of
 Gaussian, Inc. access to this program.  By using this program,
 the user acknowledges that Gaussian, Inc. is engaged in the
 business of creating and licensing software in the field of
 computational chemistry and represents and warrants to the
 licensee that it is not a competitor of Gaussian, Inc. and that
 it will not use this program in any manner prohibited above.
 ---------------------------------------------------------------
  

 Cite this work as:
 Gaussian 16, Revision A.03,
 M. J. Frisch, G. W. Trucks, H. B. Schlegel, G. E. Scuseria, 
 M. A. Robb, J. R. Cheeseman, G. Scalmani, V. Barone, 
 G. A. Petersson, H. Nakatsuji, X. Li, M. Caricato, A. V. Marenich, 
 J. Bloino, B. G. Janesko, R. Gomperts, B. Mennucci, H. P. Hratchian, 
 J. V. Ortiz, A. F. Izmaylov, J. L. Sonnenberg, D. Williams-Young, 
 F. Ding, F. Lipparini, F. Egidi, J. Goings, B. Peng, A. Petrone, 
 T. Henderson, D. Ranasinghe, V. G. Zakrzewski, J. Gao, N. Rega, 
 G. Zheng, W. Liang, M. Hada, M. Ehara, K. Toyota, R. Fukuda, 
 J. Hasegawa, M. Ishida, T. Nakajima, Y. Honda, O. Kitao, H. Nakai, 
 T. Vreven, K. Throssell, J. A. Montgomery, Jr., J. E. Peralta, 
 F. Ogliaro, M. J. Bearpark, J. J. Heyd, E. N. Brothers, K. N. Kudin, 
 V. N. Staroverov, T. A. Keith, R. Kobayashi, J. Normand, 
 K. Raghavachari, A. P. Rendell, J. C. Burant, S. S. Iyengar, 
 J. Tomasi, M. Cossi, J. M. Millam, M. Klene, C. Adamo, R. Cammi, 
 J. W. Ochterski, R. L. Martin, K. Morokuma, O. Farkas, 
 J. B. Foresman, and D. J. Fox, Gaussian, Inc., Wallingford CT, 2016.
 
 ******************************************
 Gaussian 16:  ES64L-G16RevA.03 25-Dec-2016
                26-May-2022 
 ******************************************
 %chk=BH-5.8-CCSD_T-G.chk
 -----------------------------
 #p RHF/aug-cc-pVQZ CCSD(T,FC)
 -----------------------------
 1/38=1,172=1/1;
 2/12=2,17=6,18=5,40=1/2;
 3/5=16,6=2,7=10,11=1,25=1,30=1,116=1/1,2,3;
 4//1;
 5/5=2,38=5/2;
 8/6=4,9=120000,10=1/1,4;
 9/5=7,14=2/13;
 6/7=2,8=2,9=2,10=2/1;
 99/5=1,9=1/99;
 Leave Link    1 at Thu May 26 10:46:41 2022, MaxMem=           0 cpu:               0.0 elap:               0.0
 (Enter /apps/software/g16/l101.exe)
 --------------------------
 BH CCSD(T) at 5.8 Angstrom
 --------------------------
 Symbolic Z-matrix:
 Charge =  0 Multiplicity = 1
 B                     0.        0.        0. 
 H                     5.8       0.        0. 
 
 ITRead=  0  0
 MicOpt= -1 -1
 NAtoms=      2 NQM=        2 NQMF=       0 NMMI=      0 NMMIF=      0
                NMic=       0 NMicF=      0.
                    Isotopes and Nuclear Properties:
 (Nuclear quadrupole moments (NQMom) in fm**2, nuclear magnetic moments (NMagM)
  in nuclear magnetons)

  Atom         1           2
 IAtWgt=          11           1
 AtmWgt=  11.0093053   1.0078250
 NucSpn=           3           1
 AtZEff=  -0.0000000  -0.0000000
 NQMom=    4.0590000   0.0000000
 NMagM=    2.6886370   2.7928460
 AtZNuc=   5.0000000   1.0000000
 Leave Link  101 at Thu May 26 10:46:41 2022, MaxMem=   104857600 cpu:               0.1 elap:               0.1
 (Enter /apps/software/g16/l202.exe)
                          Input orientation:                          
 ---------------------------------------------------------------------
 Center     Atomic      Atomic             Coordinates (Angstroms)
 Number     Number       Type             X           Y           Z
 ---------------------------------------------------------------------
      1          5           0        0.000000    0.000000    0.000000
      2          1           0        5.800000    0.000000    0.000000
 ---------------------------------------------------------------------
 Stoichiometry    BH
 Framework group  C*V[C*(HB)]
 Deg. of freedom     1
 Full point group                 C*V     NOp   4
 Largest Abelian subgroup         C2V     NOp   4
 Largest concise Abelian subgroup C1      NOp   1
                         Standard orientation:                         
 ---------------------------------------------------------------------
 Center     Atomic      Atomic             Coordinates (Angstroms)
 Number     Number       Type             X           Y           Z
 ---------------------------------------------------------------------
      1          5           0        0.000000    0.000000    0.966667
      2          1           0        0.000000    0.000000   -4.833333
 ---------------------------------------------------------------------
 Rotational constants (GHZ):           0.0000000          16.2711004          16.2711004
 Leave Link  202 at Thu May 26 10:46:41 2022, MaxMem=   104857600 cpu:               0.0 elap:               0.0
 (Enter /apps/software/g16/l301.exe)
 Standard basis: Aug-CC-pVQZ (5D, 7F)
 Ernie: Thresh=  0.10000D-02 Tol=  0.10000D-05 Strict=F.
 Ernie:  4 primitive shells out of 54 were deleted.
 There are    68 symmetry adapted cartesian basis functions of A1  symmetry.
 There are    18 symmetry adapted cartesian basis functions of A2  symmetry.
 There are    37 symmetry adapted cartesian basis functions of B1  symmetry.
 There are    37 symmetry adapted cartesian basis functions of B2  symmetry.
 There are    50 symmetry adapted basis functions of A1  symmetry.
 There are    16 symmetry adapted basis functions of A2  symmetry.
 There are    30 symmetry adapted basis functions of B1  symmetry.
 There are    30 symmetry adapted basis functions of B2  symmetry.
   126 basis functions,   180 primitive gaussians,   160 cartesian basis functions
     3 alpha electrons        3 beta electrons
       nuclear repulsion energy         0.4561872508 Hartrees.
 IExCor=    0 DFT=F Ex=HF Corr=None ExCW=0 ScaHFX=  1.000000
 ScaDFX=  1.000000  1.000000  1.000000  1.000000 ScalE2=  1.000000  1.000000
 IRadAn=      5 IRanWt=     -1 IRanGd=            0 ICorTp=0 IEmpDi=  4
 NAtoms=    2 NActive=    2 NUniq=    2 SFac= 1.00D+00 NAtFMM=   60 NAOKFM=F Big=F
 Integral buffers will be    131072 words long.
 Raffenetti 1 integral format.
 Two-electron integral symmetry is turned on.
 Leave Link  301 at Thu May 26 10:46:41 2022, MaxMem=   104857600 cpu:               0.1 elap:               0.1
 (Enter /apps/software/g16/l302.exe)
 NPDir=0 NMtPBC=     1 NCelOv=     1 NCel=       1 NClECP=     1 NCelD=      1
         NCelK=      1 NCelE2=     1 NClLst=     1 CellRange=     0.0.
 One-electron integrals computed using PRISM.
 One-electron integral symmetry used in STVInt
 NBasis=   126 RedAO= T EigKep=  1.27D-02  NBF=    50    16    30    30
 NBsUse=   126 1.00D-06 EigRej= -1.00D+00 NBFU=    50    16    30    30
 Leave Link  302 at Thu May 26 10:46:41 2022, MaxMem=   104857600 cpu:               0.1 elap:               0.1
 (Enter /apps/software/g16/l303.exe)
 DipDrv:  MaxL=1.
 Leave Link  303 at Thu May 26 10:46:41 2022, MaxMem=   104857600 cpu:               0.0 elap:               0.0
 (Enter /apps/software/g16/l401.exe)
 ExpMin= 1.88D-02 ExpMax= 2.39D+04 ExpMxC= 2.30D+02 IAcc=3 IRadAn=         5 AccDes= 0.00D+00
 Harris functional with IExCor=  205 and IRadAn=       5 diagonalized for initial guess.
 HarFok:  IExCor=  205 AccDes= 0.00D+00 IRadAn=         5 IDoV= 1 UseB2=F ITyADJ=14
 ICtDFT=  3500011 ScaDFX=  1.000000  1.000000  1.000000  1.000000
 FoFCou: FMM=F IPFlag=           0 FMFlag=      100000 FMFlg1=           0
         NFxFlg=           0 DoJE=T BraDBF=F KetDBF=T FulRan=T
         wScrn=  0.000000 ICntrl=       500 IOpCl=  0 I1Cent=   200000004 NGrid=           0
         NMat0=    1 NMatS0=      1 NMatT0=    0 NMatD0=    1 NMtDS0=    0 NMtDT0=    0
 Petite list used in FoFCou.
 Harris En= -24.9880850670136    
 JPrj=0 DoOrth=F DoCkMO=F.
 Initial guess orbital symmetries:
       Occupied  (SG) (SG) (SG)
       Virtual   (SG) (PI) (PI) (SG) (SG) (PI) (PI) (SG) (SG) (PI)
                 (PI) (DLTA) (DLTA) (PI) (PI) (SG) (PI) (PI) (SG)
                 (SG) (SG) (PI) (PI) (DLTA) (DLTA) (SG) (PI) (PI)
                 (DLTA) (DLTA) (PHI) (PHI) (SG) (DLTA) (DLTA) (PI)
                 (PI) (SG) (PI) (PI) (SG) (PI) (PI) (SG) (SG) (DLTA)
                 (DLTA) (PI) (PI) (SG) (?A) (DLTA) (?B) (?B) (DLTA)
                 (?B) (?B) (?A) (SG) (DLTA) (PHI) (PHI) (DLTA)
                 (PI) (PI) (SG) (SG) (PHI) (PHI) (DLTA) (DLTA)
                 (PI) (PI) (SG) (DLTA) (DLTA) (PI) (PI) (SG) (PI)
                 (PI) (SG) (PI) (PI) (SG) (DLTA) (DLTA) (PI) (PI)
                 (SG) (DLTA) (?C) (DLTA) (?B) (?B) (?B) (?B) (?C)
                 (?C) (DLTA) (?B) (?B) (DLTA) (?B) (?B) (SG) (PHI)
                 (PHI) (DLTA) (DLTA) (PI) (PI) (SG) (SG) (PI) (PI)
                 (SG) (DLTA) (DLTA) (PI) (PI) (SG) (SG)
 The electronic state of the initial guess is 1-SG.
 Leave Link  401 at Thu May 26 10:46:41 2022, MaxMem=   104857600 cpu:               0.2 elap:               0.2
 (Enter /apps/software/g16/l502.exe)
 Keep R1 ints in memory in symmetry-blocked form, NReq=40143665.
 FoFCou: FMM=F IPFlag=           0 FMFlag=           0 FMFlg1=           0
         NFxFlg=           0 DoJE=F BraDBF=F KetDBF=F FulRan=T
         wScrn=  0.000000 ICntrl=       600 IOpCl=  0 I1Cent=           0 NGrid=           0
         NMat0=    1 NMatS0=   8001 NMatT0=    0 NMatD0=    1 NMtDS0=    0 NMtDT0=    0
 Petite list used in FoFCou.
 Closed shell SCF:
 Using DIIS extrapolation, IDIIS=  1040.
 NGot=   104857600 LenX=    96673173 LenY=    96647132
 Requested convergence on RMS density matrix=1.00D-08 within 128 cycles.
 Requested convergence on MAX density matrix=1.00D-06.
 Requested convergence on             energy=1.00D-06.
 No special actions if energy rises.

 Cycle   1  Pass 1  IDiag  1:
 E= -24.7307493959366    
 DIIS: error= 5.12D-02 at cycle   1 NSaved=   1.
 NSaved= 1 IEnMin= 1 EnMin= -24.7307493959366     IErMin= 1 ErrMin= 5.12D-02
 ErrMax= 5.12D-02  0.00D+00 EMaxC= 1.00D-01 BMatC= 6.02D-02 BMatP= 6.02D-02
 IDIUse=3 WtCom= 4.88D-01 WtEn= 5.12D-01
 Coeff-Com:  0.100D+01
 Coeff-En:   0.100D+01
 Coeff:      0.100D+01
 Gap=     0.000 Goal=   None    Shift=    0.000
 GapD=    0.000 DampG=0.250 DampE=0.500 DampFc=0.2500 IDamp=-1.
 Damping current iteration by 2.50D-01
 RMSDP=4.85D-03 MaxDP=2.23D-01              OVMax= 1.03D-01

 Cycle   2  Pass 1  IDiag  1:
 E= -24.7912693181942     Delta-E=       -0.060519922258 Rises=F Damp=T
 DIIS: error= 2.99D-02 at cycle   2 NSaved=   2.
 NSaved= 2 IEnMin= 2 EnMin= -24.7912693181942     IErMin= 2 ErrMin= 2.99D-02
 ErrMax= 2.99D-02  0.00D+00 EMaxC= 1.00D-01 BMatC= 2.33D-02 BMatP= 6.02D-02
 IDIUse=3 WtCom= 7.01D-01 WtEn= 2.99D-01
 Coeff-Com: -0.117D+01 0.217D+01
 Coeff-En:   0.000D+00 0.100D+01
 Coeff:     -0.822D+00 0.182D+01
 Gap=     0.153 Goal=   None    Shift=    0.000
 RMSDP=1.32D-03 MaxDP=8.58D-02 DE=-6.05D-02 OVMax= 1.71D-01

 Cycle   3  Pass 1  IDiag  1:
 E= -24.7758257140591     Delta-E=        0.015443604135 Rises=F Damp=F
 DIIS: error= 2.05D-02 at cycle   3 NSaved=   3.
 NSaved= 3 IEnMin= 2 EnMin= -24.7912693181942     IErMin= 3 ErrMin= 2.05D-02
 ErrMax= 2.05D-02  0.00D+00 EMaxC= 1.00D-01 BMatC= 1.21D-02 BMatP= 2.33D-02
 IDIUse=3 WtCom= 7.95D-01 WtEn= 2.05D-01
 Coeff-Com: -0.103D+01 0.134D+01 0.688D+00
 Coeff-En:   0.000D+00 0.797D+00 0.203D+00
 Coeff:     -0.817D+00 0.123D+01 0.589D+00
 Gap=     0.036 Goal=   None    Shift=    0.000
 RMSDP=6.48D-04 MaxDP=2.77D-02 DE= 1.54D-02 OVMax= 6.33D-02

 Cycle   4  Pass 1  IDiag  1:
 E= -24.7971489309561     Delta-E=       -0.021323216897 Rises=F Damp=F
 DIIS: error= 1.42D-02 at cycle   4 NSaved=   4.
 NSaved= 4 IEnMin= 4 EnMin= -24.7971489309561     IErMin= 4 ErrMin= 1.42D-02
 ErrMax= 1.42D-02  0.00D+00 EMaxC= 1.00D-01 BMatC= 5.67D-03 BMatP= 1.21D-02
 IDIUse=3 WtCom= 8.58D-01 WtEn= 1.42D-01
 Coeff-Com: -0.799D+00 0.106D+01 0.652D-01 0.671D+00
 Coeff-En:   0.000D+00 0.222D+00 0.000D+00 0.778D+00
 Coeff:     -0.685D+00 0.943D+00 0.559D-01 0.686D+00
 Gap=     0.016 Goal=   None    Shift=    0.000
 RMSDP=4.01D-04 MaxDP=1.54D-02 DE=-2.13D-02 OVMax= 4.49D-02

 Cycle   5  Pass 1  IDiag  1:
 E= -24.8067725635435     Delta-E=       -0.009623632587 Rises=F Damp=F
 DIIS: error= 1.05D-02 at cycle   5 NSaved=   5.
 NSaved= 5 IEnMin= 5 EnMin= -24.8067725635435     IErMin= 5 ErrMin= 1.05D-02
 ErrMax= 1.05D-02  0.00D+00 EMaxC= 1.00D-01 BMatC= 3.29D-03 BMatP= 5.67D-03
 IDIUse=3 WtCom= 8.95D-01 WtEn= 1.05D-01
 Coeff-Com: -0.754D+00 0.983D+00 0.769D+00-0.155D+01 0.155D+01
 Coeff-En:   0.000D+00 0.000D+00 0.000D+00 0.000D+00 0.100D+01
 Coeff:     -0.674D+00 0.879D+00 0.688D+00-0.139D+01 0.150D+01
 Gap=     0.017 Goal=   None    Shift=    0.000
 RMSDP=2.00D-04 MaxDP=8.05D-03 DE=-9.62D-03 OVMax= 3.56D-02

 Cycle   6  Pass 1  IDiag  1:
 E= -24.8105670976436     Delta-E=       -0.003794534100 Rises=F Damp=F
 DIIS: error= 1.03D-02 at cycle   6 NSaved=   6.
 NSaved= 6 IEnMin= 6 EnMin= -24.8105670976436     IErMin= 6 ErrMin= 1.03D-02
 ErrMax= 1.03D-02  0.00D+00 EMaxC= 1.00D-01 BMatC= 2.88D-03 BMatP= 3.29D-03
 IDIUse=3 WtCom= 8.97D-01 WtEn= 1.03D-01
 Large coefficients: NSaved=  6 BigCof=   12.37 CofMax=   10.00 Det=-8.66D-07
 Inversion failed.  Reducing to  5 matrices.
 Large coefficients: NSaved=  5 BigCof=   18.96 CofMax=   10.00 Det=-1.28D-06
 Inversion failed.  Reducing to  4 matrices.
 Coeff-Com:  0.476D-01-0.367D+01 0.781D+01-0.319D+01
 Coeff-En:   0.000D+00 0.000D+00 0.000D+00 0.100D+01
 Coeff:      0.427D-01-0.329D+01 0.700D+01-0.276D+01
 Gap=     0.009 Goal=   None    Shift=    0.000
 RMSDP=4.50D-03 MaxDP=2.14D-01 DE=-3.79D-03 OVMax= 5.59D-02

 Cycle   7  Pass 1  IDiag  1:
 E= -24.4528565485153     Delta-E=        0.357710549128 Rises=F Damp=F
 DIIS: error= 4.96D-02 at cycle   7 NSaved=   5.
 NSaved= 5 IEnMin= 4 EnMin= -24.8105670976436     IErMin= 4 ErrMin= 1.03D-02
 ErrMax= 4.96D-02  0.00D+00 EMaxC= 1.00D-01 BMatC= 3.74D-02 BMatP= 2.88D-03
 IDIUse=2 WtCom= 0.00D+00 WtEn= 1.00D+00
 Coeff-En:   0.000D+00 0.000D+00 0.000D+00 0.837D+00 0.163D+00
 Coeff:      0.000D+00 0.000D+00 0.000D+00 0.837D+00 0.163D+00
 Gap=     0.051 Goal=   None    Shift=    0.000
 RMSDP=6.15D-04 MaxDP=2.49D-02 DE= 3.58D-01 OVMax= 4.67D-02

 Cycle   8  Pass 1  IDiag  1:
 E= -24.4856295223400     Delta-E=       -0.032772973825 Rises=F Damp=F
 DIIS: error= 4.16D-02 at cycle   8 NSaved=   6.
 NSaved= 6 IEnMin= 4 EnMin= -24.8105670976436     IErMin= 4 ErrMin= 1.03D-02
 ErrMax= 4.16D-02  0.00D+00 EMaxC= 1.00D-01 BMatC= 2.49D-02 BMatP= 2.88D-03
 IDIUse=2 WtCom= 0.00D+00 WtEn= 1.00D+00
 Coeff-En:   0.000D+00 0.000D+00 0.000D+00 0.828D+00 0.000D+00 0.172D+00
 Coeff:      0.000D+00 0.000D+00 0.000D+00 0.828D+00 0.000D+00 0.172D+00
 Gap=     0.001 Goal=   None    Shift=    0.000
 RMSDP=4.39D-03 MaxDP=2.02D-01 DE=-3.28D-02 OVMax= 1.15D-02

 Cycle   9  Pass 1  IDiag  1:
 E= -24.8212691570721     Delta-E=       -0.335639634732 Rises=F Damp=F
 DIIS: error= 1.36D-02 at cycle   9 NSaved=   7.
 NSaved= 7 IEnMin= 7 EnMin= -24.8212691570721     IErMin= 4 ErrMin= 1.03D-02
 ErrMax= 1.36D-02  0.00D+00 EMaxC= 1.00D-01 BMatC= 1.87D-03 BMatP= 2.88D-03
 IDIUse=3 WtCom= 8.97D-01 WtEn= 1.03D-01
 Coeff-Com:  0.334D-01-0.297D+01 0.676D+01-0.299D+01-0.194D+00 0.298D+00
 Coeff-Com:  0.605D-01
 Coeff-En:   0.000D+00 0.000D+00 0.000D+00 0.000D+00 0.000D+00 0.122D+00
 Coeff-En:   0.878D+00
 Coeff:      0.300D-01-0.267D+01 0.606D+01-0.268D+01-0.174D+00 0.279D+00
 Coeff:      0.145D+00
 Gap=     0.011 Goal=   None    Shift=    0.000
 RMSDP=4.40D-03 MaxDP=2.02D-01 DE=-3.36D-01 OVMax= 1.55D-02

 Cycle  10  Pass 1  IDiag  1:
 E= -24.4764805341701     Delta-E=        0.344788622902 Rises=F Damp=F
 DIIS: error= 4.36D-02 at cycle  10 NSaved=   8.
 NSaved= 8 IEnMin= 7 EnMin= -24.8212691570721     IErMin= 4 ErrMin= 1.03D-02
 ErrMax= 4.36D-02  0.00D+00 EMaxC= 1.00D-01 BMatC= 2.87D-02 BMatP= 1.87D-03
 IDIUse=2 WtCom= 0.00D+00 WtEn= 1.00D+00
 Rare condition: small coef for last iteration:  0.000D+00
 Coeff-En:   0.000D+00 0.000D+00 0.000D+00 0.000D+00 0.000D+00 0.000D+00
 Coeff-En:   0.879D+00 0.121D+00
 Coeff:      0.000D+00 0.000D+00 0.000D+00 0.000D+00 0.000D+00 0.000D+00
 Coeff:      0.879D+00 0.121D+00
 Gap=     0.001 Goal=   None    Shift=    0.000
 RMSDP=4.37D-03 MaxDP=1.97D-01 DE= 3.45D-01 OVMax= 2.08D-01

 Cycle  11  Pass 1  IDiag  1:
 E= -24.8521399669595     Delta-E=       -0.375659432789 Rises=F Damp=F
 DIIS: error= 1.07D-02 at cycle  11 NSaved=   9.
 NSaved= 9 IEnMin= 9 EnMin= -24.8521399669595     IErMin= 4 ErrMin= 1.03D-02
 ErrMax= 1.07D-02  0.00D+00 EMaxC= 1.00D-01 BMatC= 6.67D-04 BMatP= 1.87D-03
 IDIUse=3 WtCom= 8.97D-01 WtEn= 1.03D-01
 Coeff-Com: -0.698D-02-0.153D+01 0.482D+00 0.438D+01-0.350D+00-0.137D+01
 Coeff-Com: -0.381D+01 0.172D+01 0.149D+01
 Coeff-En:   0.000D+00 0.000D+00 0.000D+00 0.000D+00 0.000D+00 0.000D+00
 Coeff-En:   0.000D+00 0.000D+00 0.100D+01
 Coeff:     -0.626D-02-0.137D+01 0.432D+00 0.392D+01-0.314D+00-0.123D+01
 Coeff:     -0.342D+01 0.154D+01 0.144D+01
 Gap=     0.041 Goal=   None    Shift=    0.000
 RMSDP=1.63D-03 MaxDP=7.12D-02 DE=-3.76D-01 OVMax= 3.71D-01

 Cycle  12  Pass 1  IDiag  1:
 E= -24.8215233857300     Delta-E=        0.030616581229 Rises=F Damp=F
 DIIS: error= 3.72D-02 at cycle  12 NSaved=  10.
 NSaved=10 IEnMin= 9 EnMin= -24.8521399669595     IErMin= 4 ErrMin= 1.03D-02
 ErrMax= 3.72D-02  0.00D+00 EMaxC= 1.00D-01 BMatC= 1.07D-02 BMatP= 6.67D-04
 IDIUse=2 WtCom= 0.00D+00 WtEn= 1.00D+00
 Coeff-En:   0.000D+00 0.000D+00 0.000D+00 0.000D+00 0.000D+00 0.000D+00
 Coeff-En:   0.000D+00 0.000D+00 0.803D+00 0.197D+00
 Coeff:      0.000D+00 0.000D+00 0.000D+00 0.000D+00 0.000D+00 0.000D+00
 Coeff:      0.000D+00 0.000D+00 0.803D+00 0.197D+00
 Gap=     0.078 Goal=   None    Shift=    0.000
 RMSDP=8.63D-04 MaxDP=3.78D-02 DE= 3.06D-02 OVMax= 1.91D-01

 Cycle  13  Pass 1  IDiag  1:
 E= -24.8594907625991     Delta-E=       -0.037967376869 Rises=F Damp=F
 DIIS: error= 6.72D-03 at cycle  13 NSaved=  11.
 NSaved=11 IEnMin=11 EnMin= -24.8594907625991     IErMin=11 ErrMin= 6.72D-03
 ErrMax= 6.72D-03  0.00D+00 EMaxC= 1.00D-01 BMatC= 5.48D-04 BMatP= 6.67D-04
 IDIUse=3 WtCom= 9.33D-01 WtEn= 6.72D-02
 Coeff-Com: -0.125D-02 0.190D+00 0.423D-02-0.100D+01 0.646D-01 0.153D+00
 Coeff-Com:  0.145D+01-0.222D+00-0.969D+00-0.282D+00 0.162D+01
 Coeff-En:   0.000D+00 0.000D+00 0.000D+00 0.000D+00 0.000D+00 0.000D+00
 Coeff-En:   0.000D+00 0.000D+00 0.000D+00 0.000D+00 0.100D+01
 Coeff:     -0.117D-02 0.178D+00 0.395D-02-0.937D+00 0.603D-01 0.143D+00
 Coeff:      0.135D+01-0.207D+00-0.904D+00-0.263D+00 0.158D+01
 Gap=     0.089 Goal=   None    Shift=    0.000
 RMSDP=1.88D-04 MaxDP=7.58D-03 DE=-3.80D-02 OVMax= 1.97D-02

 Cycle  14  Pass 1  IDiag  1:
 E= -24.8594637773754     Delta-E=        0.000026985224 Rises=F Damp=F
 DIIS: error= 7.63D-03 at cycle  14 NSaved=  12.
 NSaved=12 IEnMin=11 EnMin= -24.8594907625991     IErMin=11 ErrMin= 6.72D-03
 ErrMax= 7.63D-03  0.00D+00 EMaxC= 1.00D-01 BMatC= 4.90D-04 BMatP= 5.48D-04
 IDIUse=3 WtCom= 9.33D-01 WtEn= 6.72D-02
 Rare condition: small coef for last iteration:  0.000D+00
 Coeff-Com:  0.149D-02 0.854D-01-0.790D+00 0.685D+00-0.178D-01-0.105D+00
 Coeff-Com:  0.237D+00 0.120D+00-0.122D+00-0.148D+00-0.529D+00 0.158D+01
 Coeff-En:   0.000D+00 0.000D+00 0.000D+00 0.000D+00 0.000D+00 0.000D+00
 Coeff-En:   0.000D+00 0.000D+00 0.000D+00 0.000D+00 0.000D+00 0.100D+01
 Coeff:      0.149D-02 0.854D-01-0.790D+00 0.685D+00-0.178D-01-0.105D+00
 Coeff:      0.237D+00 0.120D+00-0.122D+00-0.148D+00-0.529D+00 0.158D+01
 Gap=     0.095 Goal=   None    Shift=    0.000
 RMSDP=1.36D-04 MaxDP=4.81D-03 DE= 2.70D-05 OVMax= 2.41D-02

 Cycle  15  Pass 1  IDiag  1:
 E= -24.8608218062697     Delta-E=       -0.001358028894 Rises=F Damp=F
 DIIS: error= 3.79D-03 at cycle  15 NSaved=  13.
 NSaved=13 IEnMin=13 EnMin= -24.8608218062697     IErMin=13 ErrMin= 3.79D-03
 ErrMax= 3.79D-03  0.00D+00 EMaxC= 1.00D-01 BMatC= 1.20D-04 BMatP= 4.90D-04
 IDIUse=3 WtCom= 9.62D-01 WtEn= 3.79D-02
 Coeff-Com:  0.427D-03-0.789D-01 0.425D-01 0.409D-01 0.126D-02-0.322D-01
 Coeff-Com:  0.121D+00 0.288D-01-0.116D+00-0.218D-01 0.223D+00-0.820D+00
 Coeff-Com:  0.161D+01
 Coeff-En:   0.000D+00 0.000D+00 0.000D+00 0.000D+00 0.000D+00 0.000D+00
 Coeff-En:   0.000D+00 0.000D+00 0.000D+00 0.000D+00 0.000D+00 0.000D+00
 Coeff-En:   0.100D+01
 Coeff:      0.411D-03-0.759D-01 0.409D-01 0.394D-01 0.121D-02-0.310D-01
 Coeff:      0.116D+00 0.277D-01-0.111D+00-0.210D-01 0.214D+00-0.789D+00
 Coeff:      0.159D+01
 Gap=     0.094 Goal=   None    Shift=    0.000
 RMSDP=2.63D-05 MaxDP=1.54D-03 DE=-1.36D-03 OVMax= 5.29D-03

 Cycle  16  Pass 1  IDiag  1:
 E= -24.8609842051567     Delta-E=       -0.000162398887 Rises=F Damp=F
 DIIS: error= 3.01D-03 at cycle  16 NSaved=  14.
 NSaved=14 IEnMin=14 EnMin= -24.8609842051567     IErMin=14 ErrMin= 3.01D-03
 ErrMax= 3.01D-03  0.00D+00 EMaxC= 1.00D-01 BMatC= 7.91D-05 BMatP= 1.20D-04
 IDIUse=3 WtCom= 9.70D-01 WtEn= 3.01D-02
 Coeff-Com:  0.657D-04 0.519D-01-0.178D+00 0.354D-01 0.525D-02-0.927D-02
 Coeff-Com:  0.197D+00 0.237D-02-0.140D+00-0.478D-01 0.326D-01 0.967D-02
 Coeff-Com: -0.151D+01 0.255D+01
 Coeff-En:   0.000D+00 0.000D+00 0.000D+00 0.000D+00 0.000D+00 0.000D+00
 Coeff-En:   0.000D+00 0.000D+00 0.000D+00 0.000D+00 0.000D+00 0.000D+00
 Coeff-En:   0.000D+00 0.100D+01
 Coeff:      0.637D-04 0.504D-01-0.172D+00 0.343D-01 0.509D-02-0.899D-02
 Coeff:      0.191D+00 0.230D-02-0.136D+00-0.463D-01 0.317D-01 0.938D-02
 Coeff:     -0.147D+01 0.251D+01
 Gap=     0.098 Goal=   None    Shift=    0.000
 RMSDP=5.71D-05 MaxDP=2.13D-03 DE=-1.62D-04 OVMax= 9.01D-03

 Cycle  17  Pass 1  IDiag  1:
 E= -24.8611980841293     Delta-E=       -0.000213878973 Rises=F Damp=F
 DIIS: error= 1.55D-03 at cycle  17 NSaved=  15.
 NSaved=15 IEnMin=15 EnMin= -24.8611980841293     IErMin=15 ErrMin= 1.55D-03
 ErrMax= 1.55D-03  0.00D+00 EMaxC= 1.00D-01 BMatC= 1.97D-05 BMatP= 7.91D-05
 IDIUse=3 WtCom= 9.84D-01 WtEn= 1.55D-02
 Coeff-Com: -0.765D-04 0.717D-02 0.630D-03-0.259D-01 0.866D-03 0.174D-02
 Coeff-Com:  0.224D-01-0.268D-02 0.102D-01 0.656D-02 0.684D-01-0.110D+00
 Coeff-Com:  0.672D+00-0.187D+01 0.222D+01
 Coeff-En:   0.000D+00 0.000D+00 0.000D+00 0.000D+00 0.000D+00 0.000D+00
 Coeff-En:   0.000D+00 0.000D+00 0.000D+00 0.000D+00 0.000D+00 0.000D+00
 Coeff-En:   0.000D+00 0.000D+00 0.100D+01
 Coeff:     -0.754D-04 0.706D-02 0.620D-03-0.255D-01 0.852D-03 0.171D-02
 Coeff:      0.221D-01-0.263D-02 0.101D-01 0.646D-02 0.674D-01-0.109D+00
 Coeff:      0.662D+00-0.185D+01 0.220D+01
 Gap=     0.100 Goal=   None    Shift=    0.000
 RMSDP=5.28D-05 MaxDP=2.00D-03 DE=-2.14D-04 OVMax= 1.02D-02

 Cycle  18  Pass 1  IDiag  1:
 E= -24.8612742612278     Delta-E=       -0.000076177099 Rises=F Damp=F
 DIIS: error= 6.77D-06 at cycle  18 NSaved=  16.
 NSaved=16 IEnMin=16 EnMin= -24.8612742612278     IErMin=16 ErrMin= 6.77D-06
 ErrMax= 6.77D-06  0.00D+00 EMaxC= 1.00D-01 BMatC= 1.11D-09 BMatP= 1.97D-05
 IDIUse=1 WtCom= 1.00D+00 WtEn= 0.00D+00
 Coeff-Com:  0.396D-04-0.280D-02 0.363D-02 0.331D-02 0.304D-03 0.161D-02
 Coeff-Com: -0.590D-02-0.189D-02 0.191D-02-0.788D-03-0.203D-01 0.446D-01
 Coeff-Com: -0.783D-01 0.213D+00-0.342D+00 0.118D+01
 Coeff:      0.396D-04-0.280D-02 0.363D-02 0.331D-02 0.304D-03 0.161D-02
 Coeff:     -0.590D-02-0.189D-02 0.191D-02-0.788D-03-0.203D-01 0.446D-01
 Coeff:     -0.783D-01 0.213D+00-0.342D+00 0.118D+01
 Gap=     0.100 Goal=   None    Shift=    0.000
 RMSDP=1.16D-06 MaxDP=4.06D-05 DE=-7.62D-05 OVMax= 9.90D-05

 Cycle  19  Pass 1  IDiag  1:
 E= -24.8612742654049     Delta-E=       -0.000000004177 Rises=F Damp=F
 DIIS: error= 1.03D-05 at cycle  19 NSaved=  17.
 NSaved=17 IEnMin=17 EnMin= -24.8612742654049     IErMin=16 ErrMin= 6.77D-06
 ErrMax= 1.03D-05  0.00D+00 EMaxC= 1.00D-01 BMatC= 7.25D-10 BMatP= 1.11D-09
 IDIUse=1 WtCom= 1.00D+00 WtEn= 0.00D+00
 Coeff-Com: -0.285D-05-0.588D-04 0.318D-03-0.808D-03-0.146D-03-0.431D-03
 Coeff-Com:  0.986D-03 0.582D-03-0.766D-03 0.136D-03 0.291D-02-0.621D-02
 Coeff-Com:  0.194D-01-0.333D-01 0.383D-01-0.211D+00 0.119D+01
 Coeff:     -0.285D-05-0.588D-04 0.318D-03-0.808D-03-0.146D-03-0.431D-03
 Coeff:      0.986D-03 0.582D-03-0.766D-03 0.136D-03 0.291D-02-0.621D-02
 Coeff:      0.194D-01-0.333D-01 0.383D-01-0.211D+00 0.119D+01
 Gap=     0.100 Goal=   None    Shift=    0.000
 RMSDP=3.89D-07 MaxDP=1.40D-05 DE=-4.18D-09 OVMax= 8.51D-05

 Cycle  20  Pass 1  IDiag  1:
 E= -24.8612742689949     Delta-E=       -0.000000003590 Rises=F Damp=F
 DIIS: error= 1.08D-06 at cycle  20 NSaved=  18.
 NSaved=18 IEnMin=18 EnMin= -24.8612742689949     IErMin=18 ErrMin= 1.08D-06
 ErrMax= 1.08D-06  0.00D+00 EMaxC= 1.00D-01 BMatC= 2.44D-11 BMatP= 7.25D-10
 IDIUse=1 WtCom= 1.00D+00 WtEn= 0.00D+00
 Coeff-Com: -0.449D-06-0.124D-04 0.276D-04 0.170D-03 0.574D-05 0.398D-05
 Coeff-Com: -0.322D-03-0.106D-04 0.251D-03 0.367D-04-0.835D-04-0.170D-03
 Coeff-Com: -0.353D-03-0.550D-02 0.946D-02 0.513D-02-0.249D+00 0.124D+01
 Coeff:     -0.449D-06-0.124D-04 0.276D-04 0.170D-03 0.574D-05 0.398D-05
 Coeff:     -0.322D-03-0.106D-04 0.251D-03 0.367D-04-0.835D-04-0.170D-03
 Coeff:     -0.353D-03-0.550D-02 0.946D-02 0.513D-02-0.249D+00 0.124D+01
 Gap=     0.100 Goal=   None    Shift=    0.000
 RMSDP=1.31D-07 MaxDP=4.14D-06 DE=-3.59D-09 OVMax= 1.19D-05

 Cycle  21  Pass 1  IDiag  1:
 E= -24.8612742690684     Delta-E=       -0.000000000073 Rises=F Damp=F
 DIIS: error= 4.29D-07 at cycle  21 NSaved=  19.
 NSaved=19 IEnMin=19 EnMin= -24.8612742690684     IErMin=19 ErrMin= 4.29D-07
 ErrMax= 4.29D-07  0.00D+00 EMaxC= 1.00D-01 BMatC= 2.27D-12 BMatP= 2.44D-11
 IDIUse=1 WtCom= 1.00D+00 WtEn= 0.00D+00
 Coeff-Com: -0.103D-06 0.165D-05-0.647D-05-0.276D-04-0.142D-05-0.108D-04
 Coeff-Com:  0.585D-04 0.119D-04-0.470D-04-0.112D-04 0.472D-04-0.436D-04
 Coeff-Com:  0.150D-03 0.217D-02-0.340D-02 0.564D-03 0.503D-01-0.343D+00
 Coeff-Com:  0.129D+01
 Coeff:     -0.103D-06 0.165D-05-0.647D-05-0.276D-04-0.142D-05-0.108D-04
 Coeff:      0.585D-04 0.119D-04-0.470D-04-0.112D-04 0.472D-04-0.436D-04
 Coeff:      0.150D-03 0.217D-02-0.340D-02 0.564D-03 0.503D-01-0.343D+00
 Coeff:      0.129D+01
 Gap=     0.100 Goal=   None    Shift=    0.000
 RMSDP=3.26D-08 MaxDP=1.08D-06 DE=-7.35D-11 OVMax= 4.65D-06

 Cycle  22  Pass 1  IDiag  1:
 E= -24.8612742690724     Delta-E=       -0.000000000004 Rises=F Damp=F
 DIIS: error= 3.16D-07 at cycle  22 NSaved=  20.
 NSaved=20 IEnMin=20 EnMin= -24.8612742690724     IErMin=20 ErrMin= 3.16D-07
 ErrMax= 3.16D-07  0.00D+00 EMaxC= 1.00D-01 BMatC= 8.29D-13 BMatP= 2.27D-12
 IDIUse=1 WtCom= 1.00D+00 WtEn= 0.00D+00
 Large coefficients: NSaved= 20 BigCof=    0.00 CofMax=   10.00 Det=-1.92D-15
 Inversion failed.  Reducing to 19 matrices.
 Large coefficients: NSaved= 19 BigCof=    0.00 CofMax=   10.00 Det=-1.99D-15
 Inversion failed.  Reducing to 18 matrices.
 Large coefficients: NSaved= 18 BigCof=    0.00 CofMax=   10.00 Det=-2.18D-15
 Inversion failed.  Reducing to 17 matrices.
 Large coefficients: NSaved= 17 BigCof=    0.00 CofMax=   10.00 Det=-2.18D-15
 Inversion failed.  Reducing to 16 matrices.
 Large coefficients: NSaved= 16 BigCof=    0.00 CofMax=   10.00 Det=-2.20D-15
 Inversion failed.  Reducing to 15 matrices.
 Coeff-Com: -0.122D-05 0.240D-05-0.138D-05 0.954D-06 0.967D-06 0.225D-05
 Coeff-Com: -0.148D-04 0.135D-04-0.123D-03 0.182D-04-0.315D-05 0.633D-03
 Coeff-Com:  0.525D-02-0.584D-01 0.105D+01
 Coeff:     -0.122D-05 0.240D-05-0.138D-05 0.954D-06 0.967D-06 0.225D-05
 Coeff:     -0.148D-04 0.135D-04-0.123D-03 0.182D-04-0.315D-05 0.633D-03
 Coeff:      0.525D-02-0.584D-01 0.105D+01
 Gap=     0.100 Goal=   None    Shift=    0.000
 RMSDP=1.10D-08 MaxDP=4.34D-07 DE=-4.10D-12 OVMax= 2.11D-06

 Cycle  23  Pass 1  IDiag  1:
 E= -24.8612742690757     Delta-E=       -0.000000000003 Rises=F Damp=F
 DIIS: error= 1.19D-09 at cycle  23 NSaved=  16.
 NSaved=16 IEnMin=16 EnMin= -24.8612742690757     IErMin=16 ErrMin= 1.19D-09
 ErrMax= 1.19D-09  0.00D+00 EMaxC= 1.00D-01 BMatC= 1.76D-17 BMatP= 8.29D-13
 IDIUse=1 WtCom= 1.00D+00 WtEn= 0.00D+00
 Large coefficients: NSaved= 16 BigCof=    0.00 CofMax=   10.00 Det=-8.11D-17
 Inversion failed.  Reducing to 15 matrices.
 Coeff-Com: -0.439D-06 0.744D-06-0.511D-06-0.698D-07 0.312D-06 0.439D-06
 Coeff-Com: -0.183D-05 0.347D-05 0.394D-04-0.100D-03 0.101D-03-0.334D-03
 Coeff-Com: -0.156D-02-0.208D+00 0.121D+01
 Coeff:     -0.439D-06 0.744D-06-0.511D-06-0.698D-07 0.312D-06 0.439D-06
 Coeff:     -0.183D-05 0.347D-05 0.394D-04-0.100D-03 0.101D-03-0.334D-03
 Coeff:     -0.156D-02-0.208D+00 0.121D+01
 Gap=     0.100 Goal=   None    Shift=    0.000
 RMSDP=1.42D-10 MaxDP=5.16D-09 DE=-3.21D-12 OVMax= 2.21D-08

 SCF Done:  E(RHF) =  -24.8612742691     A.U. after   23 cycles
            NFock= 23  Conv=0.14D-09     -V/T= 2.0031
 KE= 2.478324713876D+01 PE=-5.794523307022D+01 EE= 7.844524411591D+00
 Leave Link  502 at Thu May 26 10:46:45 2022, MaxMem=   104857600 cpu:               3.3 elap:               3.3
 (Enter /apps/software/g16/l801.exe)
 Windowed orbitals will be sorted by symmetry type.
 ExpMin= 1.88D-02 ExpMax= 2.39D+04 ExpMxC= 2.30D+02 IAcc=3 IRadAn=         5 AccDes= 0.00D+00
 HarFok:  IExCor=  205 AccDes= 0.00D+00 IRadAn=         5 IDoV=-2 UseB2=F ITyADJ=14
 ICtDFT= 12500011 ScaDFX=  1.000000  1.000000  1.000000  1.000000
 DSYEVD-2 returned Info=        3401 IAlg= 4 N=    80 NDim=    80 NE2=     1309686 trying  DSYEV.
 Largest valence mixing into a core orbital is  3.99D-04
 Largest core mixing into a valence orbital is  1.71D-04
 Range of M.O.s used for correlation:     2   126
 NBasis=   126 NAE=     3 NBE=     3 NFC=     1 NFV=     0
 NROrb=    125 NOA=     2 NOB=     2 NVA=   123 NVB=   123
 Leave Link  801 at Thu May 26 10:46:45 2022, MaxMem=   104857600 cpu:               0.1 elap:               0.1
 (Enter /apps/software/g16/l804.exe)
 Closed-shell transformation, MDV=   104857600 ITran=4 ISComp=2.
 Unit  1 TFree=        527294 TCopy=        350885.
 Semi-Direct transformation.
 ModeAB=           4 MOrb=             2 LenV=     104246913
 LASXX=       493564 LTotXX=      493564 LenRXX=     1003397
 LTotAB=      509833 MaxLAS=     3010000 LenRXY=           0
 NonZer=     1496961 LenScr=     2992128 LnRSAI=     3010000
 LnScr1=     5264896 LExtra=           0 Total=     12270421
 MaxDsk=          -1 SrtSym=           T ITran=            4
 DoSDTr:  NPSUse=  1
 JobTyp=0 Pass  1:  I=   1 to   2.
 (rs|ai) integrals will be sorted in core.
 Complete sort for first half transformation.
 First half transformation complete.
 Complete sort for second half transformation.
 Second half transformation complete.
 Spin components of T(2) and E(2):
     alpha-alpha T2 =       0.1855374476D-02 E2=     -0.2379015743D-02
     alpha-beta  T2 =       0.5154485365D+00 E2=     -0.1658449372D+00
     beta-beta   T2 =       0.1855374476D-02 E2=     -0.2379015743D-02
 ANorm=    0.1232541799D+01
 E2 =    -0.1706029687D+00 EUMP2 =    -0.25031877237739D+02
 Leave Link  804 at Thu May 26 10:46:49 2022, MaxMem=   104857600 cpu:               4.2 elap:               4.3
 (Enter /apps/software/g16/l913.exe)
 CIDS:  MDV=   104857600.
 Frozen-core window:  NFC=   1 NFV=   0.
 IFCWin=0 IBDFC=1 NFBD=     0     0 NFCmp=     0     0 NFFFC=     0     0
 Using DD3R+UMP44R for 1st iteration.
 Using DD4RQ for 2nd and later iterations.
 Keep R2 and R3 ints in memory in symmetry-blocked form, NReq=40146875.
 FoFCou: FMM=F IPFlag=           0 FMFlag=           0 FMFlg1=           0
         NFxFlg=           0 DoJE=F BraDBF=F KetDBF=F FulRan=T
         wScrn=  0.000000 ICntrl=       600 IOpCl=  0 I1Cent=           0 NGrid=           0
         NMat0=    1 NMatS0=   8001 NMatT0=    0 NMatD0=    1 NMtDS0=    0 NMtDT0=    0
 Petite list used in FoFCou.
 CIDS: In Core Option IDoMem=           1.
 CCSD(T)
 =======
 Iterations=  50 Convergence= 0.100D-06
 Produce multiple copies of IABC intergrals
 Iteration Nr.   1
 **********************
 DD1Dir will call FoFMem   1 times, MxPair=         6
 NAB=     3 NAA=     0 NBB=     0.
 MP4(R+Q)=  0.72030275D-01
 Maximum subspace dimension=  5
 A-vector RMS=  1.2123088D-01 Max=  9.2263623D-01 conv= 1.00D-05.
 RLE energy=       -0.0646998670
 E3=       -0.32104258D-01        EUMP3=      -0.25063981495D+02
 E4(DQ)=    0.32203415D-01        UMP4(DQ)=   -0.25031778081D+02
 E4(SDQ)=  -0.15510907D+00        UMP4(SDQ)=  -0.25219090562D+02
 VARIATIONAL ENERGIES WITH THE FIRST-ORDER WAVEFUNCTION:
 DE(Corr)= -0.18674683E-01 E(Corr)=     -24.879948952    
 NORM(A)=   0.15587711D+01
 Iteration Nr.   2
 **********************
 DD1Dir will call FoFMem   1 times, MxPair=         6
 NAB=     3 NAA=     0 NBB=     0.
 A-vector RMS=  1.9118737D-01 Max=  1.4552546D+00 conv= 1.00D-05.
 RLE energy=       -0.1804465600
 DE(Corr)= -0.18475482     E(CORR)=     -25.046029094     Delta=-1.66D-01
 NORM(A)=   0.13689620D+01
 Iteration Nr.   3
 **********************
 DD1Dir will call FoFMem   1 times, MxPair=         6
 NAB=     3 NAA=     0 NBB=     0.
 A-vector RMS=  2.7681017D-02 Max=  3.4038247D-01 conv= 1.00D-05.
 RLE energy=       -0.2488030207
 DE(Corr)= -0.20791356     E(CORR)=     -25.069187830     Delta=-2.32D-02
 NORM(A)=   0.20474407D+01
 Iteration Nr.   4
 **********************
 DD1Dir will call FoFMem   1 times, MxPair=         6
 NAB=     3 NAA=     0 NBB=     0.
 A-vector RMS=  7.6744958D-02 Max=  5.8582379D-01 conv= 1.00D-05.
 RLE energy=       -0.2071414383
 DE(Corr)= -0.24046206     E(CORR)=     -25.101736328     Delta=-3.25D-02
 NORM(A)=   0.15397800D+01
 Iteration Nr.   5
 **********************
 DD1Dir will call FoFMem   1 times, MxPair=         6
 NAB=     3 NAA=     0 NBB=     0.
 A-vector RMS=  3.2642796D-02 Max=  2.5011542D-01 conv= 1.00D-05.
 RLE energy=       -0.2226386214
 DE(Corr)= -0.19473280     E(CORR)=     -25.056007069     Delta= 4.57D-02
 NORM(A)=   0.17397448D+01
 Iteration Nr.   6
 **********************
 DD1Dir will call FoFMem   1 times, MxPair=         6
 NAB=     3 NAA=     0 NBB=     0.
 A-vector RMS=  5.8077759D-03 Max=  4.3956659D-02 conv= 1.00D-05.
 RLE energy=       -0.2265584746
 DE(Corr)= -0.23085623     E(CORR)=     -25.092130495     Delta=-3.61D-02
 NORM(A)=   0.17600661D+01
 Iteration Nr.   7
 **********************
 DD1Dir will call FoFMem   1 times, MxPair=         6
 NAB=     3 NAA=     0 NBB=     0.
 A-vector RMS=  9.6827981D-04 Max=  1.7151791D-02 conv= 1.00D-05.
 RLE energy=       -0.2262177497
 DE(Corr)= -0.22367655     E(CORR)=     -25.084950818     Delta= 7.18D-03
 NORM(A)=   0.17595140D+01
 Iteration Nr.   8
 **********************
 DD1Dir will call FoFMem   1 times, MxPair=         6
 NAB=     3 NAA=     0 NBB=     0.
 A-vector RMS=  2.7724740D-04 Max=  1.6257504D-02 conv= 1.00D-05.
 RLE energy=       -0.2235097944
 DE(Corr)= -0.22370922     E(CORR)=     -25.084983487     Delta=-3.27D-05
 NORM(A)=   0.17448999D+01
 Iteration Nr.   9
 **********************
 DD1Dir will call FoFMem   1 times, MxPair=         6
 NAB=     3 NAA=     0 NBB=     0.
 A-vector RMS=  1.4342892D-03 Max=  1.2943987D-02 conv= 1.00D-05.
 RLE energy=       -0.2247976743
 DE(Corr)= -0.22670502     E(CORR)=     -25.087979287     Delta=-3.00D-03
 NORM(A)=   0.17499458D+01
 Iteration Nr.  10
 **********************
 DD1Dir will call FoFMem   1 times, MxPair=         6
 NAB=     3 NAA=     0 NBB=     0.
 A-vector RMS=  3.1443518D-04 Max=  2.3720061D-03 conv= 1.00D-05.
 RLE energy=       -0.2246542334
 DE(Corr)= -0.22429089     E(CORR)=     -25.085565164     Delta= 2.41D-03
 NORM(A)=   0.17508014D+01
 Iteration Nr.  11
 **********************
 DD1Dir will call FoFMem   1 times, MxPair=         6
 NAB=     3 NAA=     0 NBB=     0.
 A-vector RMS=  4.1358923D-04 Max=  3.2093314D-03 conv= 1.00D-05.
 RLE energy=       -0.2246587320
 DE(Corr)= -0.22502955     E(CORR)=     -25.086303818     Delta=-7.39D-04
 NORM(A)=   0.17492319D+01
 Iteration Nr.  12
 **********************
 DD1Dir will call FoFMem   1 times, MxPair=         6
 NAB=     3 NAA=     0 NBB=     0.
 A-vector RMS=  2.1598946D-04 Max=  1.6518575D-03 conv= 1.00D-05.
 RLE energy=       -0.2246155728
 DE(Corr)= -0.22436606     E(CORR)=     -25.085640327     Delta= 6.63D-04
 NORM(A)=   0.17495974D+01
 Iteration Nr.  13
 **********************
 DD1Dir will call FoFMem   1 times, MxPair=         6
 NAB=     3 NAA=     0 NBB=     0.
 A-vector RMS=  3.8892566D-05 Max=  2.7694840D-04 conv= 1.00D-05.
 RLE energy=       -0.2246264882
 DE(Corr)= -0.22465946     E(CORR)=     -25.085933734     Delta=-2.93D-04
 NORM(A)=   0.17495574D+01
 Iteration Nr.  14
 **********************
 DD1Dir will call FoFMem   1 times, MxPair=         6
 NAB=     3 NAA=     0 NBB=     0.
 A-vector RMS=  5.8573197D-06 Max=  9.2557284D-05 conv= 1.00D-05.
 RLE energy=       -0.2246157660
 DE(Corr)= -0.22461162     E(CORR)=     -25.085885893     Delta= 4.78D-05
 NORM(A)=   0.17494822D+01
 Iteration Nr.  15
 **********************
 DD1Dir will call FoFMem   1 times, MxPair=         6
 NAB=     3 NAA=     0 NBB=     0.
 A-vector RMS=  1.2040981D-06 Max=  1.9857938D-05 conv= 1.00D-05.
 RLE energy=       -0.2246135464
 DE(Corr)= -0.22461243     E(CORR)=     -25.085886698     Delta=-8.05D-07
 NORM(A)=   0.17494594D+01
 Iteration Nr.  16
 **********************
 DD1Dir will call FoFMem   1 times, MxPair=         6
 NAB=     3 NAA=     0 NBB=     0.
 A-vector RMS=  2.9760313D-06 Max=  2.2248861D-05 conv= 1.00D-05.
 RLE energy=       -0.2246145774
 DE(Corr)= -0.22461169     E(CORR)=     -25.085885956     Delta= 7.42D-07
 NORM(A)=   0.17494770D+01
 Iteration Nr.  17
 **********************
 DD1Dir will call FoFMem   1 times, MxPair=         6
 NAB=     3 NAA=     0 NBB=     0.
 A-vector RMS=  2.1221655D-06 Max=  1.6113123D-05 conv= 1.00D-05.
 RLE energy=       -0.2246155968
 DE(Corr)= -0.22461581     E(CORR)=     -25.085890075     Delta=-4.12D-06
 NORM(A)=   0.17494654D+01
 Iteration Nr.  18
 **********************
 DD1Dir will call FoFMem   1 times, MxPair=         6
 NAB=     3 NAA=     0 NBB=     0.
 A-vector RMS=  4.8924652D-06 Max=  3.7479358D-05 conv= 1.00D-05.
 RLE energy=       -0.2246132132
 DE(Corr)= -0.22460830     E(CORR)=     -25.085882566     Delta= 7.51D-06
 NORM(A)=   0.17494641D+01
 Iteration Nr.  19
 **********************
 DD1Dir will call FoFMem   1 times, MxPair=         6
 NAB=     3 NAA=     0 NBB=     0.
 A-vector RMS=  9.3965940D-07 Max=  8.8883547D-06 conv= 1.00D-05.
 RLE energy=       -0.2246142274
 DE(Corr)= -0.22461544     E(CORR)=     -25.085889704     Delta=-7.14D-06
 NORM(A)=   0.17494688D+01
 Iteration Nr.  20
 **********************
 DD1Dir will call FoFMem   1 times, MxPair=         6
 NAB=     3 NAA=     0 NBB=     0.
 A-vector RMS=  2.3674133D-07 Max=  1.6578276D-06 conv= 1.00D-05.
 RLE energy=       -0.2246140530
 DE(Corr)= -0.22461432     E(CORR)=     -25.085888584     Delta= 1.12D-06
 NORM(A)=   0.17494668D+01
 Iteration Nr.  21
 **********************
 DD1Dir will call FoFMem   1 times, MxPair=         6
 NAB=     3 NAA=     0 NBB=     0.
 A-vector RMS=  1.0123923D-07 Max=  6.7196167D-07 conv= 1.00D-05.
 RLE energy=       -0.2246141308
 DE(Corr)= -0.22461407     E(CORR)=     -25.085888342     Delta= 2.42D-07
 NORM(A)=   0.17494675D+01
 Iteration Nr.  22
 **********************
 DD1Dir will call FoFMem   1 times, MxPair=         6
 NAB=     3 NAA=     0 NBB=     0.
 A-vector RMS=  3.1134073D-08 Max=  2.3419717D-07 conv= 1.00D-05.
 RLE energy=       -0.2246141543
 DE(Corr)= -0.22461415     E(CORR)=     -25.085888415     Delta=-7.25D-08
 NORM(A)=   0.17494679D+01
 CI/CC converged in   22 iterations to DelEn=-7.25D-08 Conv= 1.00D-07 ErrA1= 3.11D-08 Conv= 1.00D-05
 Wavefunction amplitudes converged. E(Corr)=     -25.085888415    
 Dominant configurations:
 ***********************
 Spin Case        I    J    A    B          Value
    AA            3         4           -0.480431D+00
    AA            3        10            0.119159D+00
    AA            3        11           -0.110369D+00
   ABAB           2    2    6    6      -0.123324D+00
   ABAB           2    2    5    5      -0.123324D+00
   ABAB           3    3    4    4      -0.114881D+01
   ABAB           3    3    4   11       0.122252D+00
   ABAB           3    3   11    4       0.122252D+00
 Largest amplitude= 1.15D+00
 IPart=  1 IA=    8   11.10% done.
 IPart=  1 IA=   14   20.10% done.
 IPart=  1 IA=   22   31.35% done.
 IPart=  1 IA=   29   40.49% done.
 IPart=  1 IA=   37   50.14% done.
 IPart=  1 IA=   47   61.00% done.
 IPart=  1 IA=   57   70.53% done.
 IPart=  1 IA=   69   80.21% done.
 IPart=  1 IA=   85   90.12% done.
 Time for triples=        0.64 seconds.
 T4(CCSD)= -0.66366813D-01
 T5(CCSD)=  0.14371254D-01
 CCSD(T)= -0.25137883974D+02
 Discarding MO integrals.
 Leave Link  913 at Thu May 26 10:46:54 2022, MaxMem=   104857600 cpu:               4.6 elap:               4.6
 (Enter /apps/software/g16/l601.exe)
 Copying SCF densities to generalized density rwf, IOpCl= 0 IROHF=0.

 **********************************************************************

            Population analysis using the SCF density.

 **********************************************************************

 Orbital symmetries:
       Occupied  (SG) (SG) (SG)
       Virtual   (SG) (PI) (PI) (SG) (PI) (PI) (SG) (SG) (DLTA)
                 (DLTA) (PI) (PI) (SG) (SG) (PI) (PI) (PI) (PI)
                 (SG) (SG) (PHI) (PHI) (DLTA) (DLTA) (PI) (PI)
                 (DLTA) (DLTA) (SG) (PI) (PI) (SG) (SG) (DLTA)
                 (DLTA) (PI) (PI) (SG) (PI) (PI) (SG) (PI) (PI)
                 (SG) (SG) (?A) (?A) (PHI) (PHI) (DLTA) (DLTA)
                 (DLTA) (DLTA) (PI) (PI) (SG) (PI) (PI) (SG) (PHI)
                 (PHI) (DLTA) (DLTA) (PI) (PI) (SG) (DLTA) (DLTA)
                 (PHI) (PHI) (PI) (PI) (SG) (SG) (DLTA) (DLTA)
                 (PI) (PI) (SG) (PI) (PI) (SG) (PI) (PI) (SG) (?A)
                 (?A) (DLTA) (DLTA) (PHI) (PHI) (DLTA) (DLTA) (PI)
                 (PI) (PI) (PI) (SG) (SG) (PHI) (PHI) (DLTA) (DLTA)
                 (PI) (PI) (SG) (PHI) (PHI) (DLTA) (DLTA) (PI)
                 (PI) (SG) (SG) (PI) (PI) (SG) (DLTA) (DLTA) (PI)
                 (PI) (SG) (SG)
 The electronic state is 1-SG.
 Alpha  occ. eigenvalues --   -7.89645  -0.63205  -0.20797
 Alpha virt. eigenvalues --   -0.10797  -0.05775  -0.05775   0.01773   0.03630
 Alpha virt. eigenvalues --    0.03630   0.04979   0.10479   0.10923   0.10923
 Alpha virt. eigenvalues --    0.11545   0.11545   0.12905   0.23190   0.23410
 Alpha virt. eigenvalues --    0.23410   0.24276   0.24276   0.26875   0.29115
 Alpha virt. eigenvalues --    0.40458   0.40458   0.41114   0.41114   0.41670
 Alpha virt. eigenvalues --    0.41670   0.42199   0.42199   0.42230   0.42951
 Alpha virt. eigenvalues --    0.42951   0.44893   0.49243   0.69607   0.69607
 Alpha virt. eigenvalues --    0.69880   0.69880   0.71007   0.86099   0.86099
 Alpha virt. eigenvalues --    0.89405   0.93090   0.93090   0.94964   1.27599
 Alpha virt. eigenvalues --    1.28341   1.28341   1.29125   1.29125   1.29135
 Alpha virt. eigenvalues --    1.29135   1.29703   1.29703   1.30055   1.30055
 Alpha virt. eigenvalues --    1.30213   1.30220   1.30220   1.32159   1.33683
 Alpha virt. eigenvalues --    1.33683   1.34652   1.34652   1.35313   1.35313
 Alpha virt. eigenvalues --    1.36678   1.65421   1.65421   1.65424   1.65424
 Alpha virt. eigenvalues --    1.65467   1.65467   1.65603   1.72723   2.56288
 Alpha virt. eigenvalues --    2.56288   2.56448   2.56448   2.57079   2.67812
 Alpha virt. eigenvalues --    2.67812   2.70999   3.57210   3.57210   3.58681
 Alpha virt. eigenvalues --    3.79068   3.79068   3.80019   3.80019   3.80113
 Alpha virt. eigenvalues --    3.80113   3.80866   3.80866   3.81258   3.81258
 Alpha virt. eigenvalues --    3.81350   3.81350   3.81484   3.82664   3.94157
 Alpha virt. eigenvalues --    3.94157   3.95316   3.95316   3.96046   3.96046
 Alpha virt. eigenvalues --    3.96738   6.66228   6.66228   6.66237   6.66237
 Alpha virt. eigenvalues --    6.66256   6.66256   6.66293   7.51343   8.04382
 Alpha virt. eigenvalues --    8.04382   8.06787   8.49847   8.49847   8.49946
 Alpha virt. eigenvalues --    8.49946   8.50455  12.85501
          Condensed to atoms (all electrons):
               1          2
     1  B    4.548247   0.040705
     2  H    0.040705   1.370343
 Mulliken charges:
               1
     1  B    0.411048
     2  H   -0.411048
 Sum of Mulliken charges =  -0.00000
 Mulliken charges with hydrogens summed into heavy atoms:
               1
     1  B   -0.000000
 Electronic spatial extent (au):  <R**2>=            153.4558
 Charge=             -0.0000 electrons
 Dipole moment (field-independent basis, Debye):
    X=              0.0000    Y=              0.0000    Z=             11.6516  Tot=             11.6516
 Quadrupole moment (field-independent basis, Debye-Ang):
   XX=             -9.3187   YY=             -9.3187   ZZ=            -53.1161
   XY=              0.0000   XZ=              0.0000   YZ=              0.0000
 Traceless Quadrupole moment (field-independent basis, Debye-Ang):
   XX=             14.5991   YY=             14.5991   ZZ=            -29.1983
   XY=              0.0000   XZ=              0.0000   YZ=              0.0000
 Octapole moment (field-independent basis, Debye-Ang**2):
  XXX=              0.0000  YYY=              0.0000  ZZZ=            236.7318  XYY=              0.0000
  XXY=              0.0000  XXZ=             14.0309  XZZ=              0.0000  YZZ=              0.0000
  YYZ=             14.0309  XYZ=              0.0000
 Hexadecapole moment (field-independent basis, Debye-Ang**3):
 XXXX=            -22.7060 YYYY=            -22.7060 ZZZZ=          -1524.7423 XXXY=              0.0000
 XXXZ=              0.0000 YYYX=              0.0000 YYYZ=              0.0000 ZZZX=              0.0000
 ZZZY=              0.0000 XXYY=             -7.5687 XXZZ=           -101.2792 YYZZ=           -101.2792
 XXYZ=              0.0000 YYXZ=              0.0000 ZZXY=              0.0000
 N-N= 4.561872507931D-01 E-N=-5.794523312182D+01  KE= 2.478324713876D+01
 Symmetry A1   KE= 2.478324713876D+01
 Symmetry A2   KE= 1.725913428183D-53
 Symmetry B1   KE= 0.000000000000D+00
 Symmetry B2   KE= 0.000000000000D+00
 Leave Link  601 at Thu May 26 10:46:54 2022, MaxMem=   104857600 cpu:               0.1 elap:               0.1
 (Enter /apps/software/g16/l9999.exe)
 1\1\GINC-CNODE03\SP\RCCSD(T)-FC\Aug-CC-pVQZ\B1H1\LCZ\26-May-2022\0\\#p
  RHF/aug-cc-pVQZ CCSD(T,FC)\\BH CCSD(T) at 5.8 Angstrom\\0,1\B,0,0.,0.
 ,0.\H,0,5.8,0.,0.\\Version=ES64L-G16RevA.03\State=1-SG\HF=-24.8612743\
 MP2=-25.0318772\MP3=-25.0639815\MP4D=-25.1038084\MP4DQ=-25.0317781\MP4
 SDQ=-25.2190906\CCSD=-25.0858884\CCSD(T)=-25.137884\RMSD=1.420e-10\PG=
 C*V [C*(H1B1)]\\@


 SATCHEL PAIGE'S GUIDE TO LONGEVITY

    1.  AVOID FRIED MEATS, WHICH ANGRY UP THE BLOOD.

    2.  IF YOUR STOMACH DISPUTES YOU, LIE DOWN AND PACIFY IT WITH COOL
        THOUGHTS.

    3.  KEEP THE JUICES FLOWING BY JANGLING AROUND GENTLY AS YOU MOVE.

    4.  GO VERY LIGHT ON THE VICES, SUCH AS CARRYING ON IN SOCIETY.
        THE SOCIAL RUMBLE AIN'T RESTFUL.

    5.  AVOID RUNNING AT ALL TIMES.

    6.  DON'T LOOK BACK.  SOMETHING MAY BE GAINING ON YOU.
 Job cpu time:       0 days  0 hours  0 minutes 13.0 seconds.
 Elapsed time:       0 days  0 hours  0 minutes 13.0 seconds.
 File lengths (MBytes):  RWF=    102 Int=      0 D2E=      0 Chk=      3 Scr=      1
 Normal termination of Gaussian 16 at Thu May 26 10:46:54 2022.

Sender: Unischeduler System <lcz@mgt01>
Subject: Job 136214: <#!/bin/bash
#BSUB -J intel
#BSUB -o BH-5.8-CCSD_T-G.out
#BSUB -n 8
#BSUB -q cqueue
#BSUB -R span[hosts=1]
export g16root=/apps/software
source /apps/software/g16/bsd/g16.profile
export GAUSS_SCRDIR=/scratch
/apps/software/g16/g16 < BH-5.8-CCSD_T-G.inp > BH-5.8-CCSD_T-G.out> Done

Job <#!/bin/bash
#BSUB -J intel
#BSUB -o BH-5.8-CCSD_T-G.out
#BSUB -n 8
#BSUB -q cqueue
#BSUB -R span[hosts=1]
export g16root=/apps/software
source /apps/software/g16/bsd/g16.profile
export GAUSS_SCRDIR=/scratch
/apps/software/g16/g16 < BH-5.8-CCSD_T-G.inp > BH-5.8-CCSD_T-G.out> was submitted from host <mgt01> by user <lcz>.
Job was executed on host(s) <8*cnode03>, in queue <cqueue>, as user <lcz>.
</apps/users/lcz> was used as the home directory.
</apps/users/lcz/exe13/GCCSD_T> was used as the working directory.
Started at 2022-05-26 10:46:41
Results reported at 2022-05-26 10:46:54

Your job looked like:

------------------------------------------------------------
# User input
#!/bin/bash
#BSUB -J intel
#BSUB -o BH-5.8-CCSD_T-G.out
#BSUB -n 8
#BSUB -q cqueue
#BSUB -R span[hosts=1]
export g16root=/apps/software
source /apps/software/g16/bsd/g16.profile
export GAUSS_SCRDIR=/scratch
/apps/software/g16/g16 < BH-5.8-CCSD_T-G.inp > BH-5.8-CCSD_T-G.out
------------------------------------------------------------

Successfully completed.

Resource usage summary:

    CPU time   :           11.93 sec.
    Max Memory :               484 MB
    Max Processes  :               5


The output (if any) follows:

