
                                        *****************
                                        * O   R   C   A *
                                        *****************

                                            #,                                       
                                            ###                                      
                                            ####                                     
                                            #####                                    
                                            ######                                   
                                           ########,                                 
                                     ,,################,,,,,                         
                               ,,#################################,,                 
                          ,,##########################################,,             
                       ,#########################################, ''#####,          
                    ,#############################################,,   '####,        
                  ,##################################################,,,,####,       
                ,###########''''           ''''###############################       
              ,#####''   ,,,,##########,,,,          '''####'''          '####       
            ,##' ,,,,###########################,,,                        '##       
           ' ,,###''''                  '''############,,,                           
         ,,##''                                '''############,,,,        ,,,,,,###''
      ,#''                                            '''#######################'''  
     '                                                          ''''####''''         
             ,#######,   #######,   ,#######,      ##                                
            ,#'     '#,  ##    ##  ,#'     '#,    #''#        ######   ,####,        
            ##       ##  ##   ,#'  ##            #'  '#       #        #'  '#        
            ##       ##  #######   ##           ,######,      #####,   #    #        
            '#,     ,#'  ##    ##  '#,     ,#' ,#      #,         ##   #,  ,#        
             '#######'   ##     ##  '#######'  #'      '#     #####' # '####'        



                  #######################################################
                  #                        -***-                        #
                  #          Department of theory and spectroscopy      #
                  #    Directorship and core code : Frank Neese         #
                  #        Max Planck Institute fuer Kohlenforschung    #
                  #                Kaiser Wilhelm Platz 1               #
                  #                 D-45470 Muelheim/Ruhr               #
                  #                      Germany                        #
                  #                                                     #
                  #                  All rights reserved                #
                  #                        -***-                        #
                  #######################################################


                         Program Version 5.0.0 -  RELEASE  -
                                (SVN: $Rev: 19529$)
                ($Date: 2021-06-28 11:36:33 +0200 (Mo, 28 Jun 2021) $)


 With contributions from (in alphabetic order):
   Daniel Aravena         : Magnetic Suceptibility
   Michael Atanasov       : Ab Initio Ligand Field Theory (pilot matlab implementation)
   Alexander A. Auer      : GIAO ZORA, VPT2 properties, NMR spectrum
   Ute Becker             : Parallelization
   Giovanni Bistoni       : ED, misc. LED, open-shell LED, HFLD
   Martin Brehm           : Molecular dynamics
   Dmytro Bykov           : SCF Hessian
   Vijay G. Chilkuri      : MRCI spin determinant printing, contributions to CSF-ICE
   Dipayan Datta          : RHF DLPNO-CCSD density
   Achintya Kumar Dutta   : EOM-CC, STEOM-CC
   Dmitry Ganyushin       : Spin-Orbit,Spin-Spin,Magnetic field MRCI
   Miquel Garcia          : C-PCM Hessian, Gaussian charge scheme
   Yang Guo               : DLPNO-NEVPT2, F12-NEVPT2, CIM, IAO-localization
   Andreas Hansen         : Spin unrestricted coupled pair/coupled cluster methods
   Benjamin Helmich-Paris : MC-RPA, TRAH-SCF, COSX integrals
   Lee Huntington         : MR-EOM, pCC
   Robert Izsak           : Overlap fitted RIJCOSX, COSX-SCS-MP3, EOM
   Marcus Kettner         : VPT2
   Christian Kollmar      : KDIIS, OOCD, Brueckner-CCSD(T), CCSD density, CASPT2, CASPT2-K
   Simone Kossmann        : Meta GGA functionals, TD-DFT gradient, OOMP2, MP2 Hessian
   Martin Krupicka        : Initial AUTO-CI
   Lucas Lang             : DCDCAS
   Marvin Lechner         : AUTO-CI (C++ implementation), FIC-MRCC
   Dagmar Lenk            : GEPOL surface, SMD
   Dimitrios Liakos       : Extrapolation schemes; Compound Job, initial MDCI parallelization
   Dimitrios Manganas     : Further ROCIS development; embedding schemes
   Dimitrios Pantazis     : SARC Basis sets
   Anastasios Papadopoulos: AUTO-CI, single reference methods and gradients
   Taras Petrenko         : DFT Hessian,TD-DFT gradient, ASA, ECA, R-Raman, ABS, FL, XAS/XES, NRVS
   Peter Pinski           : DLPNO-MP2, DLPNO-MP2 Gradient
   Christoph Reimann      : Effective Core Potentials
   Marius Retegan         : Local ZFS, SOC
   Christoph Riplinger    : Optimizer, TS searches, QM/MM, DLPNO-CCSD(T), (RO)-DLPNO pert. Triples
   Tobias Risthaus        : Range-separated hybrids, TD-DFT gradient, RPA, STAB
   Michael Roemelt        : Original ROCIS implementation
   Masaaki Saitow         : Open-shell DLPNO-CCSD energy and density
   Barbara Sandhoefer     : DKH picture change effects
   Avijit Sen             : IP-ROCIS
   Kantharuban Sivalingam : CASSCF convergence, NEVPT2, FIC-MRCI
   Bernardo de Souza      : ESD, SOC TD-DFT
   Georgi Stoychev        : AutoAux, RI-MP2 NMR
   Willem Van den Heuvel  : Paramagnetic NMR
   Boris Wezisla          : Elementary symmetry handling
   Frank Wennmohs         : Technical directorship


 We gratefully acknowledge several colleagues who have allowed us to
 interface, adapt or use parts of their codes:
   Stefan Grimme, W. Hujo, H. Kruse, P. Pracht,  : VdW corrections, initial TS optimization,
                  C. Bannwarth, S. Ehlert          DFT functionals, gCP, sTDA/sTD-DF
   Ed Valeev, F. Pavosevic, A. Kumar             : LibInt (2-el integral package), F12 methods
   Garnet Chan, S. Sharma, J. Yang, R. Olivares  : DMRG
   Ulf Ekstrom                                   : XCFun DFT Library
   Mihaly Kallay                                 : mrcc  (arbitrary order and MRCC methods)
   Jiri Pittner, Ondrej Demel                    : Mk-CCSD
   Frank Weinhold                                : gennbo (NPA and NBO analysis)
   Christopher J. Cramer and Donald G. Truhlar   : smd solvation model
   Lars Goerigk                                  : TD-DFT with DH, B97 family of functionals
   V. Asgeirsson, H. Jonsson                     : NEB implementation
   FAccTs GmbH                                   : IRC, NEB, NEB-TS, DLPNO-Multilevel, CI-OPT
                                                   MM, QMMM, 2- and 3-layer-ONIOM, Crystal-QMMM,
                                                   LR-CPCM, SF, NACMEs, symmetry and pop. for TD-DFT,
                                                   nearIR, NL-DFT gradient (VV10), updates on ESD,
                                                   ML-optimized integration grids
   S Lehtola, MJT Oliveira, MAL Marques          : LibXC Library
   Liviu Ungur et al                             : ANISO software


 Your calculation uses the libint2 library for the computation of 2-el integrals
 For citations please refer to: http://libint.valeyev.net

 Your ORCA version has been built with support for libXC version: 5.1.0
 For citations please refer to: https://tddft.org/programs/libxc/

 This ORCA versions uses:
   CBLAS   interface :  Fast vector & matrix operations
   LAPACKE interface :  Fast linear algebra routines
   SCALAPACK package :  Parallel linear algebra routines
   Shared memory     :  Shared parallel matrices
   BLAS/LAPACK       :  OpenBLAS 0.3.15  USE64BITINT DYNAMIC_ARCH NO_AFFINITY SkylakeX SINGLE_THREADED
        Core in use  :  SkylakeX
   Copyright (c) 2011-2014, The OpenBLAS Project


================================================================================

----- Orbital basis set information -----
Your calculation utilizes the basis: aug-cc-pVQZ 
    H, B-Ne : Obtained from the ccRepo (grant-hill.group.shef.ac.uk/ccrepo) Feb. 2017
              R. A. Kendall, T. H. Dunning, Jr., R. J. Harrison, J. Chem. Phys. 96, 6796 (1992)
         He : Obtained from the ccRepo (grant-hill.group.shef.ac.uk/ccrepo) Feb. 2017
              D. E. Woon, T. H. Dunning, Jr., J. Chem. Phys. 100, 2975 (1994)
  Li-Be, Na : Obtained from the ccRepo (grant-hill.group.shef.ac.uk/ccrepo) Feb. 2017
              B. P. Prascher, D. E. Woon, K. A. Peterson, T. H. Dunning, Jr., A. K. Wilson, Theor. Chem. Acc. 128, 69 (2011)
         Mg : Obtained from the Peterson Research Group Website (tyr0.chem.wsu.edu/~kipeters) Feb. 2017
              B. P. Prascher, D. E. Woon, K. A. Peterson, T. H. Dunning, Jr., A. K. Wilson, Theor. Chem. Acc. 128, 69 (2011)
      Al-Ar : Obtained from the ccRepo (grant-hill.group.shef.ac.uk/ccrepo) Feb. 2017
              D. E. Woon, T. H. Dunning, Jr., J. Chem. Phys. 98, 1358 (1993)
      Sc-Zn : Obtained from the ccRepo (grant-hill.group.shef.ac.uk/ccrepo) Feb. 2017
              N. B. Balabanov, K. A. Peterson, J. Chem. Phys. 123, 064107 (2005)
              N. B. Balabanov, K. A. Peterson, J. Chem. Phys. 125, 074110 (2006)
      Ga-Kr : Obtained from the ccRepo (grant-hill.group.shef.ac.uk/ccrepo) Feb. 2017
              A. K. Wilson, D. E. Woon, K. A. Peterson, T. H. Dunning, Jr., J. Chem. Phys. 110, 7667 (1999)

================================================================================
                                        WARNINGS
                       Please study these warnings very carefully!
================================================================================


WARNING: Post HF methods need fully converged wavefunctions
  ===> : Setting SCFConvForced true
         You can overwrite this default with %scf ConvForced false 


WARNING: MDCI localization with Augmented Hessian Foster-Boys
  ===> : Switching off randomization!

INFO   : the flag for use of the SHARK integral package has been found!

================================================================================
                                       INPUT FILE
================================================================================
NAME = /scratch/BH-5.8-CCSD_T-O_496/BH-5.8-CCSD_T-O.inp
|  1> ! RHF CCSD(T) aug-cc-pVQZ VeryTightSCF
|  2> 
|  3> *xyz 0 1
|  4>  B	0.0	0.0	0.0
|  5>  H	5.8	0.0	0.0
|  6> **                         ****END OF INPUT****
================================================================================

                       ****************************
                       * Single Point Calculation *
                       ****************************

---------------------------------
CARTESIAN COORDINATES (ANGSTROEM)
---------------------------------
  B      0.000000    0.000000    0.000000
  H      5.800000    0.000000    0.000000

----------------------------
CARTESIAN COORDINATES (A.U.)
----------------------------
  NO LB      ZA    FRAG     MASS         X           Y           Z
   0 B     5.0000    0    10.810    0.000000    0.000000    0.000000
   1 H     1.0000    0     1.008   10.960412    0.000000    0.000000

--------------------------------
INTERNAL COORDINATES (ANGSTROEM)
--------------------------------
 B      0   0   0     0.000000000000     0.00000000     0.00000000
 H      1   0   0     5.800000000000     0.00000000     0.00000000

---------------------------
INTERNAL COORDINATES (A.U.)
---------------------------
 B      0   0   0     0.000000000000     0.00000000     0.00000000
 H      1   0   0    10.960411576743     0.00000000     0.00000000

---------------------
BASIS SET INFORMATION
---------------------
There are 2 groups of distinct atoms

 Group   1 Type B   : 22s7p4d3f2g contracted to 6s5p4d3f2g pattern {991111/31111/1111/111/11}
 Group   2 Type H   : 7s4p3d2f contracted to 5s4p3d2f pattern {31111/1111/111/11}

Atom   0B    basis set group =>   1
Atom   1H    basis set group =>   2
------------------------------------------------------------------------------
                           ORCA GTO INTEGRAL CALCULATION
------------------------------------------------------------------------------
------------------------------------------------------------------------------
                   ___                                                        
                  /   \      - P O W E R E D   B Y -                         
                 /     \                                                     
                 |  |  |   _    _      __       _____    __    __             
                 |  |  |  | |  | |    /  \     |  _  \  |  |  /  |          
                  \  \/   | |  | |   /    \    | | | |  |  | /  /          
                 / \  \   | |__| |  /  /\  \   | |_| |  |  |/  /          
                |  |  |   |  __  | /  /__\  \  |    /   |      \           
                |  |  |   | |  | | |   __   |  |    \   |  |\   \          
                \     /   | |  | | |  |  |  |  | |\  \  |  | \   \       
                 \___/    |_|  |_| |__|  |__|  |_| \__\ |__|  \__/        
                                                                              
                      - O R C A' S   B I G   F R I E N D -                    
                                      &                                       
                       - I N T E G R A L  F E E D E R -                       
                                                                              
 v1 FN, 2020, v2 2021                                                         
------------------------------------------------------------------------------


Reading SHARK input file /scratch/BH-5.8-CCSD_T-O_496/BH-5.8-CCSD_T-O.SHARKINP.tmp ... ok
----------------------
SHARK INTEGRAL PACKAGE
----------------------

Number of atoms                             ...      2
Number of basis functions                   ...    126
Number of shells                            ...     34
Maximum angular momentum                    ...      4
Integral batch strategy                     ... SHARK/LIBINT Hybrid
RI-J (if used) integral strategy            ... SPLIT-RIJ (Revised 2003 algorithm where possible)
Printlevel                                  ...      1
Contraction scheme used                     ... SEGMENTED contraction
Coulomb Range Separation                    ... NOT USED
Exchange Range Separation                   ... NOT USED
Finite Nucleus Model                        ... NOT USED
Auxiliary Coulomb fitting basis             ... NOT available
Auxiliary J/K fitting basis                 ... NOT available
Auxiliary Correlation fitting basis         ... NOT available
Auxiliary 'external' fitting basis          ... NOT available
Integral threshold                          ...     1.000000e-12
Primitive cut-off                           ...     1.000000e-14
Primitive pair pre-selection threshold      ...     1.000000e-14

Calculating pre-screening integrals         ... done (  0.1 sec) Dimension = 34
Organizing shell pair data                  ... done (  0.0 sec)
Shell pair information
Total number of shell pairs                 ...       595
Shell pairs after pre-screening             ...       539
Total number of primitive shell pairs       ...      1563
Primitive shell pairs kept                  ...      1286
          la=0 lb=0:     60 shell pairs
          la=1 lb=0:     89 shell pairs
          la=1 lb=1:     41 shell pairs
          la=2 lb=0:     69 shell pairs
          la=2 lb=1:     57 shell pairs
          la=2 lb=2:     25 shell pairs
          la=3 lb=0:     50 shell pairs
          la=3 lb=1:     41 shell pairs
          la=3 lb=2:     32 shell pairs
          la=3 lb=3:     14 shell pairs
          la=4 lb=0:     20 shell pairs
          la=4 lb=1:     16 shell pairs
          la=4 lb=2:     13 shell pairs
          la=4 lb=3:      9 shell pairs
          la=4 lb=4:      3 shell pairs

Calculating one electron integrals          ... done (  0.0 sec)
Calculating Nuclear repulsion               ... done (  0.0 sec) ENN=      0.456187248534 Eh

SHARK setup successfully completed in   0.1 seconds

Maximum memory used throughout the entire GTOINT-calculation: 29.9 MB
-------------------------------------------------------------------------------
                                 ORCA SCF
-------------------------------------------------------------------------------

------------
SCF SETTINGS
------------
Hamiltonian:
 Ab initio Hamiltonian  Method          .... Hartree-Fock(GTOs)


General Settings:
 Integral files         IntName         .... /scratch/BH-5.8-CCSD_T-O_496/BH-5.8-CCSD_T-O
 Hartree-Fock type      HFTyp           .... RHF
 Total Charge           Charge          ....    0
 Multiplicity           Mult            ....    1
 Number of Electrons    NEL             ....    6
 Basis Dimension        Dim             ....  126
 Nuclear Repulsion      ENuc            ....      0.4561872485 Eh

Convergence Acceleration:
 DIIS                   CNVDIIS         .... on
   Start iteration      DIISMaxIt       ....    12
   Startup error        DIISStart       ....  0.200000
   # of expansion vecs  DIISMaxEq       ....     5
   Bias factor          DIISBfac        ....   1.050
   Max. coefficient     DIISMaxC        ....  10.000
 Trust-Rad. Augm. Hess. CNVTRAH         .... auto
   Auto Start mean grad. ratio tolernc. ....  1.125000
   Auto Start start iteration           ....    20
   Auto Start num. interpolation iter.  ....    10
   Max. Number of Micro iterations      ....    16
   Max. Number of Macro iterations      .... Maxiter - #DIIS iter
   Number of Davidson start vectors     ....     2
   Converg. threshold I  (grad. norm)   ....   2.000e-06
   Converg. threshold II (energy diff.) ....   1.000e-09
   Grad. Scal. Fac. for Micro threshold ....   0.100
   Minimum threshold for Micro iter.    ....   0.010
   NR start threshold (gradient norm)   ....   0.001
   Initial trust radius                 ....   0.400
   Minimum AH scaling param. (alpha)    ....   1.000
   Maximum AH scaling param. (alpha)    .... 1000.000
   Orbital update algorithm             .... Taylor
   White noise on init. David. guess    .... on
   Maximum white noise                  ....   0.010
   Quad. conv. algorithm                .... NR
 SOSCF                  CNVSOSCF        .... on
   Start iteration      SOSCFMaxIt      ....   150
   Startup grad/error   SOSCFStart      ....  0.003300
 Level Shifting         CNVShift        .... on
   Level shift para.    LevelShift      ....    0.2500
   Turn off err/grad.   ShiftErr        ....    0.0010
 Zerner damping         CNVZerner       .... off
 Static damping         CNVDamp         .... on
   Fraction old density DampFac         ....    0.7000
   Max. Damping (<1)    DampMax         ....    0.9800
   Min. Damping (>=0)   DampMin         ....    0.0000
   Turn off err/grad.   DampErr         ....    0.1000
 Fernandez-Rico         CNVRico         .... off

SCF Procedure:
 Maximum # iterations   MaxIter         ....   125
 SCF integral mode      SCFMode         .... Direct
   Integral package                     .... SHARK and LIBINT hybrid scheme
 Reset frequency        DirectResetFreq ....    20
 Integral Threshold     Thresh          ....  1.000e-12 Eh
 Primitive CutOff       TCut            ....  1.000e-14 Eh

Convergence Tolerance:
 Convergence Check Mode ConvCheckMode   .... Total+1el-Energy
 Convergence forced     ConvForced      .... 1
 Energy Change          TolE            ....  1.000e-09 Eh
 1-El. energy change                    ....  1.000e-06 Eh
 Orbital Gradient       TolG            ....  2.000e-06
 Orbital Rotation angle TolX            ....  2.000e-06
 DIIS Error             TolErr          ....  1.000e-08


Diagonalization of the overlap matrix:
Smallest eigenvalue                        ... 4.899e-03
Time for diagonalization                   ...    0.002 sec
Threshold for overlap eigenvalues          ... 1.000e-08
Number of eigenvalues below threshold      ... 0
Time for construction of square roots      ...    0.000 sec
Total time needed                          ...    0.002 sec

Time for model grid setup =    0.013 sec

------------------------------
INITIAL GUESS: MODEL POTENTIAL
------------------------------
Loading Hartree-Fock densities                     ... done
Calculating cut-offs                               ... done
Initializing the effective Hamiltonian             ... done
Setting up the integral package (SHARK)            ... done
Starting the Coulomb interaction                   ... done (   0.0 sec)
Reading the grid                                   ... done
Mapping shells                                     ... done
Starting the XC term evaluation                    ... done (   0.0 sec)
Transforming the Hamiltonian                       ... done (   0.0 sec)
Diagonalizing the Hamiltonian                      ... done (   0.0 sec)
Back transforming the eigenvectors                 ... done (   0.0 sec)
Now organizing SCF variables                       ... done
                      ------------------
                      INITIAL GUESS DONE (   0.0 sec)
                      ------------------
--------------
SCF ITERATIONS
--------------
ITER       Energy         Delta-E        Max-DP      RMS-DP      [F,P]     Damp
               ***  Starting incremental Fock matrix formation  ***
  0    -24.7406399264   0.000000000000 0.05123219  0.00093882  0.2075428 0.7000
  1    -24.7586279868  -0.017988060404 0.04415887  0.00089827  0.1646275 0.7000
                               ***Turning on DIIS***
  2    -24.7770075674  -0.018379580628 0.03893864  0.00085837  0.1208421 0.7000
  3    -24.7605719447   0.016435622748 0.11670859  0.00272559  0.0793725 0.0000
  4    -24.9163959772  -0.155824032512 0.03315389  0.00053372  0.0287479 0.0000
  5    -24.8960543218   0.020341655460 0.01716441  0.00038944  0.0188674 0.0000
  6    -24.8764606414   0.019593680396 0.01361361  0.00024702  0.0099400 0.0000
  7    -24.8661853563   0.010275285080 0.00677746  0.00012136  0.0042203 0.0000
                      *** Initiating the SOSCF procedure ***
                           *** Shutting down DIIS ***
                      *** Re-Reading the Fockian *** 
                      *** Removing any level shift *** 
ITER      Energy       Delta-E        Grad      Rot      Max-DP    RMS-DP
  8    -24.86261446   0.0035708968  0.001448  0.001448  0.003076  0.000064
               *** Restarting incremental Fock matrix formation ***
  9    -24.86126652   0.0013479425  0.000705  0.002254  0.004113  0.000064
 10    -24.86127290  -0.0000063790  0.000256  0.003155  0.003105  0.000063
 11    -24.86127219   0.0000007041  0.000500  0.001936  0.001254  0.000026
 12    -24.86127444  -0.0000022473  0.000010  0.000043  0.000094  0.000001
 13    -24.86127444  -0.0000000025  0.000003  0.000019  0.000022  0.000000
 14    -24.86127444  -0.0000000003  0.000001  0.000005  0.000007  0.000000
                 **** Energy Check signals convergence ****
              ***Rediagonalizing the Fockian in SOSCF/NRSCF***

               *****************************************************
               *                     SUCCESS                       *
               *           SCF CONVERGED AFTER  15 CYCLES          *
               *****************************************************


----------------
TOTAL SCF ENERGY
----------------

Total Energy       :          -24.86127444 Eh            -676.50967 eV

Components:
Nuclear Repulsion  :            0.45618725 Eh              12.41349 eV
Electronic Energy  :          -25.31746169 Eh            -688.92316 eV
One Electron Energy:          -33.16197876 Eh            -902.38332 eV
Two Electron Energy:            7.84451707 Eh             213.46016 eV

Virial components:
Potential Energy   :          -49.64455142 Eh           -1350.89692 eV
Kinetic Energy     :           24.78327697 Eh             674.38725 eV
Virial Ratio       :            2.00314718


---------------
SCF CONVERGENCE
---------------

  Last Energy change         ...   -2.5654e-11  Tolerance :   1.0000e-09
  Last MAX-Density change    ...    1.0506e-06  Tolerance :   1.0000e-08
  Last RMS-Density change    ...    2.1449e-08  Tolerance :   1.0000e-09
  Last Orbital Gradient      ...    1.5908e-07  Tolerance :   2.0000e-06
  Last Orbital Rotation      ...    6.5191e-07  Tolerance :   2.0000e-06

             **** THE GBW FILE WAS UPDATED (/scratch/BH-5.8-CCSD_T-O_496/BH-5.8-CCSD_T-O.gbw) ****
             **** DENSITY /scratch/BH-5.8-CCSD_T-O_496/BH-5.8-CCSD_T-O.scfp WAS UPDATED ****
             **** ENERGY FILE WAS UPDATED (/scratch/BH-5.8-CCSD_T-O_496/BH-5.8-CCSD_T-O.en.tmp) ****
             **** THE GBW FILE WAS UPDATED (/scratch/BH-5.8-CCSD_T-O_496/BH-5.8-CCSD_T-O.gbw) ****
             **** DENSITY /scratch/BH-5.8-CCSD_T-O_496/BH-5.8-CCSD_T-O.scfp WAS UPDATED ****
----------------
ORBITAL ENERGIES
----------------

  NO   OCC          E(Eh)            E(eV) 
   0   2.0000      -7.896449      -214.8733 
   1   2.0000      -0.632052       -17.1990 
   2   2.0000      -0.207971        -5.6592 
   3   0.0000      -0.107967        -2.9379 
   4   0.0000      -0.057753        -1.5715 
   5   0.0000      -0.057753        -1.5715 
   6   0.0000       0.017728         0.4824 
   7   0.0000       0.036296         0.9877 
   8   0.0000       0.036296         0.9877 
   9   0.0000       0.049791         1.3549 
  10   0.0000       0.104785         2.8513 
  11   0.0000       0.109234         2.9724 
  12   0.0000       0.109234         2.9724 
  13   0.0000       0.115449         3.1415 
  14   0.0000       0.115449         3.1415 
  15   0.0000       0.129054         3.5117 
  16   0.0000       0.231903         6.3104 
  17   0.0000       0.234104         6.3703 
  18   0.0000       0.234104         6.3703 
  19   0.0000       0.242756         6.6057 
  20   0.0000       0.242756         6.6057 
  21   0.0000       0.268749         7.3130 
  22   0.0000       0.291152         7.9226 
  23   0.0000       0.404581        11.0092 
  24   0.0000       0.404581        11.0092 
  25   0.0000       0.411144        11.1878 
  26   0.0000       0.411144        11.1878 
  27   0.0000       0.416697        11.3389 
  28   0.0000       0.416697        11.3389 
  29   0.0000       0.421995        11.4831 
  30   0.0000       0.421995        11.4831 
  31   0.0000       0.422302        11.4914 
  32   0.0000       0.429515        11.6877 
  33   0.0000       0.429515        11.6877 
  34   0.0000       0.448932        12.2161 
  35   0.0000       0.492434        13.3998 
  36   0.0000       0.696070        18.9410 
  37   0.0000       0.696070        18.9410 
  38   0.0000       0.698799        19.0153 
  39   0.0000       0.698799        19.0153 
  40   0.0000       0.710067        19.3219 
  41   0.0000       0.860991        23.4288 
  42   0.0000       0.860991        23.4288 
  43   0.0000       0.894053        24.3284 
  44   0.0000       0.930902        25.3311 
  45   0.0000       0.930902        25.3311 
  46   0.0000       0.949642        25.8411 
  47   0.0000       1.275987        34.7214 
  48   0.0000       1.283408        34.9233 
  49   0.0000       1.283408        34.9233 
  50   0.0000       1.291251        35.1367 
  51   0.0000       1.291251        35.1367 
  52   0.0000       1.291351        35.1395 
  53   0.0000       1.291351        35.1395 
  54   0.0000       1.297032        35.2940 
  55   0.0000       1.297032        35.2940 
  56   0.0000       1.300551        35.3898 
  57   0.0000       1.300551        35.3898 
  58   0.0000       1.302131        35.4328 
  59   0.0000       1.302197        35.4346 
  60   0.0000       1.302197        35.4346 
  61   0.0000       1.321587        35.9622 
  62   0.0000       1.336834        36.3771 
  63   0.0000       1.336834        36.3771 
  64   0.0000       1.346516        36.6406 
  65   0.0000       1.346516        36.6406 
  66   0.0000       1.353126        36.8204 
  67   0.0000       1.353126        36.8204 
  68   0.0000       1.366775        37.1918 
  69   0.0000       1.654211        45.0134 
  70   0.0000       1.654211        45.0134 
  71   0.0000       1.654236        45.0140 
  72   0.0000       1.654236        45.0140 
  73   0.0000       1.654666        45.0257 
  74   0.0000       1.654666        45.0257 
  75   0.0000       1.656034        45.0630 
  76   0.0000       1.727227        47.0002 
  77   0.0000       2.562881        69.7395 
  78   0.0000       2.562881        69.7395 
  79   0.0000       2.564482        69.7831 
  80   0.0000       2.564482        69.7831 
  81   0.0000       2.570792        69.9548 
  82   0.0000       2.678117        72.8753 
  83   0.0000       2.678117        72.8753 
  84   0.0000       2.709994        73.7427 
  85   0.0000       3.572096        97.2017 
  86   0.0000       3.572096        97.2017 
  87   0.0000       3.586806        97.6019 
  88   0.0000       3.790682       103.1497 
  89   0.0000       3.790682       103.1497 
  90   0.0000       3.800195       103.4086 
  91   0.0000       3.800195       103.4086 
  92   0.0000       3.801132       103.4341 
  93   0.0000       3.801132       103.4341 
  94   0.0000       3.808660       103.6389 
  95   0.0000       3.808660       103.6389 
  96   0.0000       3.812576       103.7455 
  97   0.0000       3.812576       103.7455 
  98   0.0000       3.813498       103.7705 
  99   0.0000       3.813498       103.7705 
 100   0.0000       3.814840       103.8071 
 101   0.0000       3.826645       104.1283 
 102   0.0000       3.941571       107.2556 
 103   0.0000       3.941571       107.2556 
 104   0.0000       3.953162       107.5710 
 105   0.0000       3.953162       107.5710 
 106   0.0000       3.960465       107.7697 
 107   0.0000       3.960465       107.7697 
 108   0.0000       3.967381       107.9579 
 109   0.0000       6.662277       181.2898 
 110   0.0000       6.662277       181.2898 
 111   0.0000       6.662374       181.2924 
 112   0.0000       6.662374       181.2924 
 113   0.0000       6.662561       181.2975 
 114   0.0000       6.662561       181.2975 
 115   0.0000       6.662928       181.3075 
 116   0.0000       7.513432       204.4509 
 117   0.0000       8.043821       218.8835 
 118   0.0000       8.043821       218.8835 
 119   0.0000       8.067865       219.5378 
 120   0.0000       8.498468       231.2551 
 121   0.0000       8.498468       231.2551 
 122   0.0000       8.499458       231.2820 
 123   0.0000       8.499458       231.2820 
 124   0.0000       8.504547       231.4205 
 125   0.0000      12.854410       349.7863 

                    ********************************
                    * MULLIKEN POPULATION ANALYSIS *
                    ********************************

-----------------------
MULLIKEN ATOMIC CHARGES
-----------------------
   0 B :    0.411048
   1 H :   -0.411048
Sum of atomic charges:    0.0000000

--------------------------------
MULLIKEN REDUCED ORBITAL CHARGES
--------------------------------
  0 B s       :     4.003317  s :     4.003317
      pz      :     0.000000  p :     0.581481
      px      :     0.581481
      py      :     0.000000
      dz2     :     0.001024  d :     0.004097
      dxz     :     0.000000
      dyz     :     0.000000
      dx2y2   :     0.003073
      dxy     :     0.000000
      f0      :     0.000000  f :     0.000057
      f+1     :     0.000021
      f-1     :     0.000000
      f+2     :     0.000000
      f-2     :     0.000000
      f+3     :     0.000036
      f-3     :     0.000000
      g0      :     0.000000  g :     0.000000
      g+1     :     0.000000
      g-1     :     0.000000
      g+2     :     0.000000
      g-2     :     0.000000
      g+3     :     0.000000
      g-3     :     0.000000
      g+4     :     0.000000
      g-4     :     0.000000
  1 H s       :     1.408888  s :     1.408888
      pz      :    -0.000000  p :     0.002113
      px      :     0.002113
      py      :    -0.000000
      dz2     :     0.000012  d :     0.000046
      dxz     :    -0.000000
      dyz     :     0.000000
      dx2y2   :     0.000035
      dxy     :     0.000000
      f0      :    -0.000000  f :     0.000001
      f+1     :     0.000000
      f-1     :     0.000000
      f+2     :    -0.000000
      f-2     :     0.000000
      f+3     :     0.000000
      f-3     :     0.000000


                     *******************************
                     * LOEWDIN POPULATION ANALYSIS *
                     *******************************

----------------------
LOEWDIN ATOMIC CHARGES
----------------------
   0 B :    0.394986
   1 H :   -0.394986

-------------------------------
LOEWDIN REDUCED ORBITAL CHARGES
-------------------------------
  0 B s       :     4.002358  s :     4.002358
      pz      :     0.000000  p :     0.596642
      px      :     0.596642
      py      :     0.000000
      dz2     :     0.001478  d :     0.005911
      dxz     :     0.000000
      dyz     :     0.000000
      dx2y2   :     0.004433
      dxy     :     0.000000
      f0      :     0.000000  f :     0.000103
      f+1     :     0.000039
      f-1     :     0.000000
      f+2     :     0.000000
      f-2     :     0.000000
      f+3     :     0.000065
      f-3     :     0.000000
      g0      :     0.000000  g :     0.000001
      g+1     :     0.000000
      g-1     :     0.000000
      g+2     :     0.000000
      g-2     :     0.000000
      g+3     :     0.000000
      g-3     :     0.000000
      g+4     :     0.000000
      g-4     :     0.000000
  1 H s       :     1.393480  s :     1.393480
      pz      :     0.000000  p :     0.001461
      px      :     0.001461
      py      :     0.000000
      dz2     :     0.000011  d :     0.000043
      dxz     :     0.000000
      dyz     :     0.000000
      dx2y2   :     0.000032
      dxy     :     0.000000
      f0      :     0.000000  f :     0.000001
      f+1     :     0.000000
      f-1     :     0.000000
      f+2     :     0.000000
      f-2     :     0.000000
      f+3     :     0.000001
      f-3     :     0.000000


                      *****************************
                      * MAYER POPULATION ANALYSIS *
                      *****************************

  NA   - Mulliken gross atomic population
  ZA   - Total nuclear charge
  QA   - Mulliken gross atomic charge
  VA   - Mayer's total valence
  BVA  - Mayer's bonded valence
  FA   - Mayer's free valence

  ATOM       NA         ZA         QA         VA         BVA        FA
  0 B      4.5890     5.0000     0.4110     0.8311     0.8311     0.0000
  1 H      1.4110     1.0000    -0.4110     0.8311     0.8311     0.0000

  Mayer bond orders larger than 0.100000
B(  0-B ,  1-H ) :   0.8311 

-------
TIMINGS
-------

Total SCF time: 0 days 0 hours 0 min 26 sec 

Total time                  ....      26.723 sec
Sum of individual times     ....      19.259 sec  ( 72.1%)

Fock matrix formation       ....      19.199 sec  ( 71.8%)
Diagonalization             ....       0.013 sec  (  0.0%)
Density matrix formation    ....       0.001 sec  (  0.0%)
Population analysis         ....       0.001 sec  (  0.0%)
Initial guess               ....       0.019 sec  (  0.1%)
Orbital Transformation      ....       0.000 sec  (  0.0%)
Orbital Orthonormalization  ....       0.000 sec  (  0.0%)
DIIS solution               ....       0.005 sec  (  0.0%)
SOSCF solution              ....       0.007 sec  (  0.0%)

Maximum memory used throughout the entire SCF-calculation: 253.9 MB


------------------------------------------------------------------------------- 
                              ORCA-MATRIX DRIVEN CI                            
------------------------------------------------------------------------------- 

--------------------------------
AUTOMATIC CHOICE OF INCORE LEVEL
--------------------------------

Memory available                           ...    256.00 MB
Memory needed for S+T                      ...      1.04 MB
Memory needed for J+K                      ...      2.08 MB
Memory needed for DIIS                     ...     14.54 MB
Memory needed for 3-ext                    ...     28.39 MB
Memory needed for 4-ext                    ...    880.23 MB
Memory needed for triples                  ...     70.99 MB
 -> Final InCoreLevel    ... 4
 -> check shows that triples correction can be computed


Wavefunction type
-----------------
Correlation treatment                      ...      CCSD     
Single excitations                         ... ON
Orbital optimization                       ... OFF
Calculation of Z vector                    ... OFF
Calculation of Brueckner orbitals          ... OFF
Perturbative triple excitations            ... ON
Calculation of F12 correction              ... OFF
Frozen core treatment                      ... chemical core (2 el)
Reference Wavefunction                     ... RHF
  Internal Orbitals:     1 ...    2 (  2 MO's/  4 electrons)
  Virtual  Orbitals:     3 ...  125 (123 MO's              )
Number of AO's                             ...    126
Number of electrons                        ...      6
Number of correlated electrons             ...      4

Algorithmic settings
--------------------
Integral transformation                    ... AO direct full transformation
K(C) Formation                             ... FULL-MO TRAFO
Maximum number of iterations               ...        50
Convergence tolerance (max. residuum)      ... 1.000e-06
Level shift for amplitude update           ... 2.000e-01
Maximum number of DIIS vectors             ...         7
DIIS turned on at iteration                ...         0
Damping before turning on DIIS             ...     0.500
Damping after turning on DIIS              ...     0.000
Pair specific amplitude update             ... OFF
Natural orbital iterations                 ... OFF
Perturbative natural orbital generation    ... OFF
Printlevel                                 ... 2

Memory handling:
----------------
Maximum memory for working arrays          ...    256 MB
Data storage in matrix containers          ... UNCOMPRESSED
Data type for integral storage             ... DOUBLE
In-Core Storage of quantities:
   Amplitudes+Sigma Vector      ... YES
   J+K operators                ... YES
   DIIS vectors                 ... YES
   3-external integrals         ... YES
   4-external integrals         ... NO


Initializing the integral package          ... done
Warning: reference  - re-canonicalizations have been set to INT 1 VIRT 1

--------------------------
CLOSED-SHELL FOCK OPERATOR
--------------------------

Restoring SHARK [2] ... ok
Recanonicalizing the internal orbitals
Recanonicalizing the virtual orbitals
Time needed for Fock operator              ...            0.789 sec
Reference energy                           ...    -24.861274442

------------------------------
PARTIAL COULOMB TRANSFORMATION
------------------------------

Transformation type                        ... one-operator
Dimension of the basis                     ...  126
Number of internal MOs                     ...  125 (1-125)
Pair cutoff                                ... 0.000e+00 Eh
Number of AO pairs included in the trafo   ... 8001
Total Number of distinct AO pairs          ... 8001
Memory devoted for trafo                   ...  256.0 MB 
Max. Number of MO pairs treated together   ... 4193      
Max. Number of MOs treated per batch       ...   33      
Number Format for Storage                  ... Double (8 Byte)
AO-integral source                         ... DIRECT
Integral package used                      ... LIBINT

Starting integral evaluation:
<ss|**>:        30508 b        0 skpd     0.060 s (  0.002 ms/b)
<sp|**>:        45762 b        0 skpd     0.122 s (  0.003 ms/b)
<sd|**>:        35242 b        0 skpd     0.154 s (  0.004 ms/b)
<sf|**>:        24722 b        0 skpd     0.620 s (  0.025 ms/b)
<sg|**>:        10520 b        0 skpd     0.702 s (  0.067 ms/b)
<pp|**>:        21566 b        0 skpd     0.708 s (  0.033 ms/b)
<pd|**>:        29456 b        0 skpd     1.578 s (  0.054 ms/b)
<pf|**>:        21040 b        0 skpd     1.274 s (  0.061 ms/b)
<pg|**>:         8416 b        0 skpd     0.201 s (  0.024 ms/b)
<dd|**>:        13150 b        0 skpd     0.228 s (  0.017 ms/b)
<df|**>:        16306 b        0 skpd     0.669 s (  0.041 ms/b)
<dg|**>:         6312 b        0 skpd     0.243 s (  0.038 ms/b)
<ff|**>:         7364 b        0 skpd     0.321 s (  0.044 ms/b)
<fg|**>:         4734 b        0 skpd     1.198 s (  0.253 ms/b)
<gg|**>:         1578 b        0 skpd     0.513 s (  0.325 ms/b)
Closing buffer AOJ ( 0.42 GB; CompressionRatio= 1.00)
Collecting buffer AOJ 
    ... done with AO integral generation
Number of MO pairs included in the trafo   ... 7875
    ... Now sorting integrals
IBATCH = 1 of  2
IBATCH = 2 of  2
Closing buffer JAO ( 0.47 GB; CompressionRatio= 1.00)
Collecting buffer JAO 
TOTAL TIME for half transformation         ...    15.588 sec
AO-integral generation                     ...     1.635 sec
Half transformation                        ...     6.960 sec
J-integral sorting                         ...     6.950 sec

-------------------------- SECOND HALF TRANSFORMATION -------------------------
Formation of (pq|rs)                       ... ok (     3.493 sec)
Integral sorting                           ... ok (    17.579 sec)

------------------
CLOSED SHELL GUESS
------------------

Initial guess performed in     0.000 sec
E(0)                                       ...    -24.861274442
E(MP2)                                     ...     -0.170603094
Initial E(tot)                             ...    -25.031877536
<T|T>                                      ...      0.519159759
Number of pairs included                   ... 3
Total number of pairs                      ... 3

------------------------------------------------
                  RHF COUPLED CLUSTER ITERATIONS
------------------------------------------------

Number of amplitudes to be optimized       ... 45633

Iter       E(tot)           E(Corr)          Delta-E          Residual     Time
  0    -25.031877536     -0.170603094      0.000000000      0.092266715    0.56
                           *** Turning on DIIS ***
  1    -24.999460003     -0.138185561      0.032417533      0.123260583    1.36
  2    -25.032153195     -0.170878753     -0.032693192      0.064810184    1.33
  3    -25.057385516     -0.196111074     -0.025232321      0.036830528    1.40
  4    -25.079042239     -0.217767797     -0.021656723      0.013701158    1.32
  5    -25.084216872     -0.222942430     -0.005174632      0.002994053    1.31
  6    -25.084632145     -0.223357703     -0.000415273      0.002354203    1.34
  7    -25.086124485     -0.224850042     -0.001492340      0.000443620    1.32
  8    -25.085849637     -0.224575195      0.000274847      0.000149503    1.30
  9    -25.085873260     -0.224598818     -0.000023622      0.000061701    1.32
 10    -25.085902370     -0.224627928     -0.000029111      0.000037042    1.30
 11    -25.085888130     -0.224613688      0.000014240      0.000006460    1.32
 12    -25.085890178     -0.224615736     -0.000002048      0.000002969    1.31
 13    -25.085888486     -0.224614044      0.000001692      0.000000895    1.30
               --- The Coupled-Cluster iterations have converged ---

----------------------
COUPLED CLUSTER ENERGY
----------------------

E(0)                                       ...    -24.861274442
E(CORR)                                    ...     -0.224614044
E(TOT)                                     ...    -25.085888486
Singles Norm <S|S>**1/2                    ...      0.529140657  
T1 diagnostic                              ...      0.264570329  

------------------
LARGEST AMPLITUDES
------------------
   2->  3   2->  3       1.148807
   2->  3  -1-> -1       0.480430
   1->  5   1->  5       0.123325
   1->  4   1->  4       0.123325
   2-> 10   2->  3       0.122252
   2->  3   2-> 10       0.122252
   2->  9  -1-> -1       0.119157
   2-> 10  -1-> -1       0.110370
   2-> 35   2->  3       0.095544
   2->  3   2-> 35       0.095544
   2->  3   2->  6       0.090349
   2->  6   2->  3       0.090349
   2-> 35  -1-> -1       0.087179
   2-> 16  -1-> -1       0.085357
   2-> 16   2->  3       0.071399
   2->  3   2-> 16       0.071399


        !!!!!!!!!!!!!!!!!!!!!!!!!!!!!!!!!!!!!!!!!!!!!!!!!!!!!!!!!!!!!!!!!!!!!!!!!! 
        !  Warning: Densities are linearized densities !                         !
        !!!!!!!!!!!!!!!!!!!!!!!!!!!!!!!!!!!!!!!!!!!!!!!!!!!!!!!!!!!!!!!!!!!!!!!!!! 

Trace of internal density part =     -3.561278686
Trace of external density part =      3.561278686
----------------------
RHF TRIPLES CORRECTION (Algorithm 1)
----------------------

Multiplier for the singles contribution    ...      1.000000000

10% done
20% done
30% done
40% done
50% done
60% done
70% done
80% done
90% done

Triples Correction (T)                     ...     -0.051995346
Scaling of triples based on CCSD energies (Peterson et al. Molecular Physics 113, 1551 (2015))
E(T*) = f*E(T) where f = E(F12-CCSD)/E(CCSD) 
f = CCSD (with F12)/ CCSD (without F12)    ...      1.000000000
Scaled triples correction (T)              ...     -0.051995346

Final correlation energy                   ...     -0.276609389
E(CCSD)                                    ...    -25.085888486
E(CCSD(T))                                 ...    -25.137883831

NORM  =      3.060629178 sqrt=     1.749465398
W(HF) =      0.326730205
------------------------------------------------------------------------------
                           ORCA POPULATION ANALYSIS
------------------------------------------------------------------------------
Input electron density              ... /scratch/BH-5.8-CCSD_T-O_496/BH-5.8-CCSD_T-O.mdcip
BaseName (.gbw .S,...)              ... /scratch/BH-5.8-CCSD_T-O_496/BH-5.8-CCSD_T-O

                    ********************************
                    * MULLIKEN POPULATION ANALYSIS *
                    ********************************

-----------------------
MULLIKEN ATOMIC CHARGES
-----------------------
   0 B :   -0.855855
   1 H :    0.855855
Sum of atomic charges:    0.0000000

--------------------------------
MULLIKEN REDUCED ORBITAL CHARGES
--------------------------------
  0 B s       :     3.864022  s :     3.864022
      pz      :     0.053911  p :     1.962381
      px      :     1.854559
      py      :     0.053911
      dz2     :     0.003612  d :     0.028148
      dxz     :     0.006991
      dyz     :     0.000283
      dx2y2   :     0.010271
      dxy     :     0.006991
      f0      :     0.000116  f :     0.001150
      f+1     :     0.000192
      f-1     :     0.000041
      f+2     :     0.000176
      f-2     :     0.000162
      f+3     :     0.000212
      f-3     :     0.000251
      g0      :     0.000012  g :     0.000154
      g+1     :     0.000020
      g-1     :     0.000005
      g+2     :     0.000015
      g-2     :     0.000015
      g+3     :     0.000019
      g-3     :     0.000019
      g+4     :     0.000024
      g-4     :     0.000024
  1 H s       :     0.148254  s :     0.148254
      pz      :     0.000010  p :    -0.004020
      px      :    -0.004040
      py      :     0.000010
      dz2     :    -0.000022  d :    -0.000088
      dxz     :     0.000001
      dyz     :     0.000000
      dx2y2   :    -0.000067
      dxy     :     0.000001
      f0      :     0.000000  f :    -0.000001
      f+1     :    -0.000000
      f-1     :     0.000000
      f+2     :     0.000000
      f-2     :     0.000000
      f+3     :    -0.000001
      f-3     :     0.000000


                     *******************************
                     * LOEWDIN POPULATION ANALYSIS *
                     *******************************

----------------------
LOEWDIN ATOMIC CHARGES
----------------------
   0 B :   -0.827456
   1 H :    0.827456

-------------------------------
LOEWDIN REDUCED ORBITAL CHARGES
-------------------------------
  0 B s       :     3.865011  s :     3.865011
      pz      :     0.053911  p :     1.935083
      px      :     1.827262
      py      :     0.053911
      dz2     :     0.003105  d :     0.026121
      dxz     :     0.006992
      dyz     :     0.000283
      dx2y2   :     0.008750
      dxy     :     0.006992
      f0      :     0.000116  f :     0.001086
      f+1     :     0.000168
      f-1     :     0.000041
      f+2     :     0.000176
      f-2     :     0.000162
      f+3     :     0.000172
      f-3     :     0.000251
      g0      :     0.000012  g :     0.000154
      g+1     :     0.000020
      g-1     :     0.000005
      g+2     :     0.000015
      g-2     :     0.000015
      g+3     :     0.000019
      g-3     :     0.000019
      g+4     :     0.000024
      g-4     :     0.000024
  1 H s       :     0.175181  s :     0.175181
      pz      :     0.000010  p :    -0.002567
      px      :    -0.002587
      py      :     0.000010
      dz2     :    -0.000017  d :    -0.000068
      dxz     :     0.000001
      dyz     :     0.000000
      dx2y2   :    -0.000052
      dxy     :     0.000001
      f0      :     0.000000  f :    -0.000001
      f+1     :    -0.000001
      f-1     :     0.000000
      f+2     :     0.000000
      f-2     :     0.000000
      f+3     :    -0.000001
      f-3     :     0.000000


                      *****************************
                      * MAYER POPULATION ANALYSIS *
                      *****************************

  NA   - Mulliken gross atomic population
  ZA   - Total nuclear charge
  QA   - Mulliken gross atomic charge
  VA   - Mayer's total valence
  BVA  - Mayer's bonded valence
  FA   - Mayer's free valence

  ATOM       NA         ZA         QA         VA         BVA        FA
  0 B      5.8559     5.0000    -0.8559     0.3507     4.4069    -4.0562
  1 H      0.1441     1.0000     0.8559    -0.4234     4.4069    -4.8303

  Mayer bond orders larger than 0.100000
B(  0-B ,  1-H ) :   4.4069 



------------------------------------------------------------------------------- 
                                     TIMINGS                                   
------------------------------------------------------------------------------- 


Total execution time                   ...       57.898 sec

Fock Matrix Formation                  ...        0.789 sec (  1.4%)
Initial Guess                          ...        0.000 sec (  0.0%)
DIIS Solver                            ...        0.035 sec (  0.1%)
State Vector Update                    ...        0.001 sec (  0.0%)
Sigma-vector construction              ...       17.748 sec ( 30.7%)
  <0|H|D>                              ...        0.003 sec (  0.0% of sigma)
  <D|H|D>(0-ext)                       ...        0.007 sec (  0.0% of sigma)
  <D|H|D>(2-ext Fock)                  ...        0.006 sec (  0.0% of sigma)
  <D|H|D>(2-ext)                       ...        0.047 sec (  0.3% of sigma)
  <D|H|D>(4-ext)                       ...        5.731 sec ( 32.3% of sigma)
  <D|H|D>(4-ext-corr)                  ...        1.124 sec (  6.3% of sigma)
  <S|H|0>                              ...        0.002 sec (  0.0% of sigma)
  <S|H|S>                              ...        0.004 sec (  0.0% of sigma)
  <S|H|D>(1-ext)                       ...        0.005 sec (  0.0% of sigma)
  <D|H|S>(1-ext)                       ...        0.009 sec (  0.1% of sigma)
  <S|H|D>(3-ext)                       ...        0.193 sec (  1.1% of sigma)
  Fock-dressing                        ...       10.280 sec ( 57.9% of sigma)
  (ik|jl)-dressing                     ...        0.004 sec (  0.0% of sigma)
  (ij|ab),(ia|jb)-dressing             ...        0.277 sec (  1.6% of sigma)
  Pair energies                        ...        0.004 sec (  0.0% of sigma)
Total Time for computing (T)           ...        0.232 sec (  0.4% of ALL)
  I/O of integral and amplitudes       ...        0.032 sec ( 13.6% of (T))
  N**6 sorting step                    ...        0.050 sec ( 21.7% of (T))
  External N**7 contributions          ...        0.112 sec ( 48.2% of (T))
  Internal N**7 contributions          ...        0.011 sec (  4.9% of (T))
  N**6 triples energy contributions    ...        0.027 sec ( 11.6% of (T))
One-particle density matrix            ...        0.001 sec (  0.0%)


Maximum memory used throughout the entire MDCI-calculation: 400.0 MB

-------------------------   --------------------
FINAL SINGLE POINT ENERGY       -25.137883831476
-------------------------   --------------------


                            ***************************************
                            *     ORCA property calculations      *
                            ***************************************

                                    ---------------------
                                    Active property flags
                                    ---------------------
   (+) Dipole Moment


------------------------------------------------------------------------------
                       ORCA ELECTRIC PROPERTIES CALCULATION
------------------------------------------------------------------------------

Dipole Moment Calculation                       ... on
Quadrupole Moment Calculation                   ... off
Polarizability Calculation                      ... off
GBWName                                         ... /scratch/BH-5.8-CCSD_T-O_496/BH-5.8-CCSD_T-O.gbw
Electron density file                           ... /scratch/BH-5.8-CCSD_T-O_496/BH-5.8-CCSD_T-O.scfp
The origin for moment calculation is the CENTER OF MASS  = ( 0.934853,  0.000000  0.000000)

-------------
DIPOLE MOMENT
-------------
                                X             Y             Z
Electronic contribution:     -9.93536      -0.00000       0.00000
Nuclear contribution   :      5.35129       0.00000       0.00000
                        -----------------------------------------
Total Dipole Moment    :     -4.58407      -0.00000       0.00000
                        -----------------------------------------
Magnitude (a.u.)       :      4.58407
Magnitude (Debye)      :     11.65179



--------------------
Rotational spectrum 
--------------------
 
Rotational constants in cm-1:     0.000000     0.543499     0.543499 
Rotational constants in MHz :     0.000000 16293.687266 16293.687266 

 Dipole components along the rotational axes: 
x,y,z [a.u.] :    -4.584072    -0.000000     0.000000 
x,y,z [Debye]:   -11.651786    -0.000000     0.000000 

 

                           *** MDCI DENSITY ***

------------------------------------------------------------------------------
                       ORCA ELECTRIC PROPERTIES CALCULATION
------------------------------------------------------------------------------

Dipole Moment Calculation                       ... on
Quadrupole Moment Calculation                   ... off
Polarizability Calculation                      ... off
GBWName                                         ... /scratch/BH-5.8-CCSD_T-O_496/BH-5.8-CCSD_T-O.gbw
Electron density file                           ... /scratch/BH-5.8-CCSD_T-O_496/BH-5.8-CCSD_T-O.mdcip
The origin for moment calculation is the CENTER OF MASS  = ( 0.934853,  0.000000  0.000000)

-------------
DIPOLE MOMENT
-------------
                                X             Y             Z
Electronic contribution:      4.18802       0.00000      -0.00000
Nuclear contribution   :      5.35129       0.00000       0.00000
                        -----------------------------------------
Total Dipole Moment    :      9.53931       0.00000      -0.00000
                        -----------------------------------------
Magnitude (a.u.)       :      9.53931
Magnitude (Debye)      :     24.24700



--------------------
Rotational spectrum 
--------------------
 
Rotational constants in cm-1:     0.000000     0.543499     0.543499 
Rotational constants in MHz :     0.000000 16293.687266 16293.687266 

 Dipole components along the rotational axes: 
x,y,z [a.u.] :     9.539309     0.000000    -0.000000 
x,y,z [Debye]:    24.246996     0.000000    -0.000000 

 

Timings for individual modules:

Sum of individual times         ...       85.030 sec (=   1.417 min)
GTO integral calculation        ...        0.131 sec (=   0.002 min)   0.2 %
SCF iterations                  ...       26.845 sec (=   0.447 min)  31.6 %
MDCI module                     ...       58.054 sec (=   0.968 min)  68.3 %
                             ****ORCA TERMINATED NORMALLY****
TOTAL RUN TIME: 0 days 0 hours 1 minutes 25 seconds 153 msec

Sender: Unischeduler System <lcz@mgt01>
Subject: Job 134143: <#!/bin/bash
#BSUB -J intel
#BSUB -o BH-5.8-CCSD_T-O.out
#BSUB -n 1
#BSUB -q cqueue
export LD_LIBRARY_PATH=/apps/software/openmpi-4.1.1/lib:/apps/software/orca_5_0_0:$LD_LIBRARY_PATH
export PATH=/apps/software/openmpi-4.1.1/bin:/apps/software/orca_5_0_0:$PATH
mkdir /scratch/BH-5.8-CCSD_T-O_496
scp $USER@mgt01:/apps/users/lcz/exe13/CCSD_T/BH-5.8-CCSD_T-O.inp /scratch/BH-5.8-CCSD_T-O_496
/apps/software/orca_5_0_0/orca /scratch/BH-5.8-CCSD_T-O_496/BH-5.8-CCSD_T-O.inp >& BH-5.8-CCSD_T-O.out
scp /scratch/BH-5.8-CCSD_T-O_496/*.gbw $USER@mgt01:/apps/users/lcz/exe13/CCSD_T
scp /scratch/BH-5.8-CCSD_T-O_496/*.xyz $USER@mgt01:/apps/users/lcz/exe13/CCSD_T
scp /scratch/BH-5.8-CCSD_T-O_496/*.trj $USER@mgt01:/apps/users/lcz/exe13/CCSD_T> Exited

Job <#!/bin/bash
#BSUB -J intel
#BSUB -o BH-5.8-CCSD_T-O.out
#BSUB -n 1
#BSUB -q cqueue
export LD_LIBRARY_PATH=/apps/software/openmpi-4.1.1/lib:/apps/software/orca_5_0_0:$LD_LIBRARY_PATH
export PATH=/apps/software/openmpi-4.1.1/bin:/apps/software/orca_5_0_0:$PATH
mkdir /scratch/BH-5.8-CCSD_T-O_496
scp $USER@mgt01:/apps/users/lcz/exe13/CCSD_T/BH-5.8-CCSD_T-O.inp /scratch/BH-5.8-CCSD_T-O_496
/apps/software/orca_5_0_0/orca /scratch/BH-5.8-CCSD_T-O_496/BH-5.8-CCSD_T-O.inp >& BH-5.8-CCSD_T-O.out
scp /scratch/BH-5.8-CCSD_T-O_496/*.gbw $USER@mgt01:/apps/users/lcz/exe13/CCSD_T
scp /scratch/BH-5.8-CCSD_T-O_496/*.xyz $USER@mgt01:/apps/users/lcz/exe13/CCSD_T
scp /scratch/BH-5.8-CCSD_T-O_496/*.trj $USER@mgt01:/apps/users/lcz/exe13/CCSD_T> was submitted from host <mgt01> by user <lcz>.
Job was executed on host(s) <1*cnode01>, in queue <cqueue>, as user <lcz>.
</apps/users/lcz> was used as the home directory.
</apps/users/lcz/exe13/CCSD_T> was used as the working directory.
Started at 2022-05-22 16:50:55
Results reported at 2022-05-22 16:52:22

Your job looked like:

------------------------------------------------------------
# User input
#!/bin/bash
#BSUB -J intel
#BSUB -o BH-5.8-CCSD_T-O.out
#BSUB -n 1
#BSUB -q cqueue
export LD_LIBRARY_PATH=/apps/software/openmpi-4.1.1/lib:/apps/software/orca_5_0_0:$LD_LIBRARY_PATH
export PATH=/apps/software/openmpi-4.1.1/bin:/apps/software/orca_5_0_0:$PATH
mkdir /scratch/BH-5.8-CCSD_T-O_496
scp $USER@mgt01:/apps/users/lcz/exe13/CCSD_T/BH-5.8-CCSD_T-O.inp /scratch/BH-5.8-CCSD_T-O_496
/apps/software/orca_5_0_0/orca /scratch/BH-5.8-CCSD_T-O_496/BH-5.8-CCSD_T-O.inp >& BH-5.8-CCSD_T-O.out
scp /scratch/BH-5.8-CCSD_T-O_496/*.gbw $USER@mgt01:/apps/users/lcz/exe13/CCSD_T
scp /scratch/BH-5.8-CCSD_T-O_496/*.xyz $USER@mgt01:/apps/users/lcz/exe13/CCSD_T
scp /scratch/BH-5.8-CCSD_T-O_496/*.trj $USER@mgt01:/apps/users/lcz/exe13/CCSD_T
------------------------------------------------------------

Exited with exit code 1.

Resource usage summary:

    CPU time   :           33.51 sec.
    Max Memory :               490 MB
    Max Processes  :               5


The output (if any) follows:

/scratch/BH-5.8-CCSD_T-O_496/*.xyz: No such file or directory
/scratch/BH-5.8-CCSD_T-O_496/*.trj: No such file or directory
