 Entering Gaussian System, Link 0=/apps/software/g16/g16
 Initial command:
 /apps/software/g16/l1.exe "/scratch/Gau-196318.inp" -scrdir="/scratch/"
 Entering Link 1 = /apps/software/g16/l1.exe PID=    196319.
  
 Copyright (c) 1988,1990,1992,1993,1995,1998,2003,2009,2016,
            Gaussian, Inc.  All Rights Reserved.
  
 This is part of the Gaussian(R) 16 program.  It is based on
 the Gaussian(R) 09 system (copyright 2009, Gaussian, Inc.),
 the Gaussian(R) 03 system (copyright 2003, Gaussian, Inc.),
 the Gaussian(R) 98 system (copyright 1998, Gaussian, Inc.),
 the Gaussian(R) 94 system (copyright 1995, Gaussian, Inc.),
 the Gaussian 92(TM) system (copyright 1992, Gaussian, Inc.),
 the Gaussian 90(TM) system (copyright 1990, Gaussian, Inc.),
 the Gaussian 88(TM) system (copyright 1988, Gaussian, Inc.),
 the Gaussian 86(TM) system (copyright 1986, Carnegie Mellon
 University), and the Gaussian 82(TM) system (copyright 1983,
 Carnegie Mellon University). Gaussian is a federally registered
 trademark of Gaussian, Inc.
  
 This software contains proprietary and confidential information,
 including trade secrets, belonging to Gaussian, Inc.
  
 This software is provided under written license and may be
 used, copied, transmitted, or stored only in accord with that
 written license.
  
 The following legend is applicable only to US Government
 contracts under FAR:
  
                    RESTRICTED RIGHTS LEGEND
  
 Use, reproduction and disclosure by the US Government is
 subject to restrictions as set forth in subparagraphs (a)
 and (c) of the Commercial Computer Software - Restricted
 Rights clause in FAR 52.227-19.
  
 Gaussian, Inc.
 340 Quinnipiac St., Bldg. 40, Wallingford CT 06492
  
  
 ---------------------------------------------------------------
 Warning -- This program may not be used in any manner that
 competes with the business of Gaussian, Inc. or will provide
 assistance to any competitor of Gaussian, Inc.  The licensee
 of this program is prohibited from giving any competitor of
 Gaussian, Inc. access to this program.  By using this program,
 the user acknowledges that Gaussian, Inc. is engaged in the
 business of creating and licensing software in the field of
 computational chemistry and represents and warrants to the
 licensee that it is not a competitor of Gaussian, Inc. and that
 it will not use this program in any manner prohibited above.
 ---------------------------------------------------------------
  

 Cite this work as:
 Gaussian 16, Revision A.03,
 M. J. Frisch, G. W. Trucks, H. B. Schlegel, G. E. Scuseria, 
 M. A. Robb, J. R. Cheeseman, G. Scalmani, V. Barone, 
 G. A. Petersson, H. Nakatsuji, X. Li, M. Caricato, A. V. Marenich, 
 J. Bloino, B. G. Janesko, R. Gomperts, B. Mennucci, H. P. Hratchian, 
 J. V. Ortiz, A. F. Izmaylov, J. L. Sonnenberg, D. Williams-Young, 
 F. Ding, F. Lipparini, F. Egidi, J. Goings, B. Peng, A. Petrone, 
 T. Henderson, D. Ranasinghe, V. G. Zakrzewski, J. Gao, N. Rega, 
 G. Zheng, W. Liang, M. Hada, M. Ehara, K. Toyota, R. Fukuda, 
 J. Hasegawa, M. Ishida, T. Nakajima, Y. Honda, O. Kitao, H. Nakai, 
 T. Vreven, K. Throssell, J. A. Montgomery, Jr., J. E. Peralta, 
 F. Ogliaro, M. J. Bearpark, J. J. Heyd, E. N. Brothers, K. N. Kudin, 
 V. N. Staroverov, T. A. Keith, R. Kobayashi, J. Normand, 
 K. Raghavachari, A. P. Rendell, J. C. Burant, S. S. Iyengar, 
 J. Tomasi, M. Cossi, J. M. Millam, M. Klene, C. Adamo, R. Cammi, 
 J. W. Ochterski, R. L. Martin, K. Morokuma, O. Farkas, 
 J. B. Foresman, and D. J. Fox, Gaussian, Inc., Wallingford CT, 2016.
 
 ******************************************
 Gaussian 16:  ES64L-G16RevA.03 25-Dec-2016
                 4-May-2022 
 ******************************************
 %nproc=8
 Will use up to    8 processors via shared memory.
 %mem=20GB
 %chk=38-dicl-dibenzene.chk
 --------------
 #p RHF/cc-pVTZ
 --------------
 1/38=1,172=1/1;
 2/12=2,17=6,18=5,40=1/2;
 3/5=16,6=1,11=1,25=1,30=1,116=1/1,2,3;
 4//1;
 5/5=2,38=5/2;
 6/7=2,8=2,9=2,10=2,28=1/1;
 99/5=1,9=1/99;
 Leave Link    1 at Wed May  4 14:48:30 2022, MaxMem=  2684354560 cpu:               0.1 elap:               0.0
 (Enter /apps/software/g16/l101.exe)
 ---------------------------------
 3,8-dicl-dibenzene SP RHF cc-pVTZ
 ---------------------------------
 Symbolic Z-matrix:
 Charge =  0 Multiplicity = 1
 C                    -2.5816    0.85828   0.0008 
 C                    -1.19423   0.86536   0.00098 
 C                    -0.48185   2.06241   0.00027 
 C                    -1.19416   3.2595   -0.00063 
 C                    -2.58153   3.26666  -0.00082 
 C                    -3.26679   2.06249   0.00011 
 H                    -3.1277   -0.07395   0.00131 
 H                    -0.65978  -0.07536   0.00163 
 H                    -0.65966   4.20019  -0.00124 
 H                    -3.12758   4.19892  -0.00156 
 C                     1.01726   2.06237   0.00078 
 C                     1.72979   2.06155  -1.19628 
 C                     1.7294    2.06316   1.19791 
 C                     3.11713   2.0615   -1.20322 
 H                     1.19531   2.06093  -2.13698 
 C                     3.11678   2.06312   1.20519 
 H                     1.19469   2.0638    2.13849 
 C                     3.80213   2.06229   0.00112 
 H                     3.66351   2.06086  -2.13529 
 H                     3.66288   2.06373   2.13744 
 Cl                   -5.00747   2.06254  -0.00044 
 Cl                    5.54285   2.06225   0.00137 
 
 ITRead=  0  0  0  0  0  0  0  0  0  0  0  0  0  0  0  0  0  0  0  0
 ITRead=  0  0
 MicOpt= -1 -1 -1 -1 -1 -1 -1 -1 -1 -1 -1 -1 -1 -1 -1 -1 -1 -1 -1 -1
 MicOpt= -1 -1
 NAtoms=     22 NQM=       22 NQMF=       0 NMMI=      0 NMMIF=      0
                NMic=       0 NMicF=      0.
                    Isotopes and Nuclear Properties:
 (Nuclear quadrupole moments (NQMom) in fm**2, nuclear magnetic moments (NMagM)
  in nuclear magnetons)

  Atom         1           2           3           4           5           6           7           8           9          10
 IAtWgt=          12          12          12          12          12          12           1           1           1           1
 AtmWgt=  12.0000000  12.0000000  12.0000000  12.0000000  12.0000000  12.0000000   1.0078250   1.0078250   1.0078250   1.0078250
 NucSpn=           0           0           0           0           0           0           1           1           1           1
 AtZEff=  -0.0000000  -0.0000000  -0.0000000  -0.0000000  -0.0000000  -0.0000000  -0.0000000  -0.0000000  -0.0000000  -0.0000000
 NQMom=    0.0000000   0.0000000   0.0000000   0.0000000   0.0000000   0.0000000   0.0000000   0.0000000   0.0000000   0.0000000
 NMagM=    0.0000000   0.0000000   0.0000000   0.0000000   0.0000000   0.0000000   2.7928460   2.7928460   2.7928460   2.7928460
 AtZNuc=   6.0000000   6.0000000   6.0000000   6.0000000   6.0000000   6.0000000   1.0000000   1.0000000   1.0000000   1.0000000

  Atom        11          12          13          14          15          16          17          18          19          20
 IAtWgt=          12          12          12          12           1          12           1          12           1           1
 AtmWgt=  12.0000000  12.0000000  12.0000000  12.0000000   1.0078250  12.0000000   1.0078250  12.0000000   1.0078250   1.0078250
 NucSpn=           0           0           0           0           1           0           1           0           1           1
 AtZEff=  -0.0000000  -0.0000000  -0.0000000  -0.0000000  -0.0000000  -0.0000000  -0.0000000  -0.0000000  -0.0000000  -0.0000000
 NQMom=    0.0000000   0.0000000   0.0000000   0.0000000   0.0000000   0.0000000   0.0000000   0.0000000   0.0000000   0.0000000
 NMagM=    0.0000000   0.0000000   0.0000000   0.0000000   2.7928460   0.0000000   2.7928460   0.0000000   2.7928460   2.7928460
 AtZNuc=   6.0000000   6.0000000   6.0000000   6.0000000   1.0000000   6.0000000   1.0000000   6.0000000   1.0000000   1.0000000

  Atom        21          22
 IAtWgt=          35          35
 AtmWgt=  34.9688527  34.9688527
 NucSpn=           3           3
 AtZEff=  -0.0000000  -0.0000000
 NQMom=   -8.1650000  -8.1650000
 NMagM=    0.8218740   0.8218740
 AtZNuc=  17.0000000  17.0000000
 Leave Link  101 at Wed May  4 14:48:30 2022, MaxMem=  2684354560 cpu:               0.6 elap:               0.1
 (Enter /apps/software/g16/l202.exe)
                          Input orientation:                          
 ---------------------------------------------------------------------
 Center     Atomic      Atomic             Coordinates (Angstroms)
 Number     Number       Type             X           Y           Z
 ---------------------------------------------------------------------
      1          6           0       -2.581601    0.858283    0.000802
      2          6           0       -1.194231    0.865363    0.000981
      3          6           0       -0.481848    2.062412    0.000270
      4          6           0       -1.194164    3.259501   -0.000628
      5          6           0       -2.581534    3.266657   -0.000817
      6          6           0       -3.266785    2.062489    0.000110
      7          1           0       -3.127702   -0.073954    0.001307
      8          1           0       -0.659775   -0.075357    0.001630
      9          1           0       -0.659656    4.200191   -0.001243
     10          1           0       -3.127583    4.198924   -0.001565
     11          6           0        1.017257    2.062371    0.000782
     12          6           0        1.729794    2.061546   -1.196277
     13          6           0        1.729396    2.063156    1.197914
     14          6           0        3.117125    2.061502   -1.203218
     15          1           0        1.195309    2.060928   -2.136977
     16          6           0        3.116784    2.063122    1.205193
     17          1           0        1.194686    2.063803    2.138491
     18          6           0        3.802130    2.062293    0.001122
     19          1           0        3.663511    2.060860   -2.135287
     20          1           0        3.662877    2.063734    2.137437
     21         17           0       -5.007471    2.062537   -0.000438
     22         17           0        5.542849    2.062245    0.001369
 ---------------------------------------------------------------------
                    Distance matrix (angstroms):
                    1          2          3          4          5
     1  C    0.000000
     2  C    1.387388   0.000000
     3  C    2.420514   1.392988   0.000000
     4  C    2.773234   2.394138   1.392988   0.000000
     5  C    2.408374   2.773234   2.420514   1.387388   0.000000
     6  C    1.385493   2.393448   2.784937   2.393448   1.385493
     7  H    1.080413   2.149564   3.400677   3.853634   3.384965
     8  H    2.136609   1.081942   2.145161   3.377404   3.855155
     9  H    3.855155   3.377404   2.145161   1.081942   2.136609
    10  H    3.384965   3.853634   3.400677   2.149564   1.080413
    11  C    3.794944   2.514658   1.499105   2.514658   3.794944
    12  C    4.633462   3.378491   2.514575   3.378492   4.633462
    13  C    4.633518   3.378602   2.514747   3.378602   4.633518
    14  C    5.947510   4.633426   3.794864   4.633426   5.947511
    15  H    4.503499   3.422008   2.716741   3.422009   4.503500
    16  C    5.947586   4.633530   3.794996   4.633530   5.947586
    17  H    4.503703   3.422300   2.717123   3.422299   4.503702
    18  C    6.496281   5.137730   4.283979   5.137730   6.496281
    19  H    6.708986   5.439716   4.663112   5.439717   6.708987
    20  H    6.709085   5.439856   4.663285   5.439855   6.709084
    21  Cl   2.708335   3.996753   4.525623   3.996753   2.708335
    22  Cl   8.213173   6.842570   6.024697   6.842570   8.213173
                    6          7          8          9         10
     6  C    0.000000
     7  H    2.140966   0.000000
     8  H    3.371482   2.467927   0.000000
     9  H    3.371482   4.935542   4.275549   0.000000
    10  H    2.140966   4.272879   4.935542   2.467927   0.000000
    11  C    4.284042   4.663107   2.717042   2.717042   4.663107
    12  C    5.137816   5.439654   3.422190   3.422190   5.439655
    13  C    5.137758   5.439716   3.422349   3.422348   5.439715
    14  C    6.496331   6.708869   4.503644   4.503644   6.708870
    15  H    4.947467   5.274316   3.546646   3.546647   5.274317
    16  C    6.496320   6.708952   4.503783   4.503782   6.708952
    17  H    4.947464   5.274524   3.547000   3.546999   5.274523
    18  C    7.068915   7.251630   4.947540   4.947540   7.251630
    19  H    7.251823   7.432567   5.274529   5.274530   7.432567
    20  H    7.251784   7.432679   5.274723   5.274722   7.432679
    21  Cl   1.740686   2.845721   4.844900   4.844900   2.845721
    22  Cl   8.809634   8.929827   6.560632   6.560632   8.929827
                   11         12         13         14         15
    11  C    0.000000
    12  C    1.393076   0.000000
    13  C    1.392935   2.394192   0.000000
    14  C    2.420550   1.387348   2.773307   0.000000
    15  H    2.145161   1.081938   3.377388   2.136652   0.000000
    16  C    2.420459   2.773230   1.387407   2.408411   3.855148
    17  H    2.145061   3.377429   1.081943   3.855230   4.275469
    18  C    2.784874   2.393396   2.393437   1.385521   3.371496
    19  H    3.400803   2.149652   3.853705   1.080413   2.468203
    20  H    3.400677   3.853630   2.149663   3.384940   4.935535
    21  Cl   6.024728   6.842571   6.842619   8.213145   6.560434
    22  Cl   4.525592   3.996716   3.996767   2.708351   4.844959
                   16         17         18         19         20
    16  C    0.000000
    17  H    2.136705   0.000000
    18  C    1.385455   3.371515   0.000000
    19  H    3.384926   4.935615   2.140903   0.000000
    20  H    1.080415   2.468191   2.140849   4.272725   0.000000
    21  Cl   8.213225   6.560623   8.809602   8.929923   8.930030
    22  Cl   2.708318   4.844979   1.740719   2.845560   2.845538
                   21         22
    21  Cl   0.000000
    22  Cl  10.550320   0.000000
 This structure is nearly, but not quite of a higher symmetry.
 Consider Symm=Loose if the higher symmetry is desired.
 Stoichiometry    C12H8Cl2
 Framework group  C1[X(C12H8Cl2)]
 Deg. of freedom    60
 Full point group                 C1      NOp   1
 Largest Abelian subgroup         C1      NOp   1
 Largest concise Abelian subgroup C1      NOp   1
                         Standard orientation:                         
 ---------------------------------------------------------------------
 Center     Atomic      Atomic             Coordinates (Angstroms)
 Number     Number       Type             X           Y           Z
 ---------------------------------------------------------------------
      1          6           0        2.730812   -0.022491    1.452760
      2          6           0        1.349615   -0.011465    1.322312
      3          6           0        0.746550   -0.005826    0.066646
      4          6           0        1.562496   -0.011510   -1.062343
      5          6           0        2.944960   -0.022535   -0.946075
      6          6           0        3.520366   -0.028168    0.314268
      7          1           0        3.191814   -0.026765    2.429874
      8          1           0        0.733622   -0.007147    2.211768
      9          1           0        1.113794   -0.007226   -2.046846
     10          1           0        3.571749   -0.026843   -1.826081
     11          6           0       -0.746572    0.005775   -0.066648
     12          6           0       -1.446629    1.208552   -0.129164
     13          6           0       -1.465504   -1.185565   -0.130806
     14          6           0       -2.828364    1.226701   -0.252514
     15          1           0       -0.906707    2.144903   -0.080981
     16          6           0       -2.847410   -1.181634   -0.254171
     17          1           0       -0.940500   -2.130432   -0.083921
     18          6           0       -3.520327    0.027935   -0.314265
     19          1           0       -3.365065    2.163155   -0.300443
     20          1           0       -3.398825   -2.109435   -0.303380
     21         17           0        5.254105   -0.041683    0.469042
     22         17           0       -5.254096    0.041753   -0.469041
 ---------------------------------------------------------------------
 Rotational constants (GHZ):           2.8843971           0.1749147           0.1749146
 Leave Link  202 at Wed May  4 14:48:30 2022, MaxMem=  2684354560 cpu:               0.1 elap:               0.0
 (Enter /apps/software/g16/l301.exe)
 Standard basis: CC-pVTZ (5D, 7F)
 Ernie: Thresh=  0.10000D-02 Tol=  0.10000D-05 Strict=F.
 Ernie:  62 primitive shells out of 496 were deleted.
 There are   618 symmetry adapted cartesian basis functions of A   symmetry.
 There are   540 symmetry adapted basis functions of A   symmetry.
   540 basis functions,   948 primitive gaussians,   618 cartesian basis functions
    57 alpha electrons       57 beta electrons
       nuclear repulsion energy       927.5445036572 Hartrees.
 IExCor=    0 DFT=F Ex=HF Corr=None ExCW=0 ScaHFX=  1.000000
 ScaDFX=  1.000000  1.000000  1.000000  1.000000 ScalE2=  1.000000  1.000000
 IRadAn=      5 IRanWt=     -1 IRanGd=            0 ICorTp=0 IEmpDi=  4
 NAtoms=   22 NActive=   22 NUniq=   22 SFac= 1.00D+00 NAtFMM=   60 NAOKFM=F Big=F
 Integral buffers will be    131072 words long.
 Raffenetti 1 integral format.
 Two-electron integral symmetry is turned on.
 Leave Link  301 at Wed May  4 14:48:30 2022, MaxMem=  2684354560 cpu:               0.4 elap:               0.1
 (Enter /apps/software/g16/l302.exe)
 NPDir=0 NMtPBC=     1 NCelOv=     1 NCel=       1 NClECP=     1 NCelD=      1
         NCelK=      1 NCelE2=     1 NClLst=     1 CellRange=     0.0.
 One-electron integrals computed using PRISM.
 One-electron integral symmetry used in STVInt
 NBasis=   540 RedAO= T EigKep=  3.05D-05  NBF=   540
 NBsUse=   540 1.00D-06 EigRej= -1.00D+00 NBFU=   540
 Leave Link  302 at Wed May  4 14:48:31 2022, MaxMem=  2684354560 cpu:               2.5 elap:               0.3
 (Enter /apps/software/g16/l303.exe)
 DipDrv:  MaxL=1.
 Leave Link  303 at Wed May  4 14:48:31 2022, MaxMem=  2684354560 cpu:               0.5 elap:               0.1
 (Enter /apps/software/g16/l401.exe)
 ExpMin= 1.03D-01 ExpMax= 4.56D+05 ExpMxC= 1.44D+03 IAcc=3 IRadAn=         5 AccDes= 0.00D+00
 Harris functional with IExCor=  205 and IRadAn=       5 diagonalized for initial guess.
 HarFok:  IExCor=  205 AccDes= 0.00D+00 IRadAn=         5 IDoV= 1 UseB2=F ITyADJ=14
 ICtDFT=  3500011 ScaDFX=  1.000000  1.000000  1.000000  1.000000
 FoFCou: FMM=F IPFlag=           0 FMFlag=      100000 FMFlg1=           0
         NFxFlg=           0 DoJE=T BraDBF=F KetDBF=T FulRan=T
         wScrn=  0.000000 ICntrl=       500 IOpCl=  0 I1Cent=   200000004 NGrid=           0
         NMat0=    1 NMatS0=      1 NMatT0=    0 NMatD0=    1 NMtDS0=    0 NMtDT0=    0
 Petite list used in FoFCou.
 Harris En= -1378.05208328548    
 JPrj=0 DoOrth=F DoCkMO=F.
 Leave Link  401 at Wed May  4 14:48:32 2022, MaxMem=  2684354560 cpu:               9.2 elap:               1.2
 (Enter /apps/software/g16/l502.exe)
 Integral symmetry usage will be decided dynamically.
 Closed shell SCF:
 Using DIIS extrapolation, IDIIS=  1040.
 NGot=  2684354560 LenX=  2683580518 LenY=  2683197976
 Requested convergence on RMS density matrix=1.00D-08 within 128 cycles.
 Requested convergence on MAX density matrix=1.00D-06.
 Requested convergence on             energy=1.00D-06.
 No special actions if energy rises.
 Fock matrices will be formed incrementally for  20 cycles.
 Integral accuracy reduced to 1.0D-05 until final iterations.

 Cycle   1  Pass 0  IDiag  1:
 FoFJK:  IHMeth= 1 ICntrl=       0 DoSepK=F KAlg= 0 I1Cent=           0 FoldK=F
 IRaf= 840000000 NMat=       1 IRICut=       1 DoRegI=T DoRafI=F ISym2E= 0 IDoP0=0 IntGTp=1.
 FoFCou: FMM=F IPFlag=           0 FMFlag=      100000 FMFlg1=           0
         NFxFlg=           0 DoJE=F BraDBF=F KetDBF=F FulRan=T
         wScrn=  0.000000 ICntrl=         0 IOpCl=  0 I1Cent=           0 NGrid=           0
         NMat0=    1 NMatS0=      1 NMatT0=    0 NMatD0=    1 NMtDS0=    0 NMtDT0=    0
 Symmetry not used in FoFCou.
 E= -1377.59267669172    
 DIIS: error= 5.37D-02 at cycle   1 NSaved=   1.
 NSaved= 1 IEnMin= 1 EnMin= -1377.59267669172     IErMin= 1 ErrMin= 5.37D-02
 ErrMax= 5.37D-02  0.00D+00 EMaxC= 1.00D-01 BMatC= 1.30D+00 BMatP= 1.30D+00
 IDIUse=3 WtCom= 4.63D-01 WtEn= 5.37D-01
 Coeff-Com:  0.100D+01
 Coeff-En:   0.100D+01
 Coeff:      0.100D+01
 Gap=     0.660 Goal=   None    Shift=    0.000
 GapD=    0.660 DampG=2.000 DampE=0.500 DampFc=1.0000 IDamp=-1.
 RMSDP=1.74D-03 MaxDP=6.88D-02              OVMax= 1.77D-01

 Cycle   2  Pass 0  IDiag  1:
 RMSU=  1.74D-03    CP:  9.92D-01
 E= -1378.13770108299     Delta-E=       -0.545024391266 Rises=F Damp=F
 DIIS: error= 2.20D-02 at cycle   2 NSaved=   2.
 NSaved= 2 IEnMin= 2 EnMin= -1378.13770108299     IErMin= 2 ErrMin= 2.20D-02
 ErrMax= 2.20D-02  0.00D+00 EMaxC= 1.00D-01 BMatC= 1.30D-01 BMatP= 1.30D+00
 IDIUse=3 WtCom= 7.80D-01 WtEn= 2.20D-01
 Coeff-Com:  0.156D+00 0.844D+00
 Coeff-En:   0.000D+00 0.100D+01
 Coeff:      0.122D+00 0.878D+00
 Gap=     0.555 Goal=   None    Shift=    0.000
 RMSDP=9.08D-04 MaxDP=2.54D-02 DE=-5.45D-01 OVMax= 8.16D-02

 Cycle   3  Pass 0  IDiag  1:
 RMSU=  6.79D-04    CP:  1.00D+00  6.58D-01
 E= -1378.24954144904     Delta-E=       -0.111840366051 Rises=F Damp=F
 DIIS: error= 7.31D-03 at cycle   3 NSaved=   3.
 NSaved= 3 IEnMin= 3 EnMin= -1378.24954144904     IErMin= 3 ErrMin= 7.31D-03
 ErrMax= 7.31D-03  0.00D+00 EMaxC= 1.00D-01 BMatC= 1.73D-02 BMatP= 1.30D-01
 IDIUse=3 WtCom= 9.27D-01 WtEn= 7.31D-02
 Coeff-Com: -0.240D-01 0.235D+00 0.789D+00
 Coeff-En:   0.000D+00 0.000D+00 0.100D+01
 Coeff:     -0.223D-01 0.218D+00 0.804D+00
 Gap=     0.445 Goal=   None    Shift=    0.000
 RMSDP=2.25D-04 MaxDP=8.80D-03 DE=-1.12D-01 OVMax= 3.75D-02

 Cycle   4  Pass 0  IDiag  1:
 RMSU=  1.31D-04    CP:  9.99D-01  7.53D-01  8.84D-01
 E= -1378.26743187762     Delta-E=       -0.017890428579 Rises=F Damp=F
 DIIS: error= 2.37D-03 at cycle   4 NSaved=   4.
 NSaved= 4 IEnMin= 4 EnMin= -1378.26743187762     IErMin= 4 ErrMin= 2.37D-03
 ErrMax= 2.37D-03  0.00D+00 EMaxC= 1.00D-01 BMatC= 5.93D-04 BMatP= 1.73D-02
 IDIUse=3 WtCom= 9.76D-01 WtEn= 2.37D-02
 Coeff-Com: -0.841D-02 0.387D-01 0.209D+00 0.761D+00
 Coeff-En:   0.000D+00 0.000D+00 0.000D+00 0.100D+01
 Coeff:     -0.821D-02 0.378D-01 0.204D+00 0.767D+00
 Gap=     0.432 Goal=   None    Shift=    0.000
 RMSDP=5.86D-05 MaxDP=1.88D-03 DE=-1.79D-02 OVMax= 8.62D-03

 Cycle   5  Pass 0  IDiag  1:
 RMSU=  3.88D-05    CP:  1.00D+00  7.42D-01  9.41D-01  9.54D-01
 E= -1378.26808428509     Delta-E=       -0.000652407468 Rises=F Damp=F
 DIIS: error= 5.51D-04 at cycle   5 NSaved=   5.
 NSaved= 5 IEnMin= 5 EnMin= -1378.26808428509     IErMin= 5 ErrMin= 5.51D-04
 ErrMax= 5.51D-04  0.00D+00 EMaxC= 1.00D-01 BMatC= 1.01D-04 BMatP= 5.93D-04
 IDIUse=3 WtCom= 9.94D-01 WtEn= 5.51D-03
 Coeff-Com:  0.819D-03-0.227D-01-0.469D-01 0.245D+00 0.824D+00
 Coeff-En:   0.000D+00 0.000D+00 0.000D+00 0.000D+00 0.100D+01
 Coeff:      0.814D-03-0.225D-01-0.466D-01 0.244D+00 0.824D+00
 Gap=     0.432 Goal=   None    Shift=    0.000
 RMSDP=3.02D-05 MaxDP=1.53D-03 DE=-6.52D-04 OVMax= 5.16D-03

 Cycle   6  Pass 0  IDiag  1:
 RMSU=  2.09D-05    CP:  1.00D+00  7.41D-01  9.59D-01  1.09D+00  1.03D+00
 E= -1378.26824335628     Delta-E=       -0.000159071194 Rises=F Damp=F
 DIIS: error= 3.18D-04 at cycle   6 NSaved=   6.
 NSaved= 6 IEnMin= 6 EnMin= -1378.26824335628     IErMin= 6 ErrMin= 3.18D-04
 ErrMax= 3.18D-04  0.00D+00 EMaxC= 1.00D-01 BMatC= 8.43D-06 BMatP= 1.01D-04
 IDIUse=3 WtCom= 9.97D-01 WtEn= 3.18D-03
 Coeff-Com:  0.886D-03-0.759D-02-0.259D-01-0.584D-01 0.976D-01 0.993D+00
 Coeff-En:   0.000D+00 0.000D+00 0.000D+00 0.000D+00 0.000D+00 0.100D+01
 Coeff:      0.884D-03-0.756D-02-0.258D-01-0.582D-01 0.973D-01 0.993D+00
 Gap=     0.432 Goal=   None    Shift=    0.000
 RMSDP=1.45D-05 MaxDP=8.49D-04 DE=-1.59D-04 OVMax= 1.41D-03

 Cycle   7  Pass 0  IDiag  1:
 RMSU=  6.11D-06    CP:  1.00D+00  7.40D-01  9.70D-01  1.12D+00  1.17D+00
                    CP:  1.37D+00
 E= -1378.26826408302     Delta-E=       -0.000020726743 Rises=F Damp=F
 DIIS: error= 1.40D-04 at cycle   7 NSaved=   7.
 NSaved= 7 IEnMin= 7 EnMin= -1378.26826408302     IErMin= 7 ErrMin= 1.40D-04
 ErrMax= 1.40D-04  0.00D+00 EMaxC= 1.00D-01 BMatC= 1.19D-06 BMatP= 8.43D-06
 IDIUse=3 WtCom= 9.99D-01 WtEn= 1.40D-03
 Coeff-Com: -0.999D-04 0.218D-02 0.641D-02-0.133D-01-0.628D-01-0.182D+00
 Coeff-Com:  0.125D+01
 Coeff-En:   0.000D+00 0.000D+00 0.000D+00 0.000D+00 0.000D+00 0.000D+00
 Coeff-En:   0.100D+01
 Coeff:     -0.998D-04 0.217D-02 0.640D-02-0.133D-01-0.628D-01-0.182D+00
 Coeff:      0.125D+01
 Gap=     0.432 Goal=   None    Shift=    0.000
 RMSDP=7.54D-06 MaxDP=3.79D-04 DE=-2.07D-05 OVMax= 1.19D-03

 Initial convergence to 1.0D-05 achieved.  Increase integral accuracy.
 Cycle   8  Pass 1  IDiag  1:
 E= -1378.26823211119     Delta-E=        0.000031971828 Rises=F Damp=F
 DIIS: error= 4.80D-04 at cycle   1 NSaved=   1.
 NSaved= 1 IEnMin= 1 EnMin= -1378.26823211119     IErMin= 1 ErrMin= 4.80D-04
 ErrMax= 4.80D-04  0.00D+00 EMaxC= 1.00D-01 BMatC= 1.55D-05 BMatP= 1.55D-05
 IDIUse=3 WtCom= 9.95D-01 WtEn= 4.80D-03
 Coeff-Com:  0.100D+01
 Coeff-En:   0.100D+01
 Coeff:      0.100D+01
 Gap=     0.432 Goal=   None    Shift=    0.000
 RMSDP=7.54D-06 MaxDP=3.79D-04 DE= 3.20D-05 OVMax= 7.43D-04

 Cycle   9  Pass 1  IDiag  1:
 RMSU=  4.74D-04    CP:  9.97D-01
 E= -1378.26824482766     Delta-E=       -0.000012716468 Rises=F Damp=F
 DIIS: error= 4.32D-05 at cycle   2 NSaved=   2.
 NSaved= 2 IEnMin= 2 EnMin= -1378.26824482766     IErMin= 2 ErrMin= 4.32D-05
 ErrMax= 4.32D-05  0.00D+00 EMaxC= 1.00D-01 BMatC= 1.84D-07 BMatP= 1.55D-05
 IDIUse=1 WtCom= 1.00D+00 WtEn= 0.00D+00
 Coeff-Com: -0.286D-01 0.103D+01
 Coeff:     -0.286D-01 0.103D+01
 Gap=     0.432 Goal=   None    Shift=    0.000
 RMSDP=2.15D-05 MaxDP=1.22D-03 DE=-1.27D-05 OVMax= 3.17D-04

 Cycle  10  Pass 1  IDiag  1:
 RMSU=  3.88D-06    CP:  9.97D-01  1.04D+00
 E= -1378.26824545981     Delta-E=       -0.000000632149 Rises=F Damp=F
 DIIS: error= 3.91D-05 at cycle   3 NSaved=   3.
 NSaved= 3 IEnMin= 3 EnMin= -1378.26824545981     IErMin= 3 ErrMin= 3.91D-05
 ErrMax= 3.91D-05  0.00D+00 EMaxC= 1.00D-01 BMatC= 9.19D-08 BMatP= 1.84D-07
 IDIUse=1 WtCom= 1.00D+00 WtEn= 0.00D+00
 Coeff-Com: -0.153D-01 0.266D+00 0.750D+00
 Coeff:     -0.153D-01 0.266D+00 0.750D+00
 Gap=     0.432 Goal=   None    Shift=    0.000
 RMSDP=7.97D-07 MaxDP=3.03D-05 DE=-6.32D-07 OVMax= 1.53D-04

 Cycle  11  Pass 1  IDiag  1:
 RMSU=  5.19D-07    CP:  9.97D-01  1.05D+00  1.07D+00
 E= -1378.26824568049     Delta-E=       -0.000000220680 Rises=F Damp=F
 DIIS: error= 2.09D-05 at cycle   4 NSaved=   4.
 NSaved= 4 IEnMin= 4 EnMin= -1378.26824568049     IErMin= 4 ErrMin= 2.09D-05
 ErrMax= 2.09D-05  0.00D+00 EMaxC= 1.00D-01 BMatC= 3.33D-08 BMatP= 9.19D-08
 IDIUse=1 WtCom= 1.00D+00 WtEn= 0.00D+00
 Coeff-Com:  0.201D-01-0.679D+00-0.371D+00 0.203D+01
 Coeff:      0.201D-01-0.679D+00-0.371D+00 0.203D+01
 Gap=     0.432 Goal=   None    Shift=    0.000
 RMSDP=1.35D-06 MaxDP=6.49D-05 DE=-2.21D-07 OVMax= 3.44D-04

 Cycle  12  Pass 1  IDiag  1:
 RMSU=  6.88D-07    CP:  9.97D-01  1.05D+00  1.23D+00  2.79D+00
 E= -1378.26824592491     Delta-E=       -0.000000244423 Rises=F Damp=F
 DIIS: error= 8.40D-06 at cycle   5 NSaved=   5.
 NSaved= 5 IEnMin= 5 EnMin= -1378.26824592491     IErMin= 5 ErrMin= 8.40D-06
 ErrMax= 8.40D-06  0.00D+00 EMaxC= 1.00D-01 BMatC= 3.28D-09 BMatP= 3.33D-08
 IDIUse=1 WtCom= 1.00D+00 WtEn= 0.00D+00
 Coeff-Com:  0.865D-02-0.268D+00-0.213D+00 0.732D+00 0.740D+00
 Coeff:      0.865D-02-0.268D+00-0.213D+00 0.732D+00 0.740D+00
 Gap=     0.432 Goal=   None    Shift=    0.000
 RMSDP=2.83D-07 MaxDP=1.06D-05 DE=-2.44D-07 OVMax= 6.06D-05

 Cycle  13  Pass 1  IDiag  1:
 RMSU=  1.28D-07    CP:  9.97D-01  1.05D+00  1.23D+00  3.00D+00  1.10D+00
 E= -1378.26824593259     Delta-E=       -0.000000007681 Rises=F Damp=F
 DIIS: error= 8.32D-07 at cycle   6 NSaved=   6.
 NSaved= 6 IEnMin= 6 EnMin= -1378.26824593259     IErMin= 6 ErrMin= 8.32D-07
 ErrMax= 8.32D-07  0.00D+00 EMaxC= 1.00D-01 BMatC= 1.98D-10 BMatP= 3.28D-09
 IDIUse=1 WtCom= 1.00D+00 WtEn= 0.00D+00
 Coeff-Com: -0.864D-03 0.335D-01 0.140D-01-0.121D+00 0.152D+00 0.923D+00
 Coeff:     -0.864D-03 0.335D-01 0.140D-01-0.121D+00 0.152D+00 0.923D+00
 Gap=     0.432 Goal=   None    Shift=    0.000
 RMSDP=1.58D-07 MaxDP=7.62D-06 DE=-7.68D-09 OVMax= 9.89D-06

 Cycle  14  Pass 1  IDiag  1:
 RMSU=  4.71D-08    CP:  9.97D-01  1.05D+00  1.21D+00  3.00D+00  1.14D+00
                    CP:  1.25D+00
 E= -1378.26824593298     Delta-E=       -0.000000000387 Rises=F Damp=F
 DIIS: error= 1.78D-07 at cycle   7 NSaved=   7.
 NSaved= 7 IEnMin= 7 EnMin= -1378.26824593298     IErMin= 7 ErrMin= 1.78D-07
 ErrMax= 1.78D-07  0.00D+00 EMaxC= 1.00D-01 BMatC= 1.17D-11 BMatP= 1.98D-10
 IDIUse=1 WtCom= 1.00D+00 WtEn= 0.00D+00
 Coeff-Com: -0.233D-03 0.645D-02 0.115D-01-0.278D-01-0.433D-01-0.836D-01
 Coeff-Com:  0.114D+01
 Coeff:     -0.233D-03 0.645D-02 0.115D-01-0.278D-01-0.433D-01-0.836D-01
 Coeff:      0.114D+01
 Gap=     0.432 Goal=   None    Shift=    0.000
 RMSDP=1.48D-08 MaxDP=7.16D-07 DE=-3.87D-10 OVMax= 2.86D-06

 Cycle  15  Pass 1  IDiag  1:
 RMSU=  9.42D-09    CP:  9.97D-01  1.05D+00  1.21D+00  3.00D+00  1.15D+00
                    CP:  1.31D+00  1.13D+00
 E= -1378.26824593301     Delta-E=       -0.000000000032 Rises=F Damp=F
 DIIS: error= 7.16D-08 at cycle   8 NSaved=   8.
 NSaved= 8 IEnMin= 8 EnMin= -1378.26824593301     IErMin= 8 ErrMin= 7.16D-08
 ErrMax= 7.16D-08  0.00D+00 EMaxC= 1.00D-01 BMatC= 1.99D-12 BMatP= 1.17D-11
 IDIUse=1 WtCom= 1.00D+00 WtEn= 0.00D+00
 Coeff-Com:  0.140D-03-0.578D-02 0.153D-02 0.200D-01-0.343D-01-0.189D+00
 Coeff-Com:  0.141D+00 0.107D+01
 Coeff:      0.140D-03-0.578D-02 0.153D-02 0.200D-01-0.343D-01-0.189D+00
 Coeff:      0.141D+00 0.107D+01
 Gap=     0.432 Goal=   None    Shift=    0.000
 RMSDP=8.30D-09 MaxDP=5.42D-07 DE=-3.23D-11 OVMax= 9.07D-07

 SCF Done:  E(RHF) =  -1378.26824593     A.U. after   15 cycles
            NFock= 15  Conv=0.83D-08     -V/T= 2.0004
 KE= 1.377770230184D+03 PE=-5.112358478183D+03 EE= 1.428775498408D+03
 Leave Link  502 at Wed May  4 14:50:51 2022, MaxMem=  2684354560 cpu:            1106.7 elap:             138.7
 (Enter /apps/software/g16/l601.exe)
 Copying SCF densities to generalized density rwf, IOpCl= 0 IROHF=0.

 **********************************************************************

            Population analysis using the SCF density.

 **********************************************************************

 Orbital symmetries:
       Occupied  (A) (A) (A) (A) (A) (A) (A) (A) (A) (A) (A) (A)
                 (A) (A) (A) (A) (A) (A) (A) (A) (A) (A) (A) (A)
                 (A) (A) (A) (A) (A) (A) (A) (A) (A) (A) (A) (A)
                 (A) (A) (A) (A) (A) (A) (A) (A) (A) (A) (A) (A)
                 (A) (A) (A) (A) (A) (A) (A) (A) (A)
       Virtual   (A) (A) (A) (A) (A) (A) (A) (A) (A) (A) (A) (A)
                 (A) (A) (A) (A) (A) (A) (A) (A) (A) (A) (A) (A)
                 (A) (A) (A) (A) (A) (A) (A) (A) (A) (A) (A) (A)
                 (A) (A) (A) (A) (A) (A) (A) (A) (A) (A) (A) (A)
                 (A) (A) (A) (A) (A) (A) (A) (A) (A) (A) (A) (A)
                 (A) (A) (A) (A) (A) (A) (A) (A) (A) (A) (A) (A)
                 (A) (A) (A) (A) (A) (A) (A) (A) (A) (A) (A) (A)
                 (A) (A) (A) (A) (A) (A) (A) (A) (A) (A) (A) (A)
                 (A) (A) (A) (A) (A) (A) (A) (A) (A) (A) (A) (A)
                 (A) (A) (A) (A) (A) (A) (A) (A) (A) (A) (A) (A)
                 (A) (A) (A) (A) (A) (A) (A) (A) (A) (A) (A) (A)
                 (A) (A) (A) (A) (A) (A) (A) (A) (A) (A) (A) (A)
                 (A) (A) (A) (A) (A) (A) (A) (A) (A) (A) (A) (A)
                 (A) (A) (A) (A) (A) (A) (A) (A) (A) (A) (A) (A)
                 (A) (A) (A) (A) (A) (A) (A) (A) (A) (A) (A) (A)
                 (A) (A) (A) (A) (A) (A) (A) (A) (A) (A) (A) (A)
                 (A) (A) (A) (A) (A) (A) (A) (A) (A) (A) (A) (A)
                 (A) (A) (A) (A) (A) (A) (A) (A) (A) (A) (A) (A)
                 (A) (A) (A) (A) (A) (A) (A) (A) (A) (A) (A) (A)
                 (A) (A) (A) (A) (A) (A) (A) (A) (A) (A) (A) (A)
                 (A) (A) (A) (A) (A) (A) (A) (A) (A) (A) (A) (A)
                 (A) (A) (A) (A) (A) (A) (A) (A) (A) (A) (A) (A)
                 (A) (A) (A) (A) (A) (A) (A) (A) (A) (A) (A) (A)
                 (A) (A) (A) (A) (A) (A) (A) (A) (A) (A) (A) (A)
                 (A) (A) (A) (A) (A) (A) (A) (A) (A) (A) (A) (A)
                 (A) (A) (A) (A) (A) (A) (A) (A) (A) (A) (A) (A)
                 (A) (A) (A) (A) (A) (A) (A) (A) (A) (A) (A) (A)
                 (A) (A) (A) (A) (A) (A) (A) (A) (A) (A) (A) (A)
                 (A) (A) (A) (A) (A) (A) (A) (A) (A) (A) (A) (A)
                 (A) (A) (A) (A) (A) (A) (A) (A) (A) (A) (A) (A)
                 (A) (A) (A) (A) (A) (A) (A) (A) (A) (A) (A) (A)
                 (A) (A) (A) (A) (A) (A) (A) (A) (A) (A) (A) (A)
                 (A) (A) (A) (A) (A) (A) (A) (A) (A) (A) (A) (A)
                 (A) (A) (A) (A) (A) (A) (A) (A) (A) (A) (A) (A)
                 (A) (A) (A) (A) (A) (A) (A) (A) (A) (A) (A) (A)
                 (A) (A) (A) (A) (A) (A) (A) (A) (A) (A) (A) (A)
                 (A) (A) (A) (A) (A) (A) (A) (A) (A) (A) (A) (A)
                 (A) (A) (A) (A) (A) (A) (A) (A) (A) (A) (A) (A)
                 (A) (A) (A) (A) (A) (A) (A) (A) (A) (A) (A) (A)
                 (A) (A) (A) (A) (A) (A) (A) (A) (A) (A) (A) (A)
                 (A) (A) (A)
 The electronic state is 1-A.
 Alpha  occ. eigenvalues -- -104.84172-104.84172 -11.30646 -11.30645 -11.25991
 Alpha  occ. eigenvalues --  -11.25923 -11.25323 -11.25323 -11.25318 -11.25317
 Alpha  occ. eigenvalues --  -11.25147 -11.25147 -11.25140 -11.25139 -10.56677
 Alpha  occ. eigenvalues --  -10.56676  -8.03366  -8.03365  -8.03176  -8.03176
 Alpha  occ. eigenvalues --   -8.03174  -8.03173  -1.20447  -1.19365  -1.14343
 Alpha  occ. eigenvalues --   -1.11394  -1.03830  -1.03829  -1.03517  -0.97288
 Alpha  occ. eigenvalues --   -0.85458  -0.85457  -0.84525  -0.80128  -0.72885
 Alpha  occ. eigenvalues --   -0.67458  -0.66138  -0.66138  -0.65248  -0.63911
 Alpha  occ. eigenvalues --   -0.60737  -0.60736  -0.58743  -0.55062  -0.55062
 Alpha  occ. eigenvalues --   -0.54075  -0.52231  -0.52231  -0.50004  -0.47161
 Alpha  occ. eigenvalues --   -0.47161  -0.45759  -0.45759  -0.36217  -0.35414
 Alpha  occ. eigenvalues --   -0.33981  -0.33981
 Alpha virt. eigenvalues --    0.09236   0.11215   0.11215   0.12674   0.13655
 Alpha virt. eigenvalues --    0.14412   0.16462   0.16463   0.17550   0.18848
 Alpha virt. eigenvalues --    0.20936   0.20936   0.20946   0.21048   0.28330
 Alpha virt. eigenvalues --    0.29471   0.30690   0.30690   0.34641   0.34642
 Alpha virt. eigenvalues --    0.35607   0.35715   0.40005   0.40005   0.40309
 Alpha virt. eigenvalues --    0.41475   0.41476   0.41681   0.42441   0.42781
 Alpha virt. eigenvalues --    0.43519   0.45163   0.45164   0.45524   0.46257
 Alpha virt. eigenvalues --    0.46258   0.46806   0.50964   0.51042   0.51042
 Alpha virt. eigenvalues --    0.51358   0.51524   0.51524   0.52124   0.52592
 Alpha virt. eigenvalues --    0.54081   0.54081   0.54987   0.55748   0.56682
 Alpha virt. eigenvalues --    0.56683   0.57834   0.58398   0.59214   0.59444
 Alpha virt. eigenvalues --    0.59445   0.60109   0.61621   0.61714   0.61714
 Alpha virt. eigenvalues --    0.64658   0.64658   0.65006   0.65020   0.66828
 Alpha virt. eigenvalues --    0.66829   0.66912   0.68016   0.69737   0.71824
 Alpha virt. eigenvalues --    0.71825   0.72651   0.76813   0.78027   0.78028
 Alpha virt. eigenvalues --    0.78619   0.80067   0.80067   0.81036   0.82713
 Alpha virt. eigenvalues --    0.82714   0.83192   0.83371   0.85255   0.85683
 Alpha virt. eigenvalues --    0.85857   0.88019   0.88345   0.90989   0.90989
 Alpha virt. eigenvalues --    0.92547   0.92705   0.92705   0.95531   0.96358
 Alpha virt. eigenvalues --    0.96358   0.96772   0.98169   0.99097   0.99784
 Alpha virt. eigenvalues --    0.99807   0.99808   1.00565   1.02045   1.02046
 Alpha virt. eigenvalues --    1.03007   1.04161   1.05508   1.05508   1.08848
 Alpha virt. eigenvalues --    1.10313   1.11108   1.12756   1.13603   1.13605
 Alpha virt. eigenvalues --    1.14737   1.15748   1.15749   1.21051   1.21053
 Alpha virt. eigenvalues --    1.22602   1.25504   1.26812   1.27692   1.28924
 Alpha virt. eigenvalues --    1.28924   1.29193   1.29599   1.32314   1.33523
 Alpha virt. eigenvalues --    1.34750   1.34751   1.37782   1.38204   1.38206
 Alpha virt. eigenvalues --    1.39122   1.45135   1.46014   1.46015   1.47106
 Alpha virt. eigenvalues --    1.48458   1.49412   1.49650   1.49651   1.52544
 Alpha virt. eigenvalues --    1.52544   1.53887   1.53889   1.55575   1.55961
 Alpha virt. eigenvalues --    1.57169   1.57170   1.57251   1.57744   1.61337
 Alpha virt. eigenvalues --    1.61395   1.61721   1.62170   1.62171   1.67390
 Alpha virt. eigenvalues --    1.67391   1.70071   1.72495   1.75013   1.75015
 Alpha virt. eigenvalues --    1.75281   1.80355   1.83365   1.83478   1.86372
 Alpha virt. eigenvalues --    1.87668   1.87669   1.88123   1.91936   1.95971
 Alpha virt. eigenvalues --    1.99791   1.99797   2.12121   2.12864   2.14609
 Alpha virt. eigenvalues --    2.14623   2.22154   2.22155   2.24372   2.24372
 Alpha virt. eigenvalues --    2.24965   2.25071   2.26209   2.26489   2.29733
 Alpha virt. eigenvalues --    2.34981   2.35714   2.35714   2.35960   2.36197
 Alpha virt. eigenvalues --    2.36496   2.36496   2.37187   2.38098   2.39913
 Alpha virt. eigenvalues --    2.41206   2.41207   2.43493   2.43493   2.44241
 Alpha virt. eigenvalues --    2.44793   2.45293   2.45295   2.46428   2.47336
 Alpha virt. eigenvalues --    2.47472   2.48379   2.48381   2.51762   2.56962
 Alpha virt. eigenvalues --    2.56964   2.57852   2.57853   2.61499   2.61500
 Alpha virt. eigenvalues --    2.61726   2.61749   2.65406   2.65406   2.65599
 Alpha virt. eigenvalues --    2.65905   2.66965   2.68098   2.69067   2.69133
 Alpha virt. eigenvalues --    2.69134   2.69996   2.72652   2.73604   2.73606
 Alpha virt. eigenvalues --    2.74021   2.77319   2.77320   2.78721   2.79653
 Alpha virt. eigenvalues --    2.83200   2.83202   2.85754   2.86116   2.86116
 Alpha virt. eigenvalues --    2.86248   2.88690   2.88690   2.88869   2.95133
 Alpha virt. eigenvalues --    2.95731   2.95733   2.96067   2.99235   3.00164
 Alpha virt. eigenvalues --    3.00164   3.02713   3.02715   3.03680   3.03785
 Alpha virt. eigenvalues --    3.04337   3.06662   3.07074   3.07075   3.10520
 Alpha virt. eigenvalues --    3.11361   3.11361   3.13637   3.16728   3.17326
 Alpha virt. eigenvalues --    3.17820   3.17820   3.20613   3.22022   3.23348
 Alpha virt. eigenvalues --    3.23348   3.24196   3.24198   3.26972   3.27825
 Alpha virt. eigenvalues --    3.29278   3.29851   3.31555   3.31557   3.34149
 Alpha virt. eigenvalues --    3.34152   3.34652   3.35047   3.35455   3.36929
 Alpha virt. eigenvalues --    3.36931   3.36969   3.38495   3.38918   3.39723
 Alpha virt. eigenvalues --    3.40868   3.40869   3.42520   3.43678   3.43730
 Alpha virt. eigenvalues --    3.43732   3.44743   3.45299   3.47719   3.50139
 Alpha virt. eigenvalues --    3.50619   3.50620   3.52362   3.54515   3.54516
 Alpha virt. eigenvalues --    3.54558   3.55222   3.55224   3.57397   3.57398
 Alpha virt. eigenvalues --    3.58780   3.60999   3.62682   3.62685   3.63392
 Alpha virt. eigenvalues --    3.64656   3.64912   3.64912   3.65628   3.68658
 Alpha virt. eigenvalues --    3.71150   3.71150   3.72561   3.72564   3.72583
 Alpha virt. eigenvalues --    3.76473   3.77028   3.77028   3.78700   3.82978
 Alpha virt. eigenvalues --    3.82980   3.83491   3.83610   3.84177   3.85439
 Alpha virt. eigenvalues --    3.86739   3.90518   3.91459   3.91462   3.91835
 Alpha virt. eigenvalues --    3.94810   3.99857   4.00349   4.00626   4.01387
 Alpha virt. eigenvalues --    4.04895   4.04896   4.08416   4.08420   4.09039
 Alpha virt. eigenvalues --    4.10223   4.10730   4.10731   4.11633   4.12623
 Alpha virt. eigenvalues --    4.15111   4.15114   4.15341   4.15344   4.16521
 Alpha virt. eigenvalues --    4.18452   4.19048   4.20083   4.20213   4.20214
 Alpha virt. eigenvalues --    4.27412   4.27421   4.27741   4.30760   4.32534
 Alpha virt. eigenvalues --    4.35256   4.35258   4.37010   4.39143   4.40210
 Alpha virt. eigenvalues --    4.40211   4.40501   4.40542   4.44267   4.45550
 Alpha virt. eigenvalues --    4.45551   4.47218   4.48865   4.48865   4.52028
 Alpha virt. eigenvalues --    4.52029   4.52987   4.57804   4.58162   4.58166
 Alpha virt. eigenvalues --    4.58191   4.60848   4.63819   4.64113   4.66300
 Alpha virt. eigenvalues --    4.66482   4.67822   4.68709   4.69531   4.70442
 Alpha virt. eigenvalues --    4.70442   4.71834   4.71836   4.72840   4.75173
 Alpha virt. eigenvalues --    4.75176   4.79541   4.82524   4.85361   4.85361
 Alpha virt. eigenvalues --    4.90411   4.91717   4.91717   4.97947   4.99812
 Alpha virt. eigenvalues --    5.04537   5.06347   5.06348   5.09254   5.09257
 Alpha virt. eigenvalues --    5.10476   5.10493   5.14536   5.14538   5.15667
 Alpha virt. eigenvalues --    5.16727   5.16727   5.23952   5.25028   5.28368
 Alpha virt. eigenvalues --    5.33984   5.36527   5.36970   5.37963   5.38973
 Alpha virt. eigenvalues --    5.38976   5.48044   5.49416   5.50211   5.50215
 Alpha virt. eigenvalues --    5.53512   5.53514   5.56517   5.62414   5.62417
 Alpha virt. eigenvalues --    5.80955   5.80960   5.86953   5.88692   5.94470
 Alpha virt. eigenvalues --    5.95461   6.07269   6.22609   6.25016   6.25018
 Alpha virt. eigenvalues --    6.32859   6.33130   6.33132   6.39353   6.39354
 Alpha virt. eigenvalues --    6.46388   6.48729   6.73148   6.76044   7.06424
 Alpha virt. eigenvalues --    7.06431   8.73890   9.42098  12.65747  12.77429
 Alpha virt. eigenvalues --   13.23409  13.51572  13.51572  13.83997  14.14459
 Alpha virt. eigenvalues --   14.14475  16.12344  16.26934
          Condensed to atoms (all electrons):
               1          2          3          4          5          6
     1  C    5.041111   0.480578  -0.063707  -0.049178   0.026358   0.407027
     2  C    0.480578   4.934164   0.484497  -0.032508  -0.049178  -0.040339
     3  C   -0.063707   0.484497   4.993199   0.484497  -0.063707  -0.035707
     4  C   -0.049178  -0.032508   0.484497   4.934164   0.480578  -0.040339
     5  C    0.026358  -0.049178  -0.063707   0.480578   5.041111   0.407027
     6  C    0.407027  -0.040339  -0.035707  -0.040339   0.407027   4.972041
     7  H    0.437541  -0.043265   0.007387  -0.001641   0.006854  -0.052191
     8  H   -0.044935   0.431322  -0.045614   0.004916  -0.000973   0.005667
     9  H   -0.000973   0.004916  -0.045614   0.431322  -0.044935   0.005667
    10  H    0.006854  -0.001641   0.007387  -0.043265   0.437541  -0.052191
    11  C    0.006311  -0.052043   0.393214  -0.052043   0.006311  -0.000355
    12  C   -0.000313  -0.000474  -0.052065  -0.000474  -0.000313  -0.000103
    13  C   -0.000314  -0.000475  -0.052024  -0.000475  -0.000314  -0.000103
    14  C   -0.000003  -0.000313   0.006315  -0.000313  -0.000003  -0.000004
    15  H   -0.000144   0.001496   0.003241   0.001496  -0.000144  -0.000053
    16  C   -0.000003  -0.000313   0.006309  -0.000313  -0.000003  -0.000004
    17  H   -0.000144   0.001496   0.003227   0.001496  -0.000144  -0.000053
    18  C   -0.000004  -0.000103  -0.000355  -0.000103  -0.000004  -0.000000
    19  H    0.000000   0.000005  -0.000075   0.000005   0.000000   0.000000
    20  H    0.000000   0.000005  -0.000075   0.000005   0.000000   0.000000
    21  Cl  -0.075685   0.008867  -0.002265   0.008867  -0.075685   0.314817
    22  Cl   0.000000   0.000000  -0.000025   0.000000   0.000000   0.000000
               7          8          9         10         11         12
     1  C    0.437541  -0.044935  -0.000973   0.006854   0.006311  -0.000313
     2  C   -0.043265   0.431322   0.004916  -0.001641  -0.052043  -0.000474
     3  C    0.007387  -0.045614  -0.045614   0.007387   0.393214  -0.052065
     4  C   -0.001641   0.004916   0.431322  -0.043265  -0.052043  -0.000474
     5  C    0.006854  -0.000973  -0.044935   0.437541   0.006311  -0.000313
     6  C   -0.052191   0.005667   0.005667  -0.052191  -0.000355  -0.000103
     7  H    0.478878  -0.005798   0.000055  -0.000111  -0.000075   0.000005
     8  H   -0.005798   0.486291  -0.000237   0.000055   0.003232   0.001496
     9  H    0.000055  -0.000237   0.486291  -0.005798   0.003232   0.001496
    10  H   -0.000111   0.000055  -0.005798   0.478878  -0.000075   0.000005
    11  C   -0.000075   0.003232   0.003232  -0.000075   4.993166   0.484473
    12  C    0.000005   0.001496   0.001496   0.000005   0.484473   4.934181
    13  C    0.000005   0.001497   0.001497   0.000005   0.484542  -0.032497
    14  C    0.000000  -0.000144  -0.000144   0.000000  -0.063706   0.480611
    15  H    0.000007   0.000281   0.000281   0.000007  -0.045622   0.431325
    16  C    0.000000  -0.000144  -0.000144   0.000000  -0.063716  -0.049180
    17  H    0.000007   0.000281   0.000281   0.000007  -0.045616   0.004918
    18  C    0.000000  -0.000053  -0.000053   0.000000  -0.035703  -0.040357
    19  H    0.000000   0.000007   0.000007   0.000000   0.007385  -0.043254
    20  H    0.000000   0.000007   0.000007   0.000000   0.007386  -0.001641
    21  Cl   0.000182  -0.000187  -0.000187   0.000182  -0.000025   0.000000
    22  Cl  -0.000000   0.000000   0.000000  -0.000000  -0.002266   0.008867
              13         14         15         16         17         18
     1  C   -0.000314  -0.000003  -0.000144  -0.000003  -0.000144  -0.000004
     2  C   -0.000475  -0.000313   0.001496  -0.000313   0.001496  -0.000103
     3  C   -0.052024   0.006315   0.003241   0.006309   0.003227  -0.000355
     4  C   -0.000475  -0.000313   0.001496  -0.000313   0.001496  -0.000103
     5  C   -0.000314  -0.000003  -0.000144  -0.000003  -0.000144  -0.000004
     6  C   -0.000103  -0.000004  -0.000053  -0.000004  -0.000053  -0.000000
     7  H    0.000005   0.000000   0.000007   0.000000   0.000007   0.000000
     8  H    0.001497  -0.000144   0.000281  -0.000144   0.000281  -0.000053
     9  H    0.001497  -0.000144   0.000281  -0.000144   0.000281  -0.000053
    10  H    0.000005   0.000000   0.000007   0.000000   0.000007   0.000000
    11  C    0.484542  -0.063706  -0.045622  -0.063716  -0.045616  -0.035703
    12  C   -0.032497   0.480611   0.431325  -0.049180   0.004918  -0.040357
    13  C    4.934159  -0.049174   0.004914   0.480521   0.431310  -0.040342
    14  C   -0.049174   5.041078  -0.044933   0.026355  -0.000973   0.407028
    15  H    0.004914  -0.044933   0.486283  -0.000973  -0.000237   0.005667
    16  C    0.480521   0.026355  -0.000973   5.041123  -0.044922   0.407087
    17  H    0.431310  -0.000973  -0.000237  -0.044922   0.486293   0.005665
    18  C   -0.040342   0.407028   0.005667   0.407087   0.005665   4.971996
    19  H   -0.001641   0.437533  -0.005797   0.006854   0.000055  -0.052194
    20  H   -0.043259   0.006854   0.000055   0.437541  -0.005796  -0.052200
    21  Cl   0.000000   0.000000   0.000000   0.000000   0.000000   0.000000
    22  Cl   0.008869  -0.075679  -0.000187  -0.075692  -0.000187   0.314810
              19         20         21         22
     1  C    0.000000   0.000000  -0.075685   0.000000
     2  C    0.000005   0.000005   0.008867   0.000000
     3  C   -0.000075  -0.000075  -0.002265  -0.000025
     4  C    0.000005   0.000005   0.008867   0.000000
     5  C    0.000000   0.000000  -0.075685   0.000000
     6  C    0.000000   0.000000   0.314817   0.000000
     7  H    0.000000   0.000000   0.000182  -0.000000
     8  H    0.000007   0.000007  -0.000187   0.000000
     9  H    0.000007   0.000007  -0.000187   0.000000
    10  H    0.000000   0.000000   0.000182  -0.000000
    11  C    0.007385   0.007386  -0.000025  -0.002266
    12  C   -0.043254  -0.001641   0.000000   0.008867
    13  C   -0.001641  -0.043259   0.000000   0.008869
    14  C    0.437533   0.006854   0.000000  -0.075679
    15  H   -0.005797   0.000055   0.000000  -0.000187
    16  C    0.006854   0.437541   0.000000  -0.075692
    17  H    0.000055  -0.005796   0.000000  -0.000187
    18  C   -0.052194  -0.052200   0.000000   0.314810
    19  H    0.478870  -0.000111  -0.000000   0.000185
    20  H   -0.000111   0.478879  -0.000000   0.000183
    21  Cl  -0.000000  -0.000000  16.978525   0.000000
    22  Cl   0.000185   0.000183   0.000000  16.978550
 Mulliken charges:
               1
     1  C   -0.170376
     2  C   -0.126696
     3  C   -0.028038
     4  C   -0.126696
     5  C   -0.170376
     6  C    0.109199
     7  H    0.172159
     8  H    0.163035
     9  H    0.163035
    10  H    0.172159
    11  C   -0.028008
    12  C   -0.126707
    13  C   -0.126702
    14  C   -0.170383
    15  H    0.163039
    16  C   -0.170382
    17  H    0.163038
    18  C    0.109218
    19  H    0.172165
    20  H    0.172159
    21  Cl  -0.157409
    22  Cl  -0.157430
 Sum of Mulliken charges =  -0.00000
 Mulliken charges with hydrogens summed into heavy atoms:
               1
     1  C    0.001782
     2  C    0.036339
     3  C   -0.028038
     4  C    0.036339
     5  C    0.001782
     6  C    0.109199
    11  C   -0.028008
    12  C    0.036332
    13  C    0.036335
    14  C    0.001781
    16  C    0.001777
    18  C    0.109218
    21  Cl  -0.157409
    22  Cl  -0.157430
 Electronic spatial extent (au):  <R**2>=           5593.1040
 Charge=             -0.0000 electrons
 Dipole moment (field-independent basis, Debye):
    X=              0.0002    Y=              0.0000    Z=              0.0000  Tot=              0.0002
 Quadrupole moment (field-independent basis, Debye-Ang):
   XX=           -114.0223   YY=            -91.8788   ZZ=            -92.0533
   XY=              0.1764   XZ=             -1.9770   YZ=              0.0157
 Traceless Quadrupole moment (field-independent basis, Debye-Ang):
   XX=            -14.7042   YY=              7.4393   ZZ=              7.2648
   XY=              0.1764   XZ=             -1.9770   YZ=              0.0157
 Octapole moment (field-independent basis, Debye-Ang**2):
  XXX=              0.5017  YYY=              0.5027  ZZZ=              5.6212  XYY=            -21.1510
  XXY=             -0.3322  XXZ=             -3.7326  XZZ=             20.6548  YZZ=             -0.1674
  YYZ=             -1.8882  XYZ=             -0.0140
 Hexadecapole moment (field-independent basis, Debye-Ang**3):
 XXXX=          -7148.4333 YYYY=           -327.6614 ZZZZ=           -377.3730 XXXY=             29.2185
 XXXZ=           -328.4071 YYYX=             24.9498 YYYZ=              2.2259 ZZZX=           -280.9113
 ZZZY=              2.1814 XXYY=          -1156.8486 XXZZ=          -1169.1841 YYZZ=           -141.4964
 XXYZ=              1.1572 YYXZ=            -91.3702 ZZXY=              8.1663
 N-N= 9.275445036572D+02 E-N=-5.112358474374D+03  KE= 1.377770230184D+03
 No NMR shielding tensors so no spin-rotation constants.
 Leave Link  601 at Wed May  4 14:50:51 2022, MaxMem=  2684354560 cpu:               1.6 elap:               0.3
 (Enter /apps/software/g16/l9999.exe)
 1\1\GINC-CNODE09\SP\RHF\CC-pVTZ\C12H8Cl2\ROOT\04-May-2022\0\\#p RHF/cc
 -pVTZ\\3,8-dicl-dibenzene SP RHF cc-pVTZ\\0,1\C,0,-2.5816008418,0.8582
 83184,0.0008015685\C,0,-1.1942307521,0.8653626942,0.0009805434\C,0,-0.
 4818482166,2.0624118955,0.0002696943\C,0,-1.1941642345,3.2595005578,-0
 .0006284677\C,0,-2.5815339267,3.2666569157,-0.0008169716\C,0,-3.266785
 0308,2.0624891666,0.0001104888\H,0,-3.1277021325,-0.0739539917,0.00130
 68031\H,0,-0.6597752577,-0.0753574606,0.0016302582\H,0,-0.6596564649,4
 .2001910355,-0.0012431726\H,0,-3.1275834138,4.1989242727,-0.0015647805
 \C,0,1.0172566181,2.0623705989,0.0007816441\C,0,1.7297944005,2.0615456
 939,-1.1962774011\C,0,1.7293959808,2.0631559259,1.1979140145\C,0,3.117
 125426,2.0615024087,-1.2032177964\H,0,1.1953094309,2.0609278449,-2.136
 9770743\C,0,3.1167839126,2.0631222706,1.2051929893\H,0,1.1946858394,2.
 0638033807,2.138491302\C,0,3.8021303247,2.062293378,0.0011222984\H,0,3
 .6635114239,2.0608602856,-2.1352874129\H,0,3.662876597,2.0637340867,2.
 1374365962\Cl,0,-5.0074713331,2.0625371637,-0.0004379395\Cl,0,5.542848
 9004,2.0622451127,0.0013688058\\Version=ES64L-G16RevA.03\State=1-A\HF=
 -1378.2682459\RMSD=8.297e-09\Dipole=-0.0000691,0.,-0.0000167\Quadrupol
 e=-11.0644323,5.5324397,5.5319926,0.0004595,-0.002453,0.0000034\PG=C01
  [X(C12H8Cl2)]\\@


 THE WORLD IS MADE UP OF THE WILLS, THE WON'TS, AND THE CANT'S:
 THE WILLS DO EVERYTHING,
 THE WON'TS DO NOTHING,
 THE CAN'TS CAN'T DO ANYTHING.

                               -- FROM WALT DISNEY'S "BLACK HOLE"
 Job cpu time:       0 days  0 hours 18 minutes 42.1 seconds.
 Elapsed time:       0 days  0 hours  2 minutes 20.8 seconds.
 File lengths (MBytes):  RWF=    158 Int=      0 D2E=      0 Chk=     19 Scr=      1
 Normal termination of Gaussian 16 at Wed May  4 14:50:51 2022.

Sender: Unischeduler System <lcz@mgt01>
Subject: Job 127857: <#!/bin/bash
#BSUB -J intel
#BSUB -o 3,8-dicl-dibenzene.out
#BSUB -n 8
#BSUB -q cqueue
#BSUB -R span[hosts=1]
export g16root=/apps/software
source /apps/software/g16/bsd/g16.profile
export GAUSS_SCRDIR=/scratch
/apps/software/g16/g16 < 3,8-dicl-dibenzene.inp > 3,8-dicl-dibenzene.out> Done

Job <#!/bin/bash
#BSUB -J intel
#BSUB -o 3,8-dicl-dibenzene.out
#BSUB -n 8
#BSUB -q cqueue
#BSUB -R span[hosts=1]
export g16root=/apps/software
source /apps/software/g16/bsd/g16.profile
export GAUSS_SCRDIR=/scratch
/apps/software/g16/g16 < 3,8-dicl-dibenzene.inp > 3,8-dicl-dibenzene.out> was submitted from host <mgt01> by user <lcz>.
Job was executed on host(s) <8*cnode09>, in queue <cqueue>, as user <lcz>.
</apps/users/lcz> was used as the home directory.
</apps/users/lcz/task2/section2/isomer2/RHF_cc-pVTZ/Gaussian> was used as the working directory.
Started at 2022-05-04 14:48:30
Results reported at 2022-05-04 14:50:51

Your job looked like:

------------------------------------------------------------
# User input
#!/bin/bash
#BSUB -J intel
#BSUB -o 3,8-dicl-dibenzene.out
#BSUB -n 8
#BSUB -q cqueue
#BSUB -R span[hosts=1]
export g16root=/apps/software
source /apps/software/g16/bsd/g16.profile
export GAUSS_SCRDIR=/scratch
/apps/software/g16/g16 < 3,8-dicl-dibenzene.inp > 3,8-dicl-dibenzene.out
------------------------------------------------------------

Successfully completed.

Resource usage summary:

    CPU time   :         1046.43 sec.
    Max Memory :               560 MB
    Max Processes  :               5


The output (if any) follows:

