 Entering Gaussian System, Link 0=/apps/software/g16/g16
 Initial command:
 /apps/software/g16/l1.exe "/scratch/Gau-14483.inp" -scrdir="/scratch/"
 Entering Link 1 = /apps/software/g16/l1.exe PID=     14484.
  
 Copyright (c) 1988,1990,1992,1993,1995,1998,2003,2009,2016,
            Gaussian, Inc.  All Rights Reserved.
  
 This is part of the Gaussian(R) 16 program.  It is based on
 the Gaussian(R) 09 system (copyright 2009, Gaussian, Inc.),
 the Gaussian(R) 03 system (copyright 2003, Gaussian, Inc.),
 the Gaussian(R) 98 system (copyright 1998, Gaussian, Inc.),
 the Gaussian(R) 94 system (copyright 1995, Gaussian, Inc.),
 the Gaussian 92(TM) system (copyright 1992, Gaussian, Inc.),
 the Gaussian 90(TM) system (copyright 1990, Gaussian, Inc.),
 the Gaussian 88(TM) system (copyright 1988, Gaussian, Inc.),
 the Gaussian 86(TM) system (copyright 1986, Carnegie Mellon
 University), and the Gaussian 82(TM) system (copyright 1983,
 Carnegie Mellon University). Gaussian is a federally registered
 trademark of Gaussian, Inc.
  
 This software contains proprietary and confidential information,
 including trade secrets, belonging to Gaussian, Inc.
  
 This software is provided under written license and may be
 used, copied, transmitted, or stored only in accord with that
 written license.
  
 The following legend is applicable only to US Government
 contracts under FAR:
  
                    RESTRICTED RIGHTS LEGEND
  
 Use, reproduction and disclosure by the US Government is
 subject to restrictions as set forth in subparagraphs (a)
 and (c) of the Commercial Computer Software - Restricted
 Rights clause in FAR 52.227-19.
  
 Gaussian, Inc.
 340 Quinnipiac St., Bldg. 40, Wallingford CT 06492
  
  
 ---------------------------------------------------------------
 Warning -- This program may not be used in any manner that
 competes with the business of Gaussian, Inc. or will provide
 assistance to any competitor of Gaussian, Inc.  The licensee
 of this program is prohibited from giving any competitor of
 Gaussian, Inc. access to this program.  By using this program,
 the user acknowledges that Gaussian, Inc. is engaged in the
 business of creating and licensing software in the field of
 computational chemistry and represents and warrants to the
 licensee that it is not a competitor of Gaussian, Inc. and that
 it will not use this program in any manner prohibited above.
 ---------------------------------------------------------------
  

 Cite this work as:
 Gaussian 16, Revision A.03,
 M. J. Frisch, G. W. Trucks, H. B. Schlegel, G. E. Scuseria, 
 M. A. Robb, J. R. Cheeseman, G. Scalmani, V. Barone, 
 G. A. Petersson, H. Nakatsuji, X. Li, M. Caricato, A. V. Marenich, 
 J. Bloino, B. G. Janesko, R. Gomperts, B. Mennucci, H. P. Hratchian, 
 J. V. Ortiz, A. F. Izmaylov, J. L. Sonnenberg, D. Williams-Young, 
 F. Ding, F. Lipparini, F. Egidi, J. Goings, B. Peng, A. Petrone, 
 T. Henderson, D. Ranasinghe, V. G. Zakrzewski, J. Gao, N. Rega, 
 G. Zheng, W. Liang, M. Hada, M. Ehara, K. Toyota, R. Fukuda, 
 J. Hasegawa, M. Ishida, T. Nakajima, Y. Honda, O. Kitao, H. Nakai, 
 T. Vreven, K. Throssell, J. A. Montgomery, Jr., J. E. Peralta, 
 F. Ogliaro, M. J. Bearpark, J. J. Heyd, E. N. Brothers, K. N. Kudin, 
 V. N. Staroverov, T. A. Keith, R. Kobayashi, J. Normand, 
 K. Raghavachari, A. P. Rendell, J. C. Burant, S. S. Iyengar, 
 J. Tomasi, M. Cossi, J. M. Millam, M. Klene, C. Adamo, R. Cammi, 
 J. W. Ochterski, R. L. Martin, K. Morokuma, O. Farkas, 
 J. B. Foresman, and D. J. Fox, Gaussian, Inc., Wallingford CT, 2016.
 
 ******************************************
 Gaussian 16:  ES64L-G16RevA.03 25-Dec-2016
                 4-May-2022 
 ******************************************
 %nproc=8
 Will use up to    8 processors via shared memory.
 %mem=20GB
 %chk=38-dicl-dibenzene.chk
 ---------------
 #p BLYP/cc-pVDZ
 ---------------
 1/38=1,172=1/1;
 2/12=2,17=6,18=5,40=1/2;
 3/5=16,11=2,25=1,30=1,74=402/1,2,3;
 4//1;
 5/5=2,38=5/2;
 6/7=2,8=2,9=2,10=2,28=1/1;
 99/5=1,9=1/99;
 Leave Link    1 at Wed May  4 13:10:35 2022, MaxMem=  2684354560 cpu:               0.1 elap:               0.0
 (Enter /apps/software/g16/l101.exe)
 --------------------------------------
 3,8-dicl-dibenzene SP RKS BLYP cc-pVDZ
 --------------------------------------
 Symbolic Z-matrix:
 Charge =  0 Multiplicity = 1
 C                    -2.5816    0.85828   0.0008 
 C                    -1.19423   0.86536   0.00098 
 C                    -0.48185   2.06241   0.00027 
 C                    -1.19416   3.2595   -0.00063 
 C                    -2.58153   3.26666  -0.00082 
 C                    -3.26679   2.06249   0.00011 
 H                    -3.1277   -0.07395   0.00131 
 H                    -0.65978  -0.07536   0.00163 
 H                    -0.65966   4.20019  -0.00124 
 H                    -3.12758   4.19892  -0.00156 
 C                     1.01726   2.06237   0.00078 
 C                     1.72979   2.06155  -1.19628 
 C                     1.7294    2.06316   1.19791 
 C                     3.11713   2.0615   -1.20322 
 H                     1.19531   2.06093  -2.13698 
 C                     3.11678   2.06312   1.20519 
 H                     1.19469   2.0638    2.13849 
 C                     3.80213   2.06229   0.00112 
 H                     3.66351   2.06086  -2.13529 
 H                     3.66288   2.06373   2.13744 
 Cl                   -5.00747   2.06254  -0.00044 
 Cl                    5.54285   2.06225   0.00137 
 
 ITRead=  0  0  0  0  0  0  0  0  0  0  0  0  0  0  0  0  0  0  0  0
 ITRead=  0  0
 MicOpt= -1 -1 -1 -1 -1 -1 -1 -1 -1 -1 -1 -1 -1 -1 -1 -1 -1 -1 -1 -1
 MicOpt= -1 -1
 NAtoms=     22 NQM=       22 NQMF=       0 NMMI=      0 NMMIF=      0
                NMic=       0 NMicF=      0.
                    Isotopes and Nuclear Properties:
 (Nuclear quadrupole moments (NQMom) in fm**2, nuclear magnetic moments (NMagM)
  in nuclear magnetons)

  Atom         1           2           3           4           5           6           7           8           9          10
 IAtWgt=          12          12          12          12          12          12           1           1           1           1
 AtmWgt=  12.0000000  12.0000000  12.0000000  12.0000000  12.0000000  12.0000000   1.0078250   1.0078250   1.0078250   1.0078250
 NucSpn=           0           0           0           0           0           0           1           1           1           1
 AtZEff=  -0.0000000  -0.0000000  -0.0000000  -0.0000000  -0.0000000  -0.0000000  -0.0000000  -0.0000000  -0.0000000  -0.0000000
 NQMom=    0.0000000   0.0000000   0.0000000   0.0000000   0.0000000   0.0000000   0.0000000   0.0000000   0.0000000   0.0000000
 NMagM=    0.0000000   0.0000000   0.0000000   0.0000000   0.0000000   0.0000000   2.7928460   2.7928460   2.7928460   2.7928460
 AtZNuc=   6.0000000   6.0000000   6.0000000   6.0000000   6.0000000   6.0000000   1.0000000   1.0000000   1.0000000   1.0000000

  Atom        11          12          13          14          15          16          17          18          19          20
 IAtWgt=          12          12          12          12           1          12           1          12           1           1
 AtmWgt=  12.0000000  12.0000000  12.0000000  12.0000000   1.0078250  12.0000000   1.0078250  12.0000000   1.0078250   1.0078250
 NucSpn=           0           0           0           0           1           0           1           0           1           1
 AtZEff=  -0.0000000  -0.0000000  -0.0000000  -0.0000000  -0.0000000  -0.0000000  -0.0000000  -0.0000000  -0.0000000  -0.0000000
 NQMom=    0.0000000   0.0000000   0.0000000   0.0000000   0.0000000   0.0000000   0.0000000   0.0000000   0.0000000   0.0000000
 NMagM=    0.0000000   0.0000000   0.0000000   0.0000000   2.7928460   0.0000000   2.7928460   0.0000000   2.7928460   2.7928460
 AtZNuc=   6.0000000   6.0000000   6.0000000   6.0000000   1.0000000   6.0000000   1.0000000   6.0000000   1.0000000   1.0000000

  Atom        21          22
 IAtWgt=          35          35
 AtmWgt=  34.9688527  34.9688527
 NucSpn=           3           3
 AtZEff=  -0.0000000  -0.0000000
 NQMom=   -8.1650000  -8.1650000
 NMagM=    0.8218740   0.8218740
 AtZNuc=  17.0000000  17.0000000
 Leave Link  101 at Wed May  4 13:10:35 2022, MaxMem=  2684354560 cpu:               0.6 elap:               0.1
 (Enter /apps/software/g16/l202.exe)
                          Input orientation:                          
 ---------------------------------------------------------------------
 Center     Atomic      Atomic             Coordinates (Angstroms)
 Number     Number       Type             X           Y           Z
 ---------------------------------------------------------------------
      1          6           0       -2.581601    0.858283    0.000802
      2          6           0       -1.194231    0.865363    0.000981
      3          6           0       -0.481848    2.062412    0.000270
      4          6           0       -1.194164    3.259501   -0.000628
      5          6           0       -2.581534    3.266657   -0.000817
      6          6           0       -3.266785    2.062489    0.000110
      7          1           0       -3.127702   -0.073954    0.001307
      8          1           0       -0.659775   -0.075357    0.001630
      9          1           0       -0.659656    4.200191   -0.001243
     10          1           0       -3.127583    4.198924   -0.001565
     11          6           0        1.017257    2.062371    0.000782
     12          6           0        1.729794    2.061546   -1.196277
     13          6           0        1.729396    2.063156    1.197914
     14          6           0        3.117125    2.061502   -1.203218
     15          1           0        1.195309    2.060928   -2.136977
     16          6           0        3.116784    2.063122    1.205193
     17          1           0        1.194686    2.063803    2.138491
     18          6           0        3.802130    2.062293    0.001122
     19          1           0        3.663511    2.060860   -2.135287
     20          1           0        3.662877    2.063734    2.137437
     21         17           0       -5.007471    2.062537   -0.000438
     22         17           0        5.542849    2.062245    0.001369
 ---------------------------------------------------------------------
                    Distance matrix (angstroms):
                    1          2          3          4          5
     1  C    0.000000
     2  C    1.387388   0.000000
     3  C    2.420514   1.392988   0.000000
     4  C    2.773234   2.394138   1.392988   0.000000
     5  C    2.408374   2.773234   2.420514   1.387388   0.000000
     6  C    1.385493   2.393448   2.784937   2.393448   1.385493
     7  H    1.080413   2.149564   3.400677   3.853634   3.384965
     8  H    2.136609   1.081942   2.145161   3.377404   3.855155
     9  H    3.855155   3.377404   2.145161   1.081942   2.136609
    10  H    3.384965   3.853634   3.400677   2.149564   1.080413
    11  C    3.794944   2.514658   1.499105   2.514658   3.794944
    12  C    4.633462   3.378491   2.514575   3.378492   4.633462
    13  C    4.633518   3.378602   2.514747   3.378602   4.633518
    14  C    5.947510   4.633426   3.794864   4.633426   5.947511
    15  H    4.503499   3.422008   2.716741   3.422009   4.503500
    16  C    5.947586   4.633530   3.794996   4.633530   5.947586
    17  H    4.503703   3.422300   2.717123   3.422299   4.503702
    18  C    6.496281   5.137730   4.283979   5.137730   6.496281
    19  H    6.708986   5.439716   4.663112   5.439717   6.708987
    20  H    6.709085   5.439856   4.663285   5.439855   6.709084
    21  Cl   2.708335   3.996753   4.525623   3.996753   2.708335
    22  Cl   8.213173   6.842570   6.024697   6.842570   8.213173
                    6          7          8          9         10
     6  C    0.000000
     7  H    2.140966   0.000000
     8  H    3.371482   2.467927   0.000000
     9  H    3.371482   4.935542   4.275549   0.000000
    10  H    2.140966   4.272879   4.935542   2.467927   0.000000
    11  C    4.284042   4.663107   2.717042   2.717042   4.663107
    12  C    5.137816   5.439654   3.422190   3.422190   5.439655
    13  C    5.137758   5.439716   3.422349   3.422348   5.439715
    14  C    6.496331   6.708869   4.503644   4.503644   6.708870
    15  H    4.947467   5.274316   3.546646   3.546647   5.274317
    16  C    6.496320   6.708952   4.503783   4.503782   6.708952
    17  H    4.947464   5.274524   3.547000   3.546999   5.274523
    18  C    7.068915   7.251630   4.947540   4.947540   7.251630
    19  H    7.251823   7.432567   5.274529   5.274530   7.432567
    20  H    7.251784   7.432679   5.274723   5.274722   7.432679
    21  Cl   1.740686   2.845721   4.844900   4.844900   2.845721
    22  Cl   8.809634   8.929827   6.560632   6.560632   8.929827
                   11         12         13         14         15
    11  C    0.000000
    12  C    1.393076   0.000000
    13  C    1.392935   2.394192   0.000000
    14  C    2.420550   1.387348   2.773307   0.000000
    15  H    2.145161   1.081938   3.377388   2.136652   0.000000
    16  C    2.420459   2.773230   1.387407   2.408411   3.855148
    17  H    2.145061   3.377429   1.081943   3.855230   4.275469
    18  C    2.784874   2.393396   2.393437   1.385521   3.371496
    19  H    3.400803   2.149652   3.853705   1.080413   2.468203
    20  H    3.400677   3.853630   2.149663   3.384940   4.935535
    21  Cl   6.024728   6.842571   6.842619   8.213145   6.560434
    22  Cl   4.525592   3.996716   3.996767   2.708351   4.844959
                   16         17         18         19         20
    16  C    0.000000
    17  H    2.136705   0.000000
    18  C    1.385455   3.371515   0.000000
    19  H    3.384926   4.935615   2.140903   0.000000
    20  H    1.080415   2.468191   2.140849   4.272725   0.000000
    21  Cl   8.213225   6.560623   8.809602   8.929923   8.930030
    22  Cl   2.708318   4.844979   1.740719   2.845560   2.845538
                   21         22
    21  Cl   0.000000
    22  Cl  10.550320   0.000000
 This structure is nearly, but not quite of a higher symmetry.
 Consider Symm=Loose if the higher symmetry is desired.
 Stoichiometry    C12H8Cl2
 Framework group  C1[X(C12H8Cl2)]
 Deg. of freedom    60
 Full point group                 C1      NOp   1
 Largest Abelian subgroup         C1      NOp   1
 Largest concise Abelian subgroup C1      NOp   1
                         Standard orientation:                         
 ---------------------------------------------------------------------
 Center     Atomic      Atomic             Coordinates (Angstroms)
 Number     Number       Type             X           Y           Z
 ---------------------------------------------------------------------
      1          6           0        2.730812   -0.022491    1.452760
      2          6           0        1.349615   -0.011465    1.322312
      3          6           0        0.746550   -0.005826    0.066646
      4          6           0        1.562496   -0.011510   -1.062343
      5          6           0        2.944960   -0.022535   -0.946075
      6          6           0        3.520366   -0.028168    0.314268
      7          1           0        3.191814   -0.026765    2.429874
      8          1           0        0.733622   -0.007147    2.211768
      9          1           0        1.113794   -0.007226   -2.046846
     10          1           0        3.571749   -0.026843   -1.826081
     11          6           0       -0.746572    0.005775   -0.066648
     12          6           0       -1.446629    1.208552   -0.129164
     13          6           0       -1.465504   -1.185565   -0.130806
     14          6           0       -2.828364    1.226701   -0.252514
     15          1           0       -0.906707    2.144903   -0.080981
     16          6           0       -2.847410   -1.181634   -0.254171
     17          1           0       -0.940500   -2.130432   -0.083921
     18          6           0       -3.520327    0.027935   -0.314265
     19          1           0       -3.365065    2.163155   -0.300443
     20          1           0       -3.398825   -2.109435   -0.303380
     21         17           0        5.254105   -0.041683    0.469042
     22         17           0       -5.254096    0.041753   -0.469041
 ---------------------------------------------------------------------
 Rotational constants (GHZ):           2.8843971           0.1749147           0.1749146
 Leave Link  202 at Wed May  4 13:10:35 2022, MaxMem=  2684354560 cpu:               0.1 elap:               0.0
 (Enter /apps/software/g16/l301.exe)
 Standard basis: CC-pVDZ (5D, 7F)
 Ernie: Thresh=  0.10000D-02 Tol=  0.10000D-05 Strict=F.
 Ernie:  44 primitive shells out of 404 were deleted.
 There are   258 symmetry adapted cartesian basis functions of A   symmetry.
 There are   244 symmetry adapted basis functions of A   symmetry.
   244 basis functions,   594 primitive gaussians,   258 cartesian basis functions
    57 alpha electrons       57 beta electrons
       nuclear repulsion energy       927.5445036572 Hartrees.
 IExCor=  402 DFT=T Ex=B Corr=LYP ExCW=0 ScaHFX=  0.000000
 ScaDFX=  1.000000  1.000000  1.000000  1.000000 ScalE2=  1.000000  1.000000
 IRadAn=      5 IRanWt=     -1 IRanGd=            0 ICorTp=0 IEmpDi=  4
 NAtoms=   22 NActive=   22 NUniq=   22 SFac= 1.00D+00 NAtFMM=   60 NAOKFM=F Big=F
 Integral buffers will be    131072 words long.
 Raffenetti 2 integral format.
 Two-electron integral symmetry is turned on.
 Leave Link  301 at Wed May  4 13:10:35 2022, MaxMem=  2684354560 cpu:               0.4 elap:               0.1
 (Enter /apps/software/g16/l302.exe)
 NPDir=0 NMtPBC=     1 NCelOv=     1 NCel=       1 NClECP=     1 NCelD=      1
         NCelK=      1 NCelE2=     1 NClLst=     1 CellRange=     0.0.
 One-electron integrals computed using PRISM.
 One-electron integral symmetry used in STVInt
 NBasis=   244 RedAO= T EigKep=  2.80D-04  NBF=   244
 NBsUse=   244 1.00D-06 EigRej= -1.00D+00 NBFU=   244
 Precomputing XC quadrature grid using
 IXCGrd= 4 IRadAn=           5 IRanWt=          -1 IRanGd=           0 AccXCQ= 0.00D+00.
 Generated NRdTot=       0 NPtTot=           0 NUsed=           0 NTot=          32
 NSgBfM=   255   255   255   255   255 MxSgAt=    22 MxSgA2=    22.
 Leave Link  302 at Wed May  4 13:10:36 2022, MaxMem=  2684354560 cpu:               1.5 elap:               0.2
 (Enter /apps/software/g16/l303.exe)
 DipDrv:  MaxL=1.
 Leave Link  303 at Wed May  4 13:10:36 2022, MaxMem=  2684354560 cpu:               0.3 elap:               0.1
 (Enter /apps/software/g16/l401.exe)
 ExpMin= 1.22D-01 ExpMax= 1.28D+05 ExpMxC= 1.24D+03 IAcc=3 IRadAn=         5 AccDes= 0.00D+00
 Harris functional with IExCor=  402 and IRadAn=       5 diagonalized for initial guess.
 HarFok:  IExCor=  402 AccDes= 0.00D+00 IRadAn=         5 IDoV= 1 UseB2=F ITyADJ=14
 ICtDFT=  3500011 ScaDFX=  1.000000  1.000000  1.000000  1.000000
 FoFCou: FMM=F IPFlag=           0 FMFlag=      100000 FMFlg1=           0
         NFxFlg=           0 DoJE=T BraDBF=F KetDBF=T FulRan=T
         wScrn=  0.000000 ICntrl=       500 IOpCl=  0 I1Cent=   200000004 NGrid=           0
         NMat0=    1 NMatS0=      1 NMatT0=    0 NMatD0=    1 NMtDS0=    0 NMtDT0=    0
 Petite list used in FoFCou.
 Harris En= -1382.41766896438    
 JPrj=0 DoOrth=F DoCkMO=F.
 Leave Link  401 at Wed May  4 13:10:36 2022, MaxMem=  2684354560 cpu:               6.3 elap:               0.8
 (Enter /apps/software/g16/l502.exe)
 Integral symmetry usage will be decided dynamically.
 Closed shell SCF:
 Using DIIS extrapolation, IDIIS=  1040.
 NGot=  2684354560 LenX=  2684216654 LenY=  2684149649
 Requested convergence on RMS density matrix=1.00D-08 within 128 cycles.
 Requested convergence on MAX density matrix=1.00D-06.
 Requested convergence on             energy=1.00D-06.
 No special actions if energy rises.
 Fock matrices will be formed incrementally for  20 cycles.
 Integral accuracy reduced to 1.0D-05 until final iterations.

 Cycle   1  Pass 0  IDiag  1:
 FoFJK:  IHMeth= 1 ICntrl=     500 DoSepK=F KAlg= 0 I1Cent=           0 FoldK=F
 IRaf= 880000000 NMat=       1 IRICut=       1 DoRegI=T DoRafI=F ISym2E= 0 IDoP0=0 IntGTp=1.
 FoFCou: FMM=F IPFlag=           0 FMFlag=      100000 FMFlg1=           0
         NFxFlg=           0 DoJE=T BraDBF=F KetDBF=F FulRan=T
         wScrn=  0.000000 ICntrl=       500 IOpCl=  0 I1Cent=           0 NGrid=           0
         NMat0=    1 NMatS0=      1 NMatT0=    0 NMatD0=    1 NMtDS0=    0 NMtDT0=    0
 Symmetry not used in FoFCou.
 E= -1382.00463897224    
 DIIS: error= 4.40D-02 at cycle   1 NSaved=   1.
 NSaved= 1 IEnMin= 1 EnMin= -1382.00463897224     IErMin= 1 ErrMin= 4.40D-02
 ErrMax= 4.40D-02  0.00D+00 EMaxC= 1.00D-01 BMatC= 2.50D-01 BMatP= 2.50D-01
 IDIUse=3 WtCom= 5.60D-01 WtEn= 4.40D-01
 Coeff-Com:  0.100D+01
 Coeff-En:   0.100D+01
 Coeff:      0.100D+01
 Gap=     0.337 Goal=   None    Shift=    0.000
 GapD=    0.337 DampG=1.000 DampE=0.500 DampFc=0.5000 IDamp=-1.
 Damping current iteration by 5.00D-01
 RMSDP=7.15D-03 MaxDP=1.41D-01              OVMax= 2.87D-01

 Cycle   2  Pass 0  IDiag  1:
 RMSU=  3.53D-03    CP:  9.78D-01
 E= -1382.06048483815     Delta-E=       -0.055845865904 Rises=F Damp=T
 DIIS: error= 1.20D-02 at cycle   2 NSaved=   2.
 NSaved= 2 IEnMin= 2 EnMin= -1382.06048483815     IErMin= 2 ErrMin= 1.20D-02
 ErrMax= 1.20D-02  0.00D+00 EMaxC= 1.00D-01 BMatC= 4.02D-02 BMatP= 2.50D-01
 IDIUse=3 WtCom= 8.80D-01 WtEn= 1.20D-01
 Coeff-Com:  0.255D+00 0.745D+00
 Coeff-En:   0.418D+00 0.582D+00
 Coeff:      0.275D+00 0.725D+00
 Gap=     0.246 Goal=   None    Shift=    0.000
 RMSDP=2.23D-03 MaxDP=5.09D-02 DE=-5.58D-02 OVMax= 2.93D-01

 Cycle   3  Pass 0  IDiag  1:
 RMSU=  1.75D-03    CP:  9.74D-01  6.08D-01
 E= -1382.27635629469     Delta-E=       -0.215871456548 Rises=F Damp=F
 DIIS: error= 1.90D-02 at cycle   3 NSaved=   3.
 NSaved= 3 IEnMin= 3 EnMin= -1382.27635629469     IErMin= 2 ErrMin= 1.20D-02
 ErrMax= 1.90D-02  0.00D+00 EMaxC= 1.00D-01 BMatC= 3.07D-02 BMatP= 4.02D-02
 IDIUse=3 WtCom= 8.10D-01 WtEn= 1.90D-01
 Coeff-Com:  0.146D+00 0.490D+00 0.364D+00
 Coeff-En:   0.000D+00 0.000D+00 0.100D+01
 Coeff:      0.118D+00 0.397D+00 0.485D+00
 Gap=     0.162 Goal=   None    Shift=    0.000
 RMSDP=1.55D-03 MaxDP=4.67D-02 DE=-2.16D-01 OVMax= 1.17D-01

 Cycle   4  Pass 0  IDiag  1:
 RMSU=  1.09D-03    CP:  9.77D-01  6.93D-01  3.97D-01
 E= -1382.28347432226     Delta-E=       -0.007118027560 Rises=F Damp=F
 DIIS: error= 1.70D-02 at cycle   4 NSaved=   4.
 NSaved= 4 IEnMin= 4 EnMin= -1382.28347432226     IErMin= 2 ErrMin= 1.20D-02
 ErrMax= 1.70D-02  0.00D+00 EMaxC= 1.00D-01 BMatC= 2.62D-02 BMatP= 3.07D-02
 IDIUse=3 WtCom= 8.30D-01 WtEn= 1.70D-01
 Coeff-Com:  0.399D-01 0.148D+00 0.424D+00 0.388D+00
 Coeff-En:   0.000D+00 0.000D+00 0.464D+00 0.536D+00
 Coeff:      0.331D-01 0.123D+00 0.431D+00 0.413D+00
 Gap=     0.163 Goal=   None    Shift=    0.000
 RMSDP=7.46D-04 MaxDP=2.45D-02 DE=-7.12D-03 OVMax= 5.19D-02

 Cycle   5  Pass 0  IDiag  1:
 RMSU=  2.08D-04    CP:  9.76D-01  6.61D-01  6.30D-01  4.71D-01
 E= -1382.31358333377     Delta-E=       -0.030109011519 Rises=F Damp=F
 DIIS: error= 7.31D-04 at cycle   5 NSaved=   5.
 NSaved= 5 IEnMin= 5 EnMin= -1382.31358333377     IErMin= 5 ErrMin= 7.31D-04
 ErrMax= 7.31D-04  0.00D+00 EMaxC= 1.00D-01 BMatC= 1.66D-04 BMatP= 2.62D-02
 IDIUse=3 WtCom= 9.93D-01 WtEn= 7.31D-03
 Coeff-Com:  0.374D-02 0.105D-01 0.132D+00 0.162D+00 0.692D+00
 Coeff-En:   0.000D+00 0.000D+00 0.000D+00 0.000D+00 0.100D+01
 Coeff:      0.371D-02 0.105D-01 0.131D+00 0.161D+00 0.694D+00
 Gap=     0.162 Goal=   None    Shift=    0.000
 RMSDP=9.54D-05 MaxDP=3.93D-03 DE=-3.01D-02 OVMax= 3.12D-03

 Cycle   6  Pass 0  IDiag  1:
 RMSU=  6.22D-05    CP:  9.76D-01  6.60D-01  6.38D-01  4.96D-01  6.89D-01
 E= -1382.31375200528     Delta-E=       -0.000168671504 Rises=F Damp=F
 DIIS: error= 2.42D-04 at cycle   6 NSaved=   6.
 NSaved= 6 IEnMin= 6 EnMin= -1382.31375200528     IErMin= 6 ErrMin= 2.42D-04
 ErrMax= 2.42D-04  0.00D+00 EMaxC= 1.00D-01 BMatC= 1.82D-05 BMatP= 1.66D-04
 IDIUse=3 WtCom= 9.98D-01 WtEn= 2.42D-03
 Coeff-Com: -0.199D-03-0.153D-02 0.402D-01 0.560D-01 0.350D+00 0.556D+00
 Coeff-En:   0.000D+00 0.000D+00 0.000D+00 0.000D+00 0.000D+00 0.100D+01
 Coeff:     -0.198D-03-0.152D-02 0.401D-01 0.559D-01 0.349D+00 0.557D+00
 Gap=     0.162 Goal=   None    Shift=    0.000
 RMSDP=2.61D-05 MaxDP=9.23D-04 DE=-1.69D-04 OVMax= 1.43D-03

 Cycle   7  Pass 0  IDiag  1:
 RMSU=  1.08D-05    CP:  9.76D-01  6.60D-01  6.38D-01  4.96D-01  7.32D-01
                    CP:  6.48D-01
 E= -1382.31377116491     Delta-E=       -0.000019159635 Rises=F Damp=F
 DIIS: error= 1.25D-04 at cycle   7 NSaved=   7.
 NSaved= 7 IEnMin= 7 EnMin= -1382.31377116491     IErMin= 7 ErrMin= 1.25D-04
 ErrMax= 1.25D-04  0.00D+00 EMaxC= 1.00D-01 BMatC= 2.13D-06 BMatP= 1.82D-05
 IDIUse=3 WtCom= 9.99D-01 WtEn= 1.25D-03
 Coeff-Com: -0.224D-03-0.146D-02 0.143D-01 0.214D-01 0.155D+00 0.321D+00
 Coeff-Com:  0.490D+00
 Coeff-En:   0.000D+00 0.000D+00 0.000D+00 0.000D+00 0.000D+00 0.000D+00
 Coeff-En:   0.100D+01
 Coeff:     -0.224D-03-0.145D-02 0.143D-01 0.214D-01 0.155D+00 0.321D+00
 Coeff:      0.490D+00
 Gap=     0.162 Goal=   None    Shift=    0.000
 RMSDP=7.10D-06 MaxDP=2.54D-04 DE=-1.92D-05 OVMax= 6.63D-04

 Initial convergence to 1.0D-05 achieved.  Increase integral accuracy.
 Cycle   8  Pass 1  IDiag  1:
 E= -1382.31376017867     Delta-E=        0.000010986247 Rises=F Damp=F
 DIIS: error= 2.07D-04 at cycle   1 NSaved=   1.
 NSaved= 1 IEnMin= 1 EnMin= -1382.31376017867     IErMin= 1 ErrMin= 2.07D-04
 ErrMax= 2.07D-04  0.00D+00 EMaxC= 1.00D-01 BMatC= 1.34D-06 BMatP= 1.34D-06
 IDIUse=3 WtCom= 9.98D-01 WtEn= 2.07D-03
 Coeff-Com:  0.100D+01
 Coeff-En:   0.100D+01
 Coeff:      0.100D+01
 Gap=     0.162 Goal=   None    Shift=    0.000
 RMSDP=7.10D-06 MaxDP=2.54D-04 DE= 1.10D-05 OVMax= 4.83D-04

 Cycle   9  Pass 1  IDiag  1:
 RMSU=  1.19D-04    CP:  1.00D+00
 E= -1382.31376063429     Delta-E=       -0.000000455626 Rises=F Damp=F
 DIIS: error= 7.74D-05 at cycle   2 NSaved=   2.
 NSaved= 2 IEnMin= 2 EnMin= -1382.31376063429     IErMin= 2 ErrMin= 7.74D-05
 ErrMax= 7.74D-05  0.00D+00 EMaxC= 1.00D-01 BMatC= 7.84D-07 BMatP= 1.34D-06
 IDIUse=1 WtCom= 1.00D+00 WtEn= 0.00D+00
 Coeff-Com:  0.407D+00 0.593D+00
 Coeff:      0.407D+00 0.593D+00
 Gap=     0.162 Goal=   None    Shift=    0.000
 RMSDP=6.50D-06 MaxDP=2.21D-04 DE=-4.56D-07 OVMax= 6.28D-04

 Cycle  10  Pass 1  IDiag  1:
 RMSU=  6.46D-06    CP:  1.00D+00  9.94D-01
 E= -1382.31376095473     Delta-E=       -0.000000320438 Rises=F Damp=F
 DIIS: error= 6.77D-05 at cycle   3 NSaved=   3.
 NSaved= 3 IEnMin= 3 EnMin= -1382.31376095473     IErMin= 3 ErrMin= 6.77D-05
 ErrMax= 6.77D-05  0.00D+00 EMaxC= 1.00D-01 BMatC= 4.75D-07 BMatP= 7.84D-07
 IDIUse=1 WtCom= 1.00D+00 WtEn= 0.00D+00
 Coeff-Com:  0.253D-01 0.433D+00 0.542D+00
 Coeff:      0.253D-01 0.433D+00 0.542D+00
 Gap=     0.162 Goal=   None    Shift=    0.000
 RMSDP=3.28D-06 MaxDP=1.13D-04 DE=-3.20D-07 OVMax= 3.62D-04

 Cycle  11  Pass 1  IDiag  1:
 RMSU=  1.44D-06    CP:  1.00D+00  9.96D-01  5.47D-01
 E= -1382.31376142343     Delta-E=       -0.000000468697 Rises=F Damp=F
 DIIS: error= 2.27D-05 at cycle   4 NSaved=   4.
 NSaved= 4 IEnMin= 4 EnMin= -1382.31376142343     IErMin= 4 ErrMin= 2.27D-05
 ErrMax= 2.27D-05  0.00D+00 EMaxC= 1.00D-01 BMatC= 4.94D-08 BMatP= 4.75D-07
 IDIUse=1 WtCom= 1.00D+00 WtEn= 0.00D+00
 Coeff-Com:  0.460D-02 0.293D+00 0.389D+00 0.314D+00
 Coeff:      0.460D-02 0.293D+00 0.389D+00 0.314D+00
 Gap=     0.162 Goal=   None    Shift=    0.000
 RMSDP=1.15D-06 MaxDP=4.02D-05 DE=-4.69D-07 OVMax= 8.14D-05

 Cycle  12  Pass 1  IDiag  1:
 RMSU=  4.28D-07    CP:  1.00D+00  9.96D-01  5.79D-01  2.70D-01
 E= -1382.31376147594     Delta-E=       -0.000000052514 Rises=F Damp=F
 DIIS: error= 4.01D-06 at cycle   5 NSaved=   5.
 NSaved= 5 IEnMin= 5 EnMin= -1382.31376147594     IErMin= 5 ErrMin= 4.01D-06
 ErrMax= 4.01D-06  0.00D+00 EMaxC= 1.00D-01 BMatC= 3.28D-09 BMatP= 4.94D-08
 IDIUse=1 WtCom= 1.00D+00 WtEn= 0.00D+00
 Coeff-Com:  0.231D-03 0.155D+00 0.211D+00 0.224D+00 0.409D+00
 Coeff:      0.231D-03 0.155D+00 0.211D+00 0.224D+00 0.409D+00
 Gap=     0.162 Goal=   None    Shift=    0.000
 RMSDP=3.07D-07 MaxDP=1.00D-05 DE=-5.25D-08 OVMax= 2.61D-05

 Cycle  13  Pass 1  IDiag  1:
 RMSU=  7.20D-08    CP:  1.00D+00  9.96D-01  5.67D-01  3.28D-01  3.59D-01
 E= -1382.31376147964     Delta-E=       -0.000000003704 Rises=F Damp=F
 DIIS: error= 3.20D-07 at cycle   6 NSaved=   6.
 NSaved= 6 IEnMin= 6 EnMin= -1382.31376147964     IErMin= 6 ErrMin= 3.20D-07
 ErrMax= 3.20D-07  0.00D+00 EMaxC= 1.00D-01 BMatC= 5.01D-11 BMatP= 3.28D-09
 IDIUse=1 WtCom= 1.00D+00 WtEn= 0.00D+00
 Coeff-Com:  0.114D-04 0.806D-01 0.110D+00 0.119D+00 0.236D+00 0.455D+00
 Coeff:      0.114D-04 0.806D-01 0.110D+00 0.119D+00 0.236D+00 0.455D+00
 Gap=     0.162 Goal=   None    Shift=    0.000
 RMSDP=4.73D-08 MaxDP=1.45D-06 DE=-3.70D-09 OVMax= 3.51D-06

 Cycle  14  Pass 1  IDiag  1:
 RMSU=  2.05D-08    CP:  1.00D+00  9.96D-01  5.70D-01  3.31D-01  3.97D-01
                    CP:  5.18D-01
 E= -1382.31376147971     Delta-E=       -0.000000000069 Rises=F Damp=F
 DIIS: error= 1.24D-07 at cycle   7 NSaved=   7.
 NSaved= 7 IEnMin= 7 EnMin= -1382.31376147971     IErMin= 7 ErrMin= 1.24D-07
 ErrMax= 1.24D-07  0.00D+00 EMaxC= 1.00D-01 BMatC= 3.21D-12 BMatP= 5.01D-11
 IDIUse=1 WtCom= 1.00D+00 WtEn= 0.00D+00
 Coeff-Com: -0.607D-05 0.392D-01 0.538D-01 0.583D-01 0.118D+00 0.277D+00
 Coeff-Com:  0.453D+00
 Coeff:     -0.607D-05 0.392D-01 0.538D-01 0.583D-01 0.118D+00 0.277D+00
 Coeff:      0.453D+00
 Gap=     0.162 Goal=   None    Shift=    0.000
 RMSDP=1.04D-08 MaxDP=4.02D-07 DE=-6.87D-11 OVMax= 7.94D-07

 Cycle  15  Pass 1  IDiag  1:
 RMSU=  5.52D-09    CP:  1.00D+00  9.96D-01  5.69D-01  3.31D-01  3.98D-01
                    CP:  5.35D-01  5.83D-01
 E= -1382.31376147971     Delta-E=       -0.000000000001 Rises=F Damp=F
 DIIS: error= 3.36D-08 at cycle   8 NSaved=   8.
 NSaved= 8 IEnMin= 8 EnMin= -1382.31376147971     IErMin= 8 ErrMin= 3.36D-08
 ErrMax= 3.36D-08  0.00D+00 EMaxC= 1.00D-01 BMatC= 2.90D-13 BMatP= 3.21D-12
 IDIUse=1 WtCom= 1.00D+00 WtEn= 0.00D+00
 Coeff-Com: -0.462D-05 0.232D-01 0.318D-01 0.346D-01 0.703D-01 0.169D+00
 Coeff-Com:  0.308D+00 0.363D+00
 Coeff:     -0.462D-05 0.232D-01 0.318D-01 0.346D-01 0.703D-01 0.169D+00
 Coeff:      0.308D+00 0.363D+00
 Gap=     0.162 Goal=   None    Shift=    0.000
 RMSDP=3.06D-09 MaxDP=1.19D-07 DE=-1.36D-12 OVMax= 3.29D-07

 SCF Done:  E(RB-LYP) =  -1382.31376148     A.U. after   15 cycles
            NFock= 15  Conv=0.31D-08     -V/T= 2.0032
 KE= 1.377867688432D+03 PE=-5.114429868071D+03 EE= 1.426703914503D+03
 Leave Link  502 at Wed May  4 13:10:54 2022, MaxMem=  2684354560 cpu:             144.0 elap:              18.1
 (Enter /apps/software/g16/l601.exe)
 Copying SCF densities to generalized density rwf, IOpCl= 0 IROHF=0.

 **********************************************************************

            Population analysis using the SCF density.

 **********************************************************************

 Orbital symmetries:
       Occupied  (A) (A) (A) (A) (A) (A) (A) (A) (A) (A) (A) (A)
                 (A) (A) (A) (A) (A) (A) (A) (A) (A) (A) (A) (A)
                 (A) (A) (A) (A) (A) (A) (A) (A) (A) (A) (A) (A)
                 (A) (A) (A) (A) (A) (A) (A) (A) (A) (A) (A) (A)
                 (A) (A) (A) (A) (A) (A) (A) (A) (A)
       Virtual   (A) (A) (A) (A) (A) (A) (A) (A) (A) (A) (A) (A)
                 (A) (A) (A) (A) (A) (A) (A) (A) (A) (A) (A) (A)
                 (A) (A) (A) (A) (A) (A) (A) (A) (A) (A) (A) (A)
                 (A) (A) (A) (A) (A) (A) (A) (A) (A) (A) (A) (A)
                 (A) (A) (A) (A) (A) (A) (A) (A) (A) (A) (A) (A)
                 (A) (A) (A) (A) (A) (A) (A) (A) (A) (A) (A) (A)
                 (A) (A) (A) (A) (A) (A) (A) (A) (A) (A) (A) (A)
                 (A) (A) (A) (A) (A) (A) (A) (A) (A) (A) (A) (A)
                 (A) (A) (A) (A) (A) (A) (A) (A) (A) (A) (A) (A)
                 (A) (A) (A) (A) (A) (A) (A) (A) (A) (A) (A) (A)
                 (A) (A) (A) (A) (A) (A) (A) (A) (A) (A) (A) (A)
                 (A) (A) (A) (A) (A) (A) (A) (A) (A) (A) (A) (A)
                 (A) (A) (A) (A) (A) (A) (A) (A) (A) (A) (A) (A)
                 (A) (A) (A) (A) (A) (A) (A) (A) (A) (A) (A) (A)
                 (A) (A) (A) (A) (A) (A) (A) (A) (A) (A) (A) (A)
                 (A) (A) (A) (A) (A) (A) (A)
 The electronic state is 1-A.
 Alpha  occ. eigenvalues -- -100.74658-100.74658  -9.98283  -9.98283  -9.94255
 Alpha  occ. eigenvalues --   -9.94241  -9.93851  -9.93851  -9.93851  -9.93851
 Alpha  occ. eigenvalues --   -9.93752  -9.93752  -9.93752  -9.93752  -9.17710
 Alpha  occ. eigenvalues --   -9.17709  -7.01008  -7.01008  -6.99910  -6.99909
 Alpha  occ. eigenvalues --   -6.99849  -6.99848  -0.81537  -0.81043  -0.77433
 Alpha  occ. eigenvalues --   -0.75245  -0.68921  -0.68614  -0.68614  -0.63953
 Alpha  occ. eigenvalues --   -0.55983  -0.55983  -0.55332  -0.52390  -0.48072
 Alpha  occ. eigenvalues --   -0.44532  -0.42455  -0.42455  -0.41768  -0.40460
 Alpha  occ. eigenvalues --   -0.38411  -0.38410  -0.38289  -0.35201  -0.35201
 Alpha  occ. eigenvalues --   -0.34754  -0.31865  -0.31864  -0.30606  -0.28872
 Alpha  occ. eigenvalues --   -0.28871  -0.26540  -0.26540  -0.23834  -0.23331
 Alpha  occ. eigenvalues --   -0.21402  -0.21402
 Alpha virt. eigenvalues --   -0.05206  -0.04053  -0.04053  -0.03438   0.00473
 Alpha virt. eigenvalues --    0.00520   0.06409   0.06578   0.07076   0.07076
 Alpha virt. eigenvalues --    0.09589   0.09972   0.09972   0.10537   0.12196
 Alpha virt. eigenvalues --    0.12196   0.18093   0.20491   0.24270   0.24313
 Alpha virt. eigenvalues --    0.24314   0.25125   0.26838   0.27590   0.27590
 Alpha virt. eigenvalues --    0.36597   0.36598   0.36816   0.38818   0.39263
 Alpha virt. eigenvalues --    0.41087   0.41089   0.42068   0.42198   0.42198
 Alpha virt. eigenvalues --    0.44150   0.44703   0.44703   0.44841   0.45337
 Alpha virt. eigenvalues --    0.45467   0.46613   0.47279   0.47372   0.47372
 Alpha virt. eigenvalues --    0.47721   0.47955   0.48605   0.50271   0.51937
 Alpha virt. eigenvalues --    0.51937   0.52715   0.52715   0.54069   0.54069
 Alpha virt. eigenvalues --    0.58590   0.58596   0.58597   0.59764   0.61154
 Alpha virt. eigenvalues --    0.61155   0.61673   0.63067   0.63069   0.63245
 Alpha virt. eigenvalues --    0.66454   0.66454   0.67292   0.67647   0.68419
 Alpha virt. eigenvalues --    0.69081   0.69793   0.72570   0.72570   0.77103
 Alpha virt. eigenvalues --    0.77911   0.78099   0.83158   0.84488   0.84931
 Alpha virt. eigenvalues --    0.84931   0.87613   0.87614   0.88485   0.88610
 Alpha virt. eigenvalues --    0.88950   0.88952   0.93211   0.94262   0.94263
 Alpha virt. eigenvalues --    0.94757   0.95234   0.97139   0.98994   0.99234
 Alpha virt. eigenvalues --    1.00932   1.01176   1.04206   1.06737   1.06739
 Alpha virt. eigenvalues --    1.08533   1.11199   1.14767   1.17007   1.17009
 Alpha virt. eigenvalues --    1.17500   1.17500   1.21726   1.21727   1.26838
 Alpha virt. eigenvalues --    1.31327   1.31327   1.31595   1.38331   1.38767
 Alpha virt. eigenvalues --    1.42377   1.43451   1.43452   1.43888   1.48373
 Alpha virt. eigenvalues --    1.48374   1.49739   1.50106   1.51436   1.51437
 Alpha virt. eigenvalues --    1.55848   1.56009   1.56010   1.56981   1.58906
 Alpha virt. eigenvalues --    1.61407   1.62802   1.62971   1.63632   1.63969
 Alpha virt. eigenvalues --    1.63970   1.64906   1.68800   1.68801   1.69001
 Alpha virt. eigenvalues --    1.71132   1.72246   1.72257   1.75086   1.76753
 Alpha virt. eigenvalues --    1.77845   1.77889   1.79581   1.79581   1.84191
 Alpha virt. eigenvalues --    1.84192   1.88888   1.89625   1.91248   1.91552
 Alpha virt. eigenvalues --    1.91552   1.92125   1.97046   1.97048   2.02225
 Alpha virt. eigenvalues --    2.03548   2.04024   2.08900   2.09637   2.09637
 Alpha virt. eigenvalues --    2.18487   2.20416   2.28172   2.28176   2.32787
 Alpha virt. eigenvalues --    2.35655   2.36346   2.36346   2.45061   2.45065
 Alpha virt. eigenvalues --    2.55667   2.58862   2.60476   2.63557   2.63559
 Alpha virt. eigenvalues --    2.64475   2.64925   2.67022   2.84791   2.84796
 Alpha virt. eigenvalues --    3.29642   3.44321
          Condensed to atoms (all electrons):
               1          2          3          4          5          6
     1  C    4.781010   0.428278   0.046624  -0.100494   0.048616   0.385739
     2  C    0.428278   4.835870   0.428084   0.036238  -0.100491   0.044551
     3  C    0.046624   0.428084   5.080902   0.428071   0.046622  -0.097726
     4  C   -0.100494   0.036238   0.428071   4.835872   0.428279   0.044551
     5  C    0.048616  -0.100491   0.046622   0.428279   4.780998   0.385747
     6  C    0.385739   0.044551  -0.097726   0.044551   0.385747   5.175790
     7  H    0.375271  -0.049755   0.012278  -0.000488   0.014209  -0.064783
     8  H   -0.057510   0.375654  -0.057966   0.016039  -0.000583   0.013546
     9  H   -0.000583   0.016039  -0.057968   0.375654  -0.057509   0.013547
    10  H    0.014210  -0.000489   0.012278  -0.049757   0.375269  -0.064781
    11  C    0.006319  -0.081886   0.320972  -0.081888   0.006318   0.001283
    12  C   -0.000072  -0.004246  -0.081858  -0.004246  -0.000072   0.000015
    13  C   -0.000071  -0.004246  -0.081883  -0.004246  -0.000071   0.000015
    14  C    0.000017  -0.000072   0.006315  -0.000072   0.000017  -0.000001
    15  H   -0.000299   0.001641  -0.017587   0.001641  -0.000299  -0.000031
    16  C    0.000017  -0.000071   0.006319  -0.000071   0.000017  -0.000001
    17  H   -0.000299   0.001642  -0.017590   0.001642  -0.000299  -0.000031
    18  C   -0.000001   0.000015   0.001283   0.000015  -0.000001  -0.000000
    19  H   -0.000000  -0.000005  -0.000386  -0.000005  -0.000000   0.000000
    20  H   -0.000000  -0.000005  -0.000386  -0.000005  -0.000000   0.000000
    21  Cl  -0.081620   0.007171   0.000249   0.007171  -0.081617   0.283847
    22  Cl   0.000000   0.000000   0.000003   0.000000   0.000000  -0.000000
               7          8          9         10         11         12
     1  C    0.375271  -0.057510  -0.000583   0.014210   0.006319  -0.000072
     2  C   -0.049755   0.375654   0.016039  -0.000489  -0.081886  -0.004246
     3  C    0.012278  -0.057966  -0.057968   0.012278   0.320972  -0.081858
     4  C   -0.000488   0.016039   0.375654  -0.049757  -0.081888  -0.004246
     5  C    0.014209  -0.000583  -0.057509   0.375269   0.006318  -0.000072
     6  C   -0.064783   0.013546   0.013547  -0.064781   0.001283   0.000015
     7  H    0.796707  -0.020388   0.000094  -0.000347  -0.000386  -0.000005
     8  H   -0.020388   0.818051  -0.000349   0.000094  -0.017589   0.001642
     9  H    0.000094  -0.000349   0.818054  -0.020389  -0.017588   0.001643
    10  H   -0.000347   0.000094  -0.020389   0.796710  -0.000386  -0.000005
    11  C   -0.000386  -0.017589  -0.017588  -0.000386   5.080849   0.428076
    12  C   -0.000005   0.001642   0.001643  -0.000005   0.428076   4.835869
    13  C   -0.000005   0.001640   0.001640  -0.000005   0.428150   0.036218
    14  C   -0.000000  -0.000299  -0.000299  -0.000000   0.046611   0.428252
    15  H    0.000005   0.000584   0.000584   0.000005  -0.057939   0.375652
    16  C   -0.000000  -0.000298  -0.000298  -0.000000   0.046632  -0.100499
    17  H    0.000005   0.000584   0.000584   0.000005  -0.057942   0.016039
    18  C    0.000000  -0.000031  -0.000031   0.000000  -0.097705   0.044549
    19  H    0.000000   0.000005   0.000005   0.000000   0.012273  -0.049789
    20  H    0.000000   0.000005   0.000005   0.000000   0.012274  -0.000488
    21  Cl  -0.005597  -0.000263  -0.000263  -0.005597   0.000003   0.000000
    22  Cl  -0.000000  -0.000000  -0.000000  -0.000000   0.000249   0.007172
              13         14         15         16         17         18
     1  C   -0.000071   0.000017  -0.000299   0.000017  -0.000299  -0.000001
     2  C   -0.004246  -0.000072   0.001641  -0.000071   0.001642   0.000015
     3  C   -0.081883   0.006315  -0.017587   0.006319  -0.017590   0.001283
     4  C   -0.004246  -0.000072   0.001641  -0.000071   0.001642   0.000015
     5  C   -0.000071   0.000017  -0.000299   0.000017  -0.000299  -0.000001
     6  C    0.000015  -0.000001  -0.000031  -0.000001  -0.000031  -0.000000
     7  H   -0.000005  -0.000000   0.000005  -0.000000   0.000005   0.000000
     8  H    0.001640  -0.000299   0.000584  -0.000298   0.000584  -0.000031
     9  H    0.001640  -0.000299   0.000584  -0.000298   0.000584  -0.000031
    10  H   -0.000005  -0.000000   0.000005  -0.000000   0.000005   0.000000
    11  C    0.428150   0.046611  -0.057939   0.046632  -0.057942  -0.097705
    12  C    0.036218   0.428252   0.375652  -0.100499   0.016039   0.044549
    13  C    4.835912  -0.100489   0.016042   0.428199   0.375663   0.044553
    14  C   -0.100489   4.781023  -0.057534   0.048596  -0.000583   0.385784
    15  H    0.016042  -0.057534   0.818035  -0.000583  -0.000350   0.013541
    16  C    0.428199   0.048596  -0.000583   4.781027  -0.057541   0.385815
    17  H    0.375663  -0.000583  -0.000350  -0.057541   0.818048   0.013543
    18  C    0.044553   0.385784   0.013541   0.385815   0.013543   5.175654
    19  H   -0.000488   0.375270  -0.020379   0.014213   0.000094  -0.064748
    20  H   -0.049786   0.014213   0.000094   0.375268  -0.020379  -0.064751
    21  Cl   0.000000   0.000000  -0.000000   0.000000  -0.000000  -0.000000
    22  Cl   0.007171  -0.081606  -0.000263  -0.081614  -0.000263   0.283825
              19         20         21         22
     1  C   -0.000000  -0.000000  -0.081620   0.000000
     2  C   -0.000005  -0.000005   0.007171   0.000000
     3  C   -0.000386  -0.000386   0.000249   0.000003
     4  C   -0.000005  -0.000005   0.007171   0.000000
     5  C   -0.000000  -0.000000  -0.081617   0.000000
     6  C    0.000000   0.000000   0.283847  -0.000000
     7  H    0.000000   0.000000  -0.005597  -0.000000
     8  H    0.000005   0.000005  -0.000263  -0.000000
     9  H    0.000005   0.000005  -0.000263  -0.000000
    10  H    0.000000   0.000000  -0.005597  -0.000000
    11  C    0.012273   0.012274   0.000003   0.000249
    12  C   -0.049789  -0.000488   0.000000   0.007172
    13  C   -0.000488  -0.049786   0.000000   0.007171
    14  C    0.375270   0.014213   0.000000  -0.081606
    15  H   -0.020379   0.000094  -0.000000  -0.000263
    16  C    0.014213   0.375268   0.000000  -0.081614
    17  H    0.000094  -0.020379  -0.000000  -0.000263
    18  C   -0.064748  -0.064751  -0.000000   0.283825
    19  H    0.796699  -0.000347  -0.000000  -0.005596
    20  H   -0.000347   0.796699  -0.000000  -0.005599
    21  Cl  -0.000000  -0.000000  16.961700   0.000000
    22  Cl  -0.005596  -0.005599   0.000000  16.961721
 Mulliken charges:
               1
     1  C    0.154849
     2  C    0.066080
     3  C    0.023349
     4  C    0.066097
     5  C    0.154849
     6  C   -0.121277
     7  H   -0.056814
     8  H   -0.072569
     9  H   -0.072571
    10  H   -0.056816
    11  C    0.023302
    12  C    0.066154
    13  C    0.066088
    14  C    0.154856
    15  H   -0.072562
    16  C    0.154876
    17  H   -0.072572
    18  C   -0.121310
    19  H   -0.056814
    20  H   -0.056812
    21  Cl  -0.085184
    22  Cl  -0.085200
 Sum of Mulliken charges =  -0.00000
 Mulliken charges with hydrogens summed into heavy atoms:
               1
     1  C    0.098035
     2  C   -0.006488
     3  C    0.023349
     4  C   -0.006474
     5  C    0.098033
     6  C   -0.121277
    11  C    0.023302
    12  C   -0.006409
    13  C   -0.006484
    14  C    0.098042
    16  C    0.098064
    18  C   -0.121310
    21  Cl  -0.085184
    22  Cl  -0.085200
 Electronic spatial extent (au):  <R**2>=           5587.2576
 Charge=             -0.0000 electrons
 Dipole moment (field-independent basis, Debye):
    X=              0.0002    Y=              0.0000    Z=              0.0000  Tot=              0.0002
 Quadrupole moment (field-independent basis, Debye-Ang):
   XX=           -108.1209   YY=            -90.9172   ZZ=            -91.0526
   XY=              0.1371   XZ=             -1.5359   YZ=              0.0122
 Traceless Quadrupole moment (field-independent basis, Debye-Ang):
   XX=            -11.4240   YY=              5.7797   ZZ=              5.6443
   XY=              0.1371   XZ=             -1.5359   YZ=              0.0122
 Octapole moment (field-independent basis, Debye-Ang**2):
  XXX=              0.3691  YYY=              0.3686  ZZZ=              4.1176  XYY=            -15.4926
  XXY=             -0.2425  XXZ=             -2.7339  XZZ=             15.1297  YZZ=             -0.1226
  YYZ=             -1.3830  XYZ=             -0.0102
 Hexadecapole moment (field-independent basis, Debye-Ang**3):
 XXXX=          -6875.4636 YYYY=           -335.4655 ZZZZ=           -384.1656 XXXY=             27.4947
 XXXZ=           -309.0042 YYYX=             24.4452 YYYZ=              2.1813 ZZZX=           -275.1372
 ZZZY=              2.1519 XXYY=          -1138.2296 XXZZ=          -1149.2428 YYZZ=           -135.9040
 XXYZ=              1.0221 YYXZ=            -90.1979 ZZXY=              8.0501
 N-N= 9.275445036572D+02 E-N=-5.114429870206D+03  KE= 1.377867688432D+03
 No NMR shielding tensors so no spin-rotation constants.
 Leave Link  601 at Wed May  4 13:10:55 2022, MaxMem=  2684354560 cpu:               0.8 elap:               0.1
 (Enter /apps/software/g16/l9999.exe)
 1\1\GINC-CNODE12\SP\RBLYP\CC-pVDZ\C12H8Cl2\LCZ\04-May-2022\0\\#p BLYP/
 cc-pVDZ\\3,8-dicl-dibenzene SP RKS BLYP cc-pVDZ\\0,1\C,0,-2.5816008418
 ,0.858283184,0.0008015685\C,0,-1.1942307521,0.8653626942,0.0009805434\
 C,0,-0.4818482166,2.0624118955,0.0002696943\C,0,-1.1941642345,3.259500
 5578,-0.0006284677\C,0,-2.5815339267,3.2666569157,-0.0008169716\C,0,-3
 .2667850308,2.0624891666,0.0001104888\H,0,-3.1277021325,-0.0739539917,
 0.0013068031\H,0,-0.6597752577,-0.0753574606,0.0016302582\H,0,-0.65965
 64649,4.2001910355,-0.0012431726\H,0,-3.1275834138,4.1989242727,-0.001
 5647805\C,0,1.0172566181,2.0623705989,0.0007816441\C,0,1.7297944005,2.
 0615456939,-1.1962774011\C,0,1.7293959808,2.0631559259,1.1979140145\C,
 0,3.117125426,2.0615024087,-1.2032177964\H,0,1.1953094309,2.0609278449
 ,-2.1369770743\C,0,3.1167839126,2.0631222706,1.2051929893\H,0,1.194685
 8394,2.0638033807,2.138491302\C,0,3.8021303247,2.062293378,0.001122298
 4\H,0,3.6635114239,2.0608602856,-2.1352874129\H,0,3.662876597,2.063734
 0867,2.1374365962\Cl,0,-5.0074713331,2.0625371637,-0.0004379395\Cl,0,5
 .5428489004,2.0622451127,0.0013688058\\Version=ES64L-G16RevA.03\State=
 1-A\HF=-1382.3137615\RMSD=3.058e-09\Dipole=-0.0000834,-0.0000044,-0.00
 00186\Quadrupole=-8.5962204,4.2983378,4.2978825,0.000403,-0.0018442,0.
 0000008\PG=C01 [X(C12H8Cl2)]\\@


 The hours that make us happy make us wise.
                         -- John Masefield
 Job cpu time:       0 days  0 hours  2 minutes 34.4 seconds.
 Elapsed time:       0 days  0 hours  0 minutes 19.5 seconds.
 File lengths (MBytes):  RWF=     38 Int=      0 D2E=      0 Chk=      5 Scr=      1
 Normal termination of Gaussian 16 at Wed May  4 13:10:55 2022.

Sender: Unischeduler System <lcz@mgt01>
Subject: Job 127802: <#!/bin/bash
#BSUB -J intel
#BSUB -o 3,8-dicl-dibenzene.out
#BSUB -n 8
#BSUB -q cqueue
#BSUB -R span[hosts=1]
export g16root=/apps/software
source /apps/software/g16/bsd/g16.profile
export GAUSS_SCRDIR=/scratch
/apps/software/g16/g16 < 3,8-dicl-dibenzene.inp > 3,8-dicl-dibenzene.out> Done

Job <#!/bin/bash
#BSUB -J intel
#BSUB -o 3,8-dicl-dibenzene.out
#BSUB -n 8
#BSUB -q cqueue
#BSUB -R span[hosts=1]
export g16root=/apps/software
source /apps/software/g16/bsd/g16.profile
export GAUSS_SCRDIR=/scratch
/apps/software/g16/g16 < 3,8-dicl-dibenzene.inp > 3,8-dicl-dibenzene.out> was submitted from host <mgt01> by user <lcz>.
Job was executed on host(s) <8*cnode12>, in queue <cqueue>, as user <lcz>.
</apps/users/lcz> was used as the home directory.
</apps/users/lcz/task2/section1/isomer2/BLYP_cc-pVDZ/Gaussian> was used as the working directory.
Started at 2022-05-04 13:10:35
Results reported at 2022-05-04 13:10:55

Your job looked like:

------------------------------------------------------------
# User input
#!/bin/bash
#BSUB -J intel
#BSUB -o 3,8-dicl-dibenzene.out
#BSUB -n 8
#BSUB -q cqueue
#BSUB -R span[hosts=1]
export g16root=/apps/software
source /apps/software/g16/bsd/g16.profile
export GAUSS_SCRDIR=/scratch
/apps/software/g16/g16 < 3,8-dicl-dibenzene.inp > 3,8-dicl-dibenzene.out
------------------------------------------------------------

Successfully completed.

Resource usage summary:

    CPU time   :          103.15 sec.
    Max Memory :               391 MB
    Max Processes  :               5


The output (if any) follows:

