
                                        *****************
                                        * O   R   C   A *
                                        *****************

                                            #,                                       
                                            ###                                      
                                            ####                                     
                                            #####                                    
                                            ######                                   
                                           ########,                                 
                                     ,,################,,,,,                         
                               ,,#################################,,                 
                          ,,##########################################,,             
                       ,#########################################, ''#####,          
                    ,#############################################,,   '####,        
                  ,##################################################,,,,####,       
                ,###########''''           ''''###############################       
              ,#####''   ,,,,##########,,,,          '''####'''          '####       
            ,##' ,,,,###########################,,,                        '##       
           ' ,,###''''                  '''############,,,                           
         ,,##''                                '''############,,,,        ,,,,,,###''
      ,#''                                            '''#######################'''  
     '                                                          ''''####''''         
             ,#######,   #######,   ,#######,      ##                                
            ,#'     '#,  ##    ##  ,#'     '#,    #''#        ######   ,####,        
            ##       ##  ##   ,#'  ##            #'  '#       #        #'  '#        
            ##       ##  #######   ##           ,######,      #####,   #    #        
            '#,     ,#'  ##    ##  '#,     ,#' ,#      #,         ##   #,  ,#        
             '#######'   ##     ##  '#######'  #'      '#     #####' # '####'        



                  #######################################################
                  #                        -***-                        #
                  #          Department of theory and spectroscopy      #
                  #    Directorship and core code : Frank Neese         #
                  #        Max Planck Institute fuer Kohlenforschung    #
                  #                Kaiser Wilhelm Platz 1               #
                  #                 D-45470 Muelheim/Ruhr               #
                  #                      Germany                        #
                  #                                                     #
                  #                  All rights reserved                #
                  #                        -***-                        #
                  #######################################################


                         Program Version 5.0.0 -  RELEASE  -
                                (SVN: $Rev: 19529$)
                ($Date: 2021-06-28 11:36:33 +0200 (Mo, 28 Jun 2021) $)


 With contributions from (in alphabetic order):
   Daniel Aravena         : Magnetic Suceptibility
   Michael Atanasov       : Ab Initio Ligand Field Theory (pilot matlab implementation)
   Alexander A. Auer      : GIAO ZORA, VPT2 properties, NMR spectrum
   Ute Becker             : Parallelization
   Giovanni Bistoni       : ED, misc. LED, open-shell LED, HFLD
   Martin Brehm           : Molecular dynamics
   Dmytro Bykov           : SCF Hessian
   Vijay G. Chilkuri      : MRCI spin determinant printing, contributions to CSF-ICE
   Dipayan Datta          : RHF DLPNO-CCSD density
   Achintya Kumar Dutta   : EOM-CC, STEOM-CC
   Dmitry Ganyushin       : Spin-Orbit,Spin-Spin,Magnetic field MRCI
   Miquel Garcia          : C-PCM Hessian, Gaussian charge scheme
   Yang Guo               : DLPNO-NEVPT2, F12-NEVPT2, CIM, IAO-localization
   Andreas Hansen         : Spin unrestricted coupled pair/coupled cluster methods
   Benjamin Helmich-Paris : MC-RPA, TRAH-SCF, COSX integrals
   Lee Huntington         : MR-EOM, pCC
   Robert Izsak           : Overlap fitted RIJCOSX, COSX-SCS-MP3, EOM
   Marcus Kettner         : VPT2
   Christian Kollmar      : KDIIS, OOCD, Brueckner-CCSD(T), CCSD density, CASPT2, CASPT2-K
   Simone Kossmann        : Meta GGA functionals, TD-DFT gradient, OOMP2, MP2 Hessian
   Martin Krupicka        : Initial AUTO-CI
   Lucas Lang             : DCDCAS
   Marvin Lechner         : AUTO-CI (C++ implementation), FIC-MRCC
   Dagmar Lenk            : GEPOL surface, SMD
   Dimitrios Liakos       : Extrapolation schemes; Compound Job, initial MDCI parallelization
   Dimitrios Manganas     : Further ROCIS development; embedding schemes
   Dimitrios Pantazis     : SARC Basis sets
   Anastasios Papadopoulos: AUTO-CI, single reference methods and gradients
   Taras Petrenko         : DFT Hessian,TD-DFT gradient, ASA, ECA, R-Raman, ABS, FL, XAS/XES, NRVS
   Peter Pinski           : DLPNO-MP2, DLPNO-MP2 Gradient
   Christoph Reimann      : Effective Core Potentials
   Marius Retegan         : Local ZFS, SOC
   Christoph Riplinger    : Optimizer, TS searches, QM/MM, DLPNO-CCSD(T), (RO)-DLPNO pert. Triples
   Tobias Risthaus        : Range-separated hybrids, TD-DFT gradient, RPA, STAB
   Michael Roemelt        : Original ROCIS implementation
   Masaaki Saitow         : Open-shell DLPNO-CCSD energy and density
   Barbara Sandhoefer     : DKH picture change effects
   Avijit Sen             : IP-ROCIS
   Kantharuban Sivalingam : CASSCF convergence, NEVPT2, FIC-MRCI
   Bernardo de Souza      : ESD, SOC TD-DFT
   Georgi Stoychev        : AutoAux, RI-MP2 NMR
   Willem Van den Heuvel  : Paramagnetic NMR
   Boris Wezisla          : Elementary symmetry handling
   Frank Wennmohs         : Technical directorship


 We gratefully acknowledge several colleagues who have allowed us to
 interface, adapt or use parts of their codes:
   Stefan Grimme, W. Hujo, H. Kruse, P. Pracht,  : VdW corrections, initial TS optimization,
                  C. Bannwarth, S. Ehlert          DFT functionals, gCP, sTDA/sTD-DF
   Ed Valeev, F. Pavosevic, A. Kumar             : LibInt (2-el integral package), F12 methods
   Garnet Chan, S. Sharma, J. Yang, R. Olivares  : DMRG
   Ulf Ekstrom                                   : XCFun DFT Library
   Mihaly Kallay                                 : mrcc  (arbitrary order and MRCC methods)
   Jiri Pittner, Ondrej Demel                    : Mk-CCSD
   Frank Weinhold                                : gennbo (NPA and NBO analysis)
   Christopher J. Cramer and Donald G. Truhlar   : smd solvation model
   Lars Goerigk                                  : TD-DFT with DH, B97 family of functionals
   V. Asgeirsson, H. Jonsson                     : NEB implementation
   FAccTs GmbH                                   : IRC, NEB, NEB-TS, DLPNO-Multilevel, CI-OPT
                                                   MM, QMMM, 2- and 3-layer-ONIOM, Crystal-QMMM,
                                                   LR-CPCM, SF, NACMEs, symmetry and pop. for TD-DFT,
                                                   nearIR, NL-DFT gradient (VV10), updates on ESD,
                                                   ML-optimized integration grids
   S Lehtola, MJT Oliveira, MAL Marques          : LibXC Library
   Liviu Ungur et al                             : ANISO software


 Your calculation uses the libint2 library for the computation of 2-el integrals
 For citations please refer to: http://libint.valeyev.net

 Your ORCA version has been built with support for libXC version: 5.1.0
 For citations please refer to: https://tddft.org/programs/libxc/

 This ORCA versions uses:
   CBLAS   interface :  Fast vector & matrix operations
   LAPACKE interface :  Fast linear algebra routines
   SCALAPACK package :  Parallel linear algebra routines
   Shared memory     :  Shared parallel matrices
   BLAS/LAPACK       :  OpenBLAS 0.3.15  USE64BITINT DYNAMIC_ARCH NO_AFFINITY SkylakeX SINGLE_THREADED
        Core in use  :  SkylakeX
   Copyright (c) 2011-2014, The OpenBLAS Project


================================================================================

----- Orbital basis set information -----
Your calculation utilizes the basis: cc-pVTZ 
       H, B-Ne : Obtained from the ccRepo (grant-hill.group.shef.ac.uk/ccrepo) Feb. 2017
                 T. H. Dunning, Jr., J. Chem. Phys. 90, 1007 (1989)
            He : Obtained from the ccRepo (grant-hill.group.shef.ac.uk/ccrepo) Feb. 2017
                 D. E. Woon, T. H. Dunning, Jr., J. Chem. Phys. 100, 2975 (1994)
  Li-Be, Na-Mg : Obtained from the ccRepo (grant-hill.group.shef.ac.uk/ccrepo) Feb. 2017
                 B. P. Prascher, D. E. Woon, K. A. Peterson, T. H. Dunning, Jr., A. K. Wilson, Theor. Chem. Acc. 128, 69 (2011)
         Al-Ar : Obtained from the ccRepo (grant-hill.group.shef.ac.uk/ccrepo) Feb. 2017
                 D. E. Woon, T. H. Dunning, Jr., J. Chem. Phys. 98, 1358 (1993)
            Ca : Obtained from the Peterson Research Group Website (tyr0.chem.wsu.edu/~kipeters) Feb. 2017
                 J. Koput, K. A. Peterson, J. Phys. Chem. 106, 9595 (2002)
         Sc-Zn : Obtained from the ccRepo (grant-hill.group.shef.ac.uk/ccrepo) Feb. 2017
                 N. B. Balabanov, K. A. Peterson, J. Chem. Phys. 123, 064107 (2005)
                 N. B. Balabanov, K. A. Peterson, J. Chem. Phys. 125, 074110 (2006)
         Ga-Kr : Obtained from the ccRepo (grant-hill.group.shef.ac.uk/ccrepo) Feb. 2017
                 A. K. Wilson, D. E. Woon, K. A. Peterson, T. H. Dunning, Jr., J. Chem. Phys. 110, 7667 (1999)
             Y : Obtained from the ccRepo (grant-hill.group.shef.ac.uk/ccrepo) Feb. 2017
                 K. A. Peterson, D. Figgen, M. Dolg, H. Stoll, J. Chem. Phys. 126, 124101 (2007)
        Ag, Au : Obtained from the Peterson Research Group Website (tyr0.chem.wsu.edu/~kipeters) Feb. 2017
                 K. A. Peterson, C. Puzzarini, Theor. Chem. Acc. 114, 283 (2005)

================================================================================
                                        WARNINGS
                       Please study these warnings very carefully!
================================================================================


INFO   : the flag for use of the SHARK integral package has been found!

================================================================================
                                       INPUT FILE
================================================================================
NAME = /scratch/stability-UHF_358/stability-UHF.inp
|  1> ! UHF cc-pVTZ VeryTightSCF NoTRAH
|  2> 
|  3> %pal
|  4>     nprocs 16
|  5> end
|  6> 
|  7> %scf
|  8>     MaxIter     500
|  9>     STABPerform true
| 10> end
| 11> 
| 12> *xyz 2 5
| 13> Fe -0.64257176050830  0.51803920561668  0.11515259480577
| 14>  O  0.11174687498777  2.15027362958097 -0.78003307659188
| 15>  H  0.70766775417542  2.71590643817051 -0.25346860209865
| 16>  O -1.31193844940493 -0.30254437211926 -1.59153974321848
| 17>  H -1.93648366806763  0.13093135988795 -2.20090760771949
| 18>  O  0.02720918798052  1.33940572113505  1.82122676893196
| 19>  H  0.65258765622944  0.90686870076571  2.43040311553976
| 20>  O -1.39648053530566 -1.11444807905756  1.01023916292248
| 21>  H -1.99331392681300 -1.67940484230818  0.48397490889195
| 22>  O -2.28682023617329  1.63340828371306  0.41005372492049
| 23>  H -2.35377021104600  2.47291065207153 -0.08301808819513
| 24>  O  1.00194372931180 -0.59712335622834 -0.17950165163229
| 25>  H  1.06807766676477 -1.43758842942053  0.31202545851205
| 26>  H -3.18922098471738  1.27280247171927  0.48036417156888
| 27>  H -0.66521991563992 -0.78352006296416 -2.14179468111308
| 28>  H  1.90454646424149 -0.23678289755293 -0.24845043594753
| 29>  H  0.43776650602076  2.17113603799071 -1.69794346797289
| 30>  H -0.61875604533523  1.82123954705219  2.37159866149671
| 31>  H -1.72126010670064 -1.13595000805262  1.92856878689935
| 32>  *
| 33> 
| 34>                          ****END OF INPUT****
================================================================================

                       ****************************
                       * Single Point Calculation *
                       ****************************

---------------------------------
CARTESIAN COORDINATES (ANGSTROEM)
---------------------------------
  Fe    -0.642572    0.518039    0.115153
  O      0.111747    2.150274   -0.780033
  H      0.707668    2.715906   -0.253469
  O     -1.311938   -0.302544   -1.591540
  H     -1.936484    0.130931   -2.200908
  O      0.027209    1.339406    1.821227
  H      0.652588    0.906869    2.430403
  O     -1.396481   -1.114448    1.010239
  H     -1.993314   -1.679405    0.483975
  O     -2.286820    1.633408    0.410054
  H     -2.353770    2.472911   -0.083018
  O      1.001944   -0.597123   -0.179502
  H      1.068078   -1.437588    0.312025
  H     -3.189221    1.272802    0.480364
  H     -0.665220   -0.783520   -2.141795
  H      1.904546   -0.236783   -0.248450
  H      0.437767    2.171136   -1.697943
  H     -0.618756    1.821240    2.371599
  H     -1.721260   -1.135950    1.928569

----------------------------
CARTESIAN COORDINATES (A.U.)
----------------------------
  NO LB      ZA    FRAG     MASS         X           Y           Z
   0 Fe   26.0000    0    55.850   -1.214285    0.978952    0.217607
   1 O     8.0000    0    15.999    0.211171    4.063428   -1.474049
   2 H     1.0000    0     1.008    1.337298    5.132319   -0.478986
   3 O     8.0000    0    15.999   -2.479204   -0.571726   -3.007574
   4 H     1.0000    0     1.008   -3.659424    0.247424   -4.159113
   5 O     8.0000    0    15.999    0.051418    2.531110    3.441620
   6 H     1.0000    0     1.008    1.233212    1.713733    4.592796
   7 O     8.0000    0    15.999   -2.638966   -2.106002    1.909075
   8 H     1.0000    0     1.008   -3.766817   -3.173615    0.914580
   9 O     8.0000    0    15.999   -4.321464    3.086694    0.774889
  10 H     1.0000    0     1.008   -4.447981    4.673124   -0.156881
  11 O     8.0000    0    15.999    1.893399   -1.128400   -0.339209
  12 H     1.0000    0     1.008    2.018374   -2.716648    0.589643
  13 H     1.0000    0     1.008   -6.026754    2.405248    0.907757
  14 H     1.0000    0     1.008   -1.257083   -1.480638   -4.047405
  15 H     1.0000    0     1.008    3.599071   -0.447455   -0.469503
  16 H     1.0000    0     1.008    0.827259    4.102853   -3.208648
  17 H     1.0000    0     1.008   -1.169279    3.441644    4.481672
  18 H     1.0000    0     1.008   -3.252710   -2.146634    3.644467

--------------------------------
INTERNAL COORDINATES (ANGSTROEM)
--------------------------------
 Fe     0   0   0     0.000000000000     0.00000000     0.00000000
 O      1   0   0     2.008617237033     0.00000000     0.00000000
 H      2   1   0     0.975875152980   117.37766494     0.00000000
 O      1   2   3     2.008533770920    94.49943795   192.95450358
 H      4   1   2     0.974313673660   124.28449280   302.59596573
 O      1   2   3     2.008466718518    85.46986981    12.95255418
 H      6   1   2     0.974311204804   124.30521217   237.46496978
 O      1   2   3     2.008624688627   179.98597657   277.05848035
 H      8   1   6     0.975879247976   117.37097903   166.96388279
 O      1   2   3     2.008623385964    85.50402152    98.76181304
 H     10   1   2     0.975892585536   117.36530511    13.06977633
 O      1   2   3     2.008691081412    94.49130414   278.77265031
 H     12   1   2     0.975886334030   117.36953047   167.06704431
 H     10   1   2     0.974323981807   124.28045717   151.64103527
 H      4   1   2     0.975890861611   117.36256160    81.18273885
 H     12   1   2     0.974315594723   124.29807744    28.45241659
 H      2   1   3     0.974311822010   124.25903324   138.59308223
 H      6   1   2     0.975881211304   117.40260721    98.77790691
 H      8   1   6     0.974306625873   124.26848603    28.36184628

---------------------------
INTERNAL COORDINATES (A.U.)
---------------------------
 Fe     0   0   0     0.000000000000     0.00000000     0.00000000
 O      1   0   0     3.795736485866     0.00000000     0.00000000
 H      2   1   0     1.844136780030   117.37766494     0.00000000
 O      1   2   3     3.795578757770    94.49943795   192.95450358
 H      4   1   2     1.841186011751   124.28449280   302.59596573
 O      1   2   3     3.795452047094    85.46986981    12.95255418
 H      6   1   2     1.841181346290   124.30521217   237.46496978
 O      1   2   3     3.795750567338   179.98597657   277.05848035
 H      8   1   6     1.844144518453   117.37097903   166.96388279
 O      1   2   3     3.795748105662    85.50402152    98.76181304
 H     10   1   2     1.844169722787   117.36530511    13.06977633
 O      1   2   3     3.795876031518    94.49130414   278.77265031
 H     12   1   2     1.844157909152   117.36953047   167.06704431
 H     10   1   2     1.841205491327   124.28045717   151.64103527
 H      4   1   2     1.844166465042   117.36256160    81.18273885
 H     12   1   2     1.841189642034   124.29807744    28.45241659
 H      2   1   3     1.841182512641   124.25903324   138.59308223
 H      6   1   2     1.844148228604   117.40260721    98.77790691
 H      8   1   6     1.841172693364   124.26848603    28.36184628

---------------------
BASIS SET INFORMATION
---------------------
There are 3 groups of distinct atoms

 Group   1 Type Fe  : 115s76p22d2f1g contracted to 7s6p4d2f1g pattern {1919191919191/15151515151/7771/11/1}
 Group   2 Type O   : 18s5p2d1f contracted to 4s3p2d1f pattern {8811/311/11/1}
 Group   3 Type H   : 5s2p1d contracted to 3s2p1d pattern {311/11/1}

Atom   0Fe   basis set group =>   1
Atom   1O    basis set group =>   2
Atom   2H    basis set group =>   3
Atom   3O    basis set group =>   2
Atom   4H    basis set group =>   3
Atom   5O    basis set group =>   2
Atom   6H    basis set group =>   3
Atom   7O    basis set group =>   2
Atom   8H    basis set group =>   3
Atom   9O    basis set group =>   2
Atom  10H    basis set group =>   3
Atom  11O    basis set group =>   2
Atom  12H    basis set group =>   3
Atom  13H    basis set group =>   3
Atom  14H    basis set group =>   3
Atom  15H    basis set group =>   3
Atom  16H    basis set group =>   3
Atom  17H    basis set group =>   3
Atom  18H    basis set group =>   3
--------------------------------------------------------------------------
WARNING: There was an error initializing an OpenFabrics device.

  Local host:   cnode10
  Local device: mlx5_0
--------------------------------------------------------------------------


           ************************************************************
           *        Program running with 16 parallel MPI-processes    *
           *              working on a common directory               *
           ************************************************************
------------------------------------------------------------------------------
                           ORCA GTO INTEGRAL CALCULATION
------------------------------------------------------------------------------
------------------------------------------------------------------------------
                   ___                                                        
                  /   \      - P O W E R E D   B Y -                         
                 /     \                                                     
                 |  |  |   _    _      __       _____    __    __             
                 |  |  |  | |  | |    /  \     |  _  \  |  |  /  |          
                  \  \/   | |  | |   /    \    | | | |  |  | /  /          
                 / \  \   | |__| |  /  /\  \   | |_| |  |  |/  /          
                |  |  |   |  __  | /  /__\  \  |    /   |      \           
                |  |  |   | |  | | |   __   |  |    \   |  |\   \          
                \     /   | |  | | |  |  |  |  | |\  \  |  | \   \       
                 \___/    |_|  |_| |__|  |__|  |_| \__\ |__|  \__/        
                                                                              
                      - O R C A' S   B I G   F R I E N D -                    
                                      &                                       
                       - I N T E G R A L  F E E D E R -                       
                                                                              
 v1 FN, 2020, v2 2021                                                         
------------------------------------------------------------------------------


Reading SHARK input file /scratch/stability-UHF_358/stability-UHF.SHARKINP.tmp ... ok
----------------------
SHARK INTEGRAL PACKAGE
----------------------

Number of atoms                             ...     19
Number of basis functions                   ...    416
Number of shells                            ...    152
Maximum angular momentum                    ...      4
Integral batch strategy                     ... SHARK/LIBINT Hybrid
RI-J (if used) integral strategy            ... SPLIT-RIJ (Revised 2003 algorithm where possible)
Printlevel                                  ...      1
Contraction scheme used                     ... SEGMENTED contraction
Coulomb Range Separation                    ... NOT USED
Exchange Range Separation                   ... NOT USED
Finite Nucleus Model                        ... NOT USED
Auxiliary Coulomb fitting basis             ... NOT available
Auxiliary J/K fitting basis                 ... NOT available
Auxiliary Correlation fitting basis         ... NOT available
Auxiliary 'external' fitting basis          ... NOT available
Integral threshold                          ...     1.000000e-12
Primitive cut-off                           ...     1.000000e-14
Primitive pair pre-selection threshold      ...     1.000000e-14

Calculating pre-screening integrals         ... done (  2.7 sec) Dimension = 152
Organizing shell pair data                  ... done (  0.1 sec)
Shell pair information
Total number of shell pairs                 ...     11628
Shell pairs after pre-screening             ...     11009
Total number of primitive shell pairs       ...    111750
Primitive shell pairs kept                  ...     79594
          la=0 lb=0:   2191 shell pairs
          la=1 lb=0:   3058 shell pairs
          la=1 lb=1:   1101 shell pairs
          la=2 lb=0:   1780 shell pairs
          la=2 lb=1:   1222 shell pairs
          la=2 lb=2:    379 shell pairs
          la=3 lb=0:    518 shell pairs
          la=3 lb=1:    366 shell pairs
          la=3 lb=2:    206 shell pairs
          la=3 lb=3:     36 shell pairs
          la=4 lb=0:     67 shell pairs
          la=4 lb=1:     48 shell pairs
          la=4 lb=2:     28 shell pairs
          la=4 lb=3:      8 shell pairs
          la=4 lb=4:      1 shell pairs

Calculating one electron integrals          ... done (  0.0 sec)
Calculating Nuclear repulsion               ... done (  0.0 sec) ENN=    695.793466821567 Eh

SHARK setup successfully completed in   3.0 seconds

Maximum memory used throughout the entire GTOINT-calculation: 184.0 MB
[cnode10:342887] 15 more processes have sent help message help-mpi-btl-openib.txt / error in device init
[cnode10:342887] Set MCA parameter "orte_base_help_aggregate" to 0 to see all help / error messages
--------------------------------------------------------------------------
WARNING: There was an error initializing an OpenFabrics device.

  Local host:   cnode10
  Local device: mlx5_0
--------------------------------------------------------------------------


           ************************************************************
           *        Program running with 16 parallel MPI-processes    *
           *              working on a common directory               *
           ************************************************************
-------------------------------------------------------------------------------
                                 ORCA SCF
-------------------------------------------------------------------------------

------------
SCF SETTINGS
------------
Hamiltonian:
 Ab initio Hamiltonian  Method          .... Hartree-Fock(GTOs)


General Settings:
 Integral files         IntName         .... /scratch/stability-UHF_358/stability-UHF
 Hartree-Fock type      HFTyp           .... UHF
 Total Charge           Charge          ....    2
 Multiplicity           Mult            ....    5
 Number of Electrons    NEL             ....   84
 Basis Dimension        Dim             ....  416
 Nuclear Repulsion      ENuc            ....    695.7934668216 Eh

Convergence Acceleration:
 DIIS                   CNVDIIS         .... on
   Start iteration      DIISMaxIt       ....    12
   Startup error        DIISStart       ....  0.200000
   # of expansion vecs  DIISMaxEq       ....     5
   Bias factor          DIISBfac        ....   1.050
   Max. coefficient     DIISMaxC        ....  10.000
 Trust-Rad. Augm. Hess. CNVTRAH         .... off
 SOSCF                  CNVSOSCF        .... off
 Level Shifting         CNVShift        .... on
   Level shift para.    LevelShift      ....    0.2500
   Turn off err/grad.   ShiftErr        ....    0.0010
 Zerner damping         CNVZerner       .... off
 Static damping         CNVDamp         .... on
   Fraction old density DampFac         ....    0.7000
   Max. Damping (<1)    DampMax         ....    0.9800
   Min. Damping (>=0)   DampMin         ....    0.0000
   Turn off err/grad.   DampErr         ....    0.1000
 Fernandez-Rico         CNVRico         .... off

SCF Procedure:
 Maximum # iterations   MaxIter         ....   500
 SCF integral mode      SCFMode         .... Direct
   Integral package                     .... SHARK and LIBINT hybrid scheme
 Reset frequency        DirectResetFreq ....    20
 Integral Threshold     Thresh          ....  1.000e-12 Eh
 Primitive CutOff       TCut            ....  1.000e-14 Eh

Convergence Tolerance:
 Convergence Check Mode ConvCheckMode   .... Total+1el-Energy
 Convergence forced     ConvForced      .... 0
 Energy Change          TolE            ....  1.000e-09 Eh
 1-El. energy change                    ....  1.000e-06 Eh
 DIIS Error             TolErr          ....  1.000e-08


Diagonalization of the overlap matrix:
Smallest eigenvalue                        ... 1.257e-04
Time for diagonalization                   ...    0.021 sec
Threshold for overlap eigenvalues          ... 1.000e-08
Number of eigenvalues below threshold      ... 0
Time for construction of square roots      ...    0.015 sec
Total time needed                          ...    0.037 sec

Time for model grid setup =    0.072 sec

------------------------------
INITIAL GUESS: MODEL POTENTIAL
------------------------------
Loading Hartree-Fock densities                     ... done
Calculating cut-offs                               ... done
Initializing the effective Hamiltonian             ... done
Setting up the integral package (SHARK)            ... done
Starting the Coulomb interaction                   ... done (   0.1 sec)
Reading the grid                                   ... done
Mapping shells                                     ... done
Starting the XC term evaluation                    ... done (   0.0 sec)
Transforming the Hamiltonian                       ... done (   0.0 sec)
Diagonalizing the Hamiltonian                      ... done (   0.0 sec)
Back transforming the eigenvectors                 ... done (   0.0 sec)
Now organizing SCF variables                       ... done
                      ------------------
                      INITIAL GUESS DONE (   0.3 sec)
                      ------------------
--------------
SCF ITERATIONS
--------------
ITER       Energy         Delta-E        Max-DP      RMS-DP      [F,P]     Damp
               ***  Starting incremental Fock matrix formation  ***
[cnode10:343011] 15 more processes have sent help message help-mpi-btl-openib.txt / error in device init
[cnode10:343011] Set MCA parameter "orte_base_help_aggregate" to 0 to see all help / error messages
  0  -1717.8767206876   0.000000000000 0.05302137  0.00054832  0.3130291 0.7000
  1  -1718.0696356820  -0.192914994448 0.04780135  0.00043347  0.1872347 0.7000
                               ***Turning on DIIS***
  2  -1718.1824257456  -0.112790063544 0.04039866  0.00031320  0.1109834 0.7000
  3  -1719.2712685331  -1.088842787479 0.12453792  0.00084662  0.0836548 0.0000
  4  -1718.4068324817   0.864436051340 0.02156080  0.00020861  0.0078023 0.0000
  5  -1718.4546422850  -0.047809803277 0.01182871  0.00010153  0.0038058 0.0000
  6  -1718.4417665879   0.012875697097 0.00281192  0.00003328  0.0016437 0.0000
  7  -1718.4416872840   0.000079303883 0.00208679  0.00001733  0.0008645 0.0000
  8  -1718.4348891208   0.006798163276 0.00051343  0.00000356  0.0004832 0.0000
  9  -1718.4394419412  -0.004552820434 0.00007355  0.00000130  0.0000655 0.0000
 10  -1718.4387472603   0.000694680929 0.00003781  0.00000068  0.0000137 0.0000
 11  -1718.4387955439  -0.000048283664 0.00001513  0.00000031  0.0000088 0.0000
 12  -1718.4388016389  -0.000006094955 0.00001415  0.00000015  0.0000086 0.0000
 13  -1718.4387914489   0.000010190021 0.00001409  0.00000009  0.0000083 0.0000
 14  -1718.4387959351  -0.000004486291 0.00001715  0.00000007  0.0000080 0.0000
 15  -1718.4387932618   0.000002673361 0.00002483  0.00000009  0.0000077 0.0000
 16  -1718.4387968309  -0.000003569072 0.00003549  0.00000012  0.0000073 0.0000
 17  -1718.4387915352   0.000005295643 0.00005051  0.00000017  0.0000067 0.0000
 18  -1718.4387934091  -0.000001873870 0.00004126  0.00000014  0.0000058 0.0000
 19  -1718.4387909753   0.000002433747 0.00002458  0.00000009  0.0000053 0.0000
               *** Restarting incremental Fock matrix formation ***
                                   *** Resetting DIIS ***
 20  -1718.4387910337  -0.000000058385 0.00000743  0.00000003  0.0000055 0.0000
 21  -1718.4387909335   0.000000100256 0.00000754  0.00000003  0.0000055 0.0000
 22  -1718.4387907405   0.000000192937 0.00000989  0.00000003  0.0000055 0.0000
 23  -1718.4387901138   0.000000626741 0.00001393  0.00000004  0.0000055 0.0000
 24  -1718.4387902399  -0.000000126064 0.00002606  0.00000008  0.0000054 0.0000
 25  -1718.4387893133   0.000000926569 0.00004813  0.00000015  0.0000054 0.0000
 26  -1718.4387894754  -0.000000162109 0.00011516  0.00000036  0.0000052 0.0000
 27  -1718.4387848772   0.000004598176 0.00032892  0.00000104  0.0000049 0.0000
 28  -1718.4387890024  -0.000004125196 0.00065332  0.00000207  0.0000042 0.0000
 29  -1718.4387874892   0.000001513166 0.00047029  0.00000149  0.0000034 0.0000
 30  -1718.4387916229  -0.000004133621 0.00039249  0.00000125  0.0000028 0.0000
 31  -1718.4387950487  -0.000003425844 0.00024890  0.00000080  0.0000022 0.0000
 32  -1718.4387925008   0.000002547924 0.00010925  0.00000036  0.0000019 0.0000
 33  -1718.4387930511  -0.000000550270 0.00004396  0.00000016  0.0000016 0.0000
 34  -1718.4387925895   0.000000461547 0.00002386  0.00000008  0.0000013 0.0000
 35  -1718.4387905965   0.000001993006 0.00001041  0.00000004  0.0000009 0.0000
 36  -1718.4387909627  -0.000000366175 0.00000569  0.00000002  0.0000006 0.0000
 37  -1718.4387906486   0.000000314045 0.00000221  0.00000001  0.0000005 0.0000
 38  -1718.4387907419  -0.000000093287 0.00000064  0.00000001  0.0000005 0.0000
 39  -1718.4387909569  -0.000000215004 0.00000073  0.00000000  0.0000005 0.0000
               *** Restarting incremental Fock matrix formation ***
                                   *** Resetting DIIS ***
 40  -1718.4387910788  -0.000000121898 0.00000062  0.00000000  0.0000005 0.0000
 41  -1718.4387910704   0.000000008464 0.00000064  0.00000000  0.0000005 0.0000
 42  -1718.4387909213   0.000000149073 0.00000005  0.00000000  0.0000005 0.0000
 43  -1718.4387909407  -0.000000019465 0.00000005  0.00000000  0.0000005 0.0000
 44  -1718.4387909591  -0.000000018371 0.00000006  0.00000000  0.0000005 0.0000
 45  -1718.4387909873  -0.000000028219 0.00000003  0.00000000  0.0000005 0.0000
 46  -1718.4387911176  -0.000000130302 0.00000044  0.00000000  0.0000005 0.0000
 47  -1718.4387911950  -0.000000077338 0.00000008  0.00000000  0.0000005 0.0000
 48  -1718.4387911720   0.000000022940 0.00000008  0.00000000  0.0000005 0.0000
 49  -1718.4387911527   0.000000019298 0.00000008  0.00000000  0.0000005 0.0000
 50  -1718.4387911307   0.000000022014 0.00000006  0.00000000  0.0000005 0.0000
 51  -1718.4387910454   0.000000085325 0.00000033  0.00000000  0.0000005 0.0000
 52  -1718.4387910119   0.000000033478 0.00000010  0.00000000  0.0000005 0.0000
 53  -1718.4387910288  -0.000000016882 0.00000009  0.00000000  0.0000005 0.0000
 54  -1718.4387910410  -0.000000012174 0.00000009  0.00000000  0.0000005 0.0000
 55  -1718.4387910537  -0.000000012677 0.00000008  0.00000000  0.0000005 0.0000
 56  -1718.4387910961  -0.000000042452 0.00000027  0.00000000  0.0000005 0.0000
 57  -1718.4387911174  -0.000000021326 0.00000011  0.00000000  0.0000005 0.0000
 58  -1718.4387911015   0.000000015966 0.00000011  0.00000000  0.0000005 0.0000
 59  -1718.4387910891   0.000000012320 0.00000010  0.00000000  0.0000005 0.0000
               *** Restarting incremental Fock matrix formation ***
                                   *** Resetting DIIS ***
 60  -1718.4387910788   0.000000010324 0.00000061  0.00000000  0.0000005 0.0000
 61  -1718.4387911004  -0.000000021622 0.00000005  0.00000000  0.0000005 0.0000
 62  -1718.4387910798   0.000000020667 0.00000065  0.00000000  0.0000005 0.0000
                 **** Energy Check signals convergence ****

               *****************************************************
               *                     SUCCESS                       *
               *           SCF CONVERGED AFTER  63 CYCLES          *
               *****************************************************


------------------------------------------------------------------------------
                          SCF STABILITY ANALYSIS                              
------------------------------------------------------------------------------


                       ****Iteration    0****

   Memory handling for direct AO based CIS:
   Memory per vector needed      ...     7 MB
   Memory needed                 ...    47 MB
   Memory available              ...  1024 MB
   Number of vectors per batch   ...   129
   Number of batches             ...     1
   Time for densities:     0.027
   Using LibInt in JK Direct
   Time for J+K (Direct):    98.054
   Time for Sigma-Completion:     0.047
   Lowest Energy          :     0.317528482443
   Maximum Energy change  :     0.362104501202 (vector 2)
   Maximum residual norm  :     0.003712041764

                       ****Iteration    1****
   Time for densities:     0.014
   Using LibInt in JK Direct
   Time for J+K (Direct):    62.928
   Time for Sigma-Completion:     0.031
   Lowest Energy          :     0.301488398383
   Maximum Energy change  :     0.016040084061 (vector 0)
   Maximum residual norm  :     0.002278357233

                       ****Iteration    2****
   Time for densities:     0.015
   Using LibInt in JK Direct
   Time for J+K (Direct):    63.472
   Time for Sigma-Completion:     0.020
   Lowest Energy          :     0.298892536152
   Maximum Energy change  :     0.002595862231 (vector 0)
   Maximum residual norm  :     0.003197547232

                       ****Iteration    3****
   Time for densities:     0.015
   Using LibInt in JK Direct
   Time for J+K (Direct):    63.026
   Time for Sigma-Completion:     0.019
   Lowest Energy          :     0.297279832062
   Maximum Energy change  :     0.003156507330 (vector 1)
   Maximum residual norm  :     0.000952558603

                       ****Iteration    4****
   Time for densities:     0.015
   Using LibInt in JK Direct
   Time for J+K (Direct):    63.480
   Time for Sigma-Completion:     0.017
   Lowest Energy          :     0.296805004435
   Maximum Energy change  :     0.006289628257 (vector 1)
   Maximum residual norm  :     0.004076821242

                       ****Iteration    5****
   Time for densities:     0.015
   Using LibInt in JK Direct
   Time for J+K (Direct):    63.824
   Time for Sigma-Completion:     0.017
   Lowest Energy          :     0.296371167263
   Maximum Energy change  :     0.007037550171 (vector 1)
   Maximum residual norm  :     0.002985559436

                       ****Iteration    6****
   Time for densities:     0.015
   Using LibInt in JK Direct
   Time for J+K (Direct):    63.621
   Time for Sigma-Completion:     0.022
   Lowest Energy          :     0.296099347208
   Maximum Energy change  :     0.006112434344 (vector 1)
   Maximum residual norm  :     0.014832310597

                       ****Iteration    7****
   Time for densities:     0.015
   Using LibInt in JK Direct
   Time for J+K (Direct):    63.546
   Time for Sigma-Completion:     0.025
   Lowest Energy          :     0.089590273372
   Maximum Energy change  :     0.206509073836 (vector 0)
   Maximum residual norm  :     0.164254926540

                       ****Iteration    8****
   Time for densities:     0.015
   Using LibInt in JK Direct
   Time for J+K (Direct):    63.384
   Time for Sigma-Completion:     0.025
   Lowest Energy          :     0.011735985270
   Maximum Energy change  :     0.144346166603 (vector 1)
   Maximum residual norm  :     0.033806361373

                       ****Iteration    9****
   Time for densities:     0.015
   Using LibInt in JK Direct
   Time for J+K (Direct):    63.634
   Time for Sigma-Completion:     0.026
   Lowest Energy          :     0.003686467198
   Maximum Energy change  :     0.136236410023 (vector 2)
   Maximum residual norm  :     0.114830482977

                       ****Iteration   10****
   Time for densities:     0.015
   Using LibInt in JK Direct
   Time for J+K (Direct):    63.527
   Time for Sigma-Completion:     0.024
   Lowest Energy          :     0.002520387758
   Maximum Energy change  :     0.096687060139 (vector 2)
   Maximum residual norm  :     0.013485309456

                       ****Iteration   11****
   Time for densities:     0.015
   Using LibInt in JK Direct
   Time for J+K (Direct):    63.329
   Time for Sigma-Completion:     0.021
   Lowest Energy          :     0.002343753219
   Maximum Energy change  :     0.007390840199 (vector 2)
   Maximum residual norm  :     0.001635764399

                       ****Iteration   12****
   Time for densities:     0.015
   Using LibInt in JK Direct
   Time for J+K (Direct):    63.497
   Time for Sigma-Completion:     0.023
   Lowest Energy          :     0.002308511007
   Maximum Energy change  :     0.001314161328 (vector 2)
   Maximum residual norm  :     0.000411577259

                       ****Iteration   13****
   Time for densities:     0.015
   Using LibInt in JK Direct
   Time for J+K (Direct):    63.704
   Time for Sigma-Completion:     0.014
   Lowest Energy          :     0.002303007948
   Maximum Energy change  :     0.000347597509 (vector 1)
   Maximum residual norm  :     0.000251940992

                       ****Iteration   14****
   Time for densities:     0.015
   Using LibInt in JK Direct
   Time for J+K (Direct):    63.736
   Time for Sigma-Completion:     0.017
   Lowest Energy          :     0.002301918952
   Maximum Energy change  :     0.000216383434 (vector 1)
   Maximum residual norm  :     0.000041311527

      *** CONVERGENCE OF RESIDUAL NORM REACHED ***

----------------------------- 
SCF STABILITY ANALYSIS RESULT 
----------------------------- 

UHF/UKS->UHF/UKS - singlet - internal

   Root    Eigenvalue (au) 
     0       0.002302 
     1       0.002320 
     2       0.054241 

Stability Analysis indicates a stable HF/KS wave function.


Total time for performing the stability analysis:   987.970sec


----------------
TOTAL SCF ENERGY
----------------

Total Energy       :        -1718.43879108 Eh          -46761.09679 eV

Components:
Nuclear Repulsion  :          695.79346682 Eh           18933.50279 eV
Electronic Energy  :        -2414.23225790 Eh          -65694.59959 eV
One Electron Energy:        -3737.40205207 Eh         -101699.88016 eV
Two Electron Energy:         1323.16979417 Eh           36005.28057 eV

Virial components:
Potential Energy   :        -3437.06813857 Eh          -93527.37889 eV
Kinetic Energy     :         1718.62934749 Eh           46766.28210 eV
Virial Ratio       :            1.99988912


---------------
SCF CONVERGENCE
---------------

  Last Energy change         ...   -8.6948e-10  Tolerance :   1.0000e-09
  Last MAX-Density change    ...    8.3781e-07  Tolerance :   1.0000e-08
  Last RMS-Density change    ...    2.6563e-09  Tolerance :   1.0000e-09
  Last DIIS Error            ...    4.5345e-07  Tolerance :   1.0000e-08

             **** THE GBW FILE WAS UPDATED (/scratch/stability-UHF_358/stability-UHF.gbw) ****
             **** DENSITY /scratch/stability-UHF_358/stability-UHF.scfp WAS UPDATED ****
             **** ENERGY FILE WAS UPDATED (/scratch/stability-UHF_358/stability-UHF.en.tmp) ****
----------------------
UHF SPIN CONTAMINATION
----------------------

Expectation value of <S**2>     :     6.007666
Ideal value S*(S+1) for S=2.0   :     6.000000
Deviation                       :     0.007666

             **** THE GBW FILE WAS UPDATED (/scratch/stability-UHF_358/stability-UHF.gbw) ****
             **** DENSITY /scratch/stability-UHF_358/stability-UHF.scfp WAS UPDATED ****
----------------
ORBITAL ENERGIES
----------------
                 SPIN UP ORBITALS
  NO   OCC          E(Eh)            E(eV) 
   0   1.0000    -261.580418     -7117.9650 
   1   1.0000     -32.203629      -876.3053 
   2   1.0000     -27.694015      -753.5925 
   3   1.0000     -27.693909      -753.5896 
   4   1.0000     -27.660909      -752.6916 
   5   1.0000     -20.909580      -568.9786 
   6   1.0000     -20.909574      -568.9784 
   7   1.0000     -20.909568      -568.9783 
   8   1.0000     -20.909566      -568.9782 
   9   1.0000     -20.909559      -568.9780 
  10   1.0000     -20.909553      -568.9779 
  11   1.0000      -4.571782      -124.4045 
  12   1.0000      -3.214118       -87.4606 
  13   1.0000      -3.213882       -87.4542 
  14   1.0000      -3.143206       -85.5310 
  15   1.0000      -1.713037       -46.6141 
  16   1.0000      -1.701930       -46.3119 
  17   1.0000      -1.697651       -46.1954 
  18   1.0000      -1.697642       -46.1952 
  19   1.0000      -1.696131       -46.1541 
  20   1.0000      -1.696123       -46.1538 
  21   1.0000      -1.075587       -29.2682 
  22   1.0000      -1.068174       -29.0665 
  23   1.0000      -1.068153       -29.0659 
  24   1.0000      -1.068132       -29.0653 
  25   1.0000      -1.060915       -28.8690 
  26   1.0000      -1.060881       -28.8681 
  27   1.0000      -1.046650       -28.4808 
  28   1.0000      -1.046619       -28.4800 
  29   1.0000      -1.017927       -27.6992 
  30   1.0000      -0.970692       -26.4139 
  31   1.0000      -0.959418       -26.1071 
  32   1.0000      -0.959411       -26.1069 
  33   1.0000      -0.949936       -25.8491 
  34   1.0000      -0.949913       -25.8484 
  35   1.0000      -0.888501       -24.1773 
  36   1.0000      -0.874633       -23.8000 
  37   1.0000      -0.874611       -23.7994 
  38   1.0000      -0.863877       -23.5073 
  39   1.0000      -0.863849       -23.5065 
  40   1.0000      -0.856364       -23.3029 
  41   1.0000      -0.826987       -22.5035 
  42   1.0000      -0.792793       -21.5730 
  43   1.0000      -0.792758       -21.5721 
  44   0.0000      -0.215322        -5.8592 
  45   0.0000      -0.175710        -4.7813 
  46   0.0000      -0.175702        -4.7811 
  47   0.0000      -0.161339        -4.3903 
  48   0.0000      -0.103590        -2.8188 
  49   0.0000      -0.103584        -2.8187 
  50   0.0000      -0.068407        -1.8614 
  51   0.0000      -0.068397        -1.8612 
  52   0.0000      -0.067294        -1.8312 
  53   0.0000      -0.067189        -1.8283 
  54   0.0000      -0.054491        -1.4828 
  55   0.0000      -0.054486        -1.4827 
  56   0.0000      -0.003446        -0.0938 
  57   0.0000       0.015287         0.4160 
  58   0.0000       0.020996         0.5713 
  59   0.0000       0.021017         0.5719 
  60   0.0000       0.085095         2.3155 
  61   0.0000       0.104254         2.8369 
  62   0.0000       0.104307         2.8383 
  63   0.0000       0.109669         2.9842 
  64   0.0000       0.109687         2.9847 
  65   0.0000       0.123209         3.3527 
  66   0.0000       0.147821         4.0224 
  67   0.0000       0.166505         4.5308 
  68   0.0000       0.166551         4.5321 
  69   0.0000       0.215233         5.8568 
  70   0.0000       0.219271         5.9667 
  71   0.0000       0.250066         6.8046 
  72   0.0000       0.250123         6.8062 
  73   0.0000       0.319704         8.6996 
  74   0.0000       0.322198         8.7674 
  75   0.0000       0.322241         8.7686 
  76   0.0000       0.363819         9.9000 
  77   0.0000       0.370083        10.0705 
  78   0.0000       0.370144        10.0721 
  79   0.0000       0.370315        10.0768 
  80   0.0000       0.370336        10.0774 
  81   0.0000       0.407108        11.0780 
  82   0.0000       0.430555        11.7160 
  83   0.0000       0.473839        12.8938 
  84   0.0000       0.473858        12.8943 
  85   0.0000       0.477241        12.9864 
  86   0.0000       0.489396        13.3171 
  87   0.0000       0.489419        13.3178 
  88   0.0000       0.497541        13.5388 
  89   0.0000       0.509081        13.8528 
  90   0.0000       0.509121        13.8539 
  91   0.0000       0.510558        13.8930 
  92   0.0000       0.533492        14.5171 
  93   0.0000       0.533531        14.5181 
  94   0.0000       0.534550        14.5458 
  95   0.0000       0.543267        14.7831 
  96   0.0000       0.543328        14.7847 
  97   0.0000       0.583710        15.8835 
  98   0.0000       0.598174        16.2772 
  99   0.0000       0.598208        16.2781 
 100   0.0000       0.603945        16.4342 
 101   0.0000       0.603957        16.4345 
 102   0.0000       0.631996        17.1975 
 103   0.0000       0.638627        17.3779 
 104   0.0000       0.638658        17.3788 
 105   0.0000       0.718603        19.5542 
 106   0.0000       0.783191        21.3117 
 107   0.0000       0.801374        21.8065 
 108   0.0000       0.809103        22.0168 
 109   0.0000       0.809179        22.0189 
 110   0.0000       0.843418        22.9506 
 111   0.0000       0.892901        24.2971 
 112   0.0000       0.892948        24.2984 
 113   0.0000       0.919390        25.0179 
 114   0.0000       0.919456        25.0197 
 115   0.0000       0.920861        25.0579 
 116   0.0000       0.927610        25.2415 
 117   0.0000       0.927634        25.2422 
 118   0.0000       0.955522        26.0011 
 119   0.0000       0.955907        26.0116 
 120   0.0000       0.955973        26.0133 
 121   0.0000       0.989811        26.9341 
 122   0.0000       0.989842        26.9350 
 123   0.0000       1.033610        28.1260 
 124   0.0000       1.048158        28.5218 
 125   0.0000       1.155155        31.4334 
 126   0.0000       1.155246        31.4358 
 127   0.0000       1.169696        31.8290 
 128   0.0000       1.169722        31.8297 
 129   0.0000       1.185655        32.2633 
 130   0.0000       1.215953        33.0878 
 131   0.0000       1.233188        33.5568 
 132   0.0000       1.233248        33.5584 
 133   0.0000       1.237865        33.6840 
 134   0.0000       1.237907        33.6852 
 135   0.0000       1.271185        34.5907 
 136   0.0000       1.280482        34.8437 
 137   0.0000       1.280537        34.8452 
 138   0.0000       1.289492        35.0889 
 139   0.0000       1.289539        35.0901 
 140   0.0000       1.309627        35.6368 
 141   0.0000       1.333383        36.2832 
 142   0.0000       1.333473        36.2856 
 143   0.0000       1.344459        36.5846 
 144   0.0000       1.459191        39.7066 
 145   0.0000       1.477729        40.2111 
 146   0.0000       1.507575        41.0232 
 147   0.0000       1.507691        41.0264 
 148   0.0000       1.567675        42.6586 
 149   0.0000       1.567776        42.6614 
 150   0.0000       1.613909        43.9167 
 151   0.0000       1.613979        43.9186 
 152   0.0000       1.650483        44.9119 
 153   0.0000       1.670336        45.4522 
 154   0.0000       1.670382        45.4534 
 155   0.0000       1.715336        46.6767 
 156   0.0000       1.751446        47.6593 
 157   0.0000       1.751530        47.6615 
 158   0.0000       1.753858        47.7249 
 159   0.0000       1.823223        49.6124 
 160   0.0000       1.854715        50.4694 
 161   0.0000       1.886524        51.3349 
 162   0.0000       1.886640        51.3381 
 163   0.0000       1.915228        52.1160 
 164   0.0000       1.915287        52.1176 
 165   0.0000       1.933477        52.6126 
 166   0.0000       2.030393        55.2498 
 167   0.0000       2.030529        55.2535 
 168   0.0000       2.066390        56.2293 
 169   0.0000       2.071548        56.3697 
 170   0.0000       2.074663        56.4544 
 171   0.0000       2.074710        56.4557 
 172   0.0000       2.091504        56.9127 
 173   0.0000       2.091572        56.9146 
 174   0.0000       2.104314        57.2613 
 175   0.0000       2.110544        57.4308 
 176   0.0000       2.110631        57.4332 
 177   0.0000       2.165773        58.9337 
 178   0.0000       2.239673        60.9446 
 179   0.0000       2.281203        62.0747 
 180   0.0000       2.317810        63.0708 
 181   0.0000       2.317909        63.0735 
 182   0.0000       2.418865        65.8207 
 183   0.0000       2.418998        65.8243 
 184   0.0000       2.480682        67.5028 
 185   0.0000       2.480834        67.5069 
 186   0.0000       2.480986        67.5111 
 187   0.0000       2.489571        67.7447 
 188   0.0000       2.574699        70.0611 
 189   0.0000       2.662570        72.4522 
 190   0.0000       2.662698        72.4557 
 191   0.0000       2.668389        72.6106 
 192   0.0000       2.668537        72.6146 
 193   0.0000       2.701613        73.5146 
 194   0.0000       2.743550        74.6558 
 195   0.0000       2.761021        75.1312 
 196   0.0000       2.761105        75.1335 
 197   0.0000       2.761665        75.1487 
 198   0.0000       2.761861        75.1541 
 199   0.0000       3.064889        83.3999 
 200   0.0000       3.087408        84.0126 
 201   0.0000       3.087460        84.0141 
 202   0.0000       3.109430        84.6119 
 203   0.0000       3.115345        84.7729 
 204   0.0000       3.115458        84.7759 
 205   0.0000       3.159478        85.9738 
 206   0.0000       3.159521        85.9750 
 207   0.0000       3.194499        86.9267 
 208   0.0000       3.206894        87.2640 
 209   0.0000       3.215809        87.5066 
 210   0.0000       3.215834        87.5073 
 211   0.0000       3.255813        88.5952 
 212   0.0000       3.255826        88.5955 
 213   0.0000       3.258338        88.6639 
 214   0.0000       3.282434        89.3196 
 215   0.0000       3.292495        89.5934 
 216   0.0000       3.292541        89.5946 
 217   0.0000       3.294077        89.6364 
 218   0.0000       3.294149        89.6383 
 219   0.0000       3.301712        89.8442 
 220   0.0000       3.324302        90.4589 
 221   0.0000       3.326398        90.5159 
 222   0.0000       3.326426        90.5166 
 223   0.0000       3.388846        92.2152 
 224   0.0000       3.388917        92.2171 
 225   0.0000       3.415067        92.9287 
 226   0.0000       3.483198        94.7826 
 227   0.0000       3.519663        95.7749 
 228   0.0000       3.519714        95.7763 
 229   0.0000       3.532821        96.1330 
 230   0.0000       3.532831        96.1332 
 231   0.0000       3.536437        96.2313 
 232   0.0000       3.547511        96.5327 
 233   0.0000       3.594808        97.8197 
 234   0.0000       3.609074        98.2079 
 235   0.0000       3.609102        98.2086 
 236   0.0000       3.617417        98.4349 
 237   0.0000       3.617458        98.4360 
 238   0.0000       3.626249        98.6753 
 239   0.0000       3.652746        99.3963 
 240   0.0000       3.725571       101.3779 
 241   0.0000       3.725603       101.3788 
 242   0.0000       3.728758       101.4647 
 243   0.0000       3.741082       101.8000 
 244   0.0000       3.741113       101.8009 
 245   0.0000       3.776845       102.7732 
 246   0.0000       3.795294       103.2752 
 247   0.0000       3.802357       103.4674 
 248   0.0000       3.802442       103.4697 
 249   0.0000       3.823486       104.0423 
 250   0.0000       3.823559       104.0443 
 251   0.0000       3.867030       105.2272 
 252   0.0000       3.867066       105.2282 
 253   0.0000       3.870128       105.3115 
 254   0.0000       3.870172       105.3127 
 255   0.0000       3.877370       105.5086 
 256   0.0000       3.878499       105.5393 
 257   0.0000       3.904521       106.2474 
 258   0.0000       3.919174       106.6461 
 259   0.0000       3.919234       106.6478 
 260   0.0000       3.963593       107.8548 
 261   0.0000       3.963624       107.8557 
 262   0.0000       3.976475       108.2054 
 263   0.0000       3.984593       108.4263 
 264   0.0000       3.984721       108.4298 
 265   0.0000       4.009131       109.0940 
 266   0.0000       4.009169       109.0950 
 267   0.0000       4.023796       109.4930 
 268   0.0000       4.037090       109.8548 
 269   0.0000       4.042349       109.9979 
 270   0.0000       4.042406       109.9995 
 271   0.0000       4.117804       112.0511 
 272   0.0000       4.117883       112.0533 
 273   0.0000       4.139220       112.6339 
 274   0.0000       4.170912       113.4963 
 275   0.0000       4.206039       114.4521 
 276   0.0000       4.206099       114.4538 
 277   0.0000       4.223922       114.9388 
 278   0.0000       4.228676       115.0681 
 279   0.0000       4.228707       115.0690 
 280   0.0000       4.235373       115.2504 
 281   0.0000       4.247292       115.5747 
 282   0.0000       4.247443       115.5788 
 283   0.0000       4.292183       116.7962 
 284   0.0000       4.297295       116.9353 
 285   0.0000       4.297379       116.9376 
 286   0.0000       4.354612       118.4950 
 287   0.0000       4.419230       120.2534 
 288   0.0000       4.419288       120.2549 
 289   0.0000       4.441056       120.8473 
 290   0.0000       4.441136       120.8495 
 291   0.0000       4.442624       120.8899 
 292   0.0000       4.482841       121.9843 
 293   0.0000       4.580849       124.6512 
 294   0.0000       4.645739       126.4170 
 295   0.0000       4.645844       126.4198 
 296   0.0000       4.657721       126.7430 
 297   0.0000       4.657740       126.7436 
 298   0.0000       4.685287       127.4931 
 299   0.0000       4.777055       129.9903 
 300   0.0000       4.777085       129.9911 
 301   0.0000       4.804014       130.7239 
 302   0.0000       4.854255       132.0910 
 303   0.0000       4.885898       132.9520 
 304   0.0000       4.885947       132.9534 
 305   0.0000       5.033651       136.9726 
 306   0.0000       5.080668       138.2520 
 307   0.0000       5.080814       138.2560 
 308   0.0000       5.084672       138.3610 
 309   0.0000       5.084787       138.3641 
 310   0.0000       5.167776       140.6223 
 311   0.0000       5.191137       141.2580 
 312   0.0000       5.191184       141.2593 
 313   0.0000       5.245805       142.7456 
 314   0.0000       5.249176       142.8373 
 315   0.0000       5.249249       142.8393 
 316   0.0000       5.255538       143.0104 
 317   0.0000       5.335480       145.1858 
 318   0.0000       5.335635       145.1900 
 319   0.0000       5.356253       145.7510 
 320   0.0000       5.643588       153.5698 
 321   0.0000       5.643714       153.5733 
 322   0.0000       5.684396       154.6803 
 323   0.0000       5.719245       155.6286 
 324   0.0000       5.719449       155.6341 
 325   0.0000       5.719470       155.6347 
 326   0.0000       6.015827       163.6990 
 327   0.0000       6.016002       163.7037 
 328   0.0000       6.160258       167.6292 
 329   0.0000       6.185966       168.3287 
 330   0.0000       6.186449       168.3418 
 331   0.0000       6.186624       168.3466 
 332   0.0000       6.250508       170.0850 
 333   0.0000       6.250705       170.0903 
 334   0.0000       6.552152       178.2931 
 335   0.0000       6.552258       178.2960 
 336   0.0000       6.557151       178.4291 
 337   0.0000       6.564047       178.6168 
 338   0.0000       6.578928       179.0217 
 339   0.0000       6.578989       179.0234 
 340   0.0000       6.592747       179.3978 
 341   0.0000       6.592767       179.3983 
 342   0.0000       6.594520       179.4460 
 343   0.0000       6.599926       179.5931 
 344   0.0000       6.613135       179.9525 
 345   0.0000       6.613145       179.9528 
 346   0.0000       6.685755       181.9287 
 347   0.0000       6.707039       182.5078 
 348   0.0000       6.707214       182.5126 
 349   0.0000       6.707244       182.5134 
 350   0.0000       6.749722       183.6693 
 351   0.0000       6.750792       183.6984 
 352   0.0000       6.750900       183.7013 
 353   0.0000       6.751001       183.7041 
 354   0.0000       6.751123       183.7074 
 355   0.0000       6.757109       183.8703 
 356   0.0000       6.804412       185.1575 
 357   0.0000       6.804472       185.1591 
 358   0.0000       6.845403       186.2729 
 359   0.0000       6.846494       186.3026 
 360   0.0000       6.848589       186.3596 
 361   0.0000       6.848668       186.3617 
 362   0.0000       6.861940       186.7229 
 363   0.0000       6.862013       186.7249 
 364   0.0000       6.906930       187.9471 
 365   0.0000       6.907063       187.9507 
 366   0.0000       6.910220       188.0366 
 367   0.0000       6.980461       189.9480 
 368   0.0000       7.033036       191.3786 
 369   0.0000       7.033121       191.3810 
 370   0.0000       7.073013       192.4665 
 371   0.0000       7.107900       193.4158 
 372   0.0000       7.107967       193.4176 
 373   0.0000       7.153543       194.6578 
 374   0.0000       7.155927       194.7227 
 375   0.0000       7.155998       194.7246 
 376   0.0000       7.206598       196.1015 
 377   0.0000       7.212542       196.2632 
 378   0.0000       7.212671       196.2668 
 379   0.0000       7.248788       197.2496 
 380   0.0000       7.409085       201.6115 
 381   0.0000       7.409232       201.6155 
 382   0.0000       7.467575       203.2030 
 383   0.0000       7.467653       203.2052 
 384   0.0000       7.473821       203.3730 
 385   0.0000       7.473886       203.3748 
 386   0.0000       7.524804       204.7603 
 387   0.0000       7.588271       206.4874 
 388   0.0000       7.885247       214.5685 
 389   0.0000       7.958278       216.5558 
 390   0.0000       7.958407       216.5593 
 391   0.0000       7.993573       217.5162 
 392   0.0000       7.993668       217.5188 
 393   0.0000       7.998755       217.6572 
 394   0.0000       8.561193       232.9619 
 395   0.0000       8.561246       232.9634 
 396   0.0000       8.573692       233.3020 
 397   0.0000       8.590087       233.7481 
 398   0.0000       8.624191       234.6762 
 399   0.0000       8.624323       234.6798 
 400   0.0000       8.703983       236.8474 
 401   0.0000       8.704082       236.8501 
 402   0.0000       8.752370       238.1641 
 403   0.0000       8.988727       244.5957 
 404   0.0000       9.022561       245.5164 
 405   0.0000       9.107773       247.8351 
 406   0.0000       9.107817       247.8363 
 407   0.0000       9.365828       254.8571 
 408   0.0000       9.422208       256.3913 
 409   0.0000       9.422506       256.3994 
 410   0.0000      13.196521       359.0956 
 411   0.0000      13.540436       368.4540 
 412   0.0000      13.540608       368.4587 
 413   0.0000      13.589975       369.8020 
 414   0.0000      13.590612       369.8194 
 415   0.0000      13.746662       374.0657 

                 SPIN DOWN ORBITALS
  NO   OCC          E(Eh)            E(eV) 
   0   1.0000    -261.577984     -7117.8988 
   1   1.0000     -32.077853      -872.8828 
   2   1.0000     -27.559272      -749.9259 
   3   1.0000     -27.559271      -749.9259 
   4   1.0000     -27.558662      -749.9093 
   5   1.0000     -20.907724      -568.9281 
   6   1.0000     -20.907717      -568.9279 
   7   1.0000     -20.907712      -568.9278 
   8   1.0000     -20.907709      -568.9277 
   9   1.0000     -20.907703      -568.9275 
  10   1.0000     -20.907697      -568.9274 
  11   1.0000      -4.215534      -114.7105 
  12   1.0000      -2.796973       -76.1095 
  13   1.0000      -2.743822       -74.6632 
  14   1.0000      -2.743647       -74.6584 
  15   1.0000      -1.708739       -46.4971 
  16   1.0000      -1.697481       -46.1908 
  17   1.0000      -1.693103       -46.0717 
  18   1.0000      -1.693095       -46.0715 
  19   1.0000      -1.691007       -46.0146 
  20   1.0000      -1.691000       -46.0145 
  21   1.0000      -1.071743       -29.1636 
  22   1.0000      -1.066135       -29.0110 
  23   1.0000      -1.059493       -28.8303 
  24   1.0000      -1.059462       -28.8294 
  25   1.0000      -1.058886       -28.8138 
  26   1.0000      -1.058853       -28.8129 
  27   1.0000      -1.008135       -27.4328 
  28   1.0000      -0.962955       -26.2033 
  29   1.0000      -0.950962       -25.8770 
  30   1.0000      -0.950956       -25.8768 
  31   1.0000      -0.950247       -25.8575 
  32   1.0000      -0.950239       -25.8573 
  33   1.0000      -0.868622       -23.6364 
  34   1.0000      -0.868602       -23.6359 
  35   1.0000      -0.868542       -23.6342 
  36   1.0000      -0.868524       -23.6337 
  37   1.0000      -0.866727       -23.5848 
  38   1.0000      -0.849952       -23.1284 
  39   1.0000      -0.697161       -18.9707 
  40   0.0000      -0.214511        -5.8371 
  41   0.0000      -0.175264        -4.7692 
  42   0.0000      -0.175255        -4.7689 
  43   0.0000      -0.161054        -4.3825 
  44   0.0000      -0.108835        -2.9616 
  45   0.0000      -0.108828        -2.9614 
  46   0.0000      -0.070922        -1.9299 
  47   0.0000      -0.070914        -1.9297 
  48   0.0000      -0.066458        -1.8084 
  49   0.0000      -0.066118        -1.7992 
  50   0.0000      -0.053228        -1.4484 
  51   0.0000      -0.053223        -1.4483 
  52   0.0000      -0.012459        -0.3390 
  53   0.0000      -0.012442        -0.3386 
  54   0.0000       0.000785         0.0214 
  55   0.0000       0.015925         0.4333 
  56   0.0000       0.021777         0.5926 
  57   0.0000       0.021799         0.5932 
  58   0.0000       0.090513         2.4630 
  59   0.0000       0.113325         3.0837 
  60   0.0000       0.113387         3.0854 
  61   0.0000       0.120676         3.2837 
  62   0.0000       0.120790         3.2869 
  63   0.0000       0.126130         3.4322 
  64   0.0000       0.146010         3.9731 
  65   0.0000       0.146020         3.9734 
  66   0.0000       0.151338         4.1181 
  67   0.0000       0.192461         5.2371 
  68   0.0000       0.192505         5.2383 
  69   0.0000       0.220742         6.0067 
  70   0.0000       0.251855         6.8533 
  71   0.0000       0.251878         6.8540 
  72   0.0000       0.251919         6.8551 
  73   0.0000       0.320429         8.7193 
  74   0.0000       0.328646         8.9429 
  75   0.0000       0.328683         8.9439 
  76   0.0000       0.367244         9.9932 
  77   0.0000       0.372513        10.1366 
  78   0.0000       0.372568        10.1381 
  79   0.0000       0.373717        10.1693 
  80   0.0000       0.373730        10.1697 
  81   0.0000       0.408258        11.1093 
  82   0.0000       0.432226        11.7615 
  83   0.0000       0.483040        13.1442 
  84   0.0000       0.499170        13.5831 
  85   0.0000       0.499203        13.5840 
  86   0.0000       0.500178        13.6105 
  87   0.0000       0.500200        13.6111 
  88   0.0000       0.511576        13.9207 
  89   0.0000       0.511657        13.9229 
  90   0.0000       0.525887        14.3101 
  91   0.0000       0.525951        14.3118 
  92   0.0000       0.538230        14.6460 
  93   0.0000       0.539445        14.6790 
  94   0.0000       0.539465        14.6796 
  95   0.0000       0.548128        14.9153 
  96   0.0000       0.548190        14.9170 
  97   0.0000       0.585415        15.9300 
  98   0.0000       0.604024        16.4363 
  99   0.0000       0.604064        16.4374 
 100   0.0000       0.605373        16.4730 
 101   0.0000       0.605384        16.4733 
 102   0.0000       0.633031        17.2256 
 103   0.0000       0.642299        17.4779 
 104   0.0000       0.642332        17.4787 
 105   0.0000       0.722501        19.6602 
 106   0.0000       0.790216        21.5029 
 107   0.0000       0.811459        22.0809 
 108   0.0000       0.819102        22.2889 
 109   0.0000       0.819196        22.2915 
 110   0.0000       0.846957        23.0469 
 111   0.0000       0.925799        25.1923 
 112   0.0000       0.928491        25.2655 
 113   0.0000       0.928551        25.2672 
 114   0.0000       0.930086        25.3089 
 115   0.0000       0.930140        25.3104 
 116   0.0000       0.961456        26.1625 
 117   0.0000       0.961511        26.1640 
 118   0.0000       0.962923        26.2025 
 119   0.0000       0.964517        26.2458 
 120   0.0000       0.964583        26.2476 
 121   0.0000       0.997401        27.1407 
 122   0.0000       0.997455        27.1421 
 123   0.0000       1.035902        28.1883 
 124   0.0000       1.053591        28.6697 
 125   0.0000       1.157343        31.4929 
 126   0.0000       1.157433        31.4954 
 127   0.0000       1.190873        32.4053 
 128   0.0000       1.200025        32.6543 
 129   0.0000       1.200049        32.6550 
 130   0.0000       1.216675        33.1074 
 131   0.0000       1.239972        33.7414 
 132   0.0000       1.240011        33.7424 
 133   0.0000       1.260285        34.2941 
 134   0.0000       1.260342        34.2956 
 135   0.0000       1.273898        34.6645 
 136   0.0000       1.284443        34.9515 
 137   0.0000       1.284505        34.9532 
 138   0.0000       1.311481        35.6872 
 139   0.0000       1.330479        36.2042 
 140   0.0000       1.330501        36.2048 
 141   0.0000       1.362988        37.0888 
 142   0.0000       1.403113        38.1807 
 143   0.0000       1.403265        38.1848 
 144   0.0000       1.462955        39.8090 
 145   0.0000       1.492891        40.6236 
 146   0.0000       1.511246        41.1231 
 147   0.0000       1.511370        41.1265 
 148   0.0000       1.593247        43.3544 
 149   0.0000       1.593346        43.3571 
 150   0.0000       1.626498        44.2593 
 151   0.0000       1.626567        44.2611 
 152   0.0000       1.655805        45.0568 
 153   0.0000       1.679514        45.7019 
 154   0.0000       1.679567        45.7033 
 155   0.0000       1.727638        47.0114 
 156   0.0000       1.755600        47.7723 
 157   0.0000       1.756928        47.8084 
 158   0.0000       1.757009        47.8107 
 159   0.0000       1.830127        49.8003 
 160   0.0000       1.857523        50.5458 
 161   0.0000       1.901741        51.7490 
 162   0.0000       1.901892        51.7531 
 163   0.0000       1.930564        52.5333 
 164   0.0000       1.930617        52.5348 
 165   0.0000       1.934846        52.6498 
 166   0.0000       2.033142        55.3246 
 167   0.0000       2.033276        55.3282 
 168   0.0000       2.072454        56.3943 
 169   0.0000       2.080674        56.6180 
 170   0.0000       2.080715        56.6191 
 171   0.0000       2.089798        56.8663 
 172   0.0000       2.097646        57.0799 
 173   0.0000       2.097703        57.0814 
 174   0.0000       2.107262        57.3415 
 175   0.0000       2.114333        57.5339 
 176   0.0000       2.114424        57.5364 
 177   0.0000       2.249451        61.2107 
 178   0.0000       2.260259        61.5048 
 179   0.0000       2.381080        64.7925 
 180   0.0000       2.388720        65.0004 
 181   0.0000       2.388838        65.0036 
 182   0.0000       2.449276        66.6482 
 183   0.0000       2.449418        66.6521 
 184   0.0000       2.490067        67.7582 
 185   0.0000       2.490239        67.7629 
 186   0.0000       2.491082        67.7858 
 187   0.0000       2.500205        68.0340 
 188   0.0000       2.635941        71.7276 
 189   0.0000       2.675629        72.8076 
 190   0.0000       2.675746        72.8107 
 191   0.0000       2.709529        73.7300 
 192   0.0000       2.709679        73.7341 
 193   0.0000       2.714716        73.8712 
 194   0.0000       2.746352        74.7320 
 195   0.0000       2.770206        75.3811 
 196   0.0000       2.770317        75.3842 
 197   0.0000       2.811737        76.5113 
 198   0.0000       2.811919        76.5162 
 199   0.0000       3.065493        83.4163 
 200   0.0000       3.095222        84.2253 
 201   0.0000       3.095276        84.2267 
 202   0.0000       3.117396        84.8287 
 203   0.0000       3.118805        84.8670 
 204   0.0000       3.118918        84.8701 
 205   0.0000       3.190591        86.8204 
 206   0.0000       3.190652        86.8221 
 207   0.0000       3.201511        87.1175 
 208   0.0000       3.207683        87.2855 
 209   0.0000       3.219143        87.5973 
 210   0.0000       3.219171        87.5981 
 211   0.0000       3.258807        88.6767 
 212   0.0000       3.264490        88.8313 
 213   0.0000       3.264531        88.8324 
 214   0.0000       3.292980        89.6066 
 215   0.0000       3.293029        89.6079 
 216   0.0000       3.293859        89.6305 
 217   0.0000       3.301893        89.8491 
 218   0.0000       3.301932        89.8501 
 219   0.0000       3.305300        89.9418 
 220   0.0000       3.325797        90.4995 
 221   0.0000       3.328246        90.5662 
 222   0.0000       3.328275        90.5670 
 223   0.0000       3.415417        92.9382 
 224   0.0000       3.415475        92.9398 
 225   0.0000       3.443303        93.6970 
 226   0.0000       3.514996        95.6479 
 227   0.0000       3.520722        95.8037 
 228   0.0000       3.520774        95.8051 
 229   0.0000       3.536229        96.2257 
 230   0.0000       3.536239        96.2260 
 231   0.0000       3.547336        96.5279 
 232   0.0000       3.550378        96.6107 
 233   0.0000       3.599613        97.9505 
 234   0.0000       3.616176        98.4012 
 235   0.0000       3.616205        98.4019 
 236   0.0000       3.620147        98.5092 
 237   0.0000       3.620184        98.5102 
 238   0.0000       3.629290        98.7580 
 239   0.0000       3.654189        99.4355 
 240   0.0000       3.730839       101.5213 
 241   0.0000       3.735412       101.6457 
 242   0.0000       3.735446       101.6467 
 243   0.0000       3.743311       101.8607 
 244   0.0000       3.743341       101.8615 
 245   0.0000       3.778963       102.8308 
 246   0.0000       3.798870       103.3725 
 247   0.0000       3.803902       103.5094 
 248   0.0000       3.803985       103.5117 
 249   0.0000       3.824624       104.0733 
 250   0.0000       3.824698       104.0753 
 251   0.0000       3.871924       105.3604 
 252   0.0000       3.871960       105.3614 
 253   0.0000       3.875557       105.4593 
 254   0.0000       3.875616       105.4609 
 255   0.0000       3.880651       105.5979 
 256   0.0000       3.881342       105.6167 
 257   0.0000       3.910640       106.4139 
 258   0.0000       3.923238       106.7567 
 259   0.0000       3.923306       106.7586 
 260   0.0000       3.969900       108.0265 
 261   0.0000       3.969930       108.0273 
 262   0.0000       3.981321       108.3373 
 263   0.0000       3.991769       108.6216 
 264   0.0000       3.991884       108.6247 
 265   0.0000       4.013879       109.2232 
 266   0.0000       4.013906       109.2239 
 267   0.0000       4.026132       109.5566 
 268   0.0000       4.040789       109.9555 
 269   0.0000       4.049291       110.1868 
 270   0.0000       4.049344       110.1883 
 271   0.0000       4.124985       112.2465 
 272   0.0000       4.125070       112.2489 
 273   0.0000       4.140467       112.6678 
 274   0.0000       4.176404       113.6457 
 275   0.0000       4.209633       114.5499 
 276   0.0000       4.209699       114.5517 
 277   0.0000       4.226060       114.9969 
 278   0.0000       4.235990       115.2672 
 279   0.0000       4.236015       115.2678 
 280   0.0000       4.239913       115.3739 
 281   0.0000       4.260584       115.9364 
 282   0.0000       4.260731       115.9404 
 283   0.0000       4.308622       117.2436 
 284   0.0000       4.308698       117.2456 
 285   0.0000       4.317254       117.4785 
 286   0.0000       4.367776       118.8532 
 287   0.0000       4.422061       120.3304 
 288   0.0000       4.422113       120.3318 
 289   0.0000       4.443818       120.9224 
 290   0.0000       4.443895       120.9245 
 291   0.0000       4.447198       121.0144 
 292   0.0000       4.484547       122.0307 
 293   0.0000       4.585094       124.7667 
 294   0.0000       4.647224       126.4574 
 295   0.0000       4.647324       126.4601 
 296   0.0000       4.658996       126.7777 
 297   0.0000       4.659015       126.7782 
 298   0.0000       4.686200       127.5180 
 299   0.0000       4.805313       130.7592 
 300   0.0000       4.805678       130.7691 
 301   0.0000       4.805700       130.7698 
 302   0.0000       4.860084       132.2496 
 303   0.0000       4.888201       133.0147 
 304   0.0000       4.888251       133.0161 
 305   0.0000       5.046319       137.3173 
 306   0.0000       5.088239       138.4580 
 307   0.0000       5.088353       138.4611 
 308   0.0000       5.147260       140.0641 
 309   0.0000       5.147415       140.0683 
 310   0.0000       5.170041       140.6840 
 311   0.0000       5.199849       141.4951 
 312   0.0000       5.199882       141.4960 
 313   0.0000       5.246967       142.7772 
 314   0.0000       5.250225       142.8659 
 315   0.0000       5.250301       142.8679 
 316   0.0000       5.262276       143.1938 
 317   0.0000       5.397664       146.8779 
 318   0.0000       5.407458       147.1444 
 319   0.0000       5.407602       147.1483 
 320   0.0000       5.673781       154.3914 
 321   0.0000       5.673887       154.3943 
 322   0.0000       5.685774       154.7178 
 323   0.0000       5.723104       155.7336 
 324   0.0000       5.724730       155.7778 
 325   0.0000       5.724757       155.7786 
 326   0.0000       6.092920       165.7968 
 327   0.0000       6.093107       165.8019 
 328   0.0000       6.161865       167.6729 
 329   0.0000       6.187713       168.3762 
 330   0.0000       6.187888       168.3810 
 331   0.0000       6.188004       168.3842 
 332   0.0000       6.277435       170.8177 
 333   0.0000       6.277629       170.8230 
 334   0.0000       6.553763       178.3370 
 335   0.0000       6.553870       178.3399 
 336   0.0000       6.558438       178.4642 
 337   0.0000       6.565508       178.6566 
 338   0.0000       6.584660       179.1777 
 339   0.0000       6.584717       179.1792 
 340   0.0000       6.595249       179.4658 
 341   0.0000       6.595271       179.4664 
 342   0.0000       6.597282       179.5212 
 343   0.0000       6.602284       179.6573 
 344   0.0000       6.618797       180.1066 
 345   0.0000       6.618814       180.1071 
 346   0.0000       6.688420       182.0012 
 347   0.0000       6.710745       182.6086 
 348   0.0000       6.710774       182.6094 
 349   0.0000       6.710932       182.6137 
 350   0.0000       6.750831       183.6995 
 351   0.0000       6.751805       183.7259 
 352   0.0000       6.752015       183.7317 
 353   0.0000       6.752245       183.7379 
 354   0.0000       6.752456       183.7437 
 355   0.0000       6.758157       183.8988 
 356   0.0000       6.809391       185.2929 
 357   0.0000       6.809451       185.2946 
 358   0.0000       6.847027       186.3171 
 359   0.0000       6.848903       186.3681 
 360   0.0000       6.850353       186.4076 
 361   0.0000       6.850433       186.4097 
 362   0.0000       6.864502       186.7926 
 363   0.0000       6.864578       186.7947 
 364   0.0000       6.914652       188.1572 
 365   0.0000       6.915139       188.1705 
 366   0.0000       6.915262       188.1739 
 367   0.0000       6.982808       190.0119 
 368   0.0000       7.039646       191.5585 
 369   0.0000       7.039730       191.5608 
 370   0.0000       7.085812       192.8148 
 371   0.0000       7.115361       193.6188 
 372   0.0000       7.115429       193.6207 
 373   0.0000       7.158554       194.7941 
 374   0.0000       7.158619       194.7959 
 375   0.0000       7.161270       194.8681 
 376   0.0000       7.208963       196.1659 
 377   0.0000       7.219988       196.4659 
 378   0.0000       7.220119       196.4694 
 379   0.0000       7.251210       197.3154 
 380   0.0000       7.428279       202.1337 
 381   0.0000       7.428437       202.1380 
 382   0.0000       7.475870       203.4288 
 383   0.0000       7.475938       203.4306 
 384   0.0000       7.476431       203.4440 
 385   0.0000       7.476514       203.4463 
 386   0.0000       7.528235       204.8537 
 387   0.0000       7.591327       206.5705 
 388   0.0000       7.887485       214.6294 
 389   0.0000       7.959796       216.5971 
 390   0.0000       7.959924       216.6006 
 391   0.0000       7.994946       217.5535 
 392   0.0000       7.995041       217.5561 
 393   0.0000       8.000388       217.7016 
 394   0.0000       8.700371       236.7491 
 395   0.0000       8.700388       236.7496 
 396   0.0000       8.707318       236.9382 
 397   0.0000       8.732493       237.6232 
 398   0.0000       8.732535       237.6244 
 399   0.0000       8.732801       237.6316 
 400   0.0000       8.830976       240.3031 
 401   0.0000       8.831090       240.3062 
 402   0.0000       8.875522       241.5152 
 403   0.0000       9.207262       250.5423 
 404   0.0000       9.299828       253.0612 
 405   0.0000       9.342851       254.2319 
 406   0.0000       9.342893       254.2331 
 407   0.0000       9.576386       260.5867 
 408   0.0000       9.672734       263.2085 
 409   0.0000       9.672959       263.2146 
 410   0.0000      13.198296       359.1439 
 411   0.0000      13.542212       368.5023 
 412   0.0000      13.542384       368.5070 
 413   0.0000      13.591341       369.8392 
 414   0.0000      13.591979       369.8566 
 415   0.0000      13.748142       374.1060 

                    ********************************
                    * MULLIKEN POPULATION ANALYSIS *
                    ********************************

--------------------------------------------
MULLIKEN ATOMIC CHARGES AND SPIN POPULATIONS
--------------------------------------------
   0 Fe:    1.350654    3.906406
[...]
      pz      :     1.579073  p :     4.334051
      px      :     1.389038
      py      :     1.365940
      dz2     :     0.005332  d :     0.047081
      dxz     :     0.002722
      dyz     :     0.008705
      dx2y2   :     0.017124
      dxy     :     0.013198
      f0      :     0.000182  f :     0.003232
      f+1     :     0.000348
      f-1     :     0.000419
      f+2     :     0.000535
      f-2     :     0.000231
      f+3     :     0.000654
      f-3     :     0.000863
 12 H s       :     0.652146  s :     0.652146
      pz      :     0.118881  p :     0.327370
      px      :     0.070110
      py      :     0.138379
      dz2     :     0.020411  d :     0.096008
      dxz     :     0.007057
      dyz     :     0.026971
      dx2y2   :     0.019756
      dxy     :     0.021812
 13 H s       :     0.658622  s :     0.658622
      pz      :     0.094416  p :     0.329165
      px      :     0.154584
      py      :     0.080166
      dz2     :     0.008401  d :     0.095917
      dxz     :     0.028859
      dyz     :     0.004955
      dx2y2   :     0.029282
      dxy     :     0.024419
 14 H s       :     0.652144  s :     0.652144
      pz      :     0.109107  p :     0.327367
      px      :     0.112125
      py      :     0.106135
      dz2     :     0.016879  d :     0.096007
      dxz     :     0.022120
      dyz     :     0.016924
      dx2y2   :     0.023794
      dxy     :     0.016290
 15 H s       :     0.658635  s :     0.658635
      pz      :     0.094476  p :     0.329171
      px      :     0.154602
      py      :     0.080093
      dz2     :     0.008383  d :     0.095919
      dxz     :     0.028888
      dyz     :     0.004948
      dx2y2   :     0.029289
      dxy     :     0.024411
 16 H s       :     0.658632  s :     0.658632
      pz      :     0.141395  p :     0.329170
      px      :     0.100810
      py      :     0.086965
      dz2     :     0.028516  d :     0.095920
      dxz     :     0.031446
      dyz     :     0.029414
      dx2y2   :     0.003441
      dxy     :     0.003103
 17 H s       :     0.652148  s :     0.652148
      pz      :     0.109132  p :     0.327365
      px      :     0.112013
      py      :     0.106220
      dz2     :     0.016887  d :     0.096009
      dxz     :     0.022100
      dyz     :     0.016946
      dx2y2   :     0.023797
      dxy     :     0.016279
 18 H s       :     0.658618  s :     0.658618
      pz      :     0.141467  p :     0.329171
      px      :     0.100710
      py      :     0.086995
      dz2     :     0.028517  d :     0.095922
      dxz     :     0.031463
      dyz     :     0.029449
      dx2y2   :     0.003416
      dxy     :     0.003077

SPIN
  0 Fes       :     0.004261  s :     0.004261
      pz      :     0.002155  p :     0.005665
      px      :     0.002243
      py      :     0.001268
      dz2     :     0.827113  d :     3.828957
      dxz     :     0.964072
      dyz     :     0.724183
      dx2y2   :     0.374216
      dxy     :     0.939373
      f0      :    -0.000115  f :    -0.001041
      f+1     :    -0.000100
      f-1     :    -0.000185
      f+2     :    -0.000133
      f-2     :    -0.000113
      f+3     :    -0.000151
      f-3     :    -0.000243
      g0      :     0.000005  g :     0.000062
      g+1     :     0.000000
      g-1     :     0.000010
      g+2     :     0.000008
      g-2     :     0.000002
      g+3     :     0.000009
      g-3     :     0.000007
      g+4     :     0.000011
      g-4     :     0.000010
  1 O s       :     0.004707  s :     0.004707
      pz      :     0.001953  p :     0.011509
      px      :     0.003237
      py      :     0.006318
      dz2     :     0.000077  d :     0.005414
      dxz     :     0.000029
      dyz     :     0.001797
      dx2y2   :     0.001128
      dxy     :     0.002383
      f0      :     0.000069  f :     0.000377
      f+1     :     0.000002
      f-1     :     0.000028
      f+2     :     0.000065
      f-2     :     0.000085
      f+3     :     0.000076
      f-3     :     0.000052
  2 H s       :     0.000901  s :     0.000901
      pz      :     0.000174  p :     0.001324
      px      :     0.000397
      py      :     0.000752
      dz2     :     0.000146  d :     0.000404
      dxz     :    -0.000011
      dyz     :     0.000044
      dx2y2   :     0.000087
      dxy     :     0.000138
  3 O s       :     0.004707  s :     0.004707
      pz      :     0.005093  p :     0.011505
      px      :     0.002705
      py      :     0.003706
      dz2     :     0.001894  d :     0.005408
      dxz     :     0.001475
      dyz     :     0.001444
      dx2y2   :     0.000199
      dxy     :     0.000396
      f0      :     0.000089  f :     0.000377
      f+1     :     0.000049
      f-1     :     0.000107
      f+2     :     0.000024
      f-2     :     0.000098
      f+3     :     0.000001
      f-3     :     0.000009
  4 H s       :     0.000307  s :     0.000307
      pz      :     0.000954  p :     0.001647
      px      :     0.000427
      py      :     0.000266
      dz2     :     0.000106  d :     0.000440
      dxz     :     0.000181
      dyz     :     0.000015
      dx2y2   :     0.000137
      dxy     :     0.000000
  5 O s       :     0.004710  s :     0.004710
      pz      :     0.005087  p :     0.011499
      px      :     0.002705
      py      :     0.003707
      dz2     :     0.001891  d :     0.005409
      dxz     :     0.001473
      dyz     :     0.001450
      dx2y2   :     0.000199
      dxy     :     0.000397
      f0      :     0.000089  f :     0.000377
      f+1     :     0.000049
      f-1     :     0.000107
      f+2     :     0.000023
      f-2     :     0.000099
      f+3     :     0.000001
      f-3     :     0.000009
  6 H s       :     0.000308  s :     0.000308
      pz      :     0.000952  p :     0.001646
      px      :     0.000427
      py      :     0.000267
      dz2     :     0.000106  d :     0.000439
      dxz     :     0.000181
      dyz     :     0.000015
      dx2y2   :     0.000137
      dxy     :     0.000000
  7 O s       :     0.004704  s :     0.004704
      pz      :     0.001951  p :     0.011502
      px      :     0.003234
      py      :     0.006317
      dz2     :     0.000077  d :     0.005414
      dxz     :     0.000027
      dyz     :     0.001799
      dx2y2   :     0.001129
      dxy     :     0.002382
      f0      :     0.000069  f :     0.000377
      f+1     :     0.000002
      f-1     :     0.000028
      f+2     :     0.000065
      f-2     :     0.000084
      f+3     :     0.000076
      f-3     :     0.000052
  8 H s       :     0.000903  s :     0.000903
      pz      :     0.000174  p :     0.001323
      px      :     0.000396
      py      :     0.000752
      dz2     :     0.000146  d :     0.000403
      dxz     :    -0.000011
      dyz     :     0.000044
      dx2y2   :     0.000086
      dxy     :     0.000138
  9 O s       :     0.004705  s :     0.004705
      pz      :     0.003588  p :     0.011492
      px      :     0.004407
      py      :     0.003497
      dz2     :     0.001331  d :     0.005410
      dxz     :     0.001113
      dyz     :     0.000571
      dx2y2   :     0.000236
      dxy     :     0.002159
      f0      :     0.000043  f :     0.000377
      f+1     :     0.000037
      f-1     :     0.000042
      f+2     :     0.000022
      f-2     :     0.000047
      f+3     :     0.000010
      f-3     :     0.000176
 10 H s       :     0.000906  s :     0.000906
      pz      :     0.000179  p :     0.001321
      px      :     0.000684
      py      :     0.000459
      dz2     :     0.000091  d :     0.000403
      dxz     :     0.000056
      dyz     :     0.000014
      dx2y2   :     0.000115
      dxy     :     0.000127
 11 O s       :     0.004707  s :     0.004707
      pz      :     0.003593  p :     0.011494
      px      :     0.004407
      py      :     0.003494
      dz2     :     0.001334  d :     0.005407
      dxz     :     0.001111
      dyz     :     0.000570
      dx2y2   :     0.000236
      dxy     :     0.002156
      f0      :     0.000043  f :     0.000377
      f+1     :     0.000037
      f-1     :     0.000042
      f+2     :     0.000022
      f-2     :     0.000047
      f+3     :     0.000010
      f-3     :     0.000176
 12 H s       :     0.000902  s :     0.000902
      pz      :     0.000180  p :     0.001322
      px      :     0.000684
      py      :     0.000458
      dz2     :     0.000090  d :     0.000403
      dxz     :     0.000055
      dyz     :     0.000014
      dx2y2   :     0.000116
      dxy     :     0.000127
 13 H s       :     0.000310  s :     0.000310
      pz      :     0.000293  p :     0.001644
      px      :     0.000901
      py      :     0.000451
      dz2     :     0.000020  d :     0.000439
      dxz     :     0.000120
      dyz     :     0.000026
      dx2y2   :     0.000291
      dxy     :    -0.000018
 14 H s       :     0.000898  s :     0.000898
      pz      :     0.000913  p :     0.001322
      px      :     0.000167
      py      :     0.000242
      dz2     :     0.000065  d :     0.000404
      dxz     :     0.000048
      dyz     :     0.000141
      dx2y2   :     0.000128
      dxy     :     0.000021
 15 H s       :     0.000311  s :     0.000311
      pz      :     0.000293  p :     0.001645
      px      :     0.000901
      py      :     0.000451
      dz2     :     0.000020  d :     0.000439
      dxz     :     0.000120
      dyz     :     0.000026
      dx2y2   :     0.000291
      dxy     :    -0.000018
 16 H s       :     0.000310  s :     0.000310
      pz      :     0.000358  p :     0.001645
      px      :     0.000263
      py      :     0.001025
      dz2     :     0.000056  d :     0.000439
      dxz     :     0.000119
      dyz     :     0.000236
      dx2y2   :     0.000009
      dxy     :     0.000019
 17 H s       :     0.000900  s :     0.000900
      pz      :     0.000913  p :     0.001323
      px      :     0.000168
      py      :     0.000243
      dz2     :     0.000065  d :     0.000404
      dxz     :     0.000048
      dyz     :     0.000141
      dx2y2   :     0.000128
      dxy     :     0.000021
 18 H s       :     0.000311  s :     0.000311
      pz      :     0.000357  p :     0.001645
      px      :     0.000262
      py      :     0.001025
      dz2     :     0.000056  d :     0.000439
      dxz     :     0.000119
      dyz     :     0.000236
      dx2y2   :     0.000009
      dxy     :     0.000019


                      *****************************
                      * MAYER POPULATION ANALYSIS *
                      *****************************

  NA   - Mulliken gross atomic population
  ZA   - Total nuclear charge
  QA   - Mulliken gross atomic charge
  VA   - Mayer's total valence
  BVA  - Mayer's bonded valence
  FA   - Mayer's free valence

  ATOM       NA         ZA         QA         VA         BVA        FA
  0 Fe    24.6493    26.0000     1.3507     5.0907     1.2488     3.8419
  1 O      8.5225     8.0000    -0.5225     1.9989     1.9984     0.0005
  2 H      0.6796     1.0000     0.3204     0.9355     0.9355     0.0000
  3 O      8.5225     8.0000    -0.5225     1.9989     1.9984     0.0005
  4 H      0.6897     1.0000     0.3103     0.9407     0.9407     0.0000
  5 O      8.5226     8.0000    -0.5226     1.9988     1.9983     0.0005
  6 H      0.6897     1.0000     0.3103     0.9406     0.9406     0.0000
  7 O      8.5225     8.0000    -0.5225     1.9989     1.9984     0.0005
  8 H      0.6796     1.0000     0.3204     0.9354     0.9354     0.0000
  9 O      8.5224     8.0000    -0.5224     1.9989     1.9984     0.0005
 10 H      0.6796     1.0000     0.3204     0.9355     0.9355     0.0000
 11 O      8.5225     8.0000    -0.5225     1.9988     1.9983     0.0005
 12 H      0.6796     1.0000     0.3204     0.9354     0.9354     0.0000
 13 H      0.6897     1.0000     0.3103     0.9407     0.9407     0.0000
 14 H      0.6796     1.0000     0.3204     0.9355     0.9355     0.0000
 15 H      0.6897     1.0000     0.3103     0.9407     0.9407     0.0000
 16 H      0.6897     1.0000     0.3103     0.9407     0.9407     0.0000
 17 H      0.6795     1.0000     0.3205     0.9354     0.9354     0.0000
 18 H      0.6897     1.0000     0.3103     0.9406     0.9406     0.0000

  Mayer bond orders larger than 0.100000
B(  0-Fe,  1-O ) :   0.1940 B(  0-Fe,  3-O ) :   0.1940 B(  0-Fe,  5-O ) :   0.1940 
B(  0-Fe,  7-O ) :   0.1940 B(  0-Fe,  9-O ) :   0.1940 B(  0-Fe, 11-O ) :   0.1939 
B(  1-O ,  2-H ) :   0.9163 B(  1-O , 16-H ) :   0.9210 B(  3-O ,  4-H ) :   0.9210 
B(  3-O , 14-H ) :   0.9163 B(  5-O ,  6-H ) :   0.9210 B(  5-O , 17-H ) :   0.9162 
B(  7-O ,  8-H ) :   0.9163 B(  7-O , 18-H ) :   0.9210 B(  9-O , 10-H ) :   0.9163 
B(  9-O , 13-H ) :   0.9210 B( 11-O , 12-H ) :   0.9163 B( 11-O , 15-H ) :   0.9210 


-------
TIMINGS
-------

Total SCF time: 0 days 0 hours 39 min 32 sec 

Total time                  ....    2372.139 sec
Sum of individual times     ....    2370.965 sec  (100.0%)

Fock matrix formation       ....    1376.205 sec  ( 58.0%)
Diagonalization             ....       4.132 sec  (  0.2%)
Density matrix formation    ....       0.164 sec  (  0.0%)
Population analysis         ....       0.062 sec  (  0.0%)
Initial guess               ....       0.182 sec  (  0.0%)
Orbital Transformation      ....       0.000 sec  (  0.0%)
Orbital Orthonormalization  ....       0.000 sec  (  0.0%)
DIIS solution               ....       2.178 sec  (  0.1%)
SCF Stability Analysis      ....     987.970 sec  ( 41.6%)

Maximum memory used throughout the entire SCF-calculation: 303.8 MB

-------------------------   --------------------
FINAL SINGLE POINT ENERGY     -1718.438791080649
-------------------------   --------------------


                            ***************************************
                            *     ORCA property calculations      *
                            ***************************************

                                    ---------------------
                                    Active property flags
                                    ---------------------
   (+) Dipole Moment


------------------------------------------------------------------------------
                       ORCA ELECTRIC PROPERTIES CALCULATION
------------------------------------------------------------------------------

Dipole Moment Calculation                       ... on
Quadrupole Moment Calculation                   ... off
Polarizability Calculation                      ... off
GBWName                                         ... /scratch/stability-UHF_358/stability-UHF.gbw
Electron density file                           ... /scratch/stability-UHF_358/stability-UHF.scfp
The origin for moment calculation is the CENTER OF MASS  = (-1.214043,  0.979112  0.217515)

-------------
DIPOLE MOMENT
-------------
                                X             Y             Z
Electronic contribution:     -0.00163      -0.00100       0.00067
Nuclear contribution   :      0.00229       0.00130      -0.00008
                        -----------------------------------------
Total Dipole Moment    :      0.00066       0.00030       0.00059
                        -----------------------------------------
Magnitude (a.u.)       :      0.00093
Magnitude (Debye)      :      0.00237



--------------------
Rotational spectrum 
--------------------
 
Rotational constants in cm-1:     0.057213     0.051955     0.051945 
Rotational constants in MHz :  1715.201752  1557.579206  1557.273951 

 Dipole components along the rotational axes: 
x,y,z [a.u.] :     0.000422    -0.000441     0.000707 
x,y,z [Debye]:     0.001072    -0.001120     0.001798 

 
--------------------------------------------------------------------------
WARNING: There was an error initializing an OpenFabrics device.

  Local host:   cnode10
  Local device: mlx5_0
--------------------------------------------------------------------------
[cnode10:348517] 15 more processes have sent help message help-mpi-btl-openib.txt / error in device init
[cnode10:348517] Set MCA parameter "orte_base_help_aggregate" to 0 to see all help / error messages

Timings for individual modules:

Sum of individual times         ...     2376.384 sec (=  39.606 min)
GTO integral calculation        ...        3.592 sec (=   0.060 min)   0.2 %
SCF iterations                  ...     2372.793 sec (=  39.547 min)  99.8 %
                             ****ORCA TERMINATED NORMALLY****
TOTAL RUN TIME: 0 days 0 hours 39 minutes 37 seconds 170 msec

Sender: Unischeduler System <lcz@mgt01>
Subject: Job 132200: <#!/bin/bash
#BSUB -J intel
#BSUB -o stability-UHF.out
#BSUB -n 16
#BSUB -q cqueue
export LD_LIBRARY_PATH=/apps/software/openmpi-4.1.1/lib:/apps/software/orca_5_0_0:$LD_LIBRARY_PATH
export PATH=/apps/software/openmpi-4.1.1/bin:/apps/software/orca_5_0_0:$PATH
mkdir /scratch/stability-UHF_358
scp $USER@mgt01:/apps/users/lcz/exe5/task2/Mul5StablityTest/ORCA/cc-pVTZ/stability-UHF.inp /scratch/stability-UHF_358
/apps/software/orca_5_0_0/orca /scratch/stability-UHF_358/stability-UHF.inp >& stability-UHF.out
scp /scratch/stability-UHF_358/*.gbw $USER@mgt01:/apps/users/lcz/exe5/task2/Mul5StablityTest/ORCA/cc-pVTZ
scp /scratch/stability-UHF_358/*.xyz $USER@mgt01:/apps/users/lcz/exe5/task2/Mul5StablityTest/ORCA/cc-pVTZ
scp /scratch/stability-UHF_358/*.trj $USER@mgt01:/apps/users/lcz/exe5/task2/Mul5StablityTest/ORCA/cc-pVTZ> Exited

Job <#!/bin/bash
#BSUB -J intel
#BSUB -o stability-UHF.out
#BSUB -n 16
#BSUB -q cqueue
export LD_LIBRARY_PATH=/apps/software/openmpi-4.1.1/lib:/apps/software/orca_5_0_0:$LD_LIBRARY_PATH
export PATH=/apps/software/openmpi-4.1.1/bin:/apps/software/orca_5_0_0:$PATH
mkdir /scratch/stability-UHF_358
scp $USER@mgt01:/apps/users/lcz/exe5/task2/Mul5StablityTest/ORCA/cc-pVTZ/stability-UHF.inp /scratch/stability-UHF_358
/apps/software/orca_5_0_0/orca /scratch/stability-UHF_358/stability-UHF.inp >& stability-UHF.out
scp /scratch/stability-UHF_358/*.gbw $USER@mgt01:/apps/users/lcz/exe5/task2/Mul5StablityTest/ORCA/cc-pVTZ
scp /scratch/stability-UHF_358/*.xyz $USER@mgt01:/apps/users/lcz/exe5/task2/Mul5StablityTest/ORCA/cc-pVTZ
scp /scratch/stability-UHF_358/*.trj $USER@mgt01:/apps/users/lcz/exe5/task2/Mul5StablityTest/ORCA/cc-pVTZ> was submitted from host <mgt01> by user <lcz>.
Job was executed on host(s) <16*cnode10>, in queue <cqueue>, as user <lcz>.
</apps/users/lcz> was used as the home directory.
</apps/users/lcz/exe5/task2/Mul5StablityTest/ORCA/cc-pVTZ> was used as the working directory.
Started at 2022-05-15 10:09:42
Results reported at 2022-05-15 10:49:21

Your job looked like:

------------------------------------------------------------
# User input
#!/bin/bash
#BSUB -J intel
#BSUB -o stability-UHF.out
#BSUB -n 16
#BSUB -q cqueue
export LD_LIBRARY_PATH=/apps/software/openmpi-4.1.1/lib:/apps/software/orca_5_0_0:$LD_LIBRARY_PATH
export PATH=/apps/software/openmpi-4.1.1/bin:/apps/software/orca_5_0_0:$PATH
mkdir /scratch/stability-UHF_358
scp $USER@mgt01:/apps/users/lcz/exe5/task2/Mul5StablityTest/ORCA/cc-pVTZ/stability-UHF.inp /scratch/stability-UHF_358
/apps/software/orca_5_0_0/orca /scratch/stability-UHF_358/stability-UHF.inp >& stability-UHF.out
scp /scratch/stability-UHF_358/*.gbw $USER@mgt01:/apps/users/lcz/exe5/task2/Mul5StablityTest/ORCA/cc-pVTZ
scp /scratch/stability-UHF_358/*.xyz $USER@mgt01:/apps/users/lcz/exe5/task2/Mul5StablityTest/ORCA/cc-pVTZ
scp /scratch/stability-UHF_358/*.trj $USER@mgt01:/apps/users/lcz/exe5/task2/Mul5StablityTest/ORCA/cc-pVTZ
------------------------------------------------------------

Exited with exit code 1.

Resource usage summary:

    CPU time   :        37825.91 sec.
    Max Memory :              6934 MB
    Max Processes  :              21


The output (if any) follows:

/scratch/stability-UHF_358/*.xyz: No such file or directory
/scratch/stability-UHF_358/*.trj: No such file or directory
