 Entering Gaussian System, Link 0=/apps/software/g16/g16
 Initial command:
 /apps/software/g16/l1.exe "/scratch/Gau-287623.inp" -scrdir="/scratch/"
 Entering Link 1 = /apps/software/g16/l1.exe PID=    287624.
  
 Copyright (c) 1988,1990,1992,1993,1995,1998,2003,2009,2016,
            Gaussian, Inc.  All Rights Reserved.
  
 This is part of the Gaussian(R) 16 program.  It is based on
 the Gaussian(R) 09 system (copyright 2009, Gaussian, Inc.),
 the Gaussian(R) 03 system (copyright 2003, Gaussian, Inc.),
 the Gaussian(R) 98 system (copyright 1998, Gaussian, Inc.),
 the Gaussian(R) 94 system (copyright 1995, Gaussian, Inc.),
 the Gaussian 92(TM) system (copyright 1992, Gaussian, Inc.),
 the Gaussian 90(TM) system (copyright 1990, Gaussian, Inc.),
 the Gaussian 88(TM) system (copyright 1988, Gaussian, Inc.),
 the Gaussian 86(TM) system (copyright 1986, Carnegie Mellon
 University), and the Gaussian 82(TM) system (copyright 1983,
 Carnegie Mellon University). Gaussian is a federally registered
 trademark of Gaussian, Inc.
  
 This software contains proprietary and confidential information,
 including trade secrets, belonging to Gaussian, Inc.
  
 This software is provided under written license and may be
 used, copied, transmitted, or stored only in accord with that
 written license.
  
 The following legend is applicable only to US Government
 contracts under FAR:
  
                    RESTRICTED RIGHTS LEGEND
  
 Use, reproduction and disclosure by the US Government is
 subject to restrictions as set forth in subparagraphs (a)
 and (c) of the Commercial Computer Software - Restricted
 Rights clause in FAR 52.227-19.
  
 Gaussian, Inc.
 340 Quinnipiac St., Bldg. 40, Wallingford CT 06492
  
  
 ---------------------------------------------------------------
 Warning -- This program may not be used in any manner that
 competes with the business of Gaussian, Inc. or will provide
 assistance to any competitor of Gaussian, Inc.  The licensee
 of this program is prohibited from giving any competitor of
 Gaussian, Inc. access to this program.  By using this program,
 the user acknowledges that Gaussian, Inc. is engaged in the
 business of creating and licensing software in the field of
 computational chemistry and represents and warrants to the
 licensee that it is not a competitor of Gaussian, Inc. and that
 it will not use this program in any manner prohibited above.
 ---------------------------------------------------------------
  

 Cite this work as:
 Gaussian 16, Revision A.03,
 M. J. Frisch, G. W. Trucks, H. B. Schlegel, G. E. Scuseria, 
 M. A. Robb, J. R. Cheeseman, G. Scalmani, V. Barone, 
 G. A. Petersson, H. Nakatsuji, X. Li, M. Caricato, A. V. Marenich, 
 J. Bloino, B. G. Janesko, R. Gomperts, B. Mennucci, H. P. Hratchian, 
 J. V. Ortiz, A. F. Izmaylov, J. L. Sonnenberg, D. Williams-Young, 
 F. Ding, F. Lipparini, F. Egidi, J. Goings, B. Peng, A. Petrone, 
 T. Henderson, D. Ranasinghe, V. G. Zakrzewski, J. Gao, N. Rega, 
 G. Zheng, W. Liang, M. Hada, M. Ehara, K. Toyota, R. Fukuda, 
 J. Hasegawa, M. Ishida, T. Nakajima, Y. Honda, O. Kitao, H. Nakai, 
 T. Vreven, K. Throssell, J. A. Montgomery, Jr., J. E. Peralta, 
 F. Ogliaro, M. J. Bearpark, J. J. Heyd, E. N. Brothers, K. N. Kudin, 
 V. N. Staroverov, T. A. Keith, R. Kobayashi, J. Normand, 
 K. Raghavachari, A. P. Rendell, J. C. Burant, S. S. Iyengar, 
 J. Tomasi, M. Cossi, J. M. Millam, M. Klene, C. Adamo, R. Cammi, 
 J. W. Ochterski, R. L. Martin, K. Morokuma, O. Farkas, 
 J. B. Foresman, and D. J. Fox, Gaussian, Inc., Wallingford CT, 2016.
 
 ******************************************
 Gaussian 16:  ES64L-G16RevA.03 25-Dec-2016
                14-May-2022 
 ******************************************
 %nprocshared=16
 Will use up to   16 processors via shared memory.
 -------------------------------------
 # Opt(MaxCycle=1000) Freq UHF/Def2SVP
 -------------------------------------
 1/6=1000,18=20,19=15,38=1/1,3;
 2/9=110,12=2,17=6,18=5,40=1/2;
 3/5=43,7=101,11=2,25=1,30=1,71=1,116=2/1,2,3;
 4//1;
 5/5=2,38=5/2;
 6/7=2,8=2,9=2,10=2,28=1/1;
 7//1,2,3,16;
 1/6=1000,18=20,19=15/3(2);
 2/9=110/2;
 99//99;
 2/9=110/2;
 3/5=43,7=101,11=2,25=1,30=1,71=1,116=2/1,2,3;
 4/5=5,16=3,69=1/1;
 5/5=2,38=5/2;
 7//1,2,3,16;
 1/6=1000,18=20,19=15/3(-5);
 2/9=110/2;
 6/7=2,8=2,9=2,10=2,19=2,28=1/1;
 99/9=1/99;
 ------------
 [Fe(H2O)6]2+
 ------------
 Symbolic Z-matrix:
 Charge =  2 Multiplicity = 1
 Fe                    6.20397   1.03715   0.17097 
 O                     8.02344   0.99563   0.15636 
 O                     6.24694  -0.78162   0.11972 
 O                     6.22608   1.15774  -1.6449 
 O                     4.3844    1.01817   0.2057 
 O                     6.16558   2.85627   0.21242 
 O                     6.16851   1.06001   1.99048 
 H                     4.06546   1.78649   0.68482 
 H                     4.08102   0.21944   0.64342 
 H                     6.97846   3.18467   0.60355 
 H                     5.41693   3.14866   0.73743 
 H                     6.90727   0.55048   2.33137 
 H                     5.34491   0.67544   2.29934 
 H                     8.36475   1.75961   0.62692 
 H                     8.32866   0.1929    0.5854 
 H                     7.07411  -1.09286   0.4946 
 H                     5.51267  -1.13352   0.62827 
 H                     6.97521   0.66594  -1.98917 
 H                     5.41263   0.79177  -1.99983 
 

 GradGradGradGradGradGradGradGradGradGradGradGradGradGradGradGradGradGrad
 Berny optimization.
 Initialization pass.
                           ----------------------------
                           !    Initial Parameters    !
                           ! (Angstroms and Degrees)  !
 --------------------------                            --------------------------
 ! Name  Definition              Value          Derivative Info.                !
 --------------------------------------------------------------------------------
 ! R1    R(1,2)                  1.82           estimate D2E/DX2                !
 ! R2    R(1,3)                  1.82           estimate D2E/DX2                !
 ! R3    R(1,4)                  1.82           estimate D2E/DX2                !
 ! R4    R(1,5)                  1.82           estimate D2E/DX2                !
 ! R5    R(1,6)                  1.82           estimate D2E/DX2                !
 ! R6    R(1,7)                  1.82           estimate D2E/DX2                !
 ! R7    R(2,14)                 0.96           estimate D2E/DX2                !
 ! R8    R(2,15)                 0.96           estimate D2E/DX2                !
 ! R9    R(3,16)                 0.96           estimate D2E/DX2                !
 ! R10   R(3,17)                 0.96           estimate D2E/DX2                !
 ! R11   R(4,18)                 0.96           estimate D2E/DX2                !
 ! R12   R(4,19)                 0.96           estimate D2E/DX2                !
 ! R13   R(5,8)                  0.96           estimate D2E/DX2                !
 ! R14   R(5,9)                  0.96           estimate D2E/DX2                !
 ! R15   R(6,10)                 0.96           estimate D2E/DX2                !
 ! R16   R(6,11)                 0.96           estimate D2E/DX2                !
 ! R17   R(7,12)                 0.96           estimate D2E/DX2                !
 ! R18   R(7,13)                 0.96           estimate D2E/DX2                !
 ! A1    A(2,1,3)               87.3274         estimate D2E/DX2                !
 ! A2    A(2,1,4)               88.932          estimate D2E/DX2                !
 ! A3    A(2,1,6)               92.5261         estimate D2E/DX2                !
 ! A4    A(2,1,7)               91.5927         estimate D2E/DX2                !
 ! A5    A(3,1,4)               92.1684         estimate D2E/DX2                !
 ! A6    A(3,1,5)               90.7862         estimate D2E/DX2                !
 ! A7    A(3,1,7)               92.3591         estimate D2E/DX2                !
 ! A8    A(4,1,5)               91.8267         estimate D2E/DX2                !
 ! A9    A(4,1,6)               87.5214         estimate D2E/DX2                !
 ! A10   A(5,1,6)               89.364          estimate D2E/DX2                !
 ! A11   A(5,1,7)               87.7975         estimate D2E/DX2                !
 ! A12   A(6,1,7)               87.9518         estimate D2E/DX2                !
 ! A13   A(1,2,14)             109.4712         estimate D2E/DX2                !
 ! A14   A(1,2,15)             109.4712         estimate D2E/DX2                !
 ! A15   A(14,2,15)            109.4712         estimate D2E/DX2                !
 ! A16   A(1,3,16)             109.4712         estimate D2E/DX2                !
 ! A17   A(1,3,17)             109.4712         estimate D2E/DX2                !
 ! A18   A(16,3,17)            109.4712         estimate D2E/DX2                !
 ! A19   A(1,4,18)             109.4712         estimate D2E/DX2                !
 ! A20   A(1,4,19)             109.4712         estimate D2E/DX2                !
 ! A21   A(18,4,19)            109.4712         estimate D2E/DX2                !
 ! A22   A(1,5,8)              109.4712         estimate D2E/DX2                !
 ! A23   A(1,5,9)              109.4712         estimate D2E/DX2                !
 ! A24   A(8,5,9)              109.4712         estimate D2E/DX2                !
 ! A25   A(1,6,10)             109.4712         estimate D2E/DX2                !
 ! A26   A(1,6,11)             109.4712         estimate D2E/DX2                !
 ! A27   A(10,6,11)            109.4712         estimate D2E/DX2                !
 ! A28   A(1,7,12)             109.4712         estimate D2E/DX2                !
 ! A29   A(1,7,13)             109.4712         estimate D2E/DX2                !
 ! A30   A(12,7,13)            109.4712         estimate D2E/DX2                !
 ! A31   L(2,1,5,3,-1)         178.1136         estimate D2E/DX2                !
 ! A32   L(3,1,6,2,-1)         179.8535         estimate D2E/DX2                !
 ! A33   L(4,1,7,2,-1)         180.5246         estimate D2E/DX2                !
 ! A34   L(2,1,5,3,-2)         179.3133         estimate D2E/DX2                !
 ! A35   L(3,1,6,2,-2)         179.6925         estimate D2E/DX2                !
 ! A36   L(4,1,7,2,-2)         175.4907         estimate D2E/DX2                !
 ! D1    D(3,1,2,14)          -150.0759         estimate D2E/DX2                !
 ! D2    D(3,1,2,15)           -30.0759         estimate D2E/DX2                !
 ! D3    D(4,1,2,14)           117.7031         estimate D2E/DX2                !
 ! D4    D(4,1,2,15)          -122.2969         estimate D2E/DX2                !
 ! D5    D(6,1,2,14)            30.2316         estimate D2E/DX2                !
 ! D6    D(6,1,2,15)           150.2316         estimate D2E/DX2                !
 ! D7    D(7,1,2,14)           -57.7877         estimate D2E/DX2                !
 ! D8    D(7,1,2,15)            62.2123         estimate D2E/DX2                !
 ! D9    D(14,2,5,8)             0.0301         estimate D2E/DX2                !
 ! D10   D(14,2,5,9)          -119.7534         estimate D2E/DX2                !
 ! D11   D(15,2,5,8)           119.8133         estimate D2E/DX2                !
 ! D12   D(15,2,5,9)             0.0298         estimate D2E/DX2                !
 ! D13   D(2,1,3,16)            25.4921         estimate D2E/DX2                !
 ! D14   D(2,1,3,17)           145.4921         estimate D2E/DX2                !
 ! D15   D(4,1,3,16)           114.3208         estimate D2E/DX2                !
 ! D16   D(4,1,3,17)          -125.6792         estimate D2E/DX2                !
 ! D17   D(5,1,3,16)          -153.8213         estimate D2E/DX2                !
 ! D18   D(5,1,3,17)           -33.8213         estimate D2E/DX2                !
 ! D19   D(7,1,3,16)           -65.9935         estimate D2E/DX2                !
 ! D20   D(7,1,3,17)            54.0065         estimate D2E/DX2                !
 ! D21   D(16,3,6,10)            0.0036         estimate D2E/DX2                !
 ! D22   D(16,3,6,11)         -120.0868         estimate D2E/DX2                !
 ! D23   D(17,3,6,10)          120.094          estimate D2E/DX2                !
 ! D24   D(17,3,6,11)            0.0036         estimate D2E/DX2                !
 ! D25   D(2,1,4,18)            33.2326         estimate D2E/DX2                !
 ! D26   D(2,1,4,19)           153.2326         estimate D2E/DX2                !
 ! D27   D(3,1,4,18)           -54.0519         estimate D2E/DX2                !
 ! D28   D(3,1,4,19)            65.9481         estimate D2E/DX2                !
 ! D29   D(5,1,4,18)          -144.9083         estimate D2E/DX2                !
 ! D30   D(5,1,4,19)           -24.9083         estimate D2E/DX2                !
 ! D31   D(6,1,4,18)           125.8078         estimate D2E/DX2                !
 ! D32   D(6,1,4,19)          -114.1922         estimate D2E/DX2                !
 ! D33   D(18,4,7,12)            0.0534         estimate D2E/DX2                !
 ! D34   D(18,4,7,13)         -121.3616         estimate D2E/DX2                !
 ! D35   D(19,4,7,12)          121.4682         estimate D2E/DX2                !
 ! D36   D(19,4,7,13)            0.0531         estimate D2E/DX2                !
 ! D37   D(3,1,5,8)            150.0851         estimate D2E/DX2                !
 ! D38   D(3,1,5,9)             30.0851         estimate D2E/DX2                !
 ! D39   D(4,1,5,8)           -117.7201         estimate D2E/DX2                !
 ! D40   D(4,1,5,9)            122.2799         estimate D2E/DX2                !
 ! D41   D(6,1,5,8)            -30.2204         estimate D2E/DX2                !
 ! D42   D(6,1,5,9)           -150.2204         estimate D2E/DX2                !
 ! D43   D(7,1,5,8)             57.7543         estimate D2E/DX2                !
 ! D44   D(7,1,5,9)            -62.2457         estimate D2E/DX2                !
 ! D45   D(2,1,6,10)           -25.5024         estimate D2E/DX2                !
 ! D46   D(2,1,6,11)          -145.5024         estimate D2E/DX2                !
 ! D47   D(4,1,6,10)          -114.3229         estimate D2E/DX2                !
 ! D48   D(4,1,6,11)           125.6771         estimate D2E/DX2                !
 ! D49   D(5,1,6,10)           153.8211         estimate D2E/DX2                !
 ! D50   D(5,1,6,11)            33.8211         estimate D2E/DX2                !
 ! D51   D(7,1,6,10)            66.0024         estimate D2E/DX2                !
 ! D52   D(7,1,6,11)           -53.9976         estimate D2E/DX2                !
 ! D53   D(2,1,7,12)           -33.2844         estimate D2E/DX2                !
 ! D54   D(2,1,7,13)          -153.2844         estimate D2E/DX2                !
 ! D55   D(3,1,7,12)            54.1054         estimate D2E/DX2                !
 ! D56   D(3,1,7,13)           -65.8946         estimate D2E/DX2                !
 ! D57   D(5,1,7,12)           144.802          estimate D2E/DX2                !
 ! D58   D(5,1,7,13)            24.802          estimate D2E/DX2                !
 ! D59   D(6,1,7,12)          -125.7561         estimate D2E/DX2                !
 ! D60   D(6,1,7,13)           114.2439         estimate D2E/DX2                !
 --------------------------------------------------------------------------------
 Trust Radius=3.00D-01 FncErr=1.00D-07 GrdErr=1.00D-07 EigMax=2.50D+02 EigMin=1.00D-04
 Number of steps in this run=    114 maximum allowed number of steps=    114.
 GradGradGradGradGradGradGradGradGradGradGradGradGradGradGradGradGradGrad

                          Input orientation:                          
 ---------------------------------------------------------------------
 Center     Atomic      Atomic             Coordinates (Angstroms)
 Number     Number       Type             X           Y           Z
 ---------------------------------------------------------------------
      1         26           0        6.203972    1.037146    0.170968
      2          8           0        8.023440    0.995626    0.156356
      3          8           0        6.246944   -0.781624    0.119724
      4          8           0        6.226075    1.157740   -1.644898
      5          8           0        4.384402    1.018165    0.205705
      6          8           0        6.165579    2.856269    0.212425
      7          8           0        6.168506    1.060011    1.990478
      8          1           0        4.065459    1.786488    0.684823
      9          1           0        4.081015    0.219439    0.643417
     10          1           0        6.978462    3.184666    0.603547
     11          1           0        5.416932    3.148658    0.737435
     12          1           0        6.907270    0.550479    2.331367
     13          1           0        5.344913    0.675438    2.299344
     14          1           0        8.364747    1.759612    0.626924
     15          1           0        8.328661    0.192904    0.585399
     16          1           0        7.074109   -1.092859    0.494599
     17          1           0        5.512674   -1.133518    0.628269
     18          1           0        6.975214    0.665940   -1.989169
     19          1           0        5.412635    0.791767   -1.999833
 ---------------------------------------------------------------------
                    Distance matrix (angstroms):
                    1          2          3          4          5
     1  Fe   0.000000
     2  O    1.820000   0.000000
     3  O    1.820000   2.513145   0.000000
     4  O    1.820000   2.549768   2.622110   0.000000
     5  O    1.820000   3.639442   2.591466   2.614569   0.000000
     6  O    1.820000   2.629977   3.639984   2.517600   2.559543
     7  O    1.820000   2.609393   2.626309   3.637146   2.523924
     8  H    2.323532   4.070670   3.416639   3.239010   0.960000
     9  H    2.323532   4.047519   2.442874   3.273848   0.960000
    10  H    2.323532   2.466547   4.062101   3.119298   3.403109
    11  H    2.323532   3.430318   4.064186   3.208423   2.426490
    12  H    2.323532   2.484888   2.664939   4.079642   3.331971
    13  H    2.323532   3.445203   2.772622   4.070148   2.328812
    14  H    2.323532   0.960000   3.346673   3.177631   4.070664
    15  H    2.323532   0.960000   2.345230   3.213409   4.047517
    16  H    2.323532   2.318924   0.960000   3.218976   3.431385
    17  H    2.323532   3.325643   0.960000   3.305464   2.466029
    18  H    2.323532   2.410549   2.659558   0.960000   3.413772
    19  H    2.323532   3.392198   2.768421   0.960000   2.443955
                    6          7          8          9         10
     6  O    0.000000
     7  O    2.527454   0.000000
     8  H    2.403767   2.579789   0.000000
     9  H    3.388810   2.622738   1.567673   0.000000
    10  H    0.960000   2.663412   3.232197   4.146005   0.000000
    11  H    0.960000   2.549005   1.919572   3.220844   1.567673
    12  H    3.218181   0.960000   3.509233   3.308546   3.151090
    13  H    3.128058   0.960000   2.340537   2.132479   3.440993
    14  H    2.492148   2.678096   4.299762   4.552226   1.988242
    15  H    3.451310   2.718895   4.552393   4.248125   3.282377
    16  H    4.062101   2.773558   4.168789   3.271526   4.279981
    17  H    4.064186   2.664075   3.259458   1.969865   4.560247
    18  H    3.209372   4.079665   4.107620   3.937799   3.614716
    19  H    3.118201   4.070120   3.164132   3.014555   3.867217
                   11         12         13         14         15
    11  H    0.000000
    12  H    3.392972   0.000000
    13  H    2.926015   1.567673   0.000000
    14  H    3.260563   2.547817   3.618262   0.000000
    15  H    4.151838   2.279609   3.474651   1.567673   0.000000
    16  H    4.560228   2.470246   3.061715   3.133664   1.798703
    17  H    4.284637   2.771513   2.468391   4.062576   3.113039
    18  H    4.003312   4.322613   4.587953   3.157667   2.946860
    19  H    3.612145   4.588186   4.301283   4.068358   3.942749
                   16         17         18         19
    16  H    0.000000
    17  H    1.567673   0.000000
    18  H    3.045038   3.496863   0.000000
    19  H    3.540410   3.259394   1.567673   0.000000
 Stoichiometry    FeH12O6(2+)
 Framework group  C1[X(FeH12O6)]
 Deg. of freedom    51
 Full point group                 C1      NOp   1
 Largest Abelian subgroup         C1      NOp   1
 Largest concise Abelian subgroup C1      NOp   1
                         Standard orientation:                         
 ---------------------------------------------------------------------
 Center     Atomic      Atomic             Coordinates (Angstroms)
 Number     Number       Type             X           Y           Z
 ---------------------------------------------------------------------
      1         26           0        0.010146   -0.033639    0.027691
      2          8           0        1.539344   -0.374401   -0.898502
      3          8           0        0.867758    1.400282    0.749336
      4          8           0        0.602850   -1.139176    1.346361
      5          8           0       -1.499338    0.367194    0.962139
      6          8           0       -0.840449   -1.474176   -0.689069
      7          8           0       -0.658320    0.960583   -1.342373
      8          1           0       -2.268708    0.074824    0.467984
      9          1           0       -1.548508    1.316127    1.098919
     10          1           0       -0.448150   -1.687237   -1.538955
     11          1           0       -1.770828   -1.269781   -0.808302
     12          1           0        0.060569    1.412336   -1.790388
     13          1           0       -1.276624    1.608088   -0.995908
     14          1           0        1.321268   -0.800900   -1.730453
     15          1           0        1.998620    0.450457   -1.072501
     16          1           0        1.560364    1.692654    0.152330
     17          1           0        0.239897    2.113732    0.884901
     18          1           0        1.559343   -1.082512    1.405608
     19          1           0        0.214198   -0.875614    2.183669
 ---------------------------------------------------------------------
 Rotational constants (GHZ):           2.0241394           1.9746986           1.9394519
 Standard basis: def2SVP (5D, 7F)
 There are   186 symmetry adapted cartesian basis functions of A   symmetry.
 There are   175 symmetry adapted basis functions of A   symmetry.
   175 basis functions,   315 primitive gaussians,   186 cartesian basis functions
    42 alpha electrons       42 beta electrons
       nuclear repulsion energy       767.8155054721 Hartrees.
 NAtoms=   19 NActive=   19 NUniq=   19 SFac= 1.00D+00 NAtFMM=   60 NAOKFM=F Big=F
 Integral buffers will be    131072 words long.
 Raffenetti 2 integral format.
 Two-electron integral symmetry is turned on.
 One-electron integrals computed using PRISM.
 PrsmSu:  requested number of processors reduced to:  13 ShMem   1 Linda.
   1 Symmetry operations used in ECPInt.
 ECPInt:  NShTT=    3486 NPrTT=   13195 LenC2=    3466 LenP2D=   10866.
 LDataN:  DoStor=T MaxTD1= 6 Len=  172
 NBasis=   175 RedAO= T EigKep=  6.97D-03  NBF=   175
 NBsUse=   175 1.00D-06 EigRej= -1.00D+00 NBFU=   175
 ExpMin= 3.37D-02 ExpMax= 6.09D+04 ExpMxC= 9.15D+03 IAcc=3 IRadAn=         5 AccDes= 0.00D+00
 Harris functional with IExCor=  205 and IRadAn=       5 diagonalized for initial guess.
 HarFok:  IExCor=  205 AccDes= 0.00D+00 IRadAn=         5 IDoV= 1 UseB2=F ITyADJ=14
 ICtDFT=  3500011 ScaDFX=  1.000000  1.000000  1.000000  1.000000
 FoFCou: FMM=F IPFlag=           0 FMFlag=      100000 FMFlg1=           0
         NFxFlg=           0 DoJE=T BraDBF=F KetDBF=T FulRan=T
         wScrn=  0.000000 ICntrl=       500 IOpCl=  0 I1Cent=   200000004 NGrid=           0
         NMat0=    1 NMatS0=      1 NMatT0=    0 NMatD0=    1 NMtDS0=    0 NMtDT0=    0
 Petite list used in FoFCou.
 Initial guess <Sx>= 0.0000 <Sy>= 0.0000 <Sz>= 0.0000 <S**2>=-0.0000 S=-0.0000
 Requested convergence on RMS density matrix=1.00D-08 within 128 cycles.
 Requested convergence on MAX density matrix=1.00D-06.
 Requested convergence on             energy=1.00D-06.
 No special actions if energy rises.
 Initial convergence to 1.0D-05 achieved.  Increase integral accuracy.
 SCF Done:  E(UHF) =  -1717.42000291     A.U. after   20 cycles
            NFock= 20  Conv=0.80D-09     -V/T= 1.9999
 <Sx>= 0.0000 <Sy>= 0.0000 <Sz>= 0.0000 <S**2>=-0.0000 S=-0.0000
 <L.S>=  0.00000000000    
 Annihilation of the first spin contaminant:
 S**2 before annihilation    -0.0000,   after     0.0000

 **********************************************************************

            Population analysis using the SCF density.

 **********************************************************************

 Orbital symmetries:
 Alpha Orbitals:
       Occupied  (A) (A) (A) (A) (A) (A) (A) (A) (A) (A) (A) (A)
                 (A) (A) (A) (A) (A) (A) (A) (A) (A) (A) (A) (A)
                 (A) (A) (A) (A) (A) (A) (A) (A) (A) (A) (A) (A)
                 (A) (A) (A) (A) (A) (A)
       Virtual   (A) (A) (A) (A) (A) (A) (A) (A) (A) (A) (A) (A)
                 (A) (A) (A) (A) (A) (A) (A) (A) (A) (A) (A) (A)
                 (A) (A) (A) (A) (A) (A) (A) (A) (A) (A) (A) (A)
                 (A) (A) (A) (A) (A) (A) (A) (A) (A) (A) (A) (A)
                 (A) (A) (A) (A) (A) (A) (A) (A) (A) (A) (A) (A)
                 (A) (A) (A) (A) (A) (A) (A) (A) (A) (A) (A) (A)
                 (A) (A) (A) (A) (A) (A) (A) (A) (A) (A) (A) (A)
                 (A) (A) (A) (A) (A) (A) (A) (A) (A) (A) (A) (A)
                 (A) (A) (A) (A) (A) (A) (A) (A) (A) (A) (A) (A)
                 (A) (A) (A) (A) (A) (A) (A) (A) (A) (A) (A) (A)
                 (A) (A) (A) (A) (A) (A) (A) (A) (A) (A) (A) (A)
                 (A)
 Beta  Orbitals:
       Occupied  (A) (A) (A) (A) (A) (A) (A) (A) (A) (A) (A) (A)
                 (A) (A) (A) (A) (A) (A) (A) (A) (A) (A) (A) (A)
                 (A) (A) (A) (A) (A) (A) (A) (A) (A) (A) (A) (A)
                 (A) (A) (A) (A) (A) (A)
       Virtual   (A) (A) (A) (A) (A) (A) (A) (A) (A) (A) (A) (A)
                 (A) (A) (A) (A) (A) (A) (A) (A) (A) (A) (A) (A)
                 (A) (A) (A) (A) (A) (A) (A) (A) (A) (A) (A) (A)
                 (A) (A) (A) (A) (A) (A) (A) (A) (A) (A) (A) (A)
                 (A) (A) (A) (A) (A) (A) (A) (A) (A) (A) (A) (A)
                 (A) (A) (A) (A) (A) (A) (A) (A) (A) (A) (A) (A)
                 (A) (A) (A) (A) (A) (A) (A) (A) (A) (A) (A) (A)
                 (A) (A) (A) (A) (A) (A) (A) (A) (A) (A) (A) (A)
                 (A) (A) (A) (A) (A) (A) (A) (A) (A) (A) (A) (A)
                 (A) (A) (A) (A) (A) (A) (A) (A) (A) (A) (A) (A)
                 (A) (A) (A) (A) (A) (A) (A) (A) (A) (A) (A) (A)
                 (A)
 The electronic state is 1-A.
 Alpha  occ. eigenvalues -- -261.58940 -32.16500 -27.65377 -27.65308 -27.65248
 Alpha  occ. eigenvalues --  -20.97489 -20.97081 -20.96619 -20.96576 -20.92831
 Alpha  occ. eigenvalues --  -20.89181  -4.40616  -2.99507  -2.99292  -2.99118
 Alpha  occ. eigenvalues --   -1.78494  -1.75779  -1.75173  -1.74833  -1.71682
 Alpha  occ. eigenvalues --   -1.68028  -1.19195  -1.16534  -1.14748  -1.13097
 Alpha  occ. eigenvalues --   -1.09224  -1.08450  -1.06898  -1.04452  -1.02685
 Alpha  occ. eigenvalues --   -1.00926  -0.99765  -0.98395  -0.95337  -0.94160
 Alpha  occ. eigenvalues --   -0.93317  -0.91780  -0.89559  -0.86540  -0.80636
 Alpha  occ. eigenvalues --   -0.79196  -0.77844
 Alpha virt. eigenvalues --   -0.24639  -0.18324  -0.16291  -0.13224  -0.12646
 Alpha virt. eigenvalues --   -0.10240  -0.07836  -0.06351  -0.03012  -0.02277
 Alpha virt. eigenvalues --   -0.01248  -0.00587   0.03428   0.06873   0.07000
 Alpha virt. eigenvalues --    0.25923   0.27502   0.30950   0.34731   0.38485
 Alpha virt. eigenvalues --    0.42200   0.42882   0.45761   0.47469   0.47645
 Alpha virt. eigenvalues --    0.52219   0.52700   0.53167   0.54911   0.56189
 Alpha virt. eigenvalues --    0.59419   0.66950   0.69460   0.72422   0.79866
 Alpha virt. eigenvalues --    0.84516   0.87287   0.88820   0.90161   0.91946
 Alpha virt. eigenvalues --    0.93302   0.95079   0.95838   0.98499   0.99890
 Alpha virt. eigenvalues --    0.99998   1.02129   1.03879   1.04752   1.06162
 Alpha virt. eigenvalues --    1.10070   1.11102   1.13803   1.21365   1.23346
 Alpha virt. eigenvalues --    1.27601   1.32718   1.35174   1.35538   1.38871
 Alpha virt. eigenvalues --    1.40772   1.40880   1.41899   1.45253   1.46491
 Alpha virt. eigenvalues --    1.50827   1.54418   1.60316   1.61842   1.65523
 Alpha virt. eigenvalues --    1.66850   1.68378   1.69084   1.69643   1.71706
 Alpha virt. eigenvalues --    1.76286   1.77810   1.80931   1.82400   1.91948
 Alpha virt. eigenvalues --    2.01205   2.05921   2.06949   2.12805   2.17257
 Alpha virt. eigenvalues --    2.18354   2.19541   2.19902   2.22205   2.24591
 Alpha virt. eigenvalues --    2.26700   2.27257   2.28035   2.31678   2.40378
 Alpha virt. eigenvalues --    2.42830   2.85345   2.86693   2.90693   2.95979
 Alpha virt. eigenvalues --    2.99535   3.00842   3.04606   3.08416   3.09420
 Alpha virt. eigenvalues --    3.10799   3.11907   3.13175   3.15259   3.16372
 Alpha virt. eigenvalues --    3.19137   3.21994   3.26965   3.36852   3.52262
 Alpha virt. eigenvalues --    3.56580   3.58755   3.60610   3.67513   3.71751
 Alpha virt. eigenvalues --    3.76637   3.82340   3.85006   3.89597   3.92859
 Alpha virt. eigenvalues --    3.94194   4.18458   4.25934   4.27834   4.29593
 Alpha virt. eigenvalues --    4.50286   4.50751   4.51025
  Beta  occ. eigenvalues -- -261.58940 -32.16500 -27.65377 -27.65308 -27.65248
  Beta  occ. eigenvalues --  -20.97489 -20.97081 -20.96619 -20.96576 -20.92831
  Beta  occ. eigenvalues --  -20.89181  -4.40616  -2.99507  -2.99292  -2.99118
  Beta  occ. eigenvalues --   -1.78494  -1.75779  -1.75173  -1.74833  -1.71682
  Beta  occ. eigenvalues --   -1.68028  -1.19195  -1.16534  -1.14748  -1.13097
  Beta  occ. eigenvalues --   -1.09224  -1.08450  -1.06898  -1.04452  -1.02685
  Beta  occ. eigenvalues --   -1.00926  -0.99765  -0.98395  -0.95337  -0.94160
  Beta  occ. eigenvalues --   -0.93317  -0.91780  -0.89559  -0.86540  -0.80636
  Beta  occ. eigenvalues --   -0.79196  -0.77844
  Beta virt. eigenvalues --   -0.24639  -0.18324  -0.16291  -0.13224  -0.12646
  Beta virt. eigenvalues --   -0.10240  -0.07836  -0.06351  -0.03012  -0.02277
  Beta virt. eigenvalues --   -0.01248  -0.00587   0.03428   0.06873   0.07000
  Beta virt. eigenvalues --    0.25923   0.27502   0.30950   0.34731   0.38485
  Beta virt. eigenvalues --    0.42200   0.42882   0.45761   0.47469   0.47645
  Beta virt. eigenvalues --    0.52219   0.52700   0.53167   0.54911   0.56189
  Beta virt. eigenvalues --    0.59419   0.66950   0.69460   0.72422   0.79866
  Beta virt. eigenvalues --    0.84516   0.87287   0.88820   0.90161   0.91946
  Beta virt. eigenvalues --    0.93302   0.95079   0.95838   0.98499   0.99890
  Beta virt. eigenvalues --    0.99998   1.02129   1.03879   1.04752   1.06162
  Beta virt. eigenvalues --    1.10070   1.11102   1.13803   1.21365   1.23346
  Beta virt. eigenvalues --    1.27601   1.32718   1.35174   1.35538   1.38871
  Beta virt. eigenvalues --    1.40772   1.40880   1.41899   1.45253   1.46491
  Beta virt. eigenvalues --    1.50827   1.54418   1.60316   1.61842   1.65523
  Beta virt. eigenvalues --    1.66850   1.68378   1.69084   1.69643   1.71706
  Beta virt. eigenvalues --    1.76286   1.77810   1.80931   1.82400   1.91948
  Beta virt. eigenvalues --    2.01205   2.05921   2.06949   2.12805   2.17257
  Beta virt. eigenvalues --    2.18354   2.19541   2.19902   2.22205   2.24591
  Beta virt. eigenvalues --    2.26700   2.27257   2.28035   2.31678   2.40378
  Beta virt. eigenvalues --    2.42830   2.85345   2.86693   2.90693   2.95979
  Beta virt. eigenvalues --    2.99535   3.00842   3.04606   3.08416   3.09420
  Beta virt. eigenvalues --    3.10799   3.11907   3.13175   3.15259   3.16372
  Beta virt. eigenvalues --    3.19137   3.21994   3.26965   3.36852   3.52262
  Beta virt. eigenvalues --    3.56580   3.58755   3.60610   3.67513   3.71751
  Beta virt. eigenvalues --    3.76637   3.82340   3.85006   3.89597   3.92859
  Beta virt. eigenvalues --    3.94194   4.18458   4.25934   4.27834   4.29593
  Beta virt. eigenvalues --    4.50286   4.50751   4.51025
          Condensed to atoms (all electrons):
               1          2          3          4          5          6
     1  Fe  24.628000   0.087497   0.084755   0.109765   0.085718   0.102240
     2  O    0.087497   7.576194  -0.013822  -0.012261  -0.001576  -0.006301
     3  O    0.084755  -0.013822   7.584634  -0.010749  -0.008464  -0.001668
     4  O    0.109765  -0.012261  -0.010749   7.560134  -0.007580  -0.018170
     5  O    0.085718  -0.001576  -0.008464  -0.007580   7.574085  -0.009709
     6  O    0.102240  -0.006301  -0.001668  -0.018170  -0.009709   7.552357
     7  O    0.083347  -0.011742  -0.013876  -0.001732  -0.018642  -0.019483
     8  H   -0.005499   0.000099   0.000190   0.000208   0.342891  -0.000781
     9  H   -0.006401   0.000102  -0.001259   0.000281   0.339740   0.000398
    10  H   -0.004774  -0.001539   0.000087   0.000224   0.000290   0.339529
    11  H   -0.005926   0.000198   0.000087   0.000379  -0.001543   0.337728
    12  H   -0.005840   0.004393   0.001669   0.000169   0.000138   0.000600
    13  H   -0.006629   0.000032   0.000580   0.000178   0.005974   0.000659
    14  H   -0.004246   0.341311   0.000245   0.000314   0.000091  -0.000547
    15  H   -0.006187   0.338779  -0.001912   0.000462   0.000102   0.000265
    16  H   -0.005138  -0.001874   0.338360   0.000622   0.000207   0.000139
    17  H   -0.005376   0.000239   0.336404   0.000555  -0.001062   0.000130
    18  H   -0.005674   0.000157  -0.000575   0.338723   0.000036   0.000168
    19  H   -0.005134   0.000114  -0.000808   0.339383  -0.000510   0.000012
               7          8          9         10         11         12
     1  Fe   0.083347  -0.005499  -0.006401  -0.004774  -0.005926  -0.005840
     2  O   -0.011742   0.000099   0.000102  -0.001539   0.000198   0.004393
     3  O   -0.013876   0.000190  -0.001259   0.000087   0.000087   0.001669
     4  O   -0.001732   0.000208   0.000281   0.000224   0.000379   0.000169
     5  O   -0.018642   0.342891   0.339740   0.000290  -0.001543   0.000138
     6  O   -0.019483  -0.000781   0.000398   0.339529   0.337728   0.000600
     7  O    7.623609  -0.000714  -0.000619  -0.000447   0.000025   0.334493
     8  H   -0.000714   0.416156  -0.007790  -0.000382   0.002988  -0.000057
     9  H   -0.000619  -0.007790   0.435099   0.000027  -0.000325  -0.000141
    10  H   -0.000447  -0.000382   0.000027   0.428396  -0.005861   0.000033
    11  H    0.000025   0.002988  -0.000325  -0.005861   0.436944   0.000085
    12  H    0.334493  -0.000057  -0.000141   0.000033   0.000085   0.428418
    13  H    0.334954   0.002354   0.003712   0.000126   0.000095  -0.007464
    14  H   -0.000773  -0.000019   0.000008   0.002955  -0.000277   0.001444
    15  H   -0.000501   0.000008  -0.000016  -0.000325   0.000035   0.002748
    16  H    0.000348   0.000043  -0.000350  -0.000019   0.000004   0.001642
    17  H    0.001374  -0.000398   0.002883   0.000005  -0.000024   0.001132
    18  H    0.000074   0.000003   0.000018  -0.000001   0.000009  -0.000041
    19  H    0.000064  -0.000025  -0.000081   0.000005  -0.000001   0.000016
              13         14         15         16         17         18
     1  Fe  -0.006629  -0.004246  -0.006187  -0.005138  -0.005376  -0.005674
     2  O    0.000032   0.341311   0.338779  -0.001874   0.000239   0.000157
     3  O    0.000580   0.000245  -0.001912   0.338360   0.336404  -0.000575
     4  O    0.000178   0.000314   0.000462   0.000622   0.000555   0.338723
     5  O    0.005974   0.000091   0.000102   0.000207  -0.001062   0.000036
     6  O    0.000659  -0.000547   0.000265   0.000139   0.000130   0.000168
     7  O    0.334954  -0.000773  -0.000501   0.000348   0.001374   0.000074
     8  H    0.002354  -0.000019   0.000008   0.000043  -0.000398   0.000003
     9  H    0.003712   0.000008  -0.000016  -0.000350   0.002883   0.000018
    10  H    0.000126   0.002955  -0.000325  -0.000019   0.000005  -0.000001
    11  H    0.000095  -0.000277   0.000035   0.000004  -0.000024   0.000009
    12  H   -0.007464   0.001444   0.002748   0.001642   0.001132  -0.000041
    13  H    0.432078  -0.000045  -0.000115   0.000381   0.001743   0.000018
    14  H   -0.000045   0.410733  -0.006284  -0.000512   0.000032  -0.000037
    15  H   -0.000115  -0.006284   0.440412   0.003741  -0.000382  -0.000141
    16  H    0.000381  -0.000512   0.003741   0.433720  -0.005679   0.000023
    17  H    0.001743   0.000032  -0.000382  -0.005679   0.431834   0.000047
    18  H    0.000018  -0.000037  -0.000141   0.000023   0.000047   0.421400
    19  H   -0.000039   0.000000   0.000004   0.000072  -0.000005  -0.007631
              19
     1  Fe  -0.005134
     2  O    0.000114
     3  O   -0.000808
     4  O    0.339383
     5  O   -0.000510
     6  O    0.000012
     7  O    0.000064
     8  H   -0.000025
     9  H   -0.000081
    10  H    0.000005
    11  H   -0.000001
    12  H    0.000016
    13  H   -0.000039
    14  H    0.000000
    15  H    0.000004
    16  H    0.000072
    17  H   -0.000005
    18  H   -0.007631
    19  H    0.417391
          Atomic-Atomic Spin Densities.
               1          2          3          4          5          6
     1  Fe   0.000000   0.000000   0.000000   0.000000   0.000000   0.000000
     2  O    0.000000   0.000000   0.000000   0.000000   0.000000   0.000000
     3  O    0.000000   0.000000   0.000000   0.000000   0.000000   0.000000
     4  O    0.000000   0.000000   0.000000   0.000000   0.000000   0.000000
     5  O    0.000000   0.000000   0.000000   0.000000   0.000000   0.000000
     6  O    0.000000   0.000000   0.000000   0.000000   0.000000   0.000000
     7  O    0.000000   0.000000   0.000000   0.000000   0.000000   0.000000
     8  H    0.000000   0.000000   0.000000   0.000000   0.000000   0.000000
     9  H    0.000000   0.000000   0.000000   0.000000   0.000000   0.000000
    10  H    0.000000   0.000000   0.000000   0.000000   0.000000   0.000000
    11  H    0.000000   0.000000   0.000000   0.000000   0.000000   0.000000
    12  H    0.000000   0.000000   0.000000   0.000000   0.000000   0.000000
    13  H    0.000000   0.000000   0.000000   0.000000   0.000000   0.000000
    14  H    0.000000   0.000000   0.000000   0.000000   0.000000   0.000000
    15  H    0.000000   0.000000   0.000000   0.000000   0.000000   0.000000
    16  H    0.000000   0.000000   0.000000   0.000000   0.000000   0.000000
    17  H    0.000000   0.000000   0.000000   0.000000   0.000000   0.000000
    18  H    0.000000   0.000000   0.000000   0.000000   0.000000   0.000000
    19  H    0.000000   0.000000   0.000000   0.000000   0.000000   0.000000
               7          8          9         10         11         12
     1  Fe   0.000000   0.000000   0.000000   0.000000   0.000000   0.000000
     2  O    0.000000   0.000000   0.000000   0.000000   0.000000   0.000000
     3  O    0.000000   0.000000   0.000000   0.000000   0.000000   0.000000
     4  O    0.000000   0.000000   0.000000   0.000000   0.000000   0.000000
     5  O    0.000000   0.000000   0.000000   0.000000   0.000000   0.000000
     6  O    0.000000   0.000000   0.000000   0.000000   0.000000   0.000000
     7  O    0.000000   0.000000   0.000000   0.000000   0.000000   0.000000
     8  H    0.000000   0.000000   0.000000   0.000000   0.000000   0.000000
     9  H    0.000000   0.000000   0.000000   0.000000   0.000000   0.000000
    10  H    0.000000   0.000000   0.000000   0.000000   0.000000   0.000000
    11  H    0.000000   0.000000   0.000000   0.000000   0.000000   0.000000
    12  H    0.000000   0.000000   0.000000   0.000000   0.000000   0.000000
    13  H    0.000000   0.000000   0.000000   0.000000   0.000000   0.000000
    14  H    0.000000   0.000000   0.000000   0.000000   0.000000   0.000000
    15  H    0.000000   0.000000   0.000000   0.000000   0.000000   0.000000
    16  H    0.000000   0.000000   0.000000   0.000000   0.000000   0.000000
    17  H    0.000000   0.000000   0.000000   0.000000   0.000000   0.000000
    18  H    0.000000   0.000000   0.000000   0.000000   0.000000   0.000000
    19  H    0.000000   0.000000   0.000000   0.000000   0.000000   0.000000
              13         14         15         16         17         18
     1  Fe   0.000000   0.000000   0.000000   0.000000   0.000000   0.000000
     2  O    0.000000   0.000000   0.000000   0.000000   0.000000   0.000000
     3  O    0.000000   0.000000   0.000000   0.000000   0.000000   0.000000
     4  O    0.000000   0.000000   0.000000   0.000000   0.000000   0.000000
     5  O    0.000000   0.000000   0.000000   0.000000   0.000000   0.000000
     6  O    0.000000   0.000000   0.000000   0.000000   0.000000   0.000000
     7  O    0.000000   0.000000   0.000000   0.000000   0.000000   0.000000
     8  H    0.000000   0.000000   0.000000   0.000000   0.000000   0.000000
     9  H    0.000000   0.000000   0.000000   0.000000   0.000000   0.000000
    10  H    0.000000   0.000000   0.000000   0.000000   0.000000   0.000000
    11  H    0.000000   0.000000   0.000000   0.000000   0.000000   0.000000
    12  H    0.000000   0.000000   0.000000   0.000000   0.000000   0.000000
    13  H    0.000000   0.000000   0.000000   0.000000   0.000000   0.000000
    14  H    0.000000   0.000000   0.000000   0.000000   0.000000   0.000000
    15  H    0.000000   0.000000   0.000000   0.000000   0.000000   0.000000
    16  H    0.000000   0.000000   0.000000   0.000000   0.000000   0.000000
    17  H    0.000000   0.000000   0.000000   0.000000   0.000000   0.000000
    18  H    0.000000   0.000000   0.000000   0.000000   0.000000   0.000000
    19  H    0.000000   0.000000   0.000000   0.000000   0.000000   0.000000
              19
     1  Fe   0.000000
     2  O    0.000000
     3  O    0.000000
     4  O    0.000000
     5  O    0.000000
     6  O    0.000000
     7  O    0.000000
     8  H    0.000000
     9  H    0.000000
    10  H    0.000000
    11  H    0.000000
    12  H    0.000000
    13  H    0.000000
    14  H    0.000000
    15  H    0.000000
    16  H    0.000000
    17  H    0.000000
    18  H    0.000000
    19  H    0.000000
 Mulliken charges and spin densities:
               1          2
     1  Fe   0.885502   0.000000
     2  O   -0.299999   0.000000
     3  O   -0.293878   0.000000
     4  O   -0.300905   0.000000
     5  O   -0.300188   0.000000
     6  O   -0.277562   0.000000
     7  O   -0.309758   0.000000
     8  H    0.250725   0.000000
     9  H    0.234713   0.000000
    10  H    0.241673   0.000000
    11  H    0.235380   0.000000
    12  H    0.236562   0.000000
    13  H    0.231408   0.000000
    14  H    0.255604   0.000000
    15  H    0.229306   0.000000
    16  H    0.234270   0.000000
    17  H    0.236549   0.000000
    18  H    0.253424   0.000000
    19  H    0.257172   0.000000
 Sum of Mulliken charges =   2.00000   0.00000
 Mulliken charges and spin densities with hydrogens summed into heavy atoms:
               1          2
     1  Fe   0.885502   0.000000
     2  O    0.184911   0.000000
     3  O    0.176941   0.000000
     4  O    0.209692   0.000000
     5  O    0.185251   0.000000
     6  O    0.199491   0.000000
     7  O    0.158212   0.000000
 Electronic spatial extent (au):  <R**2>=            855.5916
 Charge=              2.0000 electrons
 Dipole moment (field-independent basis, Debye):
    X=             -0.6700    Y=              6.0850    Z=             -3.5358  Tot=              7.0695
 Quadrupole moment (field-independent basis, Debye-Ang):
   XX=            -22.0130   YY=            -27.3316   ZZ=            -27.4171
   XY=             -0.1912   XZ=             -2.8073   YZ=              2.1517
 Traceless Quadrupole moment (field-independent basis, Debye-Ang):
   XX=              3.5742   YY=             -1.7443   ZZ=             -1.8299
   XY=             -0.1912   XZ=             -2.8073   YZ=              2.1517
 Octapole moment (field-independent basis, Debye-Ang**2):
  XXX=            -12.8908  YYY=             36.6495  ZZZ=             -5.8655  XYY=             -2.6848
  XXY=              8.5433  XXZ=             -6.1336  XZZ=             11.7129  YZZ=             -7.1114
  YYZ=             -9.9301  XYZ=             -9.4899
 Hexadecapole moment (field-independent basis, Debye-Ang**3):
 XXXX=           -190.2186 YYYY=           -229.0318 ZZZZ=           -201.5793 XXXY=             12.2334
 XXXZ=             -2.0387 YYYX=             -5.6818 YYYZ=             19.3192 ZZZX=            -11.9187
 ZZZY=             -2.9088 XXYY=            -62.1895 XXZZ=            -76.1859 YYZZ=            -55.2996
 XXYZ=             -3.3480 YYXZ=             -1.8639 ZZXY=             -8.0823
 N-N= 7.678155054721D+02 E-N=-5.593892782041D+03  KE= 1.717549961870D+03
                          Isotropic Fermi Contact Couplings
        Atom                 a.u.       MegaHertz       Gauss      10(-4) cm-1
     1  Fe(57)             0.00000       0.00000       0.00000       0.00000
     2  O(17)              0.00000      -0.00000      -0.00000      -0.00000
     3  O(17)              0.00000      -0.00000      -0.00000      -0.00000
     4  O(17)              0.00000      -0.00000      -0.00000      -0.00000
     5  O(17)              0.00000      -0.00000      -0.00000      -0.00000
     6  O(17)              0.00000      -0.00000      -0.00000      -0.00000
     7  O(17)              0.00000      -0.00000      -0.00000      -0.00000
     8  H(1)               0.00000       0.00000       0.00000       0.00000
     9  H(1)               0.00000       0.00000       0.00000       0.00000
    10  H(1)               0.00000       0.00000       0.00000       0.00000
    11  H(1)               0.00000       0.00000       0.00000       0.00000
    12  H(1)               0.00000       0.00000       0.00000       0.00000
    13  H(1)               0.00000       0.00000       0.00000       0.00000
    14  H(1)               0.00000       0.00000       0.00000       0.00000
    15  H(1)               0.00000       0.00000       0.00000       0.00000
    16  H(1)               0.00000       0.00000       0.00000       0.00000
    17  H(1)               0.00000       0.00000       0.00000       0.00000
    18  H(1)               0.00000       0.00000       0.00000       0.00000
    19  H(1)               0.00000       0.00000       0.00000       0.00000
 --------------------------------------------------------
       Center         ----  Spin Dipole Couplings  ----
                      3XX-RR        3YY-RR        3ZZ-RR
 --------------------------------------------------------
     1   Atom        0.000000      0.000000      0.000000
     2   Atom        0.000000      0.000000      0.000000
     3   Atom        0.000000      0.000000      0.000000
     4   Atom        0.000000      0.000000      0.000000
     5   Atom        0.000000      0.000000      0.000000
     6   Atom        0.000000      0.000000      0.000000
     7   Atom        0.000000      0.000000      0.000000
     8   Atom        0.000000      0.000000      0.000000
     9   Atom        0.000000      0.000000      0.000000
    10   Atom        0.000000      0.000000      0.000000
    11   Atom        0.000000      0.000000      0.000000
    12   Atom        0.000000      0.000000      0.000000
    13   Atom        0.000000      0.000000      0.000000
    14   Atom        0.000000      0.000000      0.000000
    15   Atom        0.000000      0.000000      0.000000
    16   Atom        0.000000      0.000000      0.000000
    17   Atom        0.000000      0.000000      0.000000
    18   Atom        0.000000      0.000000      0.000000
    19   Atom        0.000000      0.000000      0.000000
 --------------------------------------------------------
                        XY            XZ            YZ
 --------------------------------------------------------
     1   Atom        0.000000      0.000000      0.000000
     2   Atom        0.000000      0.000000      0.000000
     3   Atom        0.000000      0.000000      0.000000
     4   Atom        0.000000      0.000000      0.000000
     5   Atom        0.000000      0.000000      0.000000
     6   Atom        0.000000      0.000000      0.000000
     7   Atom        0.000000      0.000000      0.000000
     8   Atom        0.000000      0.000000      0.000000
     9   Atom        0.000000      0.000000      0.000000
    10   Atom        0.000000      0.000000      0.000000
    11   Atom        0.000000      0.000000      0.000000
    12   Atom        0.000000      0.000000      0.000000
    13   Atom        0.000000      0.000000      0.000000
    14   Atom        0.000000      0.000000      0.000000
    15   Atom        0.000000      0.000000      0.000000
    16   Atom        0.000000      0.000000      0.000000
    17   Atom        0.000000      0.000000      0.000000
    18   Atom        0.000000      0.000000      0.000000
    19   Atom        0.000000      0.000000      0.000000
 --------------------------------------------------------


 ---------------------------------------------------------------------------------
              Anisotropic Spin Dipole Couplings in Principal Axis System
 ---------------------------------------------------------------------------------

       Atom             a.u.   MegaHertz   Gauss  10(-4) cm-1        Axes

              Baa     0.0000     0.000     0.000     0.000  1.0000  0.0000  0.0000
     1 Fe(57) Bbb     0.0000     0.000     0.000     0.000 -0.0000  1.0000  0.0000
              Bcc     0.0000     0.000     0.000     0.000  0.0000  0.0000  1.0000
 
              Baa     0.0000    -0.000    -0.000    -0.000  1.0000  0.0000  0.0000
     2 O(17)  Bbb     0.0000    -0.000    -0.000    -0.000 -0.0000  1.0000  0.0000
              Bcc     0.0000    -0.000    -0.000    -0.000  0.0000  0.0000  1.0000
 
              Baa     0.0000    -0.000    -0.000    -0.000  1.0000  0.0000  0.0000
     3 O(17)  Bbb     0.0000    -0.000    -0.000    -0.000 -0.0000  1.0000  0.0000
              Bcc     0.0000    -0.000    -0.000    -0.000  0.0000  0.0000  1.0000
 
              Baa     0.0000    -0.000    -0.000    -0.000  1.0000  0.0000  0.0000
     4 O(17)  Bbb     0.0000    -0.000    -0.000    -0.000 -0.0000  1.0000  0.0000
              Bcc     0.0000    -0.000    -0.000    -0.000  0.0000  0.0000  1.0000
 
              Baa     0.0000    -0.000    -0.000    -0.000  1.0000  0.0000  0.0000
     5 O(17)  Bbb     0.0000    -0.000    -0.000    -0.000 -0.0000  1.0000  0.0000
              Bcc     0.0000    -0.000    -0.000    -0.000  0.0000  0.0000  1.0000
 
              Baa     0.0000    -0.000    -0.000    -0.000  1.0000  0.0000  0.0000
     6 O(17)  Bbb     0.0000    -0.000    -0.000    -0.000 -0.0000  1.0000  0.0000
              Bcc     0.0000    -0.000    -0.000    -0.000  0.0000  0.0000  1.0000
 
              Baa     0.0000    -0.000    -0.000    -0.000  1.0000  0.0000  0.0000
     7 O(17)  Bbb     0.0000    -0.000    -0.000    -0.000 -0.0000  1.0000  0.0000
              Bcc     0.0000    -0.000    -0.000    -0.000  0.0000  0.0000  1.0000
 
              Baa     0.0000     0.000     0.000     0.000  1.0000  0.0000  0.0000
     8 H(1)   Bbb     0.0000     0.000     0.000     0.000 -0.0000  1.0000  0.0000
              Bcc     0.0000     0.000     0.000     0.000  0.0000  0.0000  1.0000
 
              Baa     0.0000     0.000     0.000     0.000  1.0000  0.0000  0.0000
     9 H(1)   Bbb     0.0000     0.000     0.000     0.000 -0.0000  1.0000  0.0000
              Bcc     0.0000     0.000     0.000     0.000  0.0000  0.0000  1.0000
 
              Baa     0.0000     0.000     0.000     0.000  1.0000  0.0000  0.0000
    10 H(1)   Bbb     0.0000     0.000     0.000     0.000 -0.0000  1.0000  0.0000
              Bcc     0.0000     0.000     0.000     0.000  0.0000  0.0000  1.0000
 
              Baa     0.0000     0.000     0.000     0.000  1.0000  0.0000  0.0000
    11 H(1)   Bbb     0.0000     0.000     0.000     0.000 -0.0000  1.0000  0.0000
              Bcc     0.0000     0.000     0.000     0.000  0.0000  0.0000  1.0000
 
              Baa     0.0000     0.000     0.000     0.000  1.0000  0.0000  0.0000
    12 H(1)   Bbb     0.0000     0.000     0.000     0.000 -0.0000  1.0000  0.0000
              Bcc     0.0000     0.000     0.000     0.000  0.0000  0.0000  1.0000
 
              Baa     0.0000     0.000     0.000     0.000  1.0000  0.0000  0.0000
    13 H(1)   Bbb     0.0000     0.000     0.000     0.000 -0.0000  1.0000  0.0000
              Bcc     0.0000     0.000     0.000     0.000  0.0000  0.0000  1.0000
 
              Baa     0.0000     0.000     0.000     0.000  1.0000  0.0000  0.0000
    14 H(1)   Bbb     0.0000     0.000     0.000     0.000 -0.0000  1.0000  0.0000
              Bcc     0.0000     0.000     0.000     0.000  0.0000  0.0000  1.0000
 
              Baa     0.0000     0.000     0.000     0.000  1.0000  0.0000  0.0000
    15 H(1)   Bbb     0.0000     0.000     0.000     0.000 -0.0000  1.0000  0.0000
              Bcc     0.0000     0.000     0.000     0.000  0.0000  0.0000  1.0000
 
              Baa     0.0000     0.000     0.000     0.000  1.0000  0.0000  0.0000
    16 H(1)   Bbb     0.0000     0.000     0.000     0.000 -0.0000  1.0000  0.0000
              Bcc     0.0000     0.000     0.000     0.000  0.0000  0.0000  1.0000
 
              Baa     0.0000     0.000     0.000     0.000  1.0000  0.0000  0.0000
    17 H(1)   Bbb     0.0000     0.000     0.000     0.000 -0.0000  1.0000  0.0000
              Bcc     0.0000     0.000     0.000     0.000  0.0000  0.0000  1.0000
 
              Baa     0.0000     0.000     0.000     0.000  1.0000  0.0000  0.0000
    18 H(1)   Bbb     0.0000     0.000     0.000     0.000 -0.0000  1.0000  0.0000
              Bcc     0.0000     0.000     0.000     0.000  0.0000  0.0000  1.0000
 
              Baa     0.0000     0.000     0.000     0.000  1.0000  0.0000  0.0000
    19 H(1)   Bbb     0.0000     0.000     0.000     0.000 -0.0000  1.0000  0.0000
              Bcc     0.0000     0.000     0.000     0.000  0.0000  0.0000  1.0000
 

 ---------------------------------------------------------------------------------

 PrsmSu:  requested number of processors reduced to:  13 ShMem   1 Linda.
   1 Symmetry operations used in ECPInt.
 ECPInt:  NShTT=    3486 NPrTT=   13195 LenC2=    3466 LenP2D=   10866.
 LDataN:  DoStor=T MaxTD1= 7 Len=  274
 Calling FoFJK, ICntrl=      2127 FMM=F ISym2X=0 I1Cent= 0 IOpClX= 1 NMat=1 NMatS=1 NMatT=0.
 ***** Axes restored to original set *****
 -------------------------------------------------------------------
 Center     Atomic                   Forces (Hartrees/Bohr)
 Number     Number              X              Y              Z
 -------------------------------------------------------------------
      1       26          -0.000660138    0.019209151   -0.035029432
      2        8           0.065548755   -0.001643716    0.021609947
      3        8           0.000182825   -0.067735430    0.018671699
      4        8          -0.001510331   -0.019684446   -0.062509122
      5        8          -0.065894258   -0.005121191    0.018846176
      6        8           0.000869655    0.064100398    0.018899333
      7        8           0.001037813   -0.023826779    0.071970505
      8        1          -0.019019229   -0.015295546   -0.009761961
      9        1          -0.021197188    0.018215752   -0.010284697
     10        1          -0.021293187    0.018061320   -0.004366735
     11        1           0.021800732    0.019025752   -0.005893098
     12        1          -0.015756359    0.008959462    0.018009412
     13        1           0.017443655    0.006210331    0.018310671
     14        1           0.018462080   -0.015238220   -0.008357381
     15        1           0.022131467    0.021819343   -0.008268576
     16        1          -0.021258042   -0.021640371   -0.008352679
     17        1           0.018782509   -0.019687168   -0.010326682
     18        1          -0.012859753    0.008167013   -0.011745501
     19        1           0.013188996    0.006104345   -0.011421881
 -------------------------------------------------------------------
 Cartesian Forces:  Max     0.071970505 RMS     0.026271498

 GradGradGradGradGradGradGradGradGradGradGradGradGradGradGradGradGradGrad
 Berny optimization.
 FormGI is forming the generalized inverse of G from B-inverse, IUseBI=4.
 Internal  Forces:  Max     0.108935884 RMS     0.026822234
 Search for a local minimum.
 Step number   1 out of a maximum of  114
 All quantities printed in internal units (Hartrees-Bohrs-Radians)
 Mixed Optimization -- RFO/linear search
 Second derivative matrix not updated -- first step.
 ITU=  0
     Eigenvalues ---    0.02336   0.02350   0.02353   0.04472   0.04472
     Eigenvalues ---    0.04472   0.04591   0.04656   0.04666   0.04684
     Eigenvalues ---    0.04723   0.04739   0.09272   0.09283   0.09406
     Eigenvalues ---    0.09599   0.09724   0.09727   0.14309   0.14744
     Eigenvalues ---    0.15149   0.15960   0.15983   0.15983   0.15996
     Eigenvalues ---    0.15998   0.16000   0.16000   0.16000   0.16000
     Eigenvalues ---    0.16000   0.16000   0.16000   0.22790   0.22791
     Eigenvalues ---    0.22791   0.22791   0.22791   0.22791   0.55473
     Eigenvalues ---    0.55473   0.55473   0.55473   0.55473   0.55473
     Eigenvalues ---    0.55473   0.55473   0.55473   0.55473   0.55473
     Eigenvalues ---    0.55473
 RFO step:  Lambda=-1.99040581D-01 EMin= 2.33646815D-02
 Linear search not attempted -- first point.
 Maximum step size (   0.300) exceeded in Quadratic search.
    -- Step size scaled by   0.435
 Iteration  1 RMS(Cart)=  0.06168294 RMS(Int)=  0.00071889
 Iteration  2 RMS(Cart)=  0.00060374 RMS(Int)=  0.00033762
 Iteration  3 RMS(Cart)=  0.00000055 RMS(Int)=  0.00033762
 Variable       Old X    -DE/DX   Delta X   Delta X   Delta X     New X
                                 (Linear)    (Quad)   (Total)
    R1        3.43930   0.10596   0.00000   0.10803   0.10803   3.54733
    R2        3.43930   0.10894   0.00000   0.11107   0.11107   3.55037
    R3        3.43930   0.08510   0.00000   0.08677   0.08677   3.52607
    R4        3.43930   0.10609   0.00000   0.10816   0.10816   3.54746
    R5        3.43930   0.10131   0.00000   0.10329   0.10329   3.54259
    R6        3.43930   0.10811   0.00000   0.11022   0.11022   3.54952
    R7        1.81414  -0.00966   0.00000  -0.00558  -0.00558   1.80856
    R8        1.81414  -0.01490   0.00000  -0.00861  -0.00861   1.80553
    R9        1.81414  -0.01456   0.00000  -0.00841  -0.00841   1.80573
   R10        1.81414  -0.01262   0.00000  -0.00729  -0.00729   1.80685
   R11        1.81414  -0.01001   0.00000  -0.00578  -0.00578   1.80836
   R12        1.81414  -0.00928   0.00000  -0.00536  -0.00536   1.80878
   R13        1.81414  -0.01079   0.00000  -0.00623  -0.00623   1.80790
   R14        1.81414  -0.01315   0.00000  -0.00759  -0.00759   1.80655
   R15        1.81414  -0.01363   0.00000  -0.00787  -0.00787   1.80627
   R16        1.81414  -0.01443   0.00000  -0.00833  -0.00833   1.80580
   R17        1.81414  -0.01049   0.00000  -0.00606  -0.00606   1.80808
   R18        1.81414  -0.01156   0.00000  -0.00668  -0.00668   1.80746
    A1        1.52415   0.00706   0.00000   0.00955   0.00954   1.53369
    A2        1.55216  -0.00199   0.00000  -0.00383  -0.00374   1.54841
    A3        1.61488  -0.00560   0.00000  -0.00733  -0.00735   1.60754
    A4        1.59859  -0.00007   0.00000   0.00088   0.00081   1.59940
    A5        1.60864  -0.00557   0.00000  -0.00781  -0.00777   1.60087
    A6        1.58452  -0.00276   0.00000  -0.00319  -0.00325   1.58127
    A7        1.61197   0.00399   0.00000   0.00581   0.00576   1.61773
    A8        1.60268  -0.00733   0.00000  -0.01027  -0.01022   1.59246
    A9        1.52754   0.00012   0.00000  -0.00054  -0.00049   1.52704
   A10        1.55970   0.00131   0.00000   0.00100   0.00097   1.56066
   A11        1.53235   0.00901   0.00000   0.01266   0.01261   1.54496
   A12        1.53505   0.00145   0.00000   0.00253   0.00249   1.53754
   A13        1.91063   0.02853   0.00000   0.03551   0.03484   1.94547
   A14        1.91063   0.03716   0.00000   0.04601   0.04534   1.95597
   A15        1.91063  -0.02824   0.00000  -0.03233  -0.03356   1.87708
   A16        1.91063   0.03576   0.00000   0.04434   0.04363   1.95426
   A17        1.91063   0.03269   0.00000   0.04063   0.03991   1.95054
   A18        1.91063  -0.02932   0.00000  -0.03357  -0.03488   1.87576
   A19        1.91063   0.02083   0.00000   0.02593   0.02568   1.93632
   A20        1.91063   0.02005   0.00000   0.02499   0.02474   1.93537
   A21        1.91063  -0.01741   0.00000  -0.01986  -0.02032   1.89031
   A22        1.91063   0.03013   0.00000   0.03764   0.03695   1.94758
   A23        1.91063   0.03497   0.00000   0.04355   0.04285   1.95348
   A24        1.91063  -0.02692   0.00000  -0.03036  -0.03163   1.87900
   A25        1.91063   0.03027   0.00000   0.03731   0.03678   1.94742
   A26        1.91063   0.03084   0.00000   0.03799   0.03746   1.94810
   A27        1.91063  -0.02771   0.00000  -0.03239  -0.03337   1.87726
   A28        1.91063   0.02937   0.00000   0.03654   0.03603   1.94666
   A29        1.91063   0.02929   0.00000   0.03645   0.03594   1.94657
   A30        1.91063  -0.02512   0.00000  -0.02873  -0.02966   1.88097
   A31        3.10867   0.00430   0.00000   0.00636   0.00629   3.11496
   A32        3.13904   0.00146   0.00000   0.00222   0.00219   3.14123
   A33        3.15075  -0.00206   0.00000  -0.00295  -0.00294   3.14781
   A34        3.12961   0.00899   0.00000   0.01361   0.01352   3.14313
   A35        3.13623  -0.00549   0.00000  -0.00840  -0.00832   3.12791
   A36        3.06289   0.00145   0.00000   0.00181   0.00185   3.06474
    D1       -2.61932  -0.00702   0.00000  -0.01145  -0.01151  -2.63083
    D2       -0.52492  -0.00138   0.00000  -0.00113  -0.00104  -0.52597
    D3        2.05431  -0.00139   0.00000  -0.00362  -0.00368   2.05063
    D4       -2.13448   0.00425   0.00000   0.00670   0.00679  -2.12769
    D5        0.52764  -0.00153   0.00000  -0.00306  -0.00320   0.52445
    D6        2.62204   0.00411   0.00000   0.00727   0.00727   2.62931
    D7       -1.00859  -0.00283   0.00000  -0.00543  -0.00553  -1.01411
    D8        1.08581   0.00281   0.00000   0.00489   0.00494   1.09075
    D9        0.00052   0.00019   0.00000   0.00031   0.00035   0.00088
   D10       -2.09009  -0.00916   0.00000  -0.01603  -0.01667  -2.10676
   D11        2.09114   0.00831   0.00000   0.01448   0.01519   2.10632
   D12        0.00052  -0.00103   0.00000  -0.00186  -0.00183  -0.00131
   D13        0.44492  -0.00060   0.00000  -0.00139  -0.00153   0.44339
   D14        2.53932   0.00541   0.00000   0.00953   0.00962   2.54893
   D15        1.99527  -0.00206   0.00000  -0.00448  -0.00461   1.99066
   D16       -2.19352   0.00395   0.00000   0.00643   0.00653  -2.18698
   D17       -2.68469  -0.00959   0.00000  -0.01500  -0.01505  -2.69973
   D18       -0.59029  -0.00358   0.00000  -0.00409  -0.00390  -0.59420
   D19       -1.15180  -0.00064   0.00000  -0.00239  -0.00251  -1.15431
   D20        0.94259   0.00537   0.00000   0.00853   0.00864   0.95123
   D21        0.00006  -0.00095   0.00000  -0.00163  -0.00170  -0.00163
   D22       -2.09591  -0.00631   0.00000  -0.01090  -0.01142  -2.10733
   D23        2.09604   0.00695   0.00000   0.01214   0.01264   2.10867
   D24        0.00006   0.00160   0.00000   0.00287   0.00291   0.00298
   D25        0.58002   0.00237   0.00000   0.00235   0.00230   0.58231
   D26        2.67441   0.00609   0.00000   0.00920   0.00929   2.68370
   D27       -0.94338  -0.00473   0.00000  -0.00723  -0.00729  -0.95068
   D28        1.15101  -0.00102   0.00000  -0.00037  -0.00030   1.15071
   D29       -2.52913  -0.00151   0.00000  -0.00338  -0.00348  -2.53261
   D30       -0.43473   0.00221   0.00000   0.00348   0.00351  -0.43122
   D31        2.19576  -0.00315   0.00000  -0.00481  -0.00488   2.19088
   D32       -1.99303   0.00057   0.00000   0.00204   0.00211  -1.99092
   D33        0.00093   0.00101   0.00000   0.00178   0.00184   0.00277
   D34       -2.11816  -0.00591   0.00000  -0.00995  -0.01009  -2.12825
   D35        2.12002   0.00596   0.00000   0.01017   0.01032   2.13034
   D36        0.00093  -0.00096   0.00000  -0.00156  -0.00161  -0.00068
   D37        2.61948   0.00756   0.00000   0.01228   0.01227   2.63175
   D38        0.52508   0.00066   0.00000  -0.00026  -0.00042   0.52466
   D39       -2.05460   0.00178   0.00000   0.00421   0.00427  -2.05033
   D40        2.13419  -0.00512   0.00000  -0.00833  -0.00842   2.12577
   D41       -0.52744   0.00203   0.00000   0.00383   0.00393  -0.52352
   D42       -2.62184  -0.00486   0.00000  -0.00871  -0.00876  -2.63060
   D43        1.00800   0.00335   0.00000   0.00619   0.00627   1.01427
   D44       -1.08639  -0.00355   0.00000  -0.00635  -0.00642  -1.09281
   D45       -0.44510  -0.00055   0.00000  -0.00055  -0.00038  -0.44549
   D46       -2.53950  -0.00403   0.00000  -0.00699  -0.00698  -2.54648
   D47       -1.99531   0.00120   0.00000   0.00298   0.00306  -1.99225
   D48        2.19348  -0.00229   0.00000  -0.00346  -0.00354   2.18994
   D49        2.68468   0.00859   0.00000   0.01330   0.01332   2.69801
   D50        0.59029   0.00511   0.00000   0.00686   0.00672   0.59701
   D51        1.15196  -0.00036   0.00000   0.00069   0.00077   1.15273
   D52       -0.94244  -0.00384   0.00000  -0.00575  -0.00583  -0.94827
   D53       -0.58092  -0.00163   0.00000  -0.00101  -0.00089  -0.58181
   D54       -2.67532  -0.00679   0.00000  -0.01051  -0.01065  -2.68597
   D55        0.94432   0.00554   0.00000   0.00874   0.00885   0.95317
   D56       -1.15008   0.00038   0.00000  -0.00077  -0.00092  -1.15099
   D57        2.52727   0.00299   0.00000   0.00583   0.00597   2.53324
   D58        0.43288  -0.00216   0.00000  -0.00367  -0.00380   0.42908
   D59       -2.19486   0.00393   0.00000   0.00629   0.00643  -2.18843
   D60        1.99393  -0.00122   0.00000  -0.00321  -0.00334   1.99059
         Item               Value     Threshold  Converged?
 Maximum Force            0.108936     0.000450     NO 
 RMS     Force            0.026822     0.000300     NO 
 Maximum Displacement     0.197607     0.001800     NO 
 RMS     Displacement     0.061479     0.001200     NO 
 Predicted change in Energy=-7.702381D-02
 GradGradGradGradGradGradGradGradGradGradGradGradGradGradGradGradGradGrad

                          Input orientation:                          
 ---------------------------------------------------------------------
 Center     Atomic      Atomic             Coordinates (Angstroms)
 Number     Number       Type             X           Y           Z
 ---------------------------------------------------------------------
      1         26           0        6.204357    1.033849    0.180338
      2          8           0        8.081115    1.002098    0.157278
      3          8           0        6.241522   -0.843464    0.116249
      4          8           0        6.225285    1.153975   -1.681589
      5          8           0        4.327299    1.015737    0.198827
      6          8           0        6.167653    2.907756    0.218656
      7          8           0        6.174100    1.057334    2.058274
      8          1           0        3.972519    1.773588    0.662584
      9          1           0        3.982017    0.230158    0.620192
     10          1           0        6.967227    3.267306    0.599477
     11          1           0        5.431250    3.235022    0.732233
     12          1           0        6.903612    0.560427    2.427533
     13          1           0        5.363133    0.683544    2.400972
     14          1           0        8.449843    1.757845    0.614253
     15          1           0        8.431959    0.215747    0.571326
     16          1           0        7.053295   -1.197428    0.475149
     17          1           0        5.517953   -1.229276    0.607987
     18          1           0        6.966702    0.671883   -2.047136
     19          1           0        5.420167    0.796248   -2.055727
 ---------------------------------------------------------------------
                    Distance matrix (angstroms):
                    1          2          3          4          5
     1  Fe   0.000000
     2  O    1.877168   0.000000
     3  O    1.878774   2.606124   0.000000
     4  O    1.865916   2.616983   2.687424   0.000000
     5  O    1.877237   3.754071   2.669775   2.675336   0.000000
     6  O    1.874658   2.701228   3.753344   2.586503   2.639514
     7  O    1.878327   2.693241   2.718280   3.741462   2.621059
     8  H    2.400183   4.210830   3.506540   3.309686   0.956701
     9  H    2.403786   4.196759   2.551860   3.344232   0.955983
    10  H    2.397077   2.562704   4.202212   3.196859   3.492750
    11  H    2.397382   3.512592   4.203573   3.284475   2.535440
    12  H    2.400619   2.595312   2.784117   4.206817   3.436834
    13  H    2.400331   3.538795   2.885010   4.199038   2.456165
    14  H    2.398887   0.957048   3.448405   3.253338   4.209356
    15  H    2.405072   0.955445   2.475285   3.290184   4.198449
    16  H    2.405454   2.448545   0.955550   3.296395   3.522146
    17  H    2.403283   3.428115   0.956143   3.379699   2.573938
    18  H    2.381980   2.492067   2.739050   0.956942   3.482676
    19  H    2.381469   3.467046   2.842668   0.957164   2.515064
                    6          7          8          9         10
     6  O    0.000000
     7  O    2.609271   0.000000
     8  H    2.510383   2.703318   0.000000
     9  H    3.479622   2.749096   1.544041   0.000000
    10  H    0.955834   2.764257   3.347156   4.258659   0.000000
    11  H    0.955590   2.655661   2.066043   3.337969   1.542041
    12  H    3.306165   0.956796   3.630167   3.451272   3.266960
    13  H    3.218210   0.956467   2.478709   2.298742   3.534732
    14  H    2.585959   2.784766   4.477613   4.721793   2.115855
    15  H    3.535303   2.831468   4.724595   4.450233   3.385003
    16  H    4.207456   2.891925   4.284070   3.389955   4.467294
    17  H    4.205796   2.786118   3.377653   2.118773   4.724375
    18  H    3.281984   4.198950   4.185865   4.027171   3.706856
    19  H    3.192181   4.190655   3.231113   3.090190   3.943302
                   11         12         13         14         15
    11  H    0.000000
    12  H    3.492184   0.000000
    13  H    3.049487   1.545620   0.000000
    14  H    3.362718   2.666950   3.724818   0.000000
    15  H    4.259831   2.429022   3.603350   1.542799   0.000000
    16  H    4.726916   2.631400   3.178601   3.271596   1.976620
    17  H    4.466868   2.904107   2.626337   4.185560   3.252824
    18  H    4.080709   4.476501   4.728344   3.234503   3.035026
    19  H    3.704113   4.728196   4.458489   4.151193   4.038475
                   16         17         18         19
    16  H    0.000000
    17  H    1.541407   0.000000
    18  H    3.140659   3.572528   0.000000
    19  H    3.612089   3.347787   1.551552   0.000000
 Stoichiometry    FeH12O6(2+)
 Framework group  C1[X(FeH12O6)]
 Deg. of freedom    51
 Full point group                 C1      NOp   1
 Largest Abelian subgroup         C1      NOp   1
 Largest concise Abelian subgroup C1      NOp   1
                         Standard orientation:                         
 ---------------------------------------------------------------------
 Center     Atomic      Atomic             Coordinates (Angstroms)
 Number     Number       Type             X           Y           Z
 ---------------------------------------------------------------------
      1         26           0        0.008308   -0.024843    0.030460
      2          8           0        1.601036   -0.581432   -0.792452
      3          8           0        0.892152    1.562670    0.508391
      4          8           0        0.568811   -0.874156    1.594476
      5          8           0       -1.561104    0.573168    0.869119
      6          8           0       -0.865387   -1.619778   -0.424713
      7          8           0       -0.628795    0.709422   -1.576731
      8          1           0       -2.342592    0.210178    0.453437
      9          1           0       -1.636869    1.525888    0.847046
     10          1           0       -0.477299   -2.024670   -1.198708
     11          1           0       -1.791457   -1.473530   -0.609535
     12          1           0        0.084003    1.062448   -2.108474
     13          1           0       -1.251797    1.417277   -1.416610
     14          1           0        1.428390   -1.166926   -1.529563
     15          1           0        2.110769    0.155806   -1.123400
     16          1           0        1.613771    1.762704   -0.085180
     17          1           0        0.299924    2.313305    0.503532
     18          1           0        1.520311   -0.829226    1.685950
     19          1           0        0.173133   -0.466490    2.364808
 ---------------------------------------------------------------------
 Rotational constants (GHZ):           1.9010504           1.8562812           1.8317425
 Standard basis: def2SVP (5D, 7F)
 There are   186 symmetry adapted cartesian basis functions of A   symmetry.
 There are   175 symmetry adapted basis functions of A   symmetry.
   175 basis functions,   315 primitive gaussians,   186 cartesian basis functions
    42 alpha electrons       42 beta electrons
       nuclear repulsion energy       746.4620760084 Hartrees.
 NAtoms=   19 NActive=   19 NUniq=   19 SFac= 1.00D+00 NAtFMM=   60 NAOKFM=F Big=F
 Integral buffers will be    131072 words long.
 Raffenetti 2 integral format.
 Two-electron integral symmetry is turned on.
 One-electron integrals computed using PRISM.
 PrsmSu:  requested number of processors reduced to:  13 ShMem   1 Linda.
   1 Symmetry operations used in ECPInt.
 ECPInt:  NShTT=    3486 NPrTT=   13195 LenC2=    3466 LenP2D=   10794.
 LDataN:  DoStor=T MaxTD1= 6 Len=  172
 NBasis=   175 RedAO= T EigKep=  9.26D-03  NBF=   175
 NBsUse=   175 1.00D-06 EigRej= -1.00D+00 NBFU=   175
 Initial guess from the checkpoint file:  "/scratch/Gau-287624.chk"
 B after Tr=     0.000000   -0.000000   -0.000000
         Rot=    0.995113    0.097787    0.012579    0.005348 Ang=  11.33 deg.
 Initial guess <Sx>= 0.0000 <Sy>= 0.0000 <Sz>= 0.0000 <S**2>= 0.0000 S= 0.0000
 ExpMin= 3.37D-02 ExpMax= 6.09D+04 ExpMxC= 9.15D+03 IAcc=3 IRadAn=         5 AccDes= 0.00D+00
 Harris functional with IExCor=  205 and IRadAn=       5 diagonalized for initial guess.
 HarFok:  IExCor=  205 AccDes= 0.00D+00 IRadAn=         5 IDoV= 1 UseB2=F ITyADJ=14
 ICtDFT=  3500011 ScaDFX=  1.000000  1.000000  1.000000  1.000000
 FoFCou: FMM=F IPFlag=           0 FMFlag=      100000 FMFlg1=           0
         NFxFlg=           0 DoJE=T BraDBF=F KetDBF=T FulRan=T
         wScrn=  0.000000 ICntrl=       500 IOpCl=  0 I1Cent=   200000004 NGrid=           0
         NMat0=    1 NMatS0=      1 NMatT0=    0 NMatD0=    1 NMtDS0=    0 NMtDT0=    0
 Petite list used in FoFCou.
 Requested convergence on RMS density matrix=1.00D-08 within 128 cycles.
 Requested convergence on MAX density matrix=1.00D-06.
 Requested convergence on             energy=1.00D-06.
 No special actions if energy rises.
 Initial convergence to 1.0D-05 achieved.  Increase integral accuracy.
 SCF Done:  E(UHF) =  -1717.49271768     A.U. after   19 cycles
            NFock= 19  Conv=0.25D-08     -V/T= 2.0003
 <Sx>= 0.0000 <Sy>= 0.0000 <Sz>= 0.0000 <S**2>=-0.0000 S=-0.0000
 <L.S>=  0.00000000000    
 Annihilation of the first spin contaminant:
 S**2 before annihilation    -0.0000,   after     0.0000
 PrsmSu:  requested number of processors reduced to:  13 ShMem   1 Linda.
   1 Symmetry operations used in ECPInt.
 ECPInt:  NShTT=    3486 NPrTT=   13195 LenC2=    3466 LenP2D=   10794.
 LDataN:  DoStor=T MaxTD1= 7 Len=  274
 Calling FoFJK, ICntrl=      2127 FMM=F ISym2X=0 I1Cent= 0 IOpClX= 1 NMat=1 NMatS=1 NMatT=0.
 ***** Axes restored to original set *****
 -------------------------------------------------------------------
 Center     Atomic                   Forces (Hartrees/Bohr)
 Number     Number              X              Y              Z
 -------------------------------------------------------------------
      1       26          -0.000415776    0.014608383   -0.024115224
      2        8           0.041431284   -0.000547843    0.019514296
      3        8          -0.000210834   -0.042766051    0.017172440
      4        8          -0.001522248   -0.017526230   -0.042176177
      5        8          -0.041500013   -0.003731873    0.017581769
      6        8           0.001018388    0.040772384    0.016330616
      7        8           0.000736598   -0.020530059    0.046148471
      8        1          -0.014315191   -0.008894839   -0.009058859
      9        1          -0.016089951    0.011087841   -0.009007793
     10        1          -0.013392582    0.014042509   -0.004528541
     11        1           0.013335924    0.014428878   -0.004796746
     12        1          -0.009950282    0.007733036    0.013729995
     13        1           0.011048091    0.005823451    0.013862644
     14        1           0.013956854   -0.009187122   -0.008159528
     15        1           0.016430208    0.012778626   -0.007289734
     16        1          -0.012202383   -0.015859433   -0.007642137
     17        1           0.011128363   -0.014868972   -0.008918390
     18        1          -0.008362700    0.006939795   -0.009439163
     19        1           0.008876250    0.005697518   -0.009207937
 -------------------------------------------------------------------
 Cartesian Forces:  Max     0.046148471 RMS     0.017810607

 GradGradGradGradGradGradGradGradGradGradGradGradGradGradGradGradGradGrad
 Berny optimization.
 Using GEDIIS/GDIIS optimizer.
 FormGI is forming the generalized inverse of G from B-inverse, IUseBI=4.
 Internal  Forces:  Max     0.073615395 RMS     0.018492024
 Search for a local minimum.
 Step number   2 out of a maximum of  114
 All quantities printed in internal units (Hartrees-Bohrs-Radians)
 Mixed Optimization -- RFO/linear search
 Update second derivatives using D2CorX and points    1    2
 DE= -7.27D-02 DEPred=-7.70D-02 R= 9.44D-01
 TightC=F SS=  1.41D+00  RLast= 3.05D-01 DXNew= 5.0454D-01 9.1430D-01
 Trust test= 9.44D-01 RLast= 3.05D-01 DXMaxT set to 5.05D-01
 ITU=  1  0
 Use linear search instead of GDIIS.
 Linear search step of   0.600 exceeds DXMaxT=   0.505 but not scaled.
 Quartic linear search produced a step of  2.00000.
 Iteration  1 RMS(Cart)=  0.11538343 RMS(Int)=  0.00488004
 Iteration  2 RMS(Cart)=  0.00571353 RMS(Int)=  0.00177613
 Iteration  3 RMS(Cart)=  0.00000931 RMS(Int)=  0.00177612
 Iteration  4 RMS(Cart)=  0.00000003 RMS(Int)=  0.00177612
 Variable       Old X    -DE/DX   Delta X   Delta X   Delta X     New X
                                 (Linear)    (Quad)   (Total)
    R1        3.54733   0.07170   0.21606   0.00000   0.21606   3.76340
    R2        3.55037   0.07339   0.22214   0.00000   0.22214   3.77251
    R3        3.52607   0.06036   0.17354   0.00000   0.17353   3.69960
    R4        3.54746   0.07191   0.21632   0.00000   0.21632   3.76379
[...]
 ,0.00122574,-0.00014443,0.00247668,0.00015071,0.00037458,-0.00165474,-
 0.00816280,0.00000737,0.00228437,0.00013984,0.00010042,0.00247237,0.00
 010855,-0.00038077,-0.00238091,0.00820927,0.00475493,0.01872903,0.0010
 9283,0.00123305,-0.05624825,0.00410045,0.00013117,-0.00145207,0.000261
 30,-0.00411730,-0.00310756,0.00039714,0.00013795,-0.00243493,-0.004158
 74,0.00012862,-0.00258479,0.00022178,0.00416343,-0.00239201,0.01105980
 ,-0.01652769,0.59930345,-0.00149396,0.00756795,0.00010958,0.00028599,-
 0.00081687,-0.00000238,0.00010417,-0.00014660,-0.00000065,0.00048643,-
 0.00044628,-0.00049461,-0.26568211,0.27909330,-0.00324134,0.00290365,0
 .00100518,0.00024617,0.00037652,-0.00042619,0.00054551,0.24342138,0.00
 416338,0.00534344,0.00031617,-0.00063652,-0.00073228,-0.00004566,-0.00
 102560,0.00083809,-0.00002488,-0.00072297,-0.00085344,0.00075710,0.228
 99318,-0.40295290,-0.00171691,0.00268424,-0.00138617,0.00013973,-0.000
 68993,-0.00077447,-0.00084632,-0.25903806,0.42655165,-0.00001017,0.000
 48021,0.00134800,0.00000364,-0.00005547,-0.00020117,-0.00002968,0.0000
 2043,-0.00001756,-0.00073338,0.00052660,-0.00039894,-0.00469489,0.0004
 4444,-0.00506470,0.00029695,0.00006359,-0.00191140,0.00077428,-0.00059
 341,-0.00035879,0.00284924,0.00109993,0.00480507,-0.00139972,-0.007600
 97,-0.00033082,0.00027551,0.00082206,0.00004465,0.00292657,-0.00098406
 ,0.00019577,0.00047859,0.00048277,-0.00046198,-0.26220433,-0.27747576,
 -0.01943170,0.00009777,0.00014149,0.00001005,0.00036810,0.00040194,0.0
 0056273,0.02169586,0.02708132,0.00168711,0.23986639,-0.00421006,0.0052
 8699,-0.00008535,0.00064305,-0.00072534,0.00001535,-0.00266279,-0.0014
 0393,-0.00010617,0.00077341,-0.00076857,-0.00078316,-0.22736352,-0.405
 12844,-0.02165554,0.00101940,0.00084443,0.00007201,0.00065327,-0.00084
 697,0.00082271,-0.02679344,-0.02743600,-0.00201111,0.25715265,0.428772
 62,-0.00025233,-0.00024643,0.00130807,0.00004063,0.00002430,-0.0001966
 2,0.00014840,-0.00003004,-0.00191851,-0.00068610,-0.00055455,-0.000476
 05,-0.01794390,-0.02382004,-0.00634617,0.00003244,0.00003066,-0.000013
 92,0.00080605,0.00056942,-0.00027696,0.00010469,0.00033321,0.00135358,
 0.01784469,0.02366879,0.00611760,0.00134143,-0.00019620,-0.00023165,-0
 .00044087,-0.00074285,0.00056073,-0.00020088,0.00002942,0.00003125,-0.
 00192482,-0.00013533,-0.00002785,-0.00031997,0.00079374,-0.00051516,-0
 .00576624,-0.01088890,0.01853247,-0.00001442,0.00005621,-0.00004431,-0
 .00052960,-0.00110662,0.00064354,-0.00017965,-0.00023681,-0.00008291,0
 .00560590,-0.00035737,-0.00178979,0.00738141,-0.00052626,0.00046272,-0
 .00042834,0.00003514,0.00032400,-0.00078911,-0.00005864,0.00281671,0.0
 0111850,0.00055699,0.00046067,-0.00037690,-0.01343170,-0.27932470,0.28
 199704,0.00000585,0.00013576,-0.00016460,-0.00061694,-0.00005656,0.000
 23438,-0.00017859,-0.00019481,-0.00001012,0.01253125,0.25730283,-0.000
 22447,0.00398114,0.00564439,0.00080772,-0.00070517,-0.00078143,0.00002
 820,-0.00060900,-0.00076943,-0.00003252,0.00279803,-0.00128515,-0.0007
 6469,-0.00064170,-0.00090363,0.01869649,0.23188984,-0.38860374,-0.0000
 3529,-0.00104302,0.00080545,0.00045278,0.00014529,0.00064148,0.0000270
 2,0.00019931,0.00016565,-0.01979499,-0.26313520,0.41186279,0.00133925,
 0.00022700,-0.00016886,-0.00031088,-0.00076675,-0.00056327,-0.00020052
 ,-0.00003468,0.00002429,-0.00001388,-0.00005680,-0.00004961,-0.0004489
 9,0.00070498,0.00059927,-0.00600895,0.01209059,0.02180582,-0.00192611,
 0.00009853,-0.00001423,-0.00042244,-0.00105652,-0.00080511,-0.00018154
 ,-0.00022008,0.00003835,0.00126496,0.00122945,0.00136253,0.00585097,0.
 00040250,-0.00110458,-0.00777617,-0.00051663,0.00038532,0.00044770,-0.
 00004125,0.00023772,0.00084826,-0.00000486,0.00006778,0.00012128,0.000
 47296,0.00040441,0.00050175,0.01462194,-0.24977943,-0.27376784,0.00002
 053,0.00302933,-0.00086737,-0.00056787,-0.00002925,-0.00032962,-0.0001
 7565,-0.00018317,-0.00002642,-0.00150026,0.02169379,0.02836716,-0.0134
 6051,0.22719219,-0.00017393,-0.00437414,0.00496272,-0.00080069,0.00071
 157,-0.00084097,0.00002118,0.00066846,-0.00068466,-0.00004322,0.001000
 29,0.00087342,0.00083107,0.00077918,-0.00071178,0.02163731,-0.22366206
 ,-0.41790296,-0.00000948,-0.00254756,-0.00149830,-0.00058407,-0.000284
 49,0.00049986,-0.00006978,-0.00024078,0.00015496,0.00153525,-0.0255112
 4,-0.02734386,-0.02294598,0.25223933,0.44172475,0.00584886,0.00013945,
 -0.00385341,-0.00121805,0.00008377,-0.00287207,-0.00086532,0.00075909,
 0.00067243,-0.00079472,-0.00001968,0.00059090,0.00078701,-0.00002802,0
 .00105691,-0.00085897,-0.00079954,0.00062990,-0.38096005,0.00433772,-0
 .23379243,-0.00017081,0.00022287,-0.00022272,-0.00016931,-0.00021231,-
 0.00023561,0.00017403,0.00004844,-0.00020281,0.00059068,0.00050546,-0.
 00017740,0.40405282,0.00024067,0.00133244,0.00007332,0.00003479,-0.001
 92681,-0.00014207,0.00051343,-0.00041087,0.00075133,-0.00002690,-0.000
 19940,-0.00001218,0.00000216,-0.00001717,0.00000530,-0.00054163,-0.000
 34593,-0.00080480,0.00576184,-0.00501791,0.00662200,0.00001499,0.00016
 398,-0.00005041,-0.00000759,0.00015947,0.00006925,-0.00007025,-0.00019
 426,0.00022582,0.00069110,-0.00052857,0.00110172,-0.00510875,0.0047817
 3,-0.00726444,0.00004912,-0.00198534,-0.00118913,-0.00013597,0.0027460
 3,0.00039267,0.00052995,0.00051376,0.00077128,-0.00001215,0.00034657,0
 .00017569,-0.00000465,0.00015553,0.00036839,-0.00057928,0.00044381,-0.
 28393271,0.00631624,-0.28770779,-0.00017699,0.00006899,-0.00020087,-0.
 00017694,-0.00004935,-0.00020140,0.00000607,0.00018015,-0.00018659,-0.
 00023608,0.00060170,-0.00001094,0.26581449,-0.00581118,0.26592800,0.00
 476273,-0.00010947,0.00447787,0.00089430,0.00003185,-0.00098515,-0.000
 75160,-0.00080529,-0.00079075,-0.00065954,0.00001776,-0.00068393,-0.00
 155295,-0.00007200,0.00246903,-0.00075907,0.00084819,-0.00073924,-0.42
 723997,-0.00889041,0.22088781,0.00003495,0.00021964,-0.00105478,0.0000
 3781,-0.00016095,-0.00106191,0.00014832,-0.00006226,0.00023337,0.00055
 904,-0.00054945,0.00022003,-0.02735162,-0.00088027,0.02471628,0.451224
 97,-0.00020667,0.00132343,0.00009177,0.00001092,-0.00001473,-0.0000103
 4,-0.00058458,-0.00042075,0.00070280,0.00002166,-0.00019863,-0.0000160
 7,-0.00002391,-0.00191955,-0.00014005,0.00060778,-0.00033669,-0.000745
 90,-0.01031590,-0.00515503,0.00810069,0.00026260,0.00053805,0.00076828
 ,-0.00023266,0.00061125,-0.00070865,0.00004994,-0.00019490,0.00023196,
 -0.00077906,-0.00053672,0.00103301,0.00065476,0.00135252,-0.00042600,0
 .00983345,0.00491925,0.00787787,0.00010896,-0.00089036,-0.00010722,-0.
 00000169,0.00005035,-0.00051456,0.00045736,0.00041097,-0.00086358,-0.0
 0001538,0.00021181,0.00078942,-0.00014556,0.00308061,-0.00047384,-0.00
 050312,0.00033566,0.27103787,0.00841246,-0.24131743,-0.00056352,0.0005
 6097,-0.00052273,-0.00057524,-0.00049797,-0.00059835,0.00002549,0.0001
 7467,-0.00016472,0.00028220,0.00055421,0.00003104,-0.02920592,-0.00075
 855,0.02161663,-0.24871287,-0.00763154,0.21863814,-0.00140237,-0.00760
 586,-0.00033111,-0.26214660,-0.27745774,-0.01945030,0.00009784,0.00014
 099,0.00000787,0.00036802,0.00040237,0.00056349,0.00027538,0.00082232,
 0.00004504,0.00292770,-0.00098486,0.00019075,0.00047814,0.00048344,-0.
 00046162,-0.00029589,-0.00011426,-0.00002512,-0.00001976,-0.00014877,-
 0.00001166,-0.00043307,0.00059628,-0.00055217,-0.00054144,0.00058482,0
 .00048833,-0.00011525,-0.00033404,0.00059837,-0.00020543,-0.00001250,0
 .00017645,0.23980919,-0.00420848,0.00528847,-0.00008644,-0.22735849,-0
 .40521808,-0.02159436,0.00101884,0.00084441,0.00007504,0.00065250,-0.0
 0084845,0.00082166,0.00064281,-0.00072517,0.00001516,-0.00266449,-0.00
 140398,-0.00010825,0.00077421,-0.00076814,-0.00078307,0.00011074,0.000
 36486,0.00001103,-0.00014873,0.00001832,-0.00001062,0.00109700,-0.0000
 4950,0.00024760,0.00106284,-0.00001926,-0.00017993,-0.00027248,0.00053
 909,0.00054148,-0.00023037,0.00015997,0.00004880,0.25714398,0.42884760
 ,-0.00024902,-0.00025025,0.00131139,-0.01799536,-0.02379730,-0.0063395
 5,0.00002943,0.00002888,-0.00001362,0.00080819,0.00057026,-0.00027708,
 0.00004050,0.00002484,-0.00019677,0.00014339,-0.00003140,-0.00192121,-
 0.00068536,-0.00055386,-0.00047621,-0.00001850,0.00000022,0.00016760,-
 0.00001149,-0.00001070,0.00014072,-0.00074466,0.00029082,0.00053275,0.
 00070770,-0.00026745,0.00061745,0.00109067,0.00074613,-0.00036959,0.00
 022122,-0.00005054,-0.00016480,0.01786836,0.02360491,0.00611735,-0.001
 49377,0.00756972,0.00010189,-0.26566346,0.27908826,-0.00359709,0.00290
 351,0.00100582,0.00025635,0.00037458,-0.00042540,0.00054442,0.00028601
 ,-0.00081667,-0.00000221,0.00010452,-0.00014639,0.00000217,0.00048874,
 -0.00044678,-0.00049494,-0.00002167,0.00014902,-0.00000297,-0.00029585
 ,0.00011071,-0.00001848,-0.00018421,0.00017913,-0.00006097,-0.00018242
 ,0.00017654,0.00003844,-0.00011878,0.00029468,0.00061901,-0.00020719,-
 0.00000110,0.00017718,0.02169518,-0.02678977,0.00013629,0.24340070,0.0
 0416429,0.00534448,0.00031532,0.22899551,-0.40298373,-0.00129791,0.002
 68602,-0.00138711,0.00013987,-0.00069021,-0.00077339,-0.00084689,-0.00
 063659,-0.00073234,-0.00004580,-0.00102528,0.00083835,-0.00002225,-0.0
 0072257,-0.00085494,0.00075743,0.00014903,0.00001997,0.00000362,-0.000
 11422,0.00036494,0.00000045,0.00021740,-0.00019418,0.00022007,0.000241
 19,-0.00017918,-0.00021924,0.00020527,0.00061150,-0.00048182,0.0002141
 7,0.00016291,-0.00002877,0.02707851,-0.02742382,0.00037277,-0.25904013
 ,0.42657104,-0.00001363,0.00047715,0.00134763,-0.00502524,0.00090815,-
 0.00505981,0.00030771,0.00006291,-0.00191261,0.00077231,-0.00059260,-0
 .00035928,0.00000414,-0.00005477,-0.00020108,-0.00002577,0.00001858,-0
 .00001678,-0.00073597,0.00052835,-0.00040037,-0.00000303,0.00000348,0.
 00014151,-0.00002503,0.00001094,0.00016761,0.00005088,0.00000657,0.000
 16903,-0.00006923,-0.00001072,0.00015358,0.00110836,-0.00068302,-0.000
 43864,0.00023387,0.00007151,-0.00016296,0.00168502,-0.00201324,0.00134
 909,0.00317196,0.00063700,0.00480593,0.00133785,0.00018827,-0.00012747
 ,-0.00044658,0.00069259,0.00059835,-0.00563241,0.00990354,0.01787848,-
 0.00192824,0.00011250,-0.00002091,-0.00031377,-0.00077893,-0.00056561,
 -0.00020023,-0.00002915,0.00001628,-0.00001489,-0.00003609,-0.00003292
 ,-0.00018326,0.00024183,-0.00006926,-0.00054848,0.00107387,0.00071018,
 0.00016889,-0.00000319,-0.00000794,0.00014124,0.00000664,0.00000650,0.
 00016912,0.00007161,0.00000995,0.00015302,-0.00004960,0.00002307,-0.00
 018068,-0.00021958,0.00003825,-0.00041471,-0.00104441,-0.00080352,0.00
 545836,0.00033074,-0.00110318,-0.00778428,0.00046910,0.00039013,0.0004
 9752,0.01199857,-0.24950507,-0.27380130,0.00003487,0.00303078,-0.00086
 673,-0.00052000,0.00039813,0.00045268,-0.00003942,0.00023834,0.0008486
 0,-0.00000691,0.00006633,0.00012090,0.00017655,-0.00018144,-0.00001023
 ,0.00059128,-0.00002017,-0.00027176,0.00000710,-0.00029647,-0.00013197
 ,0.00000797,-0.00001222,-0.00014991,-0.00003308,-0.00017087,-0.0001784
 2,0.00005152,-0.00017025,-0.00017509,-0.00017532,-0.00018064,-0.000027
 04,-0.00056041,-0.00002732,-0.00032521,-0.01104992,0.22691536,-0.00013
 931,-0.00437752,0.00496277,0.00083442,0.00078504,-0.00071047,0.0177703
 9,-0.22368152,-0.41856001,-0.00001662,-0.00254755,-0.00150076,-0.00079
 801,0.00070564,-0.00084143,0.00002028,0.00066822,-0.00068502,-0.000044
 25,0.00100096,0.00087367,0.00003990,-0.00021891,0.00015411,0.00048894,
 -0.00018356,0.00061870,-0.00000997,0.00009329,0.00036414,0.00000635,-0
 .00014990,0.00001065,-0.00020431,-0.00022629,-0.00020939,0.00023829,-0
 .00023070,-0.00018899,-0.00006846,-0.00024124,0.00015458,-0.00058398,-
 0.00028074,0.00049762,-0.01883772,0.25224350,0.44239738,0.00133776,-0.
 00015585,-0.00020318,-0.00032495,0.00080295,-0.00051605,-0.00547959,-0
 .00904576,0.01537519,-0.00001433,0.00003822,-0.00003020,-0.00043643,-0
 .00073357,0.00055916,-0.00020049,0.00002428,0.00002511,-0.00192310,-0.
 00014800,-0.00003682,-0.00018345,0.00021711,0.00005079,-0.00042808,0.0
 0108617,-0.00074115,0.00014135,-0.00000581,0.00000493,0.00016886,0.000
 00744,-0.00000860,0.00060369,-0.00066332,-0.00026694,0.00054354,0.0007
 7278,0.00033402,-0.00018061,-0.00023695,-0.00008341,-0.00053609,-0.001
 11946,0.00064470,0.00128517,-0.00123212,0.00125440,0.00530446,-0.00030
 591,-0.00179101,0.00737947,0.00055996,0.00047145,-0.00037990,-0.011135
 52,-0.27958901,0.28215365,0.00000822,0.00013718,-0.00016471,-0.0005240
 6,0.00045299,-0.00042404,0.00003494,0.00032327,-0.00078890,-0.00006946
 ,0.00281150,0.00111664,0.00017874,-0.00019236,0.00000711,0.00059093,-0
 .00004811,0.00028611,-0.00000685,-0.00002981,0.00014743,-0.00000306,-0
 .00029620,0.00009314,-0.00048287,-0.00043850,-0.00062663,0.00054601,-0
 .00042960,-0.00057835,-0.00017902,-0.00019673,-0.00001088,-0.00062400,
 -0.00005862,0.00023779,0.00101650,0.02169242,-0.02549258,0.01041035,0.
 25757057,-0.00019359,0.00398193,0.00565050,-0.00076206,-0.00063602,-0.
 00090544,0.01548694,0.23202513,-0.38863196,-0.00003608,-0.00104274,0.0
 0080582,0.00081015,-0.00070874,-0.00078043,0.00002749,-0.00060980,-0.0
 0076991,-0.00004066,0.00279660,-0.00128541,-0.00005946,0.00022025,0.00
 016877,-0.00055034,0.00024266,0.00053099,0.00000491,0.00014759,0.00002
 787,-0.00000943,-0.00013175,0.00036405,-0.00019306,-0.00112463,-0.0001
 1041,0.00026319,-0.00105882,-0.00006229,0.00002795,0.00019883,0.000166
 00,0.00045253,0.00014791,0.00064478,0.00113295,0.02840501,-0.02735952,
 -0.01639096,-0.26331035,0.41189682,0.00475973,-0.00012070,0.00448058,-
 0.00155395,-0.00006970,0.00246739,-0.00076313,0.00084816,-0.00073802,-
 0.42713567,-0.00765903,0.22097049,0.00089395,0.00003200,-0.00098426,-0
 .00074814,-0.00080689,-0.00079229,-0.00065975,0.00001791,-0.00068423,-
 0.00020685,0.00021437,0.00023352,-0.00020528,-0.00023023,0.00022104,0.
 00054882,0.00054406,0.00026025,0.00014806,0.00005142,0.00023842,0.0003
 6374,0.00000355,-0.00008219,0.00000500,-0.00000492,0.00015012,0.000038
 64,-0.00016141,-0.00106056,0.00003569,0.00021844,-0.00105480,0.0005542
 5,-0.00055339,0.00022328,0.00015278,-0.00006286,0.00023320,0.45112530,
 -0.00021785,0.00132049,0.00007264,-0.00001958,-0.00191893,-0.00013404,
 0.00061066,-0.00034046,-0.00075072,-0.00921308,-0.00510420,0.00769535,
 0.00000406,-0.00001550,-0.00000384,-0.00058251,-0.00041803,0.00069782,
 0.00002396,-0.00019840,-0.00001352,-0.00000038,0.00016095,0.00007106,-
 0.00001209,0.00016175,-0.00005047,0.00076994,-0.00043315,-0.00105942,-
 0.00004875,-0.00017147,-0.00023069,-0.00000375,0.00016812,0.00001292,-
 0.00000483,0.00014141,0.00000472,-0.00023298,0.00060898,-0.00070928,0.
 00026134,0.00054005,0.00076716,-0.00078406,-0.00053320,0.00103383,0.00
 005094,-0.00019439,0.00023175,0.00855930,0.00487113,0.00786904,0.00009
 130,-0.00088501,0.00078755,-0.00014175,0.00307948,-0.00047550,-0.00050
 471,0.00033861,0.27113145,0.00778823,-0.24145451,-0.00010846,-0.000002
 95,0.00005156,-0.00051231,0.00045589,0.00040774,-0.00086282,-0.0000160
 1,0.00021223,0.00017710,-0.00002863,-0.00016323,0.00017648,0.00004914,
 -0.00016416,0.00033203,-0.00057998,-0.00006321,0.00002373,-0.00017486,
 -0.00018878,0.00014287,0.00001406,-0.00029506,0.00015005,0.00000527,-0
 .00000736,-0.00057412,-0.00049849,-0.00059725,-0.00056323,0.00056006,-
 0.00052405,0.00028423,0.00055334,0.00003180,0.00002449,0.00017534,-0.0
 0016485,-0.24880967,-0.00706511,0.21877110,0.00585069,0.00011775,-0.00
 385181,0.00078636,-0.00002692,0.00105762,-0.00085542,-0.00080099,0.000
 63367,-0.38109248,0.00642268,-0.23370993,-0.00121704,0.00008799,-0.002
 87051,-0.00086907,0.00075750,0.00066896,-0.00079480,-0.00001913,0.0005
 9088,-0.00011889,0.00020352,0.00110900,-0.00011460,-0.00027357,0.00108
 756,0.00060003,-0.00048582,-0.00019743,0.00017412,-0.00003376,-0.00020
 338,0.00003293,0.00000392,-0.00014677,0.00036369,-0.00000298,0.0001430
 5,-0.00016897,-0.00021216,-0.00023564,-0.00017078,0.00022304,-0.000222
 71,0.00059537,0.00050287,-0.00017362,0.00016950,0.00004795,-0.00020367
 ,-0.02735321,0.00083964,-0.02919291,0.40418259,0.00021306,0.00133673,0
 .00008722,-0.00000601,-0.00001697,-0.00000761,-0.00053978,-0.00034446,
 -0.00079603,0.00797546,-0.00510774,0.00818015,0.00003842,-0.00192538,-
 0.00015082,0.00051570,-0.00041299,0.00076106,-0.00002194,-0.00019960,-
 0.00001472,0.00029355,0.00061390,-0.00068041,-0.00033413,0.00053574,0.
 00074692,-0.00066791,-0.00043838,-0.00112816,0.00007257,-0.00017050,-0
 .00022664,0.00000364,0.00014143,0.00000489,0.00000271,0.00016806,0.000
 01388,-0.00000737,0.00016208,0.00006987,0.00001543,0.00016139,-0.00005
 002,0.00068758,-0.00053067,0.00110003,-0.00006938,-0.00019504,0.000225
 20,-0.00082006,0.00135486,-0.00068013,-0.00735154,0.00486754,-0.007269
 39,0.00009254,-0.00198676,0.00017507,-0.00000422,0.00015358,0.00036664
 ,-0.00057672,0.00043537,-0.28384195,0.00806741,-0.28749171,-0.00118831
 ,-0.00014540,0.00274269,0.00039541,0.00053224,0.00052231,0.00077225,-0
 .00001378,0.00034608,0.00061956,-0.00047952,-0.00044058,0.00059588,0.0
 0054281,-0.00036574,-0.00027112,-0.00062891,-0.00011179,0.00001157,-0.
 00017929,-0.00021022,-0.00014679,0.00000422,-0.00003432,-0.00008238,0.
 00001331,-0.00029522,-0.00017708,-0.00004886,-0.00020084,-0.00017638,0
 .00006894,-0.00020120,-0.00023290,0.00060040,-0.00000984,0.00000453,0.
 00017969,-0.00018542,0.02472775,-0.00057016,0.02161494,0.26571765,-0.0
 0745470,0.26571868\\-0.00001818,0.00001843,0.00002749,-0.00000192,-0.0
 0000166,0.00002181,0.00000877,-0.00000426,-0.00000510,0.00002920,-0.00
 001959,-0.00000822,-0.00001396,-0.00001624,-0.00002592,0.00001767,-0.0
 0000428,-0.00000570,0.00002138,-0.00000739,-0.00001384,0.00000377,0.00
 000318,0.00001757,-0.00000946,0.00000584,0.00000619,0.00001260,0.00000
 091,0.00000071,-0.00002393,0.00000041,-0.00000087,-0.00000225,0.000003
 74,0.00000295,-0.00000288,0.00000465,-0.00000341,-0.00000246,0.0000020
 1,-0.00001435,-0.00000638,-0.00000403,0.00000167,-0.00001593,0.0000009
 5,-0.00000164,0.00001557,-0.00000059,0.00000022,-0.00000503,0.00001045
 ,-0.00000669,-0.00000658,0.00000745,0.00000713\\\@


 LENDING MONEY TO FRIENDS CAUSES THEM TO LOSE THEIR MEMORIES.

    --  PETER'S THEORY OF RECIPROCAL INHIBITION OF FISCAL RECALL
 Job cpu time:       0 days  0 hours 10 minutes 29.7 seconds.
 Elapsed time:       0 days  0 hours  0 minutes 40.6 seconds.
 File lengths (MBytes):  RWF=    146 Int=      0 D2E=      0 Chk=      5 Scr=      1
 Normal termination of Gaussian 16 at Sat May 14 21:50:00 2022.

Sender: Unischeduler System <lcz@mgt01>
Subject: Job 132099: <#!/bin/bash
#BSUB -J intel
#BSUB -o FeH2O62+-Opt.out
#BSUB -n 16
#BSUB -q cqueue
#BSUB -R span[hosts=1]
export g16root=/apps/software
source /apps/software/g16/bsd/g16.profile
export GAUSS_SCRDIR=/scratch
/apps/software/g16/g16 < FeH2O62+-Opt.inp > FeH2O62+-Opt.out> Done

Job <#!/bin/bash
#BSUB -J intel
#BSUB -o FeH2O62+-Opt.out
#BSUB -n 16
#BSUB -q cqueue
#BSUB -R span[hosts=1]
export g16root=/apps/software
source /apps/software/g16/bsd/g16.profile
export GAUSS_SCRDIR=/scratch
/apps/software/g16/g16 < FeH2O62+-Opt.inp > FeH2O62+-Opt.out> was submitted from host <mgt01> by user <lcz>.
Job was executed on host(s) <16*cnode03>, in queue <cqueue>, as user <lcz>.
</apps/users/lcz> was used as the home directory.
</apps/users/lcz/exe5/task1/Gaussian/UHF> was used as the working directory.
Started at 2022-05-14 21:43:21
Results reported at 2022-05-14 21:50:00

Your job looked like:

------------------------------------------------------------
# User input
#!/bin/bash
#BSUB -J intel
#BSUB -o FeH2O62+-Opt.out
#BSUB -n 16
#BSUB -q cqueue
#BSUB -R span[hosts=1]
export g16root=/apps/software
source /apps/software/g16/bsd/g16.profile
export GAUSS_SCRDIR=/scratch
/apps/software/g16/g16 < FeH2O62+-Opt.inp > FeH2O62+-Opt.out
------------------------------------------------------------

Successfully completed.

Resource usage summary:

    CPU time   :         6014.71 sec.
    Max Memory :               642 MB
    Max Processes  :               5


The output (if any) follows:

