[Molden Format]
[N_ATOMS]
           21
[Atoms]  AU
C     1    6      -4.938428       -5.000633        0.325652
C     2    6      -3.806672       -2.539395       -0.513577
H     3    1      -4.569420       -6.722859       -0.720990
H     4    1      -5.702020       -5.200734        2.216280
C     5    6      -1.058000       -2.172742        0.350101
H     6    1      -3.881056       -2.415019       -2.577317
H     7    1      -4.948964       -0.973508        0.209460
C     8    6       0.078860        0.337395       -0.512762
H     9    1      -0.974693       -2.294398        2.414813
H    10    1       0.092167       -3.737053       -0.367530
H    11    1      -0.008628        0.452183       -2.579648
H    12    1      -1.084287        1.891680        0.201999
C    13    6       2.813882        0.701165        0.340681
H    14    1       3.958728       -0.872457       -0.363574
H    15    1       2.909141        0.608340        2.406946
C    16    6       4.022480        3.189460       -0.554323
H    17    1       6.027399        3.148944       -0.041926
H    18    1       3.950959        3.272288       -2.619003
C    19    6       2.838862        5.528510        0.533548
H    20    1       1.481462        6.634824       -0.525534
H    21    1       3.043308        5.945208        2.530100
[5D7F9G]
[GTO]
    1
    s    5
   0.123840169E+04   0.551736504E-02
   0.186290050E+03   0.410888285E-01
   0.422511764E+02   0.182253821E+00
   0.116765579E+02   0.468284594E+00
   0.359305065E+01   0.445758173E+00
    s    1
   0.402451470E+00   0.100000000E+01
    s    1
   0.130901830E+00   0.100000000E+01
    p    3
   0.946809706E+01   0.568883319E-01
   0.201035451E+01   0.312940593E+00
   0.547710050E+00   0.760650164E+00
    p    1
   0.152686140E+00   0.100000000E+01
    d    1
   0.800000000E+00   0.100000000E+01
 
    2
    s    5
   0.123840169E+04   0.551736504E-02
   0.186290050E+03   0.410888285E-01
   0.422511764E+02   0.182253821E+00
   0.116765579E+02   0.468284594E+00
   0.359305065E+01   0.445758173E+00
    s    1
   0.402451470E+00   0.100000000E+01
    s    1
   0.130901830E+00   0.100000000E+01
    p    3
   0.946809706E+01   0.568883319E-01
   0.201035451E+01   0.312940593E+00
   0.547710050E+00   0.760650164E+00
    p    1
   0.152686140E+00   0.100000000E+01
    d    1
   0.800000000E+00   0.100000000E+01
 
    3
    s    3
   0.130107010E+02   0.334854848E-01
   0.196225720E+01   0.234721871E+00
   0.444537960E+00   0.813770285E+00
    s    1
   0.121949620E+00   0.100000000E+01
    p    1
   0.800000000E+00   0.100000000E+01
 
    4
    s    3
   0.130107010E+02   0.334854848E-01
   0.196225720E+01   0.234721871E+00
   0.444537960E+00   0.813770285E+00
    s    1
   0.121949620E+00   0.100000000E+01
    p    1
   0.800000000E+00   0.100000000E+01
 
    5
    s    5
   0.123840169E+04   0.551736504E-02
   0.186290050E+03   0.410888285E-01
   0.422511764E+02   0.182253821E+00
   0.116765579E+02   0.468284594E+00
   0.359305065E+01   0.445758173E+00
    s    1
   0.402451470E+00   0.100000000E+01
    s    1
   0.130901830E+00   0.100000000E+01
    p    3
   0.946809706E+01   0.568883319E-01
   0.201035451E+01   0.312940593E+00
   0.547710050E+00   0.760650164E+00
    p    1
   0.152686140E+00   0.100000000E+01
    d    1
   0.800000000E+00   0.100000000E+01
 
    6
    s    3
   0.130107010E+02   0.334854848E-01
   0.196225720E+01   0.234721871E+00
   0.444537960E+00   0.813770285E+00
    s    1
   0.121949620E+00   0.100000000E+01
    p    1
   0.800000000E+00   0.100000000E+01
 
    7
    s    3
   0.130107010E+02   0.334854848E-01
   0.196225720E+01   0.234721871E+00
   0.444537960E+00   0.813770285E+00
    s    1
   0.121949620E+00   0.100000000E+01
    p    1
   0.800000000E+00   0.100000000E+01
 
    8
    s    5
   0.123840169E+04   0.551736504E-02
   0.186290050E+03   0.410888285E-01
   0.422511764E+02   0.182253821E+00
   0.116765579E+02   0.468284594E+00
   0.359305065E+01   0.445758173E+00
    s    1
   0.402451470E+00   0.100000000E+01
    s    1
   0.130901830E+00   0.100000000E+01
    p    3
   0.946809706E+01   0.568883319E-01
   0.201035451E+01   0.312940593E+00
   0.547710050E+00   0.760650164E+00
    p    1
   0.152686140E+00   0.100000000E+01
    d    1
   0.800000000E+00   0.100000000E+01
 
    9
    s    3
   0.130107010E+02   0.334854848E-01
   0.196225720E+01   0.234721871E+00
   0.444537960E+00   0.813770285E+00
    s    1
   0.121949620E+00   0.100000000E+01
    p    1
   0.800000000E+00   0.100000000E+01
 
   10
    s    3
   0.130107010E+02   0.334854848E-01
   0.196225720E+01   0.234721871E+00
   0.444537960E+00   0.813770285E+00
    s    1
   0.121949620E+00   0.100000000E+01
    p    1
   0.800000000E+00   0.100000000E+01
 
   11
    s    3
   0.130107010E+02   0.334854848E-01
   0.196225720E+01   0.234721871E+00
   0.444537960E+00   0.813770285E+00
    s    1
   0.121949620E+00   0.100000000E+01
    p    1
   0.800000000E+00   0.100000000E+01
 
   12
    s    3
   0.130107010E+02   0.334854848E-01
   0.196225720E+01   0.234721871E+00
   0.444537960E+00   0.813770285E+00
    s    1
   0.121949620E+00   0.100000000E+01
    p    1
   0.800000000E+00   0.100000000E+01
 
   13
    s    5
   0.123840169E+04   0.551736504E-02
   0.186290050E+03   0.410888285E-01
   0.422511764E+02   0.182253821E+00
   0.116765579E+02   0.468284594E+00
   0.359305065E+01   0.445758173E+00
    s    1
   0.402451470E+00   0.100000000E+01
    s    1
   0.130901830E+00   0.100000000E+01
    p    3
   0.946809706E+01   0.568883319E-01
   0.201035451E+01   0.312940593E+00
   0.547710050E+00   0.760650164E+00
    p    1
   0.152686140E+00   0.100000000E+01
    d    1
   0.800000000E+00   0.100000000E+01
 
   14
    s    3
   0.130107010E+02   0.334854848E-01
   0.196225720E+01   0.234721871E+00
   0.444537960E+00   0.813770285E+00
    s    1
   0.121949620E+00   0.100000000E+01
    p    1
   0.800000000E+00   0.100000000E+01
 
   15
    s    3
   0.130107010E+02   0.334854848E-01
   0.196225720E+01   0.234721871E+00
   0.444537960E+00   0.813770285E+00
    s    1
   0.121949620E+00   0.100000000E+01
    p    1
   0.800000000E+00   0.100000000E+01
 
   16
    s    5
   0.123840169E+04   0.551736504E-02
   0.186290050E+03   0.410888285E-01
   0.422511764E+02   0.182253821E+00
   0.116765579E+02   0.468284594E+00
   0.359305065E+01   0.445758173E+00
    s    1
   0.402451470E+00   0.100000000E+01
    s    1
   0.130901830E+00   0.100000000E+01
    p    3
   0.946809706E+01   0.568883319E-01
   0.201035451E+01   0.312940593E+00
   0.547710050E+00   0.760650164E+00
    p    1
   0.152686140E+00   0.100000000E+01
    d    1
   0.800000000E+00   0.100000000E+01
 
   17
    s    3
   0.130107010E+02   0.334854848E-01
   0.196225720E+01   0.234721871E+00
   0.444537960E+00   0.813770285E+00
    s    1
   0.121949620E+00   0.100000000E+01
    p    1
   0.800000000E+00   0.100000000E+01
 
   18
    s    3
   0.130107010E+02   0.334854848E-01
   0.196225720E+01   0.234721871E+00
   0.444537960E+00   0.813770285E+00
    s    1
   0.121949620E+00   0.100000000E+01
    p    1
   0.800000000E+00   0.100000000E+01
 
   19
    s    5
   0.123840169E+04   0.551736504E-02
   0.186290050E+03   0.410888285E-01
   0.422511764E+02   0.182253821E+00
   0.116765579E+02   0.468284594E+00
   0.359305065E+01   0.445758173E+00
    s    1
   0.402451470E+00   0.100000000E+01
    s    1
   0.130901830E+00   0.100000000E+01
    p    3
   0.946809706E+01   0.568883319E-01
   0.201035451E+01   0.312940593E+00
   0.547710050E+00   0.760650164E+00
    p    1
   0.152686140E+00   0.100000000E+01
    d    1
   0.800000000E+00   0.100000000E+01
 
   20
    s    3
   0.130107010E+02   0.334854848E-01
   0.196225720E+01   0.234721871E+00
   0.444537960E+00   0.813770285E+00
    s    1
   0.121949620E+00   0.100000000E+01
    p    1
   0.800000000E+00   0.100000000E+01
 
   21
    s    3
   0.130107010E+02   0.334854848E-01
   0.196225720E+01   0.234721871E+00
   0.444537960E+00   0.813770285E+00
    s    1
   0.121949620E+00   0.100000000E+01
    p    1
   0.800000000E+00   0.100000000E+01
 
[MO]
 Sym= A   
 Ene=       -11.225577
 Spin= Alpha
 Occup=       2.000000
   1        0.000189286
   2       -0.000048086
   3        0.001639440
   4        0.000004932
   5        0.000032525
   6       -0.000015203
   7        0.000381946
   8        0.000658862
   9       -0.000129145
  10       -0.000007129
  11       -0.000020305
  12        0.000003198
  13       -0.000025503
  14        0.000022926
  15       -0.000389639
  16        0.000021721
  17       -0.002128519
  18       -0.000086011
  19       -0.000094517
  20        0.000017648
  21        0.000338534
  22        0.000855664
  23       -0.000582580
  24        0.000005697
  25        0.000001975
  26       -0.000005082
  27        0.000013641
  28       -0.000026312
  29       -0.000037533
  30       -0.000055384
  31       -0.000026845
  32       -0.000025517
  33        0.000009316
  34       -0.000051690
  35       -0.000073479
  36       -0.000016839
  37       -0.000027848
  38       -0.000003705
  39        0.000243337
  40       -0.000261262
  41        0.004915034
  42        0.000076322
  43        0.000052943
  44       -0.000021745
  45        0.000177211
  46        0.001716025
  47       -0.000176550
  48       -0.000022787
  49       -0.000000821
  50       -0.000025865
  51       -0.000040557
  52        0.000057320
  53       -0.000072924
  54        0.000097225
  55       -0.000032230
  56       -0.000048232
  57       -0.000002140
  58       -0.000037576
  59        0.000330870
  60       -0.000036193
  61       -0.000050875
  62        0.000021035
  63        0.000883113
  64       -0.000815395
  65        0.002454520
  66       -0.000252686
  67       -0.000249171
  68        0.000105408
  69        0.003345138
  70        0.004049752
  71       -0.001620581
  72       -0.000019764
  73       -0.000004271
  74       -0.000011325
  75       -0.000003507
  76        0.000060222
  77       -0.000158308
  78       -0.000656698
  79        0.000017222
  80       -0.000050946
  81        0.000019311
  82       -0.000023476
  83       -0.000131706
  84       -0.000014590
  85       -0.000006258
  86        0.000023380
  87       -0.000565993
  88       -0.001175654
  89       -0.000127753
  90       -0.000218155
  91       -0.000016116
  92       -0.000248702
  93       -0.001075039
  94       -0.000203274
  95       -0.000187630
  96        0.000156245
  97        0.053398471
  98        0.001535995
  99        0.004255240
 100       -0.000280726
 101       -0.000511786
 102        0.000172495
 103        0.002474259
 104        0.002557527
 105        0.000399420
 106        0.000259081
 107        0.000157037
 108        0.000368623
 109        0.000239020
 110       -0.000522203
 111       -0.000009426
 112       -0.000019144
 113        0.000097217
 114        0.000135718
 115       -0.000231606
 116       -0.000165922
 117        0.000334748
 118        0.000094985
 119        0.000391935
 120       -0.000100448
 121        0.986997489
 122        0.039421158
 123       -0.041093480
 124        0.000200134
 125        0.000042817
 126       -0.000298088
 127        0.003894591
 128       -0.001262959
 129       -0.001818861
 130        0.000228578
 131        0.000212995
 132       -0.000008989
 133        0.000438597
 134       -0.000053861
 135       -0.001369296
 136        0.005800813
 137        0.001196860
 138       -0.000000012
 139        0.000569936
 140       -0.000865551
 141        0.006940873
 142       -0.000427444
 143        0.000042757
 144       -0.001141872
 145        0.064445113
 146        0.001120168
 147        0.010989333
 148       -0.000436785
 149        0.000597238
 150        0.000307431
 151        0.001709321
 152       -0.004621346
 153       -0.001767158
 154        0.000255301
 155        0.000315541
 156       -0.000414283
 157        0.000220265
 158        0.000514984
 159       -0.000157720
 160        0.000039169
 161        0.000086039
 162       -0.000049897
 163        0.000052014
 164       -0.000266892
 165        0.000198949
 166        0.000027396
 167       -0.000047935
 168       -0.000104827
 Sym= A   
 Ene=       -11.224487
 Spin= Alpha
 Occup=       2.000000
   1       -0.077495031
   2       -0.001572017
   3       -0.007925706
   4        0.000302892
   5        0.000782621
   6       -0.000289047
   7       -0.001962693
   8       -0.003272025
   9        0.000940462
  10       -0.000297151
  11       -0.000131514
  12       -0.000427571
  13       -0.000455248
  14        0.000424381
  15       -0.985963376
  16       -0.038734710
  17        0.039902901
  18        0.000287166
  19       -0.000376228
  20        0.000305486
  21        0.001645099
  22       -0.001238431
  23        0.001278561
  24       -0.000305200
  25        0.000139541
  26       -0.000124039
  27        0.000161664
  28        0.000327774
  29        0.000178811
  30       -0.000286435
  31       -0.000017028
  32       -0.000137643
  33        0.000002306
  34        0.000178256
  35       -0.000286338
  36       -0.000051155
  37       -0.000091629
  38        0.000090438
  39       -0.056085659
  40       -0.001079580
  41       -0.008221470
  42       -0.000701032
  43       -0.000059034
  44       -0.000236944
  45        0.003440990
  46        0.000544594
  47        0.001037560
  48       -0.000245253
  49        0.000389010
  50        0.000039106
  51        0.000567284
  52        0.000077569
  53        0.001029571
  54       -0.006862804
  55       -0.000124841
  56        0.000048937
  57        0.001174296
  58        0.001030821
  59       -0.006885560
  60        0.000548692
  61       -0.000862108
  62       -0.000588926
  63       -0.001558051
  64        0.000352086
  65       -0.000210119
  66       -0.000136221
  67       -0.000048541
  68       -0.000027659
  69        0.001620285
  70       -0.000362386
  71        0.000747920
  72        0.000013923
  73       -0.000056339
  74       -0.000035833
  75       -0.000098109
  76        0.000011486
  77        0.000121526
  78       -0.000378886
  79        0.000345490
  80        0.000010399
  81        0.000111468
  82        0.000119261
  83       -0.000382675
  84        0.000336279
  85        0.000019470
  86        0.000133969
  87        0.000153029
  88        0.000775437
  89       -0.000084303
  90        0.000028427
  91        0.000012992
  92        0.000152472
  93        0.000876070
  94       -0.000043677
  95       -0.000018623
  96       -0.000073506
  97       -0.000383290
  98        0.000150225
  99       -0.002378489
 100        0.000038435
 101        0.000023331
 102       -0.000004694
 103        0.000522498
 104        0.000211406
 105        0.000183596
 106        0.000012033
 107        0.000010735
 108       -0.000001255
 109        0.000005259
 110       -0.000023353
 111        0.000072847
 112        0.000397625
 113       -0.000008218
 114        0.000014361
 115        0.000008872
 116        0.000044068
 117        0.000325957
 118        0.000004761
 119       -0.000008454
 120       -0.000013292
 121       -0.000355710
 122       -0.000063218
 123        0.000817724
 124       -0.000009901
 125       -0.000019979
 126        0.000007452
 127       -0.000144057
 128       -0.000010589
 129       -0.000028562
 130        0.000000852
 131       -0.000004183
 132        0.000001722
 133       -0.000002920
 134        0.000001496
 135       -0.000015590
 136       -0.000095324
 137        0.000009720
 138        0.000004241
 139       -0.000001346
 140       -0.000021829
 141       -0.000217950
 142        0.000011148
 143       -0.000001490
 144       -0.000012738
 145        0.000199848
 146        0.000060118
 147       -0.000328634
 148       -0.000022227
 149       -0.000011873
 150        0.000005640
 151        0.000048743
 152        0.000155714
 153        0.000065882
 154       -0.000001212
 155       -0.000003386
 156       -0.000005409
 157       -0.000000167
 158        0.000005051
 159        0.000037502
 160       -0.000010503
 161       -0.000004407
 162       -0.000003052
 163       -0.000004294
 164        0.000017120
 165       -0.000020331
 166       -0.000008611
 167       -0.000009077
 168        0.000004334
 Sym= A   
 Ene=       -11.220902
 Spin= Alpha
 Occup=       2.000000
   1        0.001407560
   2        0.000166312
   3       -0.000958561
   4        0.000001783
   5       -0.000003062
   6        0.000007078
   7       -0.000354172
   8       -0.000278383
   9        0.000112128
  10        0.000005513
  11        0.000018481
  12       -0.000000943
  13       -0.000004708
  14       -0.000028300
  15       -0.000715215
  16       -0.000103856
  17        0.001650939
  18        0.000013198
  19        0.000044961
  20       -0.000000419
  21        0.000495937
  22       -0.000400651
  23       -0.000055460
  24        0.000004603
  25       -0.000011628
  26       -0.000005653
  27        0.000013841
  28        0.000048680
  29        0.000034441
  30        0.000106606
  31        0.000025309
  32        0.000008518
  33       -0.000003574
  34        0.000031585
  35        0.000002176
  36        0.000024753
  37        0.000015134
  38        0.000009470
  39        0.004461037
  40        0.000400546
  41       -0.005329157
  42       -0.000038916
  43       -0.000094645
  44       -0.000023865
  45       -0.000467979
  46       -0.001796076
  47        0.000919339
  48        0.000072891
  49        0.000035126
  50        0.000029831
  51        0.000105063
  52       -0.000071759
  53       -0.000034483
  54       -0.000296872
  55        0.000005932
  56        0.000016117
  57       -0.000004446
  58        0.000008859
  59        0.000390736
  60        0.000061745
  61       -0.000022122
  62       -0.000005592
  63        0.024655721
  64        0.000531305
  65        0.008363733
  66        0.000027471
  67        0.000285541
  68       -0.000077439
  69       -0.000129219
  70       -0.001674040
  71        0.002300458
  72        0.000016248
  73       -0.000098426
  74        0.000026420
  75       -0.000264629
  76        0.000104581
  77        0.000008127
  78        0.000228595
  79        0.000011337
  80        0.000031503
  81        0.000011875
  82        0.000181760
  83        0.000157558
  84        0.000025783
  85        0.000039774
  86       -0.000055231
  87        0.000077754
  88        0.000642199
  89        0.000227332
  90        0.000170393
  91        0.000100667
  92        0.000014245
  93       -0.001920835
  94        0.000024331
  95        0.000121817
  96       -0.000019254
  97        0.261131130
  98        0.011501670
  99       -0.017052383
 100       -0.000108911
 101        0.000058065
 102        0.000153596
 103        0.001839471
 104       -0.003514294
 105       -0.000377580
 106        0.000164508
 107        0.000006727
 108        0.000049108
 109        0.000115526
 110       -0.000219445
 111       -0.000636824
 112        0.001367634
 113        0.000210270
 114       -0.000193214
 115       -0.000191886
 116        0.000300364
 117        0.002658660
 118       -0.000140329
 119        0.000157046
 120        0.000372513
 121        0.047950311
 122        0.001724010
 123        0.002672293
 124       -0.000161613
 125        0.001038405
 126        0.000245974
 127       -0.001990140
 128       -0.002779116
 129        0.000596388
 130       -0.000144375
 131       -0.000158772
 132        0.000564331
 133       -0.000329410
 134       -0.000585720
 135       -0.000092704
 136       -0.000389078
 137        0.000263167
 138       -0.000304730
 139       -0.000193411
 140       -0.000395166
 141       -0.000338127
 142        0.000248399
 143       -0.000316454
 144       -0.000209956
 145       -0.954206826
 146       -0.035245900
 147        0.023059868
 148        0.000661049
 149        0.000131217
 150       -0.000359008
 151       -0.000533919
 152       -0.001022705
 153        0.000808151
 154       -0.000643207
 155       -0.000647398
 156       -0.000264007
 157        0.000171060
 158        0.001070433
 159        0.002172140
 160       -0.005204133
 161        0.000982225
 162       -0.000506021
 163        0.000723395
 164        0.001907229
 165       -0.005858898
 166       -0.000091409
 167       -0.000010756
 168       -0.001274327
 Sym= A   
 Ene=       -11.220799
 Spin= Alpha
 Occup=       2.000000
   1        0.017116393
   2        0.000747573
   3       -0.000573851
   4        0.000034847
   5        0.000010460
   6        0.000006992
   7       -0.000090863
   8       -0.000083565
   9        0.000026995
  10        0.000013472
  11       -0.000024305
  12        0.000008615
  13       -0.000021733
  14        0.000003649
  15        0.000355039
  16        0.000203632
  17       -0.002460419
  18       -0.000019887
  19       -0.000002319
  20       -0.000003082
  21       -0.000870570
  22       -0.000411120
  23       -0.000128491
  24        0.000013906
  25        0.000014505
  26        0.000007328
  27        0.000014910
  28       -0.000028534
  29       -0.000011522
  30        0.000085297
  31        0.000022341
  32       -0.000016257
  33       -0.000023101
  34       -0.000016905
  35        0.000068939
  36       -0.000000226
  37        0.000011868
  38        0.000034597
  39       -0.022589070
  40       -0.000417584
  41        0.000044638
  42        0.000170720
  43        0.000089340
  44        0.000016846
  45       -0.002136575
  46       -0.000240149
  47       -0.000746064
  48        0.000009166
  49       -0.000049334
  50       -0.000038365
  51       -0.000092550
  52        0.000013135
  53        0.000068929
  54        0.000368997
  55       -0.000003502
  56        0.000003453
  57        0.000013065
  58        0.000080394
  59        0.000347027
  60        0.000003343
  61       -0.000008661
  62       -0.000007442
  63       -0.085298280
  64       -0.002139011
  65       -0.007155616
  66        0.000719407
  67        0.000062505
  68        0.000241702
  69       -0.003734666
  70       -0.001012612
  71       -0.000780075
  72       -0.000253565
  73        0.000358472
  74        0.000016366
  75        0.000521320
  76        0.000114549
  77        0.000210235
  78        0.000584071
  79        0.000107645
  80       -0.000019440
  81       -0.000027542
  82        0.000211346
  83        0.000513017
  84        0.000067135
  85        0.000030974
  86        0.000082921
  87        0.000218076
  88       -0.000447216
  89       -0.000304295
  90        0.000035056
  91       -0.000058430
  92        0.000146643
  93       -0.000425275
  94       -0.000272726
  95       -0.000035216
  96       -0.000166722
  97       -0.949481826
  98       -0.037376330
  99        0.036197190
 100       -0.000312047
 101        0.000299012
 102       -0.000285938
 103       -0.002438947
 104        0.000166065
 105       -0.001386919
 106       -0.000232972
 107        0.000149404
 108       -0.000124522
 109        0.000237076
 110        0.000279776
 111        0.001058353
 112       -0.006244189
 113       -0.000477227
 114        0.000968200
 115        0.000589961
 116        0.001091803
 117       -0.006277352
 118        0.000161126
 119       -0.000052514
 120       -0.001149024
 121        0.068066280
 122        0.003243012
 123       -0.007211675
 124       -0.000278231
 125       -0.000372024
 126        0.000174657
 127        0.000901312
 128        0.002313139
 129        0.000836437
 130       -0.000317093
 131       -0.000186399
 132       -0.000241979
 133       -0.000584281
 134        0.000278708
 135       -0.000302847
 136        0.000391348
 137        0.000216079
 138        0.000121535
 139       -0.000209839
 140        0.000001393
 141        0.000515547
 142        0.000222184
 143        0.000238330
 144       -0.000272275
 145       -0.258903706
 146       -0.008617156
 147        0.002494579
 148        0.000181095
 149       -0.000009268
 150       -0.000016519
 151       -0.000458037
 152        0.001330412
 153       -0.000949576
 154       -0.000158733
 155       -0.000157879
 156       -0.000056250
 157        0.000245184
 158        0.000270790
 159        0.000523437
 160       -0.001233278
 161        0.000193894
 162       -0.000313233
 163        0.000194982
 164        0.001039438
 165       -0.000265569
 166       -0.000010423
 167       -0.000228754
 168       -0.000382926
 Sym= A   
 Ene=       -11.220624
 Spin= Alpha
 Occup=       2.000000
   1        0.987122568
   2        0.036173440
   3       -0.022125647
   4        0.000591066
   5       -0.000419168
   6        0.000444583
   7       -0.000732964
   8        0.000668921
   9       -0.000627756
  10        0.000447189
  11       -0.001017128
  12        0.000299979
  13       -0.000947209
  14        0.000274792
  15       -0.075229985
  16       -0.003107962
  17       -0.002383859
  18        0.000477739
  19        0.000713165
  20       -0.000185982
  21       -0.002704376
  22        0.000770076
  23       -0.001438513
  24        0.000335324
  25        0.000203547
  26        0.000359973
  27        0.000437755
  28       -0.000580736
  29       -0.002180668
  30        0.005693501
  31        0.000443257
  32       -0.001067690
  33       -0.000667025
  34       -0.002181645
  35        0.005694170
  36       -0.000313415
  37       -0.000050309
  38        0.001296130
  39       -0.036251013
  40       -0.002200611
  41        0.006219131
  42        0.000187714
  43        0.000286162
  44       -0.000076903
  45       -0.004668795
  46       -0.003466372
  47        0.000024434
  48       -0.000129197
  49        0.000067471
  50        0.000010200
  51        0.000144933
  52        0.000159154
  53        0.000241517
  54        0.000249529
  55       -0.000051922
  56       -0.000465265
  57        0.000237943
  58        0.000241902
  59        0.000250507
  60       -0.000042538
  61       -0.000477490
  62        0.000213401
  63       -0.000494009
  64        0.000046823
  65        0.003178455
  66       -0.000197800
  67       -0.000163441
  68        0.000010695
  69        0.001384805
  70       -0.000255032
  71        0.000624428
  72       -0.000008847
  73       -0.000013214
  74       -0.000046551
  75       -0.000058851
  76        0.000005915
  77       -0.000387586
  78       -0.000574194
  79        0.000177470
  80        0.000200438
  81       -0.000099218
  82       -0.000383335
  83       -0.000563236
  84        0.000142186
  85        0.000247111
  86       -0.000010252
  87        0.000049165
  88       -0.000359443
  89       -0.000084337
  90        0.000033689
  91       -0.000029886
  92        0.000061974
  93       -0.000348581
  94       -0.000074237
  95        0.000017627
  96       -0.000056181
  97        0.016964652
  98        0.000624826
  99       -0.003392095
 100        0.000138637
 101        0.000121930
 102       -0.000012135
 103       -0.000142994
 104       -0.001520251
 105        0.000795169
 106        0.000019298
 107       -0.000007585
 108        0.000010474
 109       -0.000012832
 110       -0.000023575
 111       -0.000097527
 112        0.000147961
 113        0.000073438
 114        0.000039302
 115       -0.000069992
 116       -0.000102764
 117        0.000129124
 118        0.000036947
 119        0.000101371
 120        0.000035829
 121       -0.001516036
 122       -0.000121424
 123        0.002207182
 124       -0.000033759
 125       -0.000040856
 126        0.000005039
 127       -0.000214457
 128       -0.000960737
 129        0.000354229
 130       -0.000016971
 131       -0.000007524
 132       -0.000017265
 133       -0.000005452
 134        0.000023394
 135       -0.000098955
 136       -0.000246254
 137        0.000009136
 138        0.000020426
 139       -0.000005189
 140       -0.000027956
 141       -0.000019785
 142       -0.000014169
 143        0.000006542
 144        0.000018866
 145        0.005907287
 146        0.000126335
 147        0.000057818
 148        0.000000092
 149        0.000013490
 150        0.000000324
 151        0.000014749
 152       -0.000054016
 153       -0.000052761
 154        0.000007668
 155       -0.000010735
 156        0.000000707
 157       -0.000009625
 158        0.000001484
 159       -0.000036240
 160        0.000020095
 161       -0.000000068
 162        0.000008593
 163        0.000006801
 164       -0.000032757
 165        0.000012129
 166       -0.000007150
 167        0.000014212
 168        0.000008912
 Sym= A   
 Ene=       -11.220008
 Spin= Alpha
 Occup=       2.000000
   1       -0.032244747
   2       -0.000900657
   3        0.000264572
   4       -0.000073575
   5       -0.000018380
   6       -0.000018477
   7       -0.000011869
   8        0.000492309
   9       -0.000255797
  10        0.000028602
  11        0.000005691
  12       -0.000027263
  13       -0.000039796
  14       -0.000063417
  15        0.058233137
  16        0.003357733
  17       -0.011088075
  18        0.000695248
  19        0.000120953
  20        0.000204286
  21       -0.003114097
  22       -0.000681889
  23       -0.000863456
  24       -0.000242701
  25        0.000387011
  26        0.000064144
  27        0.000595853
  28        0.000090589
  29        0.000158256
  30        0.000409251
  31        0.000047424
  32        0.000098136
  33        0.000047225
  34        0.000158670
  35        0.000404243
  36        0.000091229
  37        0.000039775
  38       -0.000065509
  39       -0.981272464
  40       -0.038596808
  41        0.038551601
  42       -0.000245861
  43        0.000444411
  44       -0.000329336
  45       -0.000799341
  46        0.001338425
  47       -0.000984229
  48       -0.000293308
  49        0.000057807
  50       -0.000162014
  51        0.000036426
  52        0.000369955
  53       -0.000034662
  54        0.000449035