[Molden Format]
[N_ATOMS]
           21
[Atoms]  AU
C     1    6      -4.938428       -5.000633        0.325652
C     2    6      -3.806672       -2.539395       -0.513577
H     3    1      -4.569420       -6.722859       -0.720990
H     4    1      -5.702020       -5.200734        2.216280
C     5    6      -1.058000       -2.172742        0.350101
H     6    1      -3.881056       -2.415019       -2.577317
H     7    1      -4.948964       -0.973508        0.209460
C     8    6       0.078860        0.337395       -0.512762
H     9    1      -0.974693       -2.294398        2.414813
H    10    1       0.092167       -3.737053       -0.367530
H    11    1      -0.008628        0.452183       -2.579648
H    12    1      -1.084287        1.891680        0.201999
C    13    6       2.813882        0.701165        0.340681
H    14    1       3.958728       -0.872457       -0.363574
H    15    1       2.909141        0.608340        2.406946
C    16    6       4.022480        3.189460       -0.554323
H    17    1       6.027399        3.148944       -0.041926
H    18    1       3.950959        3.272288       -2.619003
C    19    6       2.838862        5.528510        0.533548
H    20    1       1.481462        6.634824       -0.525534
H    21    1       3.043308        5.945208        2.530100
[5D7F9G]
[GTO]
    1
    s    5
   0.123840169E+04   0.551736504E-02
   0.186290050E+03   0.410888285E-01
   0.422511764E+02   0.182253821E+00
   0.116765579E+02   0.468284594E+00
   0.359305065E+01   0.445758173E+00
    s    1
   0.402451470E+00   0.100000000E+01
    s    1
   0.130901830E+00   0.100000000E+01
    p    3
   0.946809706E+01   0.568883319E-01
   0.201035451E+01   0.312940593E+00
   0.547710050E+00   0.760650164E+00
    p    1
   0.152686140E+00   0.100000000E+01
    d    1
   0.800000000E+00   0.100000000E+01
 
    2
    s    5
   0.123840169E+04   0.551736504E-02
   0.186290050E+03   0.410888285E-01
   0.422511764E+02   0.182253821E+00
   0.116765579E+02   0.468284594E+00
   0.359305065E+01   0.445758173E+00
    s    1
   0.402451470E+00   0.100000000E+01
    s    1
   0.130901830E+00   0.100000000E+01
    p    3
   0.946809706E+01   0.568883319E-01
   0.201035451E+01   0.312940593E+00
   0.547710050E+00   0.760650164E+00
    p    1
   0.152686140E+00   0.100000000E+01
    d    1
   0.800000000E+00   0.100000000E+01
 
    3
    s    3
   0.130107010E+02   0.334854848E-01
   0.196225720E+01   0.234721871E+00
   0.444537960E+00   0.813770285E+00
    s    1
   0.121949620E+00   0.100000000E+01
    p    1
   0.800000000E+00   0.100000000E+01
 
    4
    s    3
   0.130107010E+02   0.334854848E-01
   0.196225720E+01   0.234721871E+00
   0.444537960E+00   0.813770285E+00
    s    1
   0.121949620E+00   0.100000000E+01
    p    1
   0.800000000E+00   0.100000000E+01
 
    5
    s    5
   0.123840169E+04   0.551736504E-02
   0.186290050E+03   0.410888285E-01
   0.422511764E+02   0.182253821E+00
   0.116765579E+02   0.468284594E+00
   0.359305065E+01   0.445758173E+00
    s    1
   0.402451470E+00   0.100000000E+01
    s    1
   0.130901830E+00   0.100000000E+01
    p    3
   0.946809706E+01   0.568883319E-01
   0.201035451E+01   0.312940593E+00
   0.547710050E+00   0.760650164E+00
    p    1
   0.152686140E+00   0.100000000E+01
    d    1
   0.800000000E+00   0.100000000E+01
 
    6
    s    3
   0.130107010E+02   0.334854848E-01
   0.196225720E+01   0.234721871E+00
   0.444537960E+00   0.813770285E+00
    s    1
   0.121949620E+00   0.100000000E+01
    p    1
   0.800000000E+00   0.100000000E+01
 
    7
    s    3
   0.130107010E+02   0.334854848E-01
   0.196225720E+01   0.234721871E+00
   0.444537960E+00   0.813770285E+00
    s    1
   0.121949620E+00   0.100000000E+01
    p    1
   0.800000000E+00   0.100000000E+01
 
    8
    s    5
   0.123840169E+04   0.551736504E-02
   0.186290050E+03   0.410888285E-01
   0.422511764E+02   0.182253821E+00
   0.116765579E+02   0.468284594E+00
   0.359305065E+01   0.445758173E+00
    s    1
   0.402451470E+00   0.100000000E+01
    s    1
   0.130901830E+00   0.100000000E+01
    p    3
   0.946809706E+01   0.568883319E-01
   0.201035451E+01   0.312940593E+00
   0.547710050E+00   0.760650164E+00
    p    1
   0.152686140E+00   0.100000000E+01
    d    1
   0.800000000E+00   0.100000000E+01
 
    9
    s    3
   0.130107010E+02   0.334854848E-01
   0.196225720E+01   0.234721871E+00
   0.444537960E+00   0.813770285E+00
    s    1
   0.121949620E+00   0.100000000E+01
    p    1
   0.800000000E+00   0.100000000E+01
 
   10
    s    3
   0.130107010E+02   0.334854848E-01
   0.196225720E+01   0.234721871E+00
   0.444537960E+00   0.813770285E+00
    s    1
   0.121949620E+00   0.100000000E+01
    p    1
   0.800000000E+00   0.100000000E+01
 
   11
    s    3
   0.130107010E+02   0.334854848E-01
   0.196225720E+01   0.234721871E+00
   0.444537960E+00   0.813770285E+00
    s    1
   0.121949620E+00   0.100000000E+01
    p    1
   0.800000000E+00   0.100000000E+01
 
   12
    s    3
   0.130107010E+02   0.334854848E-01
   0.196225720E+01   0.234721871E+00
   0.444537960E+00   0.813770285E+00
    s    1
   0.121949620E+00   0.100000000E+01
    p    1
   0.800000000E+00   0.100000000E+01
 
   13
    s    5
   0.123840169E+04   0.551736504E-02
   0.186290050E+03   0.410888285E-01
   0.422511764E+02   0.182253821E+00
   0.116765579E+02   0.468284594E+00
   0.359305065E+01   0.445758173E+00
    s    1
   0.402451470E+00   0.100000000E+01
    s    1
   0.130901830E+00   0.100000000E+01
    p    3
   0.946809706E+01   0.568883319E-01
   0.201035451E+01   0.312940593E+00
   0.547710050E+00   0.760650164E+00
    p    1
   0.152686140E+00   0.100000000E+01
    d    1
   0.800000000E+00   0.100000000E+01
 
   14
    s    3
   0.130107010E+02   0.334854848E-01
   0.196225720E+01   0.234721871E+00
   0.444537960E+00   0.813770285E+00
    s    1
   0.121949620E+00   0.100000000E+01
    p    1
   0.800000000E+00   0.100000000E+01
 
   15
    s    3
   0.130107010E+02   0.334854848E-01
   0.196225720E+01   0.234721871E+00
   0.444537960E+00   0.813770285E+00
    s    1
   0.121949620E+00   0.100000000E+01
    p    1
   0.800000000E+00   0.100000000E+01
 
   16
    s    5
   0.123840169E+04   0.551736504E-02
   0.186290050E+03   0.410888285E-01
   0.422511764E+02   0.182253821E+00
   0.116765579E+02   0.468284594E+00
   0.359305065E+01   0.445758173E+00
    s    1
   0.402451470E+00   0.100000000E+01
    s    1
   0.130901830E+00   0.100000000E+01
    p    3
   0.946809706E+01   0.568883319E-01
   0.201035451E+01   0.312940593E+00
   0.547710050E+00   0.760650164E+00
    p    1
   0.152686140E+00   0.100000000E+01
    d    1
   0.800000000E+00   0.100000000E+01
 
   17
    s    3
   0.130107010E+02   0.334854848E-01
   0.196225720E+01   0.234721871E+00
   0.444537960E+00   0.813770285E+00
    s    1
   0.121949620E+00   0.100000000E+01
    p    1
   0.800000000E+00   0.100000000E+01
 
   18
    s    3
   0.130107010E+02   0.334854848E-01
   0.196225720E+01   0.234721871E+00
   0.444537960E+00   0.813770285E+00
    s    1
   0.121949620E+00   0.100000000E+01
    p    1
   0.800000000E+00   0.100000000E+01
 
   19
    s    5
   0.123840169E+04   0.551736504E-02
   0.186290050E+03   0.410888285E-01
   0.422511764E+02   0.182253821E+00
   0.116765579E+02   0.468284594E+00
   0.359305065E+01   0.445758173E+00
    s    1
   0.402451470E+00   0.100000000E+01
    s    1
   0.130901830E+00   0.100000000E+01
    p    3
   0.946809706E+01   0.568883319E-01
   0.201035451E+01   0.312940593E+00
   0.547710050E+00   0.760650164E+00
    p    1
   0.152686140E+00   0.100000000E+01
    d    1
   0.800000000E+00   0.100000000E+01
 
   20
    s    3
   0.130107010E+02   0.334854848E-01
   0.196225720E+01   0.234721871E+00
   0.444537960E+00   0.813770285E+00
    s    1
   0.121949620E+00   0.100000000E+01
    p    1
   0.800000000E+00   0.100000000E+01
 
   21
    s    3
   0.130107010E+02   0.334854848E-01
   0.196225720E+01   0.234721871E+00
   0.444537960E+00   0.813770285E+00
    s    1
   0.121949620E+00   0.100000000E+01
    p    1
   0.800000000E+00   0.100000000E+01
 
[MO]
 Sym= A   
 Ene=       -11.225569
 Spin= Alpha
 Occup=       1.000000
   1       -0.000190018
   2        0.000048061
   3       -0.001639705
   4       -0.000004634
   5       -0.000032577
   6        0.000015345
   7       -0.000381759
   8       -0.000658978
   9        0.000129304
  10        0.000007132
  11        0.000020308
  12       -0.000003197
  13        0.000025501
  14       -0.000022933
  15        0.000390776
  16       -0.000021675
  17        0.002128668
  18        0.000085982
  19        0.000094519
  20       -0.000017656
  21       -0.000338510
  22       -0.000855780
  23        0.000582539
  24       -0.000005689
  25       -0.000001979
  26        0.000005076
  27       -0.000013648
  28        0.000026313
  29        0.000037559
  30        0.000055419
  31        0.000026861
  32        0.000025520
  33       -0.000009312
  34        0.000051715
  35        0.000073487
  36        0.000016856
  37        0.000027851
  38        0.000003711
  39       -0.000243892
  40        0.000261305
  41       -0.004916438
  42       -0.000076258
  43       -0.000052938
  44        0.000021752
  45       -0.000177489
  46       -0.001716479
  47        0.000176705
  48        0.000022806
  49        0.000000823
  50        0.000025868
  51        0.000040570
  52       -0.000057336
  53        0.000072949
  54       -0.000097234
  55        0.000032231
  56        0.000048237
  57        0.000002139
  58        0.000037613
  59       -0.000330711
  60        0.000036208
  61        0.000050871
  62       -0.000021037
  63       -0.000884828
  64        0.000815335
  65       -0.002453092
  66        0.000252745
  67        0.000249226
  68       -0.000105400
  69       -0.003345505
  70       -0.004050258
  71        0.001621094
  72        0.000019743
  73        0.000004281
  74        0.000011330
  75        0.000003490
  76       -0.000060186
  77        0.000158328
  78        0.000656830
  79       -0.000017208
  80        0.000050952
  81       -0.000019309
  82        0.000023540
  83        0.000131800
  84        0.000014604
  85        0.000006269
  86       -0.000023386
  87        0.000566033
  88        0.001175780
  89        0.000127779
  90        0.000218198
  91        0.000016137
  92        0.000248716
  93        0.001074530
  94        0.000203253
  95        0.000187655
  96       -0.000156266
  97       -0.053420694
  98       -0.001536631
  99       -0.004256068
 100        0.000280673
 101        0.000511778
 102       -0.000172458
 103       -0.002474018
 104       -0.002558375
 105       -0.000399639
 106       -0.000259039
 107       -0.000157007
 108       -0.000368594
 109       -0.000238953
 110        0.000522125
 111        0.000009345
 112        0.000018925
 113       -0.000097198
 114       -0.000135674
 115        0.000231605
 116        0.000166083
 117       -0.000334682
 118       -0.000095004
 119       -0.000391898
 120        0.000100442
 121       -0.986979988
 122       -0.039420536
 123        0.041093643
 124       -0.000200165
 125       -0.000042921
 126        0.000298208
 127       -0.003895012
 128        0.001262670
 129        0.001819071
 130       -0.000228663
 131       -0.000213043
 132        0.000009080
 133       -0.000438735
 134        0.000053754
 135        0.001369199
 136       -0.005800903
 137       -0.001196764
 138       -0.000000056
 139       -0.000569992
 140        0.000865471
 141       -0.006940958
 142        0.000427524
 143       -0.000042814
 144        0.001141820
 145       -0.064695155
 146       -0.001129297
 147       -0.010983651
 148        0.000437046
 149       -0.000597177
 150       -0.000307561
 151       -0.001709445
 152        0.004621243
 153        0.001767281
 154       -0.000255487
 155       -0.000315738
 156        0.000414235
 157       -0.000220212
 158       -0.000514719
 159        0.000158286
 160       -0.000040518
 161       -0.000085785
 162        0.000049753
 163       -0.000051825
 164        0.000267431
 165       -0.000200385
 166       -0.000027417
 167        0.000047916
 168        0.000104488
 Sym= A   
 Ene=       -11.224484
 Spin= Alpha
 Occup=       1.000000
   1       -0.077754288
   2       -0.001581474
   3       -0.007920016
   4        0.000302686
   5        0.000782749
   6       -0.000289198
   7       -0.001962542
   8       -0.003272172
   9        0.000940601
  10       -0.000297274
  11       -0.000131243
  12       -0.000427671
  13       -0.000455017
  14        0.000424308
  15       -0.985938006
  16       -0.038733653
  17        0.039902628
  18        0.000287315
  19       -0.000376305
  20        0.000305589
  21        0.001645389
  22       -0.001238800
  23        0.001278863
  24       -0.000305323
  25        0.000139529
  26       -0.000124123
  27        0.000161618
  28        0.000327946
  29        0.000179390
  30       -0.000287875
  31       -0.000017141
  32       -0.000137358
  33        0.000002481
  34        0.000178835
  35       -0.000287780
  36       -0.000051068
  37       -0.000091611
  38        0.000090094
  39       -0.056174187
  40       -0.001082895
  41       -0.008219261
  42       -0.000701090
  43       -0.000059057
  44       -0.000236940
  45        0.003442183
  46        0.000545624
  47        0.001037478
  48       -0.000245231
  49        0.000388980
  50        0.000039087
  51        0.000567216
  52        0.000077559
  53        0.001029514
  54       -0.006862862
  55       -0.000124857
  56        0.000049061
  57        0.001174228
  58        0.001030764
  59       -0.006885622
  60        0.000548676
  61       -0.000861984
  62       -0.000588995
  63       -0.001563573
  64        0.000351937
  65       -0.000211590
  66       -0.000136187
  67       -0.000048564
  68       -0.000027639
  69        0.001619987
  70       -0.000362089
  71        0.000747661
  72        0.000013900
  73       -0.000056351
  74       -0.000035857
  75       -0.000098136
  76        0.000011524
  77        0.000121725
  78       -0.000379419
  79        0.000345438
  80        0.000010335
  81        0.000111377
  82        0.000119466
  83       -0.000383218
  84        0.000336166
  85        0.000019488
  86        0.000134026
  87        0.000153017
  88        0.000775496
  89       -0.000084262
  90        0.000028453
  91        0.000012992
  92        0.000152448
  93        0.000876123
  94       -0.000043638
  95       -0.000018594
  96       -0.000073502
  97       -0.000383241
  98        0.000150265
  99       -0.002377781
 100        0.000038376
 101        0.000023255
 102       -0.000004680
 103        0.000522568
 104        0.000211965
 105        0.000183299
 106        0.000012030
 107        0.000010742
 108       -0.000001253
 109        0.000005270
 110       -0.000023356
 111        0.000072891
 112        0.000397693
 113       -0.000008238
 114        0.000014337
 115        0.000008896
 116        0.000044106
 117        0.000326032
 118        0.000004750
 119       -0.000008492
 120       -0.000013296
 121       -0.000356748
 122       -0.000063237
 123        0.000816997
 124       -0.000009877
 125       -0.000019953
 126        0.000007448
 127       -0.000143962
 128       -0.000010273
 129       -0.000028688
 130        0.000000861
 131       -0.000004182
 132        0.000001728
 133       -0.000002910
 134        0.000001483
 135       -0.000015520
 136       -0.000095228
 137        0.000009713
 138        0.000004234
 139       -0.000001344
 140       -0.000021810
 141       -0.000217921
 142        0.000011152
 143       -0.000001493
 144       -0.000012739
 145        0.000200289
 146        0.000060136
 147       -0.000328679
 148       -0.000022366
 149       -0.000011984
 150        0.000005687
 151        0.000048601
 152        0.000155600
 153        0.000065955
 154       -0.000001212
 155       -0.000003380
 156       -0.000005407
 157       -0.000000165
 158        0.000005046
 159        0.000037509
 160       -0.000010480
 161       -0.000004412
 162       -0.000003056
 163       -0.000004296
 164        0.000017125
 165       -0.000020334
 166       -0.000008613
 167       -0.000009081
 168        0.000004337
 Sym= A   
 Ene=       -11.220911
 Spin= Alpha
 Occup=       1.000000
   1        0.001816313
   2        0.000185520
   3       -0.000973498
   4        0.000003315
   5       -0.000002626
   6        0.000007407
   7       -0.000356411
   8       -0.000281291
   9        0.000113401
  10        0.000005894
  11        0.000017816
  12       -0.000000694
  13       -0.000005278
  14       -0.000028200
  15       -0.000692305
  16       -0.000096102
  17        0.001561614
  18        0.000012271
  19        0.000044644
  20       -0.000000501
  21        0.000465017
  22       -0.000415049
  23       -0.000059915
  24        0.000005066
  25       -0.000011177
  26       -0.000005485
  27        0.000014202
  28        0.000047703
  29        0.000034452
  30        0.000108351
  31        0.000026013
  32        0.000008136
  33       -0.000004258
  34        0.000031400
  35        0.000003389
  36        0.000024805
  37        0.000015551
  38        0.000010452
  39        0.003733814
  40        0.000388833
  41       -0.005327722
  42       -0.000032594
  43       -0.000091447
  44       -0.000023159
  45       -0.000544004
  46       -0.001802522
  47        0.000891703
  48        0.000073240
  49        0.000033299
  50        0.000028445
  51        0.000101607
  52       -0.000071298
  53       -0.000031980
  54       -0.000283362
  55        0.000005836
  56        0.000016322
  57       -0.000004000
  58        0.000011771
  59        0.000403067
  60        0.000061864
  61       -0.000022333
  62       -0.000005891
  63        0.021612897
  64        0.000455834
  65        0.008096341
  66        0.000053556
  67        0.000287621
  68       -0.000068609
  69       -0.000264568
  70       -0.001709099
  71        0.002270192
  72        0.000007083
  73       -0.000085337
  74        0.000027041
  75       -0.000245475
  76        0.000108620
  77        0.000015686
  78        0.000250349
  79        0.000015215
  80        0.000030754
  81        0.000010990
  82        0.000189286
  83        0.000176876
  84        0.000028239
  85        0.000040771
  86       -0.000052236
  87        0.000085409
  88        0.000625884
  89        0.000216109
  90        0.000171467
  91        0.000098407
  92        0.000019415
  93       -0.001934628
  94        0.000014321
  95        0.000120432
  96       -0.000025201
  97        0.226468066
  98        0.010136135
  99       -0.015723645
 100       -0.000120307
 101        0.000068769
 102        0.000143143
 103        0.001750142
 104       -0.003505210
 105       -0.000427771
 106        0.000156001
 107        0.000012165
 108        0.000044628
 109        0.000124086
 110       -0.000209217
 111       -0.000597923
 112        0.001139717
 113        0.000192760
 114       -0.000157859
 115       -0.000170367
 116        0.000339809
 117        0.002428796
 118       -0.000134393
 119        0.000155111
 120        0.000330465
 121        0.050629807
 122        0.001850208
 123        0.002398524
 124       -0.000171579
 125        0.001024211
 126        0.000252106
 127       -0.001955244
 128       -0.002693323
 129        0.000625839
 130       -0.000155749
 131       -0.000165401
 132        0.000555166
 133       -0.000350307
 134       -0.000575213
 135       -0.000103942
 136       -0.000373135
 137        0.000271133
 138       -0.000300112
 139       -0.000200770
 140       -0.000395082
 141       -0.000317593
 142        0.000256212
 143       -0.000307583
 144       -0.000219992
 145       -0.962967837
 146       -0.035535410
 147        0.023137757
 148        0.000667025
 149        0.000130982
 150       -0.000359307
 151       -0.000549824
 152       -0.000974792
 153        0.000772755
 154       -0.000648511
 155       -0.000652619
 156       -0.000265990
 157        0.000179923
 158        0.001079711
 159        0.002189688
 160       -0.005245507
 161        0.000988615
 162       -0.000517074
 163        0.000730005
 164        0.001943685
 165       -0.005864637
 166       -0.000091729
 167       -0.000019080
 168       -0.001287429
 Sym= A   
 Ene=       -11.220794
 Spin= Alpha
 Occup=       1.000000
   1       -0.018734627
   2       -0.000802626
   3        0.000576629
   4       -0.000036375
   5       -0.000009734
   6       -0.000007786
   7        0.000078525
   8        0.000072210
   9       -0.000022072
  10       -0.000014036
  11        0.000026697
  12       -0.000009143
  13        0.000023187
  14       -0.000005123
  15       -0.000269903
  16       -0.000203155
  17        0.002527026
  18        0.000019345
  19        0.000002679
  20        0.000003337
  21        0.000893683
  22        0.000395461
  23        0.000129056
  24       -0.000014245
  25       -0.000015405
  26       -0.000008165
  27       -0.000015347
  28        0.000031296
  29        0.000016430
  30       -0.000091298
  31       -0.000022202
  32        0.000018355
  33        0.000024070
  34        0.000021707
  35       -0.000078739
  36        0.000001609
  37       -0.000011232
  38       -0.000036437
  39        0.023138496
  40        0.000448819
  41       -0.000259348
  42       -0.000172520
  43       -0.000093640
  44       -0.000017414
  45        0.002126833
  46        0.000181020
  47        0.000778923
  48       -0.000006104
  49        0.000050495
  50        0.000039581
  51        0.000096191
  52       -0.000016279
  53       -0.000070653
  54       -0.000380433
  55        0.000003920
  56       -0.000002088
  57       -0.000013553
  58       -0.000080541
  59       -0.000333570
  60       -0.000000903
  61        0.000008639
  62        0.000006917
  63        0.086492702
  64        0.002170487
  65        0.007437606
  66       -0.000717541
  67       -0.000051363
  68       -0.000244649
  69        0.003723984
  70        0.000950718
  71        0.000862112
  72        0.000254211
  73       -0.000361795
  74       -0.000015142
  75       -0.000530385
  76       -0.000110942
  77       -0.000209465
  78       -0.000572020
  79       -0.000107430
  80        0.000020385
  81        0.000028477
  82       -0.000204304
  83       -0.000503671
  84       -0.000066128
  85       -0.000030089
  86       -0.000085093
  87       -0.000215517
  88        0.000473501
  89        0.000312480
  90       -0.000029018
  91        0.000061715
  92       -0.000146492
  93        0.000358547
  94        0.000273330
  95        0.000039777
  96        0.000166228
  97        0.958266629
  98        0.037766291
  99       -0.036782807
 100        0.000307440
 101       -0.000296767
 102        0.000291284
 103        0.002503154
 104       -0.000291948
 105        0.001370885
 106        0.000238778
 107       -0.000149177
 108        0.000126136
 109       -0.000232890
 110       -0.000287381
 111       -0.001080496
 112        0.006289006
 113        0.000484207
 114       -0.000974521
 115       -0.000596401
 116       -0.001079940
 117        0.006369035
 118       -0.000166301
 119        0.000057990
 120        0.001161587
 121       -0.066354119
 122       -0.003181322
 123        0.007304341
 124        0.000272243
 125        0.000409486
 126       -0.000165565
 127       -0.000973435
 128       -0.002410763
 129       -0.000814796
 130        0.000311619
 131        0.000180514
 132        0.000262324
 133        0.000571888
 134       -0.000299787
 135        0.000299586
 136       -0.000405147
 137       -0.000206474
 138       -0.000132541
 139        0.000202629
 140       -0.000015707
 141       -0.000528367
 142       -0.000212916
 143       -0.000249677
 144        0.000264516
 145        0.224054536
 146        0.007330737
 147       -0.001656493
 148       -0.000156992
 149        0.000013917
 150        0.000003488
 151        0.000438082
 152       -0.001366031
 153        0.000978505
 154        0.000135209
 155        0.000134254
 156        0.000046653
 157       -0.000238790
 158       -0.000231791
 159       -0.000444094
 160        0.001043151
 161       -0.000158103
 162        0.000294660
 163       -0.000168597
 164       -0.000969344
 165        0.000052539
 166        0.000007106
 167        0.000228184
 168        0.000336370
 Sym= A   
 Ene=       -11.220633
 Spin= Alpha
 Occup=       1.000000
   1        0.987081650
   2        0.036171989
   3       -0.022127019
   4        0.000591012
   5       -0.000418889
   6        0.000444472
   7       -0.000733401
   8        0.000667948
   9       -0.000627460
  10        0.000447081
  11       -0.001017118
  12        0.000299862
  13       -0.000947274
  14        0.000274943
  15       -0.075503588
  16       -0.003119395
  17       -0.002365557
  18        0.000477661
  19        0.000713069
  20       -0.000185965
  21       -0.002701360
  22        0.000770553
  23       -0.001437717
  24        0.000335294
  25        0.000203433
  26        0.000359914
  27        0.000437597
  28       -0.000580613
  29       -0.002180617
  30        0.005693158
  31        0.000443199
  32       -0.001067700
  33       -0.000666988
  34       -0.002181599
  35        0.005693850
  36       -0.000313445
  37       -0.000050359
  38        0.001296113
  39       -0.035935895
  40       -0.002188662
  41        0.006203781
  42        0.000187277
  43        0.000285831
  44       -0.000076894
  45       -0.004664196
  46       -0.003466837
  47        0.000026576
  48       -0.000129167
  49        0.000067650
  50        0.000010331
  51        0.000145248
  52        0.000159020
  53        0.000241670
  54        0.000246902
  55       -0.000051850
  56       -0.000465255
  57        0.000238297
  58        0.000242045
  59        0.000248122
  60       -0.000042269
  61       -0.000477733
  62        0.000213285
  63       -0.000307358
  64        0.000051787
  65        0.003194591
  66       -0.000198946
  67       -0.000163284
  68        0.000010167
  69        0.001391052
  70       -0.000254791
  71        0.000626930
  72       -0.000008326
  73       -0.000013822
  74       -0.000046472
  75       -0.000059707
  76        0.000005627
  77       -0.000388214
  78       -0.000573206
  79        0.000177386
  80        0.000200524
  81       -0.000098787
  82       -0.000383909
  83       -0.000562143
  84        0.000142364
  85        0.000246841
  86       -0.000010541
  87        0.000048835
  88       -0.000358039
  89       -0.000083810
  90        0.000033588
  91       -0.000029746
  92        0.000061701
  93       -0.000348020
  94       -0.000073829
  95        0.000017639
  96       -0.000055873
  97        0.018647201
  98        0.000691273
  99       -0.003458791
 100        0.000139153
 101        0.000121353
 102       -0.000011589
 103       -0.000138317
 104       -0.001522135
 105        0.000797649
 106        0.000019743
 107       -0.000007856
 108        0.000010691
 109       -0.000013226
 110       -0.000024098
 111       -0.000099492
 112        0.000158772
 113        0.000074301
 114        0.000037630
 115       -0.000071064
 116       -0.000104550
 117        0.000140381
 118        0.000036627
 119        0.000101523
 120        0.000037877
 121       -0.001621143
 122       -0.000126630
 123        0.002221510
 124       -0.000033261
 125       -0.000039861
 126        0.000004800
 127       -0.000216729
 128       -0.000965374
 129        0.000353072
 130       -0.000016471
 131       -0.000007261
 132       -0.000016689
 133       -0.000004526
 134        0.000022746
 135       -0.000098386
 136       -0.000247008
 137        0.000008837
 138        0.000020147
 139       -0.000004896
 140       -0.000028051
 141       -0.000020903
 142       -0.000014461
 143        0.000006053
 144        0.000019270
 145        0.006081237
 146        0.000131106
 147        0.000059241
 148       -0.000000977
 149        0.000012846
 150        0.000000572
 151        0.000014763
 152       -0.000056770
 153       -0.000050658
 154        0.000007767
 155       -0.000010639
 156        0.000000733
 157       -0.000009999
 158        0.000001299
 159       -0.000036434
 160        0.000020782
 161       -0.000000150
 162        0.000008964
 163        0.000006676
 164       -0.000033917
 165        0.000011035
 166       -0.000007183
 167        0.000014571
 168        0.000009212
 Sym= A   
 Ene=       -11.220011
 Spin= Alpha
 Occup=       1.000000
   1       -0.031952240
   2       -0.000890105
   3        0.000258821
   4       -0.000073468
   5       -0.000018591
   6       -0.000018326
   7       -0.000011930
   8        0.000492777
   9       -0.000256082
  10        0.000028762
  11        0.000005418
  12       -0.000027136
  13       -0.000040020
  14       -0.000063385
  15        0.058308136
  16        0.003360531
  17       -0.011091289
  18        0.000695316
  19        0.000121202
  20        0.000204176
  21       -0.003114596
  22       -0.000681488
  23       -0.000863837
  24       -0.000242557
  25        0.000387023
  26        0.000064256
  27        0.000595922
  28        0.000090380
  29        0.000157600
  30        0.000410934
  31        0.000047550
  32        0.000097842
  33        0.000047036
  34        0.000158021
  35        0.000405933
  36        0.000091143
  37        0.000039767
  38       -0.000065149
  39       -0.981260760
  40       -0.038596845
  41        0.038552567
  42       -0.000246128
  43        0.000444743
  44       -0.000329317
  45       -0.000800138
  46        0.001336945
  47       -0.000983870
  48       -0.000293318
  49        0.000057831
  50       -0.000162047
  51        0.000036434
  52        0.000370102
  53       -0.000034715
  54        0.000449668