
                                        *****************
                                        * O   R   C   A *
                                        *****************

                                            #,                                       
                                            ###                                      
                                            ####                                     
                                            #####                                    
                                            ######                                   
                                           ########,                                 
                                     ,,################,,,,,                         
                               ,,#################################,,                 
                          ,,##########################################,,             
                       ,#########################################, ''#####,          
                    ,#############################################,,   '####,        
                  ,##################################################,,,,####,       
                ,###########''''           ''''###############################       
              ,#####''   ,,,,##########,,,,          '''####'''          '####       
            ,##' ,,,,###########################,,,                        '##       
           ' ,,###''''                  '''############,,,                           
         ,,##''                                '''############,,,,        ,,,,,,###''
      ,#''                                            '''#######################'''  
     '                                                          ''''####''''         
             ,#######,   #######,   ,#######,      ##                                
            ,#'     '#,  ##    ##  ,#'     '#,    #''#        ######   ,####,        
            ##       ##  ##   ,#'  ##            #'  '#       #        #'  '#        
            ##       ##  #######   ##           ,######,      #####,   #    #        
            '#,     ,#'  ##    ##  '#,     ,#' ,#      #,         ##   #,  ,#        
             '#######'   ##     ##  '#######'  #'      '#     #####' # '####'        



                  #######################################################
                  #                        -***-                        #
                  #          Department of theory and spectroscopy      #
                  #    Directorship and core code : Frank Neese         #
                  #        Max Planck Institute fuer Kohlenforschung    #
                  #                Kaiser Wilhelm Platz 1               #
                  #                 D-45470 Muelheim/Ruhr               #
                  #                      Germany                        #
                  #                                                     #
                  #                  All rights reserved                #
                  #                        -***-                        #
                  #######################################################


                         Program Version 5.0.0 -  RELEASE  -
                                (SVN: $Rev: 19529$)
                ($Date: 2021-06-28 11:36:33 +0200 (Mo, 28 Jun 2021) $)


 With contributions from (in alphabetic order):
   Daniel Aravena         : Magnetic Suceptibility
   Michael Atanasov       : Ab Initio Ligand Field Theory (pilot matlab implementation)
   Alexander A. Auer      : GIAO ZORA, VPT2 properties, NMR spectrum
   Ute Becker             : Parallelization
   Giovanni Bistoni       : ED, misc. LED, open-shell LED, HFLD
   Martin Brehm           : Molecular dynamics
   Dmytro Bykov           : SCF Hessian
   Vijay G. Chilkuri      : MRCI spin determinant printing, contributions to CSF-ICE
   Dipayan Datta          : RHF DLPNO-CCSD density
   Achintya Kumar Dutta   : EOM-CC, STEOM-CC
   Dmitry Ganyushin       : Spin-Orbit,Spin-Spin,Magnetic field MRCI
   Miquel Garcia          : C-PCM Hessian, Gaussian charge scheme
   Yang Guo               : DLPNO-NEVPT2, F12-NEVPT2, CIM, IAO-localization
   Andreas Hansen         : Spin unrestricted coupled pair/coupled cluster methods
   Benjamin Helmich-Paris : MC-RPA, TRAH-SCF, COSX integrals
   Lee Huntington         : MR-EOM, pCC
   Robert Izsak           : Overlap fitted RIJCOSX, COSX-SCS-MP3, EOM
   Marcus Kettner         : VPT2
   Christian Kollmar      : KDIIS, OOCD, Brueckner-CCSD(T), CCSD density, CASPT2, CASPT2-K
   Simone Kossmann        : Meta GGA functionals, TD-DFT gradient, OOMP2, MP2 Hessian
   Martin Krupicka        : Initial AUTO-CI
   Lucas Lang             : DCDCAS
   Marvin Lechner         : AUTO-CI (C++ implementation), FIC-MRCC
   Dagmar Lenk            : GEPOL surface, SMD
   Dimitrios Liakos       : Extrapolation schemes; Compound Job, initial MDCI parallelization
   Dimitrios Manganas     : Further ROCIS development; embedding schemes
   Dimitrios Pantazis     : SARC Basis sets
   Anastasios Papadopoulos: AUTO-CI, single reference methods and gradients
   Taras Petrenko         : DFT Hessian,TD-DFT gradient, ASA, ECA, R-Raman, ABS, FL, XAS/XES, NRVS
   Peter Pinski           : DLPNO-MP2, DLPNO-MP2 Gradient
   Christoph Reimann      : Effective Core Potentials
   Marius Retegan         : Local ZFS, SOC
   Christoph Riplinger    : Optimizer, TS searches, QM/MM, DLPNO-CCSD(T), (RO)-DLPNO pert. Triples
   Tobias Risthaus        : Range-separated hybrids, TD-DFT gradient, RPA, STAB
   Michael Roemelt        : Original ROCIS implementation
   Masaaki Saitow         : Open-shell DLPNO-CCSD energy and density
   Barbara Sandhoefer     : DKH picture change effects
   Avijit Sen             : IP-ROCIS
   Kantharuban Sivalingam : CASSCF convergence, NEVPT2, FIC-MRCI
   Bernardo de Souza      : ESD, SOC TD-DFT
   Georgi Stoychev        : AutoAux, RI-MP2 NMR
   Willem Van den Heuvel  : Paramagnetic NMR
   Boris Wezisla          : Elementary symmetry handling
   Frank Wennmohs         : Technical directorship


 We gratefully acknowledge several colleagues who have allowed us to
 interface, adapt or use parts of their codes:
   Stefan Grimme, W. Hujo, H. Kruse, P. Pracht,  : VdW corrections, initial TS optimization,
                  C. Bannwarth, S. Ehlert          DFT functionals, gCP, sTDA/sTD-DF
   Ed Valeev, F. Pavosevic, A. Kumar             : LibInt (2-el integral package), F12 methods
   Garnet Chan, S. Sharma, J. Yang, R. Olivares  : DMRG
   Ulf Ekstrom                                   : XCFun DFT Library
   Mihaly Kallay                                 : mrcc  (arbitrary order and MRCC methods)
   Jiri Pittner, Ondrej Demel                    : Mk-CCSD
   Frank Weinhold                                : gennbo (NPA and NBO analysis)
   Christopher J. Cramer and Donald G. Truhlar   : smd solvation model
   Lars Goerigk                                  : TD-DFT with DH, B97 family of functionals
   V. Asgeirsson, H. Jonsson                     : NEB implementation
   FAccTs GmbH                                   : IRC, NEB, NEB-TS, DLPNO-Multilevel, CI-OPT
                                                   MM, QMMM, 2- and 3-layer-ONIOM, Crystal-QMMM,
                                                   LR-CPCM, SF, NACMEs, symmetry and pop. for TD-DFT,
                                                   nearIR, NL-DFT gradient (VV10), updates on ESD,
                                                   ML-optimized integration grids
   S Lehtola, MJT Oliveira, MAL Marques          : LibXC Library
   Liviu Ungur et al                             : ANISO software


 Your calculation uses the libint2 library for the computation of 2-el integrals
 For citations please refer to: http://libint.valeyev.net

 Your ORCA version has been built with support for libXC version: 5.1.0
 For citations please refer to: https://tddft.org/programs/libxc/

 This ORCA versions uses:
   CBLAS   interface :  Fast vector & matrix operations
   LAPACKE interface :  Fast linear algebra routines
   SCALAPACK package :  Parallel linear algebra routines
   Shared memory     :  Shared parallel matrices
   BLAS/LAPACK       :  OpenBLAS 0.3.15  USE64BITINT DYNAMIC_ARCH NO_AFFINITY SkylakeX SINGLE_THREADED
        Core in use  :  SkylakeX
   Copyright (c) 2011-2014, The OpenBLAS Project


================================================================================

----- Orbital basis set information -----
Your calculation utilizes the basis: cc-pVDZ 
       H, B-Ne : Obtained from the ccRepo (grant-hill.group.shef.ac.uk/ccrepo) Feb. 2017
                 T. H. Dunning, Jr., J. Chem. Phys. 90, 1007 (1989)
            He : Obtained from the ccRepo (grant-hill.group.shef.ac.uk/ccrepo) Feb. 2017
                 D. E. Woon, T. H. Dunning, Jr., J. Chem. Phys. 100, 2975 (1994)
  Li-Be, Na-Mg : Obtained from the ccRepo (grant-hill.group.shef.ac.uk/ccrepo) Feb. 2017
                 B. P. Prascher, D. E. Woon, K. A. Peterson, T. H. Dunning, Jr., A. K. Wilson, Theor. Chem. Acc. 128, 69 (2011)
         Al-Ar : Obtained from the ccRepo (grant-hill.group.shef.ac.uk/ccrepo) Feb. 2017
                 D. E. Woon, T. H. Dunning, Jr., J. Chem. Phys. 98, 1358 (1993)
            Ca : Obtained from the Peterson Research Group Website (tyr0.chem.wsu.edu/~kipeters) Feb. 2017
                 J. Koput, K. A. Peterson, J. Phys. Chem. 106, 9595 (2002)
         Sc-Zn : Obtained from the ccRepo (grant-hill.group.shef.ac.uk/ccrepo) Feb. 2017
                 N. B. Balabanov, K. A. Peterson, J. Chem. Phys. 123, 064107 (2005)
                 N. B. Balabanov, K. A. Peterson, J. Chem. Phys. 125, 074110 (2006)
         Ga-Kr : Obtained from the ccRepo (grant-hill.group.shef.ac.uk/ccrepo) Feb. 2017
                 A. K. Wilson, D. E. Woon, K. A. Peterson, T. H. Dunning, Jr., J. Chem. Phys. 110, 7667 (1999)

================================================================================
                                        WARNINGS
                       Please study these warnings very carefully!
================================================================================


INFO   : the flag for use of the SHARK integral package has been found!

================================================================================
                                       INPUT FILE
================================================================================
NAME = C60-sym.inp
|  1> ! RHF cc-pVDZ Usesym pal8
|  2> 
|  3> *xyz 0 1
|  4>  C                  0.17823418   -0.42164323    0.09565119
|  5>  C                  1.71823511   -0.42159910    0.09557290
|  6>  C                  2.39581061    0.75205293    0.09551743
|  7>  C                  1.62577918    2.08571050    0.09554027
|  8>  C                  0.27057274    2.08567496    0.09560319
|  9>  C                 -0.49939037    0.75197568    0.09566016
| 10>  C                 -0.29764057   -1.58554271   -0.79343964
| 11>  C                  0.94824467   -2.30482350   -1.34298703
| 12>  C                  2.19411771   -1.58546950   -0.79354640
| 13>  C                  3.29047211   -1.43602853   -1.57600328
| 14>  C                  3.64167728    0.92187162   -0.79363343
| 15>  C                  2.39573304    3.07979634   -0.79359880
| 16>  C                  1.71807245    3.95454959   -1.57601146
| 17>  C                  0.17807323    3.95450284   -1.57594943
| 18>  C                 -0.49948258    3.07971459   -0.79350035
| 19>  C                 -1.74536573    2.36036611   -1.34296092
| 20>  C                 -1.74530211    0.92174422   -0.79343253
| 21>  C                 -2.16407157   -0.10248057   -1.57583829
| 22>  C                 -1.39404387   -1.43614394   -1.57584190
| 23>  C                  0.94821837   -2.78840832   -2.60897537
| 24>  C                 -0.29770920   -2.61863957   -3.49806243
| 25>  C                 -1.39408517   -1.98566616   -3.01446536
| 26>  C                 -2.16414938   -0.99163127   -3.90356997
| 27>  C                 -2.64002792    0.17224245   -3.01444935
| 28>  C                 -2.64009316    1.43823148   -3.49803454
| 29>  C                 -2.16420539    2.60212618   -2.60894011
| 30>  C                 -1.39425314    3.59619146   -3.49808944
| 31>  C                 -0.29787072    4.22921858   -3.01456765
| 32>  C                  3.64162490    2.36049587   -1.34314427
| 33>  C                  2.19382128    3.19618464   -5.71927447
| 34>  C                  3.29022186    3.04678758   -4.93687678
| 35>  C                  4.06025620    1.71312889   -4.93687731
| 36>  C                  3.64148891    0.68889917   -5.71927852
| 37>  C                  2.39556326    0.85866399   -6.60836629
| 38>  C                  0.17794164    2.03224124   -6.60829905
| 39>  C                 -0.29793775    3.19611649   -5.71917848
| 40>  C                  0.94794358    3.91547025   -5.16973199
| 41>  C                  0.94798075    4.39904412   -3.90374283
| 42>  C                  2.19389569    4.22928771   -3.01466412
| 43>  C                  3.29026522    3.59630751   -3.49826617
| 44>  C                  4.53621920    1.43839705   -3.49826888
| 45>  C                  4.53628351    0.17240824   -3.01469400
| 46>  C                  4.06040419   -0.99148381   -3.90378394
| 47>  C                  3.64156049   -0.74972201   -5.16976724
| 48>  C                  2.39566533   -1.46907298   -5.71922364
| 49>  C                  1.62559666   -0.47504074   -6.60832906
| 50>  C                  0.27039476   -0.47507361   -6.60827661
| 51>  C                 -0.49962950    0.85858503   -6.60825947
| 52>  C                 -1.39429089    3.04667285   -4.93671591
| 53>  C                 -2.16426181    1.71297411   -4.93667364
| 54>  C                 -1.74548392    0.68876342   -5.71909678
| 55>  C                 -1.74542598   -0.74985794   -5.16957309
| 56>  C                 -0.49954852   -1.46914680   -5.71912001
| 57>  C                  0.17810642   -2.34389385   -4.93670439
| 58>  C                  1.71811031   -2.34386028   -4.93675859
| 59>  C                  2.19406394   -2.61858453   -3.49813556
| 60>  C                  3.29044415   -1.98556035   -3.01462044
| 61>  C                  4.06033885    2.60227132   -2.60915116
| 62>  C                  4.06045287   -0.10233677   -1.57605659
| 63>  C                  1.71793581    2.03228443   -6.60835736
| 64> *
| 65> 
| 66> 
| 67> 
| 68> 
| 69>                          ****END OF INPUT****
================================================================================

------------------------------------------------------------------------------
                            SYMMETRY HANDLING SETUP
------------------------------------------------------------------------------

------------------
SYMMETRY DETECTION
------------------
The point group will now be determined using a tolerance of 1.0000e-04.
Splitting atom subsets according to nuclear charge, mass and basis set.
Splitting atom subsets according to distance from the molecule's center.
Identifying relative distance patterns of the atoms.
Splitting atom subsets according to atoms' relative distance patterns.
Bring atoms of each subset into input order.
The molecule is neither linear nor planar.
The molecule has a center of inversion.
Analyzing the first atom subset for its symmetry.
The cycle centers form a regular icosahedron.
Testing point group Ih.
Success!
This point group has been found:    Ih
Largest non-degenerate subgroup:    D2h


Symmetry-perfected Cartesians (point groups Ih and D2h):

Atom          Symmetry-perfected Cartesians (x, y, z; au)
  0       0.000000000000   -1.280479186962    6.780628314824
  1       2.354384734216   -2.735568975302    5.881333368947
  2       4.426243580608   -1.455089788339    5.089953709518
  3       4.426243580608    1.455089788339    5.089953709518
  4       2.354384734216    2.735568975302    5.881333368947
  5      -0.000000000000    1.280479186962    6.780628314824
  6      -2.354384734216   -2.735568975302    5.881333368947
  7      -1.455089788339   -5.089953709518    4.426243580608
  8       1.455089788339   -5.089953709518    4.426243580608
  9       2.735568975302   -5.881333368947    2.354384734216
 10       5.881333368947   -2.354384734216    2.735568975302
 11       5.881333368947    2.354384734216    2.735568975302
 12       5.089953709518    4.426243580608    1.455089788339
 13       2.735568975302    5.881333368947    2.354384734216
 14       1.455089788339    5.089953709518    4.426243580608
 15      -1.455089788339    5.089953709518    4.426243580608
 16      -2.354384734216    2.735568975302    5.881333368947
 17      -4.426243580608    1.455089788339    5.089953709518
 18      -4.426243580608   -1.455089788339    5.089953709518
 19      -2.735568975302   -5.881333368947    2.354384734216
 20      -5.089953709518   -4.426243580608    1.455089788339
 21      -5.881333368947   -2.354384734216    2.735568975302
 22      -6.780628314824   -0.000000000000    1.280479186962
 23      -5.881333368947    2.354384734216    2.735568975302
 24      -5.089953709518    4.426243580608    1.455089788339
 25      -2.735568975302    5.881333368947    2.354384734216
 26      -1.280479186962    6.780628314824    0.000000000000
 27       1.280479186962    6.780628314824   -0.000000000000
 28       6.780628314824    0.000000000000    1.280479186962
 29       2.354384734216    2.735568975302   -5.881333368947
 30       4.426243580608    1.455089788339   -5.089953709518
 31       4.426243580608   -1.455089788339   -5.089953709518
 32       2.354384734216   -2.735568975302   -5.881333368947
 33      -0.000000000000   -1.280479186962   -6.780628314824
 34      -2.354384734216    2.735568975302   -5.881333368947
 35      -1.455089788339    5.089953709518   -4.426243580608
 36       1.455089788339    5.089953709518   -4.426243580608
 37       2.735568975302    5.881333368947   -2.354384734216
 38       5.089953709518    4.426243580608   -1.455089788339
 39       5.881333368947    2.354384734216   -2.735568975302
 40       5.881333368947   -2.354384734216   -2.735568975302
 41       5.089953709518   -4.426243580608   -1.455089788339
 42       2.735568975302   -5.881333368947   -2.354384734216
 43       1.455089788339   -5.089953709518   -4.426243580608
 44      -1.455089788339   -5.089953709518   -4.426243580608
 45      -2.354384734216   -2.735568975302   -5.881333368947
 46      -4.426243580608   -1.455089788339   -5.089953709518
 47      -4.426243580608    1.455089788339   -5.089953709518
 48      -2.735568975302    5.881333368947   -2.354384734216
 49      -5.089953709518    4.426243580608   -1.455089788339
 50      -5.881333368947    2.354384734216   -2.735568975302
 51      -6.780628314824   -0.000000000000   -1.280479186962
 52      -5.881333368947   -2.354384734216   -2.735568975302
 53      -5.089953709518   -4.426243580608   -1.455089788339
 54      -2.735568975302   -5.881333368947   -2.354384734216
 55      -1.280479186962   -6.780628314824    0.000000000000
 56       1.280479186962   -6.780628314824   -0.000000000000
 57       6.780628314824    0.000000000000   -1.280479186962
 58       5.089953709518   -4.426243580608    1.455089788339
 59      -0.000000000000    1.280479186962   -6.780628314824


-----------------------------------------------
SYMMETRY-PERFECTED CARTESIAN COORDINATES (A.U.)
-----------------------------------------------
Warning (ORCA_SYM): Coordinates were not cleaned so far!

------------------
SYMMETRY REDUCTION
------------------
ORCA supports only abelian point groups.
It is now checked, if the determined point group is supported:
Point Group ( D2h   ) is          ... supported

(Re)building abelian point group:
Creating Character Table          ... done
Making direct product table       ... done
Constructing symmetry operations  ... done
Creating atom transfer table      ... done
Creating asymmetric unit          ... done

----------------------
ASYMMETRIC UNIT IN D2h
----------------------
  #  AT     MASS              COORDS (A.U.)             BAS
   0 C   12.0110   0.00000000  -1.28047919   6.78062831   0
   1 C   12.0110   2.35438473  -2.73556898   5.88133337   0
   2 C   12.0110   4.42624358  -1.45508979   5.08995371   0
   7 C   12.0110  -1.45508979  -5.08995371   4.42624358   0
   9 C   12.0110   2.73556898  -5.88133337   2.35438473   0
  10 C   12.0110   5.88133337  -2.35438473   2.73556898   0
  12 C   12.0110   5.08995371   4.42624358   1.45508979   0
  22 C   12.0110  -6.78062831  -0.00000000   1.28047919   0
  26 C   12.0110  -1.28047919   6.78062831   0.00000000   0

----------------------
SYMMETRY ADAPTED BASIS
----------------------
The coefficients for the symmetry adapted linear combinations (SALCS)
of basis functions will now be computed:
Number of basis functions         ...   840
Preparing memory                  ... done
Constructing Gamma(red)           ... done
Reducing Gamma(red)               ... done
Constructing SALCs                ... done
Checking SALC integrity           ... nothing suspicious
Normalizing SALCs                 ... done

Storing the symmetry object:
Symmetry file                     ... C60-sym.sym.tmp
Writing symmetry information      ... done

                       ****************************
                       * Single Point Calculation *
                       ****************************

---------------------------------
CARTESIAN COORDINATES (ANGSTROEM)
---------------------------------
  C      0.000000   -0.677600    3.588154
  C      1.245887   -1.447601    3.112268
  C      2.342267   -0.770000    2.693487
  C      2.342267    0.770000    2.693487
  C      1.245887    1.447601    3.112268
  C     -0.000000    0.677600    3.588154
  C     -1.245887   -1.447601    3.112268
  C     -0.770000   -2.693487    2.342267
  C      0.770000   -2.693487    2.342267
  C      1.447601   -3.112268    1.245887
  C      3.112268   -1.245887    1.447601
  C      3.112268    1.245887    1.447601
  C      2.693487    2.342267    0.770000
  C      1.447601    3.112268    1.245887
  C      0.770000    2.693487    2.342267
  C     -0.770000    2.693487    2.342267
  C     -1.245887    1.447601    3.112268
  C     -2.342267    0.770000    2.693487
  C     -2.342267   -0.770000    2.693487
  C     -1.447601   -3.112268    1.245887
  C     -2.693487   -2.342267    0.770000
  C     -3.112268   -1.245887    1.447601
  C     -3.588154   -0.000000    0.677600
  C     -3.112268    1.245887    1.447601
  C     -2.693487    2.342267    0.770000
  C     -1.447601    3.112268    1.245887
  C     -0.677600    3.588154    0.000000
  C      0.677600    3.588154   -0.000000
  C      3.588154    0.000000    0.677600
  C      1.245887    1.447601   -3.112268
  C      2.342267    0.770000   -2.693487
  C      2.342267   -0.770000   -2.693487
  C      1.245887   -1.447601   -3.112268
  C     -0.000000   -0.677600   -3.588154
  C     -1.245887    1.447601   -3.112268
  C     -0.770000    2.693487   -2.342267
  C      0.770000    2.693487   -2.342267
  C      1.447601    3.112268   -1.245887
  C      2.693487    2.342267   -0.770000
  C      3.112268    1.245887   -1.447601
  C      3.112268   -1.245887   -1.447601
  C      2.693487   -2.342267   -0.770000
  C      1.447601   -3.112268   -1.245887
  C      0.770000   -2.693487   -2.342267
  C     -0.770000   -2.693487   -2.342267
  C     -1.245887   -1.447601   -3.112268
  C     -2.342267   -0.770000   -2.693487
  C     -2.342267    0.770000   -2.693487
  C     -1.447601    3.112268   -1.245887
  C     -2.693487    2.342267   -0.770000
  C     -3.112268    1.245887   -1.447601
  C     -3.588154   -0.000000   -0.677600
  C     -3.112268   -1.245887   -1.447601
  C     -2.693487   -2.342267   -0.770000
  C     -1.447601   -3.112268   -1.245887
  C     -0.677600   -3.588154    0.000000
  C      0.677600   -3.588154   -0.000000
  C      3.588154    0.000000   -0.677600
  C      2.693487   -2.342267    0.770000
  C     -0.000000    0.677600   -3.588154

----------------------------
CARTESIAN COORDINATES (A.U.)
----------------------------
  NO LB      ZA    FRAG     MASS         X           Y           Z
   0 C     6.0000    0    12.011    0.000000   -1.280479    6.780628
   1 C     6.0000    0    12.011    2.354385   -2.735569    5.881333
   2 C     6.0000    0    12.011    4.426244   -1.455090    5.089954
   3 C     6.0000    0    12.011    4.426244    1.455090    5.089954
   4 C     6.0000    0    12.011    2.354385    2.735569    5.881333
   5 C     6.0000    0    12.011   -0.000000    1.280479    6.780628
   6 C     6.0000    0    12.011   -2.354385   -2.735569    5.881333
   7 C     6.0000    0    12.011   -1.455090   -5.089954    4.426244
   8 C     6.0000    0    12.011    1.455090   -5.089954    4.426244
   9 C     6.0000    0    12.011    2.735569   -5.881333    2.354385
  10 C     6.0000    0    12.011    5.881333   -2.354385    2.735569
  11 C     6.0000    0    12.011    5.881333    2.354385    2.735569
  12 C     6.0000    0    12.011    5.089954    4.426244    1.455090
  13 C     6.0000    0    12.011    2.735569    5.881333    2.354385
  14 C     6.0000    0    12.011    1.455090    5.089954    4.426244
  15 C     6.0000    0    12.011   -1.455090    5.089954    4.426244
  16 C     6.0000    0    12.011   -2.354385    2.735569    5.881333
  17 C     6.0000    0    12.011   -4.426244    1.455090    5.089954
  18 C     6.0000    0    12.011   -4.426244   -1.455090    5.089954
  19 C     6.0000    0    12.011   -2.735569   -5.881333    2.354385
  20 C     6.0000    0    12.011   -5.089954   -4.426244    1.455090
  21 C     6.0000    0    12.011   -5.881333   -2.354385    2.735569
  22 C     6.0000    0    12.011   -6.780628   -0.000000    1.280479
  23 C     6.0000    0    12.011   -5.881333    2.354385    2.735569
  24 C     6.0000    0    12.011   -5.089954    4.426244    1.455090
  25 C     6.0000    0    12.011   -2.735569    5.881333    2.354385
  26 C     6.0000    0    12.011   -1.280479    6.780628    0.000000
  27 C     6.0000    0    12.011    1.280479    6.780628   -0.000000
  28 C     6.0000    0    12.011    6.780628    0.000000    1.280479
  29 C     6.0000    0    12.011    2.354385    2.735569   -5.881333
  30 C     6.0000    0    12.011    4.426244    1.455090   -5.089954
  31 C     6.0000    0    12.011    4.426244   -1.455090   -5.089954
  32 C     6.0000    0    12.011    2.354385   -2.735569   -5.881333
  33 C     6.0000    0    12.011   -0.000000   -1.280479   -6.780628
  34 C     6.0000    0    12.011   -2.354385    2.735569   -5.881333
  35 C     6.0000    0    12.011   -1.455090    5.089954   -4.426244
  36 C     6.0000    0    12.011    1.455090    5.089954   -4.426244
  37 C     6.0000    0    12.011    2.735569    5.881333   -2.354385
  38 C     6.0000    0    12.011    5.089954    4.426244   -1.455090
  39 C     6.0000    0    12.011    5.881333    2.354385   -2.735569
  40 C     6.0000    0    12.011    5.881333   -2.354385   -2.735569
  41 C     6.0000    0    12.011    5.089954   -4.426244   -1.455090
  42 C     6.0000    0    12.011    2.735569   -5.881333   -2.354385
  43 C     6.0000    0    12.011    1.455090   -5.089954   -4.426244
  44 C     6.0000    0    12.011   -1.455090   -5.089954   -4.426244
  45 C     6.0000    0    12.011   -2.354385   -2.735569   -5.881333
  46 C     6.0000    0    12.011   -4.426244   -1.455090   -5.089954
  47 C     6.0000    0    12.011   -4.426244    1.455090   -5.089954
  48 C     6.0000    0    12.011   -2.735569    5.881333   -2.354385
  49 C     6.0000    0    12.011   -5.089954    4.426244   -1.455090
  50 C     6.0000    0    12.011   -5.881333    2.354385   -2.735569
  51 C     6.0000    0    12.011   -6.780628   -0.000000   -1.280479
  52 C     6.0000    0    12.011   -5.881333   -2.354385   -2.735569
  53 C     6.0000    0    12.011   -5.089954   -4.426244   -1.455090
  54 C     6.0000    0    12.011   -2.735569   -5.881333   -2.354385
  55 C     6.0000    0    12.011   -1.280479   -6.780628    0.000000
  56 C     6.0000    0    12.011    1.280479   -6.780628   -0.000000
  57 C     6.0000    0    12.011    6.780628    0.000000   -1.280479
  58 C     6.0000    0    12.011    5.089954   -4.426244    1.455090
  59 C     6.0000    0    12.011   -0.000000    1.280479   -6.780628

--------------------------------
INTERNAL COORDINATES (ANGSTROEM)
--------------------------------
 C      0   0   0     0.000000000000     0.00000000     0.00000000
 C      1   0   0     1.540000932622     0.00000000     0.00000000
 C      2   1   0     1.355200224616   120.00044041     0.00000000
 C      3   2   1     1.539997051208   119.99978783     0.00000000
 C      4   3   2     1.355206441927   119.99991105     0.00000000
 C      1   2   3     1.355196065797   119.99965267     0.00000000
 C      1   2   3     1.540000415981   107.99908470   142.62206079
 C      7   1   2     1.539999097392   108.00046444     0.00000000
 C      8   7   1     1.539985329479   107.99990756     0.00000000
 C      9   8   7     1.355199004934   120.00039482   217.37634450
 C      3   2   1     1.540003700882   120.00061571   221.80849619
 C      4   3   2     1.540001262862   107.99992949   217.37543123
 C     12   4   3     1.355207251365   119.99922835   142.62209443
 C     13  12   4     1.539999221959   119.99994598     0.00000000
 C     14  13  12     1.355198480222   120.00071479     0.00000000
 C     15  14  13     1.539998044517   120.00020741   221.81064739
 C      6   1   2     1.540001049498   119.99981912   138.18791558
 C     17   6   1     1.355198529501   119.99988278     0.00000000
 C      7   1   2     1.355202377943   119.99955801   217.37888800
 C      8   7   1     1.355205060440   120.00043771   217.37732032
 C     20   8   7     1.540010629321   119.99980757     0.00000000
 C     21  20   8     1.355198041422   119.99982759     0.00000000
 C     22  21  20     1.540003655055   120.00013303   138.19013802
 C     23  22  21     1.539999317483   108.00001922   217.37749776
 C     24  23  22     1.355205838360   120.00027932   142.62318335
 C     16  15  14     1.355204007428   120.00048891     0.00000000
 C     26  16  15     1.539993110121   119.99939403     0.00000000
 C     27  26  16     1.355201485738   120.00028028     0.00000000
 C     11   3   2     1.540000616464   107.99927107   142.62388481
 C     28  27  26     3.819833389850    98.55559491   124.57607586
 C     30  28  27     1.355197350454    98.55499775   216.41945035
 C     31  30  28     1.539999476036   120.00027785   124.57535414
 C     32  31  30     1.355198958055   120.00016627     0.00000000
 C     33  32  31     1.540009052636   119.99964335     0.00000000
 C     30  28  27     2.491766374525    81.44437906     0.00000000
 C     35  30  28     1.540000707593    71.99965965    23.76338540
 C     30  28  27     1.539993496556    24.94534976    65.32281720
 C     37  30  28     1.355201919408   119.99984683    33.49720495
 C     38  37  30     1.539994230193   120.00060192     0.00000000
 C     39  38  37     1.355197779908   119.99926948     0.00000000
 C     32  31  30     1.540004083159   108.00099578   217.37629099
 C     41  32  31     1.355201953861   120.00014811   142.62320860
 C     42  41  32     1.539995698912   119.99998594     0.00000000
 C     43  42  41     1.355209404058   119.99997171     0.00000000
 C     44  43  42     1.540007436103   120.00032017   221.81085449
 C     45  44  43     1.540004642379   108.00053305   142.62287810
 C     46  45  44     1.355201901414   120.00033626   217.37763720
 C     35  30  28     1.355201664181   144.00029810   267.19835871
 C     36  35  30     1.355201565294   119.99987292   217.37677163
 C     25  24  23     1.539993976102   119.99969127     0.00000000
 C     50  25  24     1.355200512349   119.99992136     0.00000000
 C     23  22  21     1.355192801286   119.99985728     0.00000000
 C     52  23  22     1.539996404781   120.00016730     0.00000000
 C     53  52  23     1.355202133119   119.99979468     0.00000000
 C     45  44  43     1.355206692664   119.99990462     0.00000000
 C     20   8   7     1.539992580313   120.00020895   138.19007128
 C     56  20   8     1.355195944730   120.00015049     0.00000000
 C     29  11   3     1.355193781595   119.99958704   217.37874457
 C     11   3   2     1.355198074907   119.99987392     0.00000000
 C     34  33  32     1.355198840857   119.99986378     0.00000000

---------------------------
INTERNAL COORDINATES (A.U.)
---------------------------
 C      0   0   0     0.000000000000     0.00000000     0.00000000
 C      1   0   0     2.910180008640     0.00000000     0.00000000
 C      2   1   0     2.560957281154   120.00044041     0.00000000
 C      3   2   1     2.910172673828   119.99978783     0.00000000
 C      4   3   2     2.560969030167   119.99991105     0.00000000
 C      1   2   3     2.560949422125   119.99965267     0.00000000
 C      1   2   3     2.910179032329   107.99908470   142.62206079
 C      7   1   2     2.910176540557   108.00046444     0.00000000
 C      8   7   1     2.910150522971   107.99990756     0.00000000
 C      9   8   7     2.560954976287   120.00039482   217.37634450
 C      3   2   1     2.910185239891   120.00061571   221.80849619
 C      4   3   2     2.910180632703   107.99992949   217.37543123
 C     12   4   3     2.560970559785   119.99922835   142.62209443
 C     13  12   4     2.910176775954   119.99994598     0.00000000
 C     14  13  12     2.560953984726   120.00071479     0.00000000
 C     15  14  13     2.910174550912   120.00020741   221.81064739
 C      6   1   2     2.910180229503   119.99981912   138.18791558
 C     17   6   1     2.560954077849   119.99988278     0.00000000
 C      7   1   2     2.560961350351   119.99955801   217.37888800
 C      8   7   1     2.560966419536   120.00043771   217.37732032
 C     20   8   7     2.910198332745   119.99980757     0.00000000
 C     21  20   8     2.560953155513   119.99982759     0.00000000
 C     22  21  20     2.910185153292   120.00013303   138.19013802
 C     23  22  21     2.910176956469   108.00001922   217.37749776
 C     24  23  22     2.560967889591   120.00027932   142.62318335
 C     16  15  14     2.560964429631   120.00048891     0.00000000
 C     26  16  15     2.910165226255   119.99939403     0.00000000
 C     27  26  16     2.560959664327   120.00028028     0.00000000
 C     11   3   2     2.910179411187   107.99927107   142.62388481
 C     28  27  26     7.218438984024    98.55559491   124.57607586
 C     30  28  27     2.560951849774    98.55499775   216.41945035
 C     31  30  28     2.910177256091   120.00027785   124.57535414
 C     32  31  30     2.560954887700   120.00016627     0.00000000
 C     33  32  31     2.910195353242   119.99964335     0.00000000
 C     30  28  27     4.708756037566    81.44437906     0.00000000
 C     35  30  28     2.910179583395    71.99965965    23.76338540
 C     30  28  27     2.910165956511    24.94534976    65.32281720
 C     37  30  28     2.560960483845   119.99984683    33.49720495
 C     38  37  30     2.910167342883   120.00060192     0.00000000
 C     39  38  37     2.560952661325   119.99926948     0.00000000
 C     32  31  30     2.910185962291   108.00099578   217.37629099
 C     41  32  31     2.560960548952   120.00014811   142.62320860
 C     42  41  32     2.910170118359   119.99998594     0.00000000
 C     43  42  41     2.560974627785   119.99997171     0.00000000
 C     44  43  42     2.910192298437   120.00032017   221.81085449
 C     45  44  43     2.910187019063   108.00053305   142.62287810
 C     46  45  44     2.560960449841   120.00033626   217.37763720
 C     35  30  28     2.560960001536   144.00029810   267.19835871
 C     36  35  30     2.560959814667   119.99987292   217.37677163
 C     25  24  23     2.910166862722   119.99969127     0.00000000
 C     50  25  24     2.560957824889   119.99992136     0.00000000
 C     23  22  21     2.560943253092   119.99985728     0.00000000
 C     52  23  22     2.910171452259   120.00016730     0.00000000
 C     53  52  23     2.560960887701   119.99979468     0.00000000
 C     45  44  43     2.560969503991   119.99990462     0.00000000
 C     20   8   7     2.910164225063   120.00020895   138.19007128
 C     56  20   8     2.560949193341   120.00015049     0.00000000
 C     29  11   3     2.560945105608   119.99958704   217.37874457
 C     11   3   2     2.560953218791   119.99987392     0.00000000
 C     34  33  32     2.560954666226   119.99986378     0.00000000

---------------------
BASIS SET INFORMATION
---------------------
There are 1 groups of distinct atoms

 Group   1 Type C   : 17s4p1d contracted to 3s2p1d pattern {881/31/1}

Atom   0C    basis set group =>   1
Atom   1C    basis set group =>   1
Atom   2C    basis set group =>   1
Atom   3C    basis set group =>   1
Atom   4C    basis set group =>   1
Atom   5C    basis set group =>   1
Atom   6C    basis set group =>   1
Atom   7C    basis set group =>   1
Atom   8C    basis set group =>   1
Atom   9C    basis set group =>   1
Atom  10C    basis set group =>   1
Atom  11C    basis set group =>   1
Atom  12C    basis set group =>   1
Atom  13C    basis set group =>   1
Atom  14C    basis set group =>   1
Atom  15C    basis set group =>   1
Atom  16C    basis set group =>   1
Atom  17C    basis set group =>   1
Atom  18C    basis set group =>   1
Atom  19C    basis set group =>   1
Atom  20C    basis set group =>   1
Atom  21C    basis set group =>   1
Atom  22C    basis set group =>   1
Atom  23C    basis set group =>   1
Atom  24C    basis set group =>   1
Atom  25C    basis set group =>   1
Atom  26C    basis set group =>   1
Atom  27C    basis set group =>   1
Atom  28C    basis set group =>   1
Atom  29C    basis set group =>   1
Atom  30C    basis set group =>   1
Atom  31C    basis set group =>   1
Atom  32C    basis set group =>   1
Atom  33C    basis set group =>   1
Atom  34C    basis set group =>   1
Atom  35C    basis set group =>   1
Atom  36C    basis set group =>   1
Atom  37C    basis set group =>   1
Atom  38C    basis set group =>   1
Atom  39C    basis set group =>   1
Atom  40C    basis set group =>   1
Atom  41C    basis set group =>   1
Atom  42C    basis set group =>   1
Atom  43C    basis set group =>   1
Atom  44C    basis set group =>   1
Atom  45C    basis set group =>   1
Atom  46C    basis set group =>   1
Atom  47C    basis set group =>   1
Atom  48C    basis set group =>   1
Atom  49C    basis set group =>   1
Atom  50C    basis set group =>   1
Atom  51C    basis set group =>   1
Atom  52C    basis set group =>   1
Atom  53C    basis set group =>   1
Atom  54C    basis set group =>   1
Atom  55C    basis set group =>   1
Atom  56C    basis set group =>   1
Atom  57C    basis set group =>   1
Atom  58C    basis set group =>   1
Atom  59C    basis set group =>   1
--------------------------------------------------------------------------
WARNING: There was an error initializing an OpenFabrics device.

  Local host:   cnode13
  Local device: mlx5_0
--------------------------------------------------------------------------


           ************************************************************
           *        Program running with 8 parallel MPI-processes     *
           *              working on a common directory               *
           ************************************************************
------------------------------------------------------------------------------
                           ORCA GTO INTEGRAL CALCULATION
------------------------------------------------------------------------------
------------------------------------------------------------------------------
                   ___                                                        
                  /   \      - P O W E R E D   B Y -                         
                 /     \                                                     
                 |  |  |   _    _      __       _____    __    __             
                 |  |  |  | |  | |    /  \     |  _  \  |  |  /  |          
                  \  \/   | |  | |   /    \    | | | |  |  | /  /          
                 / \  \   | |__| |  /  /\  \   | |_| |  |  |/  /          
                |  |  |   |  __  | /  /__\  \  |    /   |      \           
                |  |  |   | |  | | |   __   |  |    \   |  |\   \          
                \     /   | |  | | |  |  |  |  | |\  \  |  | \   \       
                 \___/    |_|  |_| |__|  |__|  |_| \__\ |__|  \__/        
                                                                              
                      - O R C A' S   B I G   F R I E N D -                    
                                      &                                       
                       - I N T E G R A L  F E E D E R -                       
                                                                              
 v1 FN, 2020, v2 2021                                                         
------------------------------------------------------------------------------


Reading SHARK input file C60-sym.SHARKINP.tmp ... ok
----------------------
SHARK INTEGRAL PACKAGE
----------------------

Number of atoms                             ...     60
Number of basis functions                   ...    840
Number of shells                            ...    360
Maximum angular momentum                    ...      2
Integral batch strategy                     ... SHARK/LIBINT Hybrid
RI-J (if used) integral strategy            ... SPLIT-RIJ (Revised 2003 algorithm where possible)
Printlevel                                  ...      1
Contraction scheme used                     ... SEGMENTED contraction
Coulomb Range Separation                    ... NOT USED
Exchange Range Separation                   ... NOT USED
Finite Nucleus Model                        ... NOT USED
Auxiliary Coulomb fitting basis             ... NOT available
Auxiliary J/K fitting basis                 ... NOT available
Auxiliary Correlation fitting basis         ... NOT available
Auxiliary 'external' fitting basis          ... NOT available
Integral threshold                          ...     1.000000e-10
Primitive cut-off                           ...     1.000000e-11
Primitive pair pre-selection threshold      ...     1.000000e-11

Calculating pre-screening integrals         ... done (  1.4 sec) Dimension = 360
Organizing shell pair data                  ... done (  0.3 sec)
Shell pair information
Total number of shell pairs                 ...     64980
Shell pairs after pre-screening             ...     50400
Total number of primitive shell pairs       ...    875400
Primitive shell pairs kept                  ...    231810
          la=0 lb=0:  12090 shell pairs
          la=1 lb=0:  17880 shell pairs
          la=1 lb=1:   6420 shell pairs
          la=2 lb=0:   7320 shell pairs
          la=2 lb=1:   5520 shell pairs
          la=2 lb=2:   1170 shell pairs

Calculating one electron integrals          ... done (  0.1 sec)
Calculating Nuclear repulsion               ... done (  0.0 sec) ENN=   8096.321902720004 Eh

SHARK setup successfully completed in   1.9 seconds

Maximum memory used throughout the entire GTOINT-calculation: 123.4 MB
[cnode13:73490] 7 more processes have sent help message help-mpi-btl-openib.txt / error in device init
[cnode13:73490] Set MCA parameter "orte_base_help_aggregate" to 0 to see all help / error messages
--------------------------------------------------------------------------
WARNING: There was an error initializing an OpenFabrics device.

  Local host:   cnode13
  Local device: mlx5_0
--------------------------------------------------------------------------


           ************************************************************
           *        Program running with 8 parallel MPI-processes     *
           *              working on a common directory               *
           ************************************************************
-------------------------------------------------------------------------------
                                 ORCA SCF
-------------------------------------------------------------------------------

------------
SCF SETTINGS
------------
Hamiltonian:
 Ab initio Hamiltonian  Method          .... Hartree-Fock(GTOs)


General Settings:
 Integral files         IntName         .... C60-sym
 Hartree-Fock type      HFTyp           .... RHF
 Total Charge           Charge          ....    0
 Multiplicity           Mult            ....    1
 Number of Electrons    NEL             ....  360
 Basis Dimension        Dim             ....  840
 Nuclear Repulsion      ENuc            ....   8096.3219027200 Eh

 Symmetry handling      UseSym         .... ON
 Point group                           .... D2h
 Used point group                      .... D2h
 Number of irreps                      .... 8
   Irrep   Ag has  114 symmetry adapted basis functions (ofs=   0)
   Irrep  B1g has  102 symmetry adapted basis functions (ofs= 114)
   Irrep  B2g has  102 symmetry adapted basis functions (ofs= 216)
   Irrep  B3g has  102 symmetry adapted basis functions (ofs= 318)
   Irrep   Au has   96 symmetry adapted basis functions (ofs= 420)
   Irrep  B1u has  108 symmetry adapted basis functions (ofs= 516)
   Irrep  B2u has  108 symmetry adapted basis functions (ofs= 624)
   Irrep  B3u has  108 symmetry adapted basis functions (ofs= 732)

Convergence Acceleration:
 DIIS                   CNVDIIS         .... on
   Start iteration      DIISMaxIt       ....    12
   Startup error        DIISStart       ....  0.200000
   # of expansion vecs  DIISMaxEq       ....     5
   Bias factor          DIISBfac        ....   1.050
   Max. coefficient     DIISMaxC        ....  10.000
 Trust-Rad. Augm. Hess. CNVTRAH         .... auto
   Auto Start mean grad. ratio tolernc. ....  1.125000
   Auto Start start iteration           ....    20
   Auto Start num. interpolation iter.  ....    10
   Max. Number of Micro iterations      ....    16
   Max. Number of Macro iterations      .... Maxiter - #DIIS iter
   Number of Davidson start vectors     ....     2
   Converg. threshold I  (grad. norm)   ....   5.000e-05
   Converg. threshold II (energy diff.) ....   1.000e-06
   Grad. Scal. Fac. for Micro threshold ....   0.100
   Minimum threshold for Micro iter.    ....   0.010
   NR start threshold (gradient norm)   ....   0.001
   Initial trust radius                 ....   0.400
   Minimum AH scaling param. (alpha)    ....   1.000
   Maximum AH scaling param. (alpha)    .... 1000.000
   Orbital update algorithm             .... Taylor
   White noise on init. David. guess    .... on
   Maximum white noise                  ....   0.010
   Quad. conv. algorithm                .... NR
 SOSCF                  CNVSOSCF        .... on
   Start iteration      SOSCFMaxIt      ....   150
   Startup grad/error   SOSCFStart      ....  0.003300
 Level Shifting         CNVShift        .... on
   Level shift para.    LevelShift      ....    0.2500
   Turn off err/grad.   ShiftErr        ....    0.0010
 Zerner damping         CNVZerner       .... off
 Static damping         CNVDamp         .... on
   Fraction old density DampFac         ....    0.7000
   Max. Damping (<1)    DampMax         ....    0.9800
   Min. Damping (>=0)   DampMin         ....    0.0000
   Turn off err/grad.   DampErr         ....    0.1000
 Fernandez-Rico         CNVRico         .... off

SCF Procedure:
 Maximum # iterations   MaxIter         ....   125
 SCF integral mode      SCFMode         .... Direct
   Integral package                     .... SHARK and LIBINT hybrid scheme
 Reset frequency        DirectResetFreq ....    20
 Integral Threshold     Thresh          ....  1.000e-10 Eh
 Primitive CutOff       TCut            ....  1.000e-11 Eh

Convergence Tolerance:
 Convergence Check Mode ConvCheckMode   .... Total+1el-Energy
 Convergence forced     ConvForced      .... 0
 Energy Change          TolE            ....  1.000e-06 Eh
 1-El. energy change                    ....  1.000e-03 Eh
 Orbital Gradient       TolG            ....  5.000e-05
 Orbital Rotation angle TolX            ....  5.000e-05
 DIIS Error             TolErr          ....  1.000e-06


Diagonalization of the overlap matrix:
Smallest eigenvalue                        ... 1.955e-04
Time for diagonalization                   ...    0.091 sec
Threshold for overlap eigenvalues          ... 1.000e-08
Number of eigenvalues below threshold      ... 0
Time for construction of square roots      ...    0.125 sec
Producing symmetrization matrix            ... done (   0.031 sec)
Total time needed                          ...    0.251 sec

Time for model grid setup =    0.860 sec

------------------------------
INITIAL GUESS: MODEL POTENTIAL
------------------------------
Loading Hartree-Fock densities                     ... done
Calculating cut-offs                               ... done
Initializing the effective Hamiltonian             ... done
Setting up the integral package (SHARK)            ... done
Starting the Coulomb interaction                   ... done (   1.4 sec)
Reading the grid                                   ... done
Mapping shells                                     ... done
Starting the XC term evaluation                    ... done (   0.3 sec)
done (   0.0 sec)
Diagonalizing the Hamiltonian                      ... done (   0.0 sec)
Back transforming the eigenvectors                 ... done (   0.0 sec)
Now organizing SCF variables                       ... done
The symmetry of the initial guess is 1-Ag
Irrep occupations for operator 0
    Ag -   30
   B1g -   20
   B2g -   20
   B3g -   20
    Au -   18
   B1u -   24
   B2u -   24
   B3u -   24
                      ------------------
                      INITIAL GUESS DONE (   2.7 sec)
                      ------------------
--------------
SCF ITERATIONS
--------------
ITER       Energy         Delta-E        Max-DP      RMS-DP      [F,P]     Damp
               ***  Starting incremental Fock matrix formation  ***
[cnode13:73550] 7 more processes have sent help message help-mpi-btl-openib.txt / error in device init
[cnode13:73550] Set MCA parameter "orte_base_help_aggregate" to 0 to see all help / error messages
  0  -2270.7002273587   0.000000000000 0.02214446  0.00078066  0.0861937 0.7000
  1  -2271.0002454285  -0.300018069760 0.01876332  0.00063447  0.0636257 0.7000
                               ***Turning on DIIS***
  2  -2271.2017367710  -0.201491342496 0.04492817  0.00154889  0.0467102 0.0000
  3  -2270.1221395166   1.079597254442 0.00681341  0.00029258  0.0132277 0.0000
  4  -2272.9076267398  -2.785487223215 0.00308789  0.00011662  0.0056547 0.0000
  5  -2271.7412919768   1.166334762975 0.00226340  0.00006795  0.0017814 0.0000
                      *** Initiating the SOSCF procedure ***
                           *** Shutting down DIIS ***
                      *** Re-Reading the Fockian *** 
                      *** Removing any level shift *** 
ITER      Energy       Delta-E        Grad      Rot      Max-DP    RMS-DP
  6  -2271.69056120   0.0507307724  0.002896  0.002896  0.001950  0.000052
               *** Restarting incremental Fock matrix formation ***
  7  -2271.68592798   0.0046332200  0.000734  0.001733  0.000425  0.000012
  8  -2271.68597511  -0.0000471235  0.000373  0.001887  0.000477  0.000014
  9  -2271.68599384  -0.0000187359  0.000024  0.000026  0.000020  0.000001
 10  -2271.68599425  -0.0000004049  0.000019  0.000011  0.000010  0.000000
                 **** Energy Check signals convergence ****
              ***Rediagonalizing the Fockian in SOSCF/NRSCF***

               *****************************************************
               *                     SUCCESS                       *
               *           SCF CONVERGED AFTER  11 CYCLES          *
               *****************************************************


----------------
TOTAL SCF ENERGY
----------------

Total Energy       :        -2271.68599494 Eh          -61815.71857 eV

Components:
Nuclear Repulsion  :         8096.32190272 Eh          220312.11942 eV
Electronic Energy  :       -10368.00789766 Eh         -282127.83800 eV
One Electron Energy:       -19204.85004692 Eh         -522590.53777 eV
Two Electron Energy:         8836.84214926 Eh          240462.69977 eV

Virial components:
Potential Energy   :        -4535.24719206 Eh         -123410.35016 eV
Kinetic Energy     :         2263.56119712 Eh           61594.63158 eV
Virial Ratio       :            2.00358939


---------------
SCF CONVERGENCE
---------------

  Last Energy change         ...   -6.8966e-07  Tolerance :   1.0000e-06
  Last MAX-Density change    ...    2.0364e-06  Tolerance :   1.0000e-05
  Last RMS-Density change    ...    1.2107e-07  Tolerance :   1.0000e-06
  Last Orbital Gradient      ...    2.1649e-06  Tolerance :   5.0000e-05
  Last Orbital Rotation      ...    1.4945e-06  Tolerance :   5.0000e-05

             **** THE GBW FILE WAS UPDATED (C60-sym.gbw) ****
             **** DENSITY C60-sym.scfp WAS UPDATED ****
             **** ENERGY FILE WAS UPDATED (C60-sym.en.tmp) ****
             **** THE GBW FILE WAS UPDATED (C60-sym.gbw) ****
             **** DENSITY C60-sym.scfp WAS UPDATED ****
----------------
ORBITAL ENERGIES
----------------

  NO   OCC          E(Eh)            E(eV)    Irrep 
   0   2.0000     -11.311026      -307.7887    1-Ag
   1   2.0000     -11.310944      -307.7864    1-B2u
   2   2.0000     -11.310944      -307.7864    1-B3u
   3   2.0000     -11.310944      -307.7864    1-B1u
   4   2.0000     -11.310792      -307.7823    1-B3g
   5   2.0000     -11.310792      -307.7823    1-B2g
   6   2.0000     -11.310792      -307.7823    1-B1g
   7   2.0000     -11.310792      -307.7823    2-Ag
   8   2.0000     -11.310792      -307.7823    3-Ag
   9   2.0000     -11.310639      -307.7781    1-Au
  10   2.0000     -11.310639      -307.7781    2-B1u
  11   2.0000     -11.310639      -307.7781    2-B2u
  12   2.0000     -11.310639      -307.7781    2-B3u
  13   2.0000     -11.310493      -307.7742    3-B1u
  14   2.0000     -11.310493      -307.7742    3-B3u
  15   2.0000     -11.310493      -307.7742    3-B2u
  16   2.0000     -11.310420      -307.7722    2-B3g
  17   2.0000     -11.310420      -307.7722    2-B2g
  18   2.0000     -11.310420      -307.7722    2-B1g
  19   2.0000     -11.310420      -307.7722    4-Ag
  20   2.0000     -11.310324      -307.7696    3-B1g
  21   2.0000     -11.310324      -307.7696    3-B2g
  22   2.0000     -11.310324      -307.7696    3-B3g
  23   2.0000     -11.310324      -307.7696    5-Ag
  24   2.0000     -11.310324      -307.7696    6-Ag
  25   2.0000     -11.310280      -307.7684    2-Au
  26   2.0000     -11.310280      -307.7684    3-Au
  27   2.0000     -11.310280      -307.7684    4-B1u
  28   2.0000     -11.310280      -307.7684    4-B2u
  29   2.0000     -11.310280      -307.7684    4-B3u
  30   2.0000     -11.309296      -307.7416    5-B3u
  31   2.0000     -11.309296      -307.7416    5-B2u
  32   2.0000     -11.309296      -307.7416    5-B1u
  33   2.0000     -11.309213      -307.7393    4-B3g
  34   2.0000     -11.309213      -307.7393    4-B2g
  35   2.0000     -11.309213      -307.7393    4-B1g
  36   2.0000     -11.309144      -307.7374    7-Ag
  37   2.0000     -11.309144      -307.7374    8-Ag
  38   2.0000     -11.309143      -307.7374    5-B3g
  39   2.0000     -11.309143      -307.7374    5-B1g
  40   2.0000     -11.309143      -307.7374    5-B2g
  41   2.0000     -11.309097      -307.7362    6-B1u
  42   2.0000     -11.309097      -307.7362    6-B2u
  43   2.0000     -11.309097      -307.7362    6-B3u
  44   2.0000     -11.308946      -307.7321    4-Au
  45   2.0000     -11.308946      -307.7321    5-Au
  46   2.0000     -11.308946      -307.7321    7-B3u
  47   2.0000     -11.308946      -307.7321    7-B1u
  48   2.0000     -11.308946      -307.7321    7-B2u
  49   2.0000     -11.308788      -307.7278    9-Ag
  50   2.0000     -11.308788      -307.7278    6-B2g
  51   2.0000     -11.308788      -307.7278    6-B3g
  52   2.0000     -11.308788      -307.7278    6-B1g
  53   2.0000     -11.308543      -307.7211    6-Au
  54   2.0000     -11.308543      -307.7211    8-B1u
  55   2.0000     -11.308543      -307.7211    8-B3u
  56   2.0000     -11.308543      -307.7211    8-B2u
  57   2.0000     -11.308518      -307.7204    7-B2g
  58   2.0000     -11.308518      -307.7204    7-B1g
  59   2.0000     -11.308518      -307.7204    7-B3g
  60   2.0000      -1.266775       -34.4707   10-Ag
  61   2.0000      -1.243304       -33.8320    9-B1u
  62   2.0000      -1.243304       -33.8320    9-B3u
  63   2.0000      -1.243304       -33.8320    9-B2u
  64   2.0000      -1.197512       -32.5860    8-B3g
  65   2.0000      -1.197512       -32.5860    8-B2g
  66   2.0000      -1.197512       -32.5860    8-B1g
  67   2.0000      -1.197512       -32.5860   11-Ag
  68   2.0000      -1.197512       -32.5860   12-Ag
  69   2.0000      -1.131908       -30.8008    7-Au
  70   2.0000      -1.131908       -30.8008   10-B1u
  71   2.0000      -1.131908       -30.8008   10-B3u
  72   2.0000      -1.131908       -30.8008   10-B2u
  73   2.0000      -1.131714       -30.7955   11-B3u
  74   2.0000      -1.131714       -30.7955   11-B1u
  75   2.0000      -1.131714       -30.7955   11-B2u
  76   2.0000      -1.053981       -28.6803    9-B2g
  77   2.0000      -1.053981       -28.6803    9-B3g
  78   2.0000      -1.053981       -28.6803    9-B1g
  79   2.0000      -1.053981       -28.6803   13-Ag
  80   2.0000      -1.049565       -28.5601   14-Ag
  81   2.0000      -1.049565       -28.5601   15-Ag
  82   2.0000      -1.049565       -28.5601   10-B3g
  83   2.0000      -1.049565       -28.5601   10-B1g
  84   2.0000      -1.049565       -28.5601   10-B2g
  85   2.0000      -0.992003       -26.9938    8-Au
  86   2.0000      -0.992003       -26.9938    9-Au
  87   2.0000      -0.992003       -26.9938   12-B1u
  88   2.0000      -0.992003       -26.9938   12-B3u
  89   2.0000      -0.992003       -26.9938   12-B2u
  90   2.0000      -0.915514       -24.9124   13-B2u
  91   2.0000      -0.915514       -24.9124   13-B1u
  92   2.0000      -0.915514       -24.9124   13-B3u
  93   2.0000      -0.885254       -24.0890   14-B1u
  94   2.0000      -0.885254       -24.0890   14-B3u
  95   2.0000      -0.885254       -24.0890   14-B2u
  96   2.0000      -0.862691       -23.4750   11-B2g
  97   2.0000      -0.862691       -23.4750   11-B1g
  98   2.0000      -0.862691       -23.4750   11-B3g
  99   2.0000      -0.862691       -23.4750   16-Ag
 100   2.0000      -0.862691       -23.4750   17-Ag
 101   2.0000      -0.824659       -22.4401   12-B3g
 102   2.0000      -0.824659       -22.4401   12-B2g
 103   2.0000      -0.824659       -22.4401   12-B1g
 104   2.0000      -0.773285       -21.0421   18-Ag
 105   2.0000      -0.731675       -19.9099   19-Ag
 106   2.0000      -0.731675       -19.9099   13-B1g
 107   2.0000      -0.731675       -19.9099   13-B2g
 108   2.0000      -0.731675       -19.9099   13-B3g
 109   2.0000      -0.727153       -19.7868   10-Au
 110   2.0000      -0.727153       -19.7868   11-Au
 111   2.0000      -0.727153       -19.7868   15-B3u
 112   2.0000      -0.727153       -19.7868   15-B2u
 113   2.0000      -0.727153       -19.7868   15-B1u
 114   2.0000      -0.689434       -18.7604   16-B3u
 115   2.0000      -0.689434       -18.7604   16-B1u
 116   2.0000      -0.689434       -18.7604   16-B2u
 117   2.0000      -0.673087       -18.3156   17-B3u
 118   2.0000      -0.673087       -18.3156   17-B1u
 119   2.0000      -0.673087       -18.3156   17-B2u
 120   2.0000      -0.631439       -17.1823   20-Ag
 121   2.0000      -0.617483       -16.8026   18-B3u
 122   2.0000      -0.617483       -16.8026   18-B2u
 123   2.0000      -0.617483       -16.8026   18-B1u
 124   2.0000      -0.617482       -16.8026   12-Au
 125   2.0000      -0.616305       -16.7705   14-B2g
 126   2.0000      -0.616305       -16.7705   14-B3g
 127   2.0000      -0.616305       -16.7705   14-B1g
 128   2.0000      -0.616305       -16.7705   21-Ag
 129   2.0000      -0.616151       -16.7663   15-B1g
 130   2.0000      -0.616151       -16.7663   15-B2g
 131   2.0000      -0.616151       -16.7663   15-B3g
 132   2.0000      -0.616151       -16.7663   22-Ag
 133   2.0000      -0.616151       -16.7663   23-Ag
 134   2.0000      -0.601965       -16.3803   19-B3u
 135   2.0000      -0.601965       -16.3803   19-B2u
 136   2.0000      -0.601965       -16.3803   19-B1u
 137   2.0000      -0.570930       -15.5358   20-B3u
 138   2.0000      -0.570930       -15.5358   20-B2u
 139   2.0000      -0.570930       -15.5358   20-B1u
 140   2.0000      -0.570930       -15.5358   13-Au
 141   2.0000      -0.557913       -15.1816   16-B1g
 142   2.0000      -0.557913       -15.1816   16-B3g
 143   2.0000      -0.557913       -15.1816   16-B2g
 144   2.0000      -0.545181       -14.8351   17-B1g
 145   2.0000      -0.545181       -14.8351   17-B3g
 146   2.0000      -0.545181       -14.8351   17-B2g
 147   2.0000      -0.545181       -14.8351   24-Ag
 148   2.0000      -0.545181       -14.8351   25-Ag
 149   2.0000      -0.492646       -13.4056   26-Ag
 150   2.0000      -0.492646       -13.4056   27-Ag
 151   2.0000      -0.492646       -13.4056   18-B2g
 152   2.0000      -0.492646       -13.4056   18-B1g
 153   2.0000      -0.492646       -13.4056   18-B3g
 154   2.0000      -0.478516       -13.0211   21-B3u
 155   2.0000      -0.478516       -13.0211   21-B2u
 156   2.0000      -0.478516       -13.0211   21-B1u
 157   2.0000      -0.478516       -13.0211   14-Au
 158   2.0000      -0.478516       -13.0211   15-Au
 159   2.0000      -0.467131       -12.7113   16-Au
 160   2.0000      -0.467131       -12.7113   22-B3u
 161   2.0000      -0.467131       -12.7113   22-B1u
 162   2.0000      -0.467131       -12.7113   22-B2u
 163   2.0000      -0.454482       -12.3671   23-B2u
 164   2.0000      -0.454482       -12.3671   23-B3u
 165   2.0000      -0.454482       -12.3671   23-B1u
 166   2.0000      -0.376832       -10.2541   19-B1g
 167   2.0000      -0.376832       -10.2541   19-B3g
 168   2.0000      -0.376832       -10.2541   19-B2g
 169   2.0000      -0.376832       -10.2541   28-Ag
 170   2.0000      -0.354623        -9.6498   20-B3g
 171   2.0000      -0.354623        -9.6498   20-B2g
 172   2.0000      -0.354623        -9.6498   20-B1g
 173   2.0000      -0.354623        -9.6498   29-Ag
 174   2.0000      -0.354623        -9.6498   30-Ag
 175   2.0000      -0.309902        -8.4329   17-Au
 176   2.0000      -0.309902        -8.4329   18-Au
 177   2.0000      -0.309902        -8.4329   24-B3u
 178   2.0000      -0.309902        -8.4329   24-B1u
 179   2.0000      -0.309902        -8.4329   24-B2u
 180   0.0000       0.000925         0.0252   25-B3u
 181   0.0000       0.000925         0.0252   25-B1u
 182   0.0000       0.000925         0.0252   25-B2u
 183   0.0000       0.060277         1.6402   21-B2g
 184   0.0000       0.060277         1.6402   21-B3g
 185   0.0000       0.060277         1.6402   21-B1g
 186   0.0000       0.068848         1.8734   31-Ag
 187   0.0000       0.068848         1.8734   32-Ag
 188   0.0000       0.068848         1.8735   22-B1g
 189   0.0000       0.068848         1.8735   22-B2g
 190   0.0000       0.068848         1.8735   22-B3g
 191   0.0000       0.069735         1.8976   26-B2u
 192   0.0000       0.069735         1.8976   26-B3u
 193   0.0000       0.069735         1.8976   26-B1u
 194   0.0000       0.169216         4.6046   27-B3u
 195   0.0000       0.169216         4.6046   27-B2u
 196   0.0000       0.169216         4.6046   27-B1u
 197   0.0000       0.169216         4.6046   19-Au
 198   0.0000       0.169216         4.6046   20-Au
 199   0.0000       0.193501         5.2654   23-B3g
 200   0.0000       0.193501         5.2654   23-B1g
 201   0.0000       0.193501         5.2654   23-B2g
 202   0.0000       0.193501         5.2654   33-Ag
 203   0.0000       0.207440         5.6447   21-Au
 204   0.0000       0.207440         5.6447   28-B1u
 205   0.0000       0.207440         5.6447   28-B3u
 206   0.0000       0.207440         5.6447   28-B2u
 207   0.0000       0.235889         6.4189   29-B1u
 208   0.0000       0.235889         6.4189   29-B2u
 209   0.0000       0.235889         6.4189   29-B3u
 210   0.0000       0.242835         6.6079   24-B1g
 211   0.0000       0.242835         6.6079   24-B2g
 212   0.0000       0.242835         6.6079   24-B3g
 213   0.0000       0.265453         7.2234   34-Ag
 214   0.0000       0.265453         7.2234   35-Ag
 215   0.0000       0.265453         7.2234   25-B2g
 216   0.0000       0.265453         7.2234   25-B1g
 217   0.0000       0.265453         7.2234   25-B3g
 218   0.0000       0.301687         8.2093   26-B2g
 219   0.0000       0.301687         8.2093   26-B3g
 220   0.0000       0.301687         8.2093   26-B1g
 221   0.0000       0.331637         9.0243   30-B1u
 222   0.0000       0.331637         9.0243   30-B2u
 223   0.0000       0.331637         9.0243   30-B3u
 224   0.0000       0.338347         9.2069   22-Au
 225   0.0000       0.338348         9.2069   31-B1u
 226   0.0000       0.338348         9.2069   31-B2u
 227   0.0000       0.338348         9.2069   31-B3u
 228   0.0000       0.379907        10.3378   27-B3g
 229   0.0000       0.379907        10.3378   27-B2g
 230   0.0000       0.379907        10.3378   27-B1g
 231   0.0000       0.379908        10.3378   36-Ag
 232   0.0000       0.404125        10.9968   28-B2g
 233   0.0000       0.404125        10.9968   28-B1g
 234   0.0000       0.404125        10.9968   28-B3g
 235   0.0000       0.404125        10.9968   37-Ag
 236   0.0000       0.404125        10.9968   38-Ag
 237   0.0000       0.415467        11.3054   23-Au
 238   0.0000       0.415467        11.3054   24-Au
 239   0.0000       0.415467        11.3054   32-B2u
 240   0.0000       0.415467        11.3054   32-B3u
 241   0.0000       0.415467        11.3054   32-B1u
 242   0.0000       0.476529        12.9670   33-B3u
 243   0.0000       0.476529        12.9670   33-B2u
 244   0.0000       0.476529        12.9670   33-B1u
 245   0.0000       0.481892        13.1129   34-B3u
 246   0.0000       0.481892        13.1129   34-B1u
 247   0.0000       0.481892        13.1129   34-B2u
 248   0.0000       0.494124        13.4458   29-B1g
 249   0.0000       0.494124        13.4458   29-B3g
 250   0.0000       0.494124        13.4458   29-B2g
 251   0.0000       0.539679        14.6854   35-B2u
 252   0.0000       0.539679        14.6854   35-B3u
 253   0.0000       0.539679        14.6854   25-Au
 254   0.0000       0.539679        14.6854   35-B1u
 255   0.0000       0.539679        14.6854   26-Au
 256   0.0000       0.550306        14.9746   39-Ag
 257   0.0000       0.590232        16.0610   27-Au
 258   0.0000       0.590232        16.0610   36-B2u
 259   0.0000       0.590232        16.0610   36-B3u
 260   0.0000       0.590232        16.0610   36-B1u
 261   0.0000       0.597531        16.2596   30-B1g
 262   0.0000       0.597531        16.2596   30-B2g
 263   0.0000       0.597531        16.2596   30-B3g
 264   0.0000       0.597531        16.2596   40-Ag
 265   0.0000       0.597531        16.2596   41-Ag
 266   0.0000       0.603758        16.4291   42-Ag
 267   0.0000       0.611376        16.6364   37-B2u
 268   0.0000       0.611376        16.6364   37-B1u
 269   0.0000       0.611376        16.6364   37-B3u
 270   0.0000       0.621117        16.9015   31-B1g
 271   0.0000       0.621117        16.9015   31-B2g
 272   0.0000       0.621117        16.9015   31-B3g
 273   0.0000       0.621117        16.9015   43-Ag
 274   0.0000       0.621117        16.9015   44-Ag
 275   0.0000       0.627070        17.0634   45-Ag
 276   0.0000       0.627070        17.0634   32-B3g
 277   0.0000       0.627070        17.0634   32-B1g
 278   0.0000       0.627070        17.0634   32-B2g
 279   0.0000       0.636467        17.3192   38-B3u
 280   0.0000       0.636467        17.3192   38-B2u
 281   0.0000       0.636467        17.3192   38-B1u
 282   0.0000       0.636467        17.3192   28-Au
 283   0.0000       0.636883        17.3305   39-B1u
 284   0.0000       0.636883        17.3305   39-B2u
 285   0.0000       0.636883        17.3305   39-B3u
 286   0.0000       0.636938        17.3320   33-B3g
 287   0.0000       0.636938        17.3320   33-B1g
 288   0.0000       0.636938        17.3320   33-B2g
 289   0.0000       0.639590        17.4041   34-B1g
 290   0.0000       0.639590        17.4041   34-B3g
 291   0.0000       0.639590        17.4041   34-B2g
 292   0.0000       0.639590        17.4041   46-Ag
 293   0.0000       0.640835        17.4380   40-B3u
 294   0.0000       0.640835        17.4380   40-B1u
 295   0.0000       0.640835        17.4380   40-B2u
 296   0.0000       0.662677        18.0324   47-Ag
 297   0.0000       0.676674        18.4132   35-B1g
 298   0.0000       0.676674        18.4132   35-B2g
 299   0.0000       0.676674        18.4132   35-B3g
 300   0.0000       0.676674        18.4132   48-Ag
 301   0.0000       0.676674        18.4132   49-Ag
 302   0.0000       0.679853        18.4997   36-B3g
 303   0.0000       0.679853        18.4997   36-B1g
 304   0.0000       0.679853        18.4997   36-B2g
 305   0.0000       0.684597        18.6288   41-B3u
 306   0.0000       0.684597        18.6288   41-B2u
 307   0.0000       0.684597        18.6288   41-B1u
 308   0.0000       0.684598        18.6289   29-Au
 309   0.0000       0.684598        18.6289   30-Au
 310   0.0000       0.700586        19.0639   42-B2u
 311   0.0000       0.700586        19.0639   42-B1u
 312   0.0000       0.700586        19.0639   42-B3u
 313   0.0000       0.706324        19.2201   43-B3u
 314   0.0000       0.706324        19.2201   43-B1u
 315   0.0000       0.706324        19.2201   43-B2u
 316   0.0000       0.710803        19.3419   37-B2g
 317   0.0000       0.710803        19.3419   37-B3g
 318   0.0000       0.710803        19.3419   37-B1g
 319   0.0000       0.710803        19.3419   50-Ag
 320   0.0000       0.710803        19.3419   51-Ag
 321   0.0000       0.733504        19.9596   44-B3u
 322   0.0000       0.733504        19.9596   44-B1u
 323   0.0000       0.733504        19.9596   31-Au
 324   0.0000       0.733504        19.9596   44-B2u
 325   0.0000       0.733504        19.9597   32-Au
 326   0.0000       0.736054        20.0290   38-B2g
 327   0.0000       0.736054        20.0290   38-B1g
 328   0.0000       0.736054        20.0290   38-B3g
 329   0.0000       0.736054        20.0290   52-Ag
 330   0.0000       0.736054        20.0290   53-Ag
 331   0.0000       0.742717        20.2104   39-B3g
 332   0.0000       0.742717        20.2104   39-B1g
 333   0.0000       0.742717        20.2104   39-B2g
 334   0.0000       0.743450        20.2303   40-B2g
 335   0.0000       0.743450        20.2303   40-B3g
 336   0.0000       0.743450        20.2303   40-B1g
 337   0.0000       0.743451        20.2303   54-Ag
 338   0.0000       0.760762        20.7014   33-Au
 339   0.0000       0.760762        20.7014   34-Au
 340   0.0000       0.760763        20.7014   45-B2u
 341   0.0000       0.760763        20.7014   45-B3u
 342   0.0000       0.760763        20.7014   45-B1u
 343   0.0000       0.764719        20.8091   55-Ag
 344   0.0000       0.764719        20.8091   41-B3g
 345   0.0000       0.764719        20.8091   41-B2g
 346   0.0000       0.764719        20.8091   41-B1g
 347   0.0000       0.781668        21.2703   35-Au
 348   0.0000       0.781669        21.2703   46-B2u
 349   0.0000       0.781669        21.2703   46-B3u
 350   0.0000       0.781669        21.2703   46-B1u
 351   0.0000       0.796156        21.6645   47-B2u
 352   0.0000       0.796156        21.6645   47-B3u
 353   0.0000       0.796156        21.6645   47-B1u
 354   0.0000       0.796156        21.6645   36-Au
 355   0.0000       0.796156        21.6645   37-Au
 356   0.0000       0.798100        21.7174   48-B1u
 357   0.0000       0.798100        21.7174   48-B3u
 358   0.0000       0.798100        21.7174   48-B2u
 359   0.0000       0.811877        22.0923   49-B3u
 360   0.0000       0.811877        22.0923   49-B1u
 361   0.0000       0.811877        22.0923   49-B2u
 362   0.0000       0.822044        22.3690   50-B2u
 363   0.0000       0.822044        22.3690   38-Au
 364   0.0000       0.822044        22.3690   50-B3u
 365   0.0000       0.822044        22.3690   50-B1u
 366   0.0000       0.827000        22.5038   42-B1g
 367   0.0000       0.827000        22.5038   42-B3g
 368   0.0000       0.827001        22.5038   42-B2g
 369   0.0000       0.836330        22.7577   43-B3g
 370   0.0000       0.836330        22.7577   43-B2g
 371   0.0000       0.836330        22.7577   43-B1g
 372   0.0000       0.836330        22.7577   56-Ag
 373   0.0000       0.847820        23.0703   44-B2g
 374   0.0000       0.847820        23.0704   44-B1g
 375   0.0000       0.847820        23.0704   44-B3g
 376   0.0000       0.858679        23.3658   45-B2g
 377   0.0000       0.858679        23.3658   57-Ag
 378   0.0000       0.858679        23.3658   45-B3g
 379   0.0000       0.858679        23.3659   45-B1g
 380   0.0000       0.858679        23.3659   58-Ag
 381   0.0000       0.860896        23.4262   51-B1u
 382   0.0000       0.860896        23.4262   51-B2u
 383   0.0000       0.860896        23.4262   51-B3u
 384   0.0000       0.870490        23.6872   39-Au
 385   0.0000       0.870490        23.6872   52-B3u
 386   0.0000       0.870490        23.6872   52-B2u
 387   0.0000       0.870491        23.6873   52-B1u
 388   0.0000       0.880171        23.9507   59-Ag
 389   0.0000       0.881712        23.9926   53-B3u
 390   0.0000       0.881712        23.9926   53-B1u
 391   0.0000       0.881712        23.9926   53-B2u
 392   0.0000       0.885004        24.0822   60-Ag
 393   0.0000       0.885004        24.0822   61-Ag
 394   0.0000       0.885004        24.0822   46-B2g
 395   0.0000       0.885004        24.0822   46-B1g
 396   0.0000       0.885004        24.0822   46-B3g
 397   0.0000       0.900575        24.5059   54-B1u
 398   0.0000       0.900575        24.5059   54-B3u
 399   0.0000       0.900575        24.5059   54-B2u
 400   0.0000       0.900575        24.5059   40-Au
 401   0.0000       0.900575        24.5059   41-Au
 402   0.0000       0.907820        24.7030   42-Au
 403   0.0000       0.909180        24.7401   55-B1u
 404   0.0000       0.909180        24.7401   55-B3u
 405   0.0000       0.909180        24.7401   55-B2u
 406   0.0000       0.912194        24.8221   47-B3g
 407   0.0000       0.912194        24.8221   47-B1g
 408   0.0000       0.912194        24.8221   47-B2g
 409   0.0000       0.912194        24.8221   62-Ag
 410   0.0000       0.927312        25.2334   48-B2g
 411   0.0000       0.927312        25.2334   48-B1g
 412   0.0000       0.927312        25.2334   48-B3g
 413   0.0000       0.927312        25.2334   63-Ag
 414   0.0000       0.927312        25.2334   64-Ag
 415   0.0000       0.952951        25.9311   43-Au
 416   0.0000       0.952952        25.9311   56-B3u
 417   0.0000       0.952952        25.9311   56-B2u
 418   0.0000       0.952952        25.9311   56-B1u
 419   0.0000       0.984748        26.7964   49-B1g
 420   0.0000       0.984749        26.7964   49-B3g
 421   0.0000       0.984749        26.7964   49-B2g
 422   0.0000       0.987226        26.8638   57-B3u
 423   0.0000       0.987226        26.8638   57-B1u
 424   0.0000       0.987226        26.8638   57-B2u
 425   0.0000       1.013690        27.5839   44-Au
 426   0.0000       1.013690        27.5839   58-B3u
 427   0.0000       1.013690        27.5839   58-B1u
 428   0.0000       1.013690        27.5839   58-B2u
 429   0.0000       1.018975        27.7277   65-Ag
 430   0.0000       1.018975        27.7277   50-B1g
 431   0.0000       1.018975        27.7277   50-B2g
 432   0.0000       1.018975        27.7277   66-Ag
 433   0.0000       1.018975        27.7277   50-B3g
 434   0.0000       1.021237        27.7893   51-B3g
 435   0.0000       1.021237        27.7893   51-B1g
 436   0.0000       1.021237        27.7893   51-B2g
 437   0.0000       1.050403        28.5829   52-B1g
 438   0.0000       1.050403        28.5829   52-B3g
 439   0.0000       1.050403        28.5829   52-B2g
 440   0.0000       1.096029        29.8245   59-B2u
 441   0.0000       1.096029        29.8245   59-B3u
 442   0.0000       1.096030        29.8245   59-B1u
 443   0.0000       1.096032        29.8245   45-Au
 444   0.0000       1.096032        29.8245   46-Au
 445   0.0000       1.109015        30.1778   60-B2u
 446   0.0000       1.109015        30.1778   60-B1u
 447   0.0000       1.109015        30.1778   60-B3u
 448   0.0000       1.110383        30.2151   67-Ag
 449   0.0000       1.110384        30.2151   53-B3g
 450   0.0000       1.110384        30.2151   53-B2g
 451   0.0000       1.110385        30.2151   53-B1g
 452   0.0000       1.127723        30.6869   54-B2g
 453   0.0000       1.127723        30.6869   54-B3g
 454   0.0000       1.127723        30.6869   54-B1g
 455   0.0000       1.127724        30.6869   68-Ag
 456   0.0000       1.127724        30.6869   69-Ag
 457   0.0000       1.145040        31.1581   47-Au
 458   0.0000       1.145041        31.1581   61-B2u
 459   0.0000       1.145041        31.1581   61-B1u
 460   0.0000       1.145041        31.1581   61-B3u
 461   0.0000       1.158356        31.5205   62-B2u
 462   0.0000       1.158356        31.5205   62-B1u
 463   0.0000       1.158356        31.5205   62-B3u
 464   0.0000       1.158358        31.5205   48-Au
 465   0.0000       1.158358        31.5205   49-Au
 466   0.0000       1.210189        32.9309   63-B3u
 467   0.0000       1.210189        32.9309   63-B1u
 468   0.0000       1.210189        32.9309   63-B2u
 469   0.0000       1.212411        32.9914   55-B3g
 470   0.0000       1.212411        32.9914   55-B1g
 471   0.0000       1.212412        32.9914   55-B2g
 472   0.0000       1.216390        33.0996   64-B1u
 473   0.0000       1.216390        33.0997   64-B3u
 474   0.0000       1.216390        33.0997   64-B2u
 475   0.0000       1.223669        33.2977   70-Ag
 476   0.0000       1.223669        33.2977   56-B3g
 477   0.0000       1.223669        33.2977   56-B1g
 478   0.0000       1.223670        33.2977   56-B2g
 479   0.0000       1.258328        34.2408   57-B3g
 480   0.0000       1.258328        34.2408   57-B1g
 481   0.0000       1.258328        34.2408   57-B2g
 482   0.0000       1.264512        34.4091   58-B1g
 483   0.0000       1.264513        34.4091   58-B2g
 484   0.0000       1.264513        34.4092   58-B3g
 485   0.0000       1.264516        34.4092   71-Ag
 486   0.0000       1.264517        34.4092   72-Ag
 487   0.0000       1.302692        35.4481   50-Au
 488   0.0000       1.302692        35.4481   65-B3u
 489   0.0000       1.302692        35.4481   65-B1u
 490   0.0000       1.302692        35.4481   65-B2u
 491   0.0000       1.302693        35.4481   51-Au
 492   0.0000       1.317835        35.8601   73-Ag
 493   0.0000       1.320110        35.9220   59-B1g
 494   0.0000       1.320110        35.9220   59-B3g
 495   0.0000       1.320110        35.9220   59-B2g
 496   0.0000       1.320112        35.9221   74-Ag
 497   0.0000       1.333943        36.2984   52-Au
 498   0.0000       1.333959        36.2989   66-B3u
[...]
      px      :     0.977667
      py      :     0.952301
      dz2     :     0.054835  d :     0.230457
      dxz     :     0.069307
      dyz     :     0.043649
      dx2y2   :     0.028581
      dxy     :     0.034085
 38 C s       :     2.825319  s :     2.825319
      pz      :     0.982414  p :     2.944224
      px      :     0.959982
      py      :     1.001828
      dz2     :     0.067354  d :     0.230457
      dxz     :     0.037241
      dyz     :     0.050632
      dx2y2   :     0.038958
      dxy     :     0.036273
 39 C s       :     2.825319  s :     2.825319
      pz      :     0.977667  p :     2.944224
      px      :     0.952301
      py      :     1.014256
      dz2     :     0.046216  d :     0.230457
      dxz     :     0.034085
      dyz     :     0.069307
      dx2y2   :     0.037200
      dxy     :     0.043649
 40 C s       :     2.825319  s :     2.825319
      pz      :     0.977667  p :     2.944224
      px      :     0.952301
      py      :     1.014256
      dz2     :     0.046216  d :     0.230457
      dxz     :     0.034085
      dyz     :     0.069307
      dx2y2   :     0.037200
      dxy     :     0.043649
 41 C s       :     2.825319  s :     2.825319
      pz      :     0.982414  p :     2.944224
      px      :     0.959982
      py      :     1.001828
      dz2     :     0.067354  d :     0.230457
      dxz     :     0.037241
      dyz     :     0.050632
      dx2y2   :     0.038958
      dxy     :     0.036273
 42 C s       :     2.825319  s :     2.825319
      pz      :     1.014256  p :     2.944224
      px      :     0.977667
      py      :     0.952301
      dz2     :     0.054835  d :     0.230457
      dxz     :     0.069307
      dyz     :     0.043649
      dx2y2   :     0.028581
      dxy     :     0.034085
 43 C s       :     2.825319  s :     2.825319
      pz      :     1.001828  p :     2.944224
      px      :     0.982414
      py      :     0.959982
      dz2     :     0.049508  d :     0.230457
      dxz     :     0.050632
      dyz     :     0.036273
      dx2y2   :     0.056804
      dxy     :     0.037241
 44 C s       :     2.825319  s :     2.825319
      pz      :     1.001828  p :     2.944224
      px      :     0.982414
      py      :     0.959982
      dz2     :     0.049508  d :     0.230457
      dxz     :     0.050632
      dyz     :     0.036273
      dx2y2   :     0.056804
      dxy     :     0.037241
 45 C s       :     2.825319  s :     2.825319
      pz      :     0.952301  p :     2.944224
      px      :     1.014256
      py      :     0.977667
      dz2     :     0.024073  d :     0.230457
      dxz     :     0.043649
      dyz     :     0.034085
      dx2y2   :     0.059343
      dxy     :     0.069307
 46 C s       :     2.825319  s :     2.825319
      pz      :     0.959982  p :     2.944224
      px      :     1.001828
      py      :     0.982414
      dz2     :     0.042606  d :     0.230457
      dxz     :     0.036273
      dyz     :     0.037241
      dx2y2   :     0.063706
      dxy     :     0.050632
 47 C s       :     2.825319  s :     2.825319
      pz      :     0.959982  p :     2.944224
      px      :     1.001828
      py      :     0.982414
      dz2     :     0.042606  d :     0.230457
      dxz     :     0.036273
      dyz     :     0.037241
      dx2y2   :     0.063706
      dxy     :     0.050632
 48 C s       :     2.825319  s :     2.825319
      pz      :     1.014256  p :     2.944224
      px      :     0.977667
      py      :     0.952301
      dz2     :     0.054835  d :     0.230457
      dxz     :     0.069307
      dyz     :     0.043649
      dx2y2   :     0.028581
      dxy     :     0.034085
 49 C s       :     2.825319  s :     2.825319
      pz      :     0.982414  p :     2.944224
      px      :     0.959982
      py      :     1.001828
      dz2     :     0.067354  d :     0.230457
      dxz     :     0.037241
      dyz     :     0.050632
      dx2y2   :     0.038958
      dxy     :     0.036273
 50 C s       :     2.825319  s :     2.825319
      pz      :     0.977667  p :     2.944224
      px      :     0.952301
      py      :     1.014256
      dz2     :     0.046216  d :     0.230457
      dxz     :     0.034085
      dyz     :     0.069307
      dx2y2   :     0.037200
      dxy     :     0.043649
 51 C s       :     2.825319  s :     2.825319
      pz      :     1.040118  p :     2.944224
      px      :     0.941371
      py      :     0.962735
      dz2     :     0.060155  d :     0.230457
      dxz     :     0.036783
      dyz     :     0.083044
      dx2y2   :     0.021304
      dxy     :     0.029171
 52 C s       :     2.825319  s :     2.825319
      pz      :     0.977667  p :     2.944224
      px      :     0.952301
      py      :     1.014256
      dz2     :     0.046216  d :     0.230457
      dxz     :     0.034085
      dyz     :     0.069307
      dx2y2   :     0.037200
      dxy     :     0.043649
 53 C s       :     2.825319  s :     2.825319
      pz      :     0.982414  p :     2.944224
      px      :     0.959982
      py      :     1.001828
      dz2     :     0.067354  d :     0.230457
      dxz     :     0.037241
      dyz     :     0.050632
      dx2y2   :     0.038958
      dxy     :     0.036273
 54 C s       :     2.825319  s :     2.825319
      pz      :     1.014256  p :     2.944224
      px      :     0.977667
      py      :     0.952301
      dz2     :     0.054835  d :     0.230457
      dxz     :     0.069307
      dyz     :     0.043649
      dx2y2   :     0.028581
      dxy     :     0.034085
 55 C s       :     2.825319  s :     2.825319
      pz      :     0.962735  p :     2.944224
      px      :     1.040118
      py      :     0.941371
      dz2     :     0.045207  d :     0.230457
      dxz     :     0.083044
      dyz     :     0.029171
      dx2y2   :     0.036253
      dxy     :     0.036783
 56 C s       :     2.825319  s :     2.825319
      pz      :     0.962735  p :     2.944224
      px      :     1.040118
      py      :     0.941371
      dz2     :     0.045207  d :     0.230457
      dxz     :     0.083044
      dyz     :     0.029171
      dx2y2   :     0.036253
      dxy     :     0.036783
 57 C s       :     2.825319  s :     2.825319
      pz      :     1.040118  p :     2.944224
      px      :     0.941371
      py      :     0.962735
      dz2     :     0.060155  d :     0.230457
      dxz     :     0.036783
      dyz     :     0.083044
      dx2y2   :     0.021304
      dxy     :     0.029171
 58 C s       :     2.825319  s :     2.825319
      pz      :     0.982414  p :     2.944224
      px      :     0.959982
      py      :     1.001828
      dz2     :     0.067354  d :     0.230457
      dxz     :     0.037241
      dyz     :     0.050632
      dx2y2   :     0.038958
      dxy     :     0.036273
 59 C s       :     2.825319  s :     2.825319
      pz      :     0.941371  p :     2.944224
      px      :     0.962735
      py      :     1.040118
      dz2     :     0.016827  d :     0.230457
      dxz     :     0.029171
      dyz     :     0.036783
      dx2y2   :     0.064632
      dxy     :     0.083044


                      *****************************
                      * MAYER POPULATION ANALYSIS *
                      *****************************

  NA   - Mulliken gross atomic population
  ZA   - Total nuclear charge
  QA   - Mulliken gross atomic charge
  VA   - Mayer's total valence
  BVA  - Mayer's bonded valence
  FA   - Mayer's free valence

  ATOM       NA         ZA         QA         VA         BVA        FA
  0 C      6.0000     6.0000     0.0000     3.8607     3.8607    -0.0000
  1 C      6.0000     6.0000     0.0000     3.8607     3.8607    -0.0000
  2 C      6.0000     6.0000    -0.0000     3.8607     3.8607    -0.0000
  3 C      6.0000     6.0000    -0.0000     3.8607     3.8607     0.0000
  4 C      6.0000     6.0000     0.0000     3.8607     3.8607    -0.0000
  5 C      6.0000     6.0000     0.0000     3.8607     3.8607     0.0000
  6 C      6.0000     6.0000     0.0000     3.8607     3.8607    -0.0000
  7 C      6.0000     6.0000    -0.0000     3.8607     3.8607     0.0000
  8 C      6.0000     6.0000    -0.0000     3.8607     3.8607     0.0000
  9 C      6.0000     6.0000     0.0000     3.8607     3.8607     0.0000
 10 C      6.0000     6.0000     0.0000     3.8607     3.8607    -0.0000
 11 C      6.0000     6.0000     0.0000     3.8607     3.8607     0.0000
 12 C      6.0000     6.0000    -0.0000     3.8607     3.8607     0.0000
 13 C      6.0000     6.0000     0.0000     3.8607     3.8607     0.0000
 14 C      6.0000     6.0000    -0.0000     3.8607     3.8607     0.0000
 15 C      6.0000     6.0000    -0.0000     3.8607     3.8607     0.0000
 16 C      6.0000     6.0000     0.0000     3.8607     3.8607     0.0000
 17 C      6.0000     6.0000    -0.0000     3.8607     3.8607     0.0000
 18 C      6.0000     6.0000    -0.0000     3.8607     3.8607    -0.0000
 19 C      6.0000     6.0000     0.0000     3.8607     3.8607    -0.0000
 20 C      6.0000     6.0000    -0.0000     3.8607     3.8607    -0.0000
 21 C      6.0000     6.0000     0.0000     3.8607     3.8607    -0.0000
 22 C      6.0000     6.0000     0.0000     3.8607     3.8607     0.0000
 23 C      6.0000     6.0000     0.0000     3.8607     3.8607     0.0000
 24 C      6.0000     6.0000    -0.0000     3.8607     3.8607    -0.0000
 25 C      6.0000     6.0000     0.0000     3.8607     3.8607    -0.0000
 26 C      6.0000     6.0000     0.0000     3.8607     3.8607    -0.0000
 27 C      6.0000     6.0000     0.0000     3.8607     3.8607    -0.0000
 28 C      6.0000     6.0000     0.0000     3.8607     3.8607     0.0000
 29 C      6.0000     6.0000     0.0000     3.8607     3.8607     0.0000
 30 C      6.0000     6.0000    -0.0000     3.8607     3.8607    -0.0000
 31 C      6.0000     6.0000    -0.0000     3.8607     3.8607     0.0000
 32 C      6.0000     6.0000     0.0000     3.8607     3.8607     0.0000
 33 C      6.0000     6.0000     0.0000     3.8607     3.8607     0.0000
 34 C      6.0000     6.0000     0.0000     3.8607     3.8607     0.0000
 35 C      6.0000     6.0000    -0.0000     3.8607     3.8607     0.0000
 36 C      6.0000     6.0000    -0.0000     3.8607     3.8607     0.0000
 37 C      6.0000     6.0000     0.0000     3.8607     3.8607     0.0000
 38 C      6.0000     6.0000    -0.0000     3.8607     3.8607     0.0000
 39 C      6.0000     6.0000     0.0000     3.8607     3.8607    -0.0000
 40 C      6.0000     6.0000     0.0000     3.8607     3.8607    -0.0000
 41 C      6.0000     6.0000    -0.0000     3.8607     3.8607     0.0000
 42 C      6.0000     6.0000     0.0000     3.8607     3.8607     0.0000
 43 C      6.0000     6.0000    -0.0000     3.8607     3.8607     0.0000
 44 C      6.0000     6.0000    -0.0000     3.8607     3.8607     0.0000
 45 C      6.0000     6.0000     0.0000     3.8607     3.8607     0.0000
 46 C      6.0000     6.0000    -0.0000     3.8607     3.8607     0.0000
 47 C      6.0000     6.0000    -0.0000     3.8607     3.8607     0.0000
 48 C      6.0000     6.0000     0.0000     3.8607     3.8607     0.0000
 49 C      6.0000     6.0000    -0.0000     3.8607     3.8607    -0.0000
 50 C      6.0000     6.0000     0.0000     3.8607     3.8607    -0.0000
 51 C      6.0000     6.0000     0.0000     3.8607     3.8607     0.0000
 52 C      6.0000     6.0000     0.0000     3.8607     3.8607     0.0000
 53 C      6.0000     6.0000    -0.0000     3.8607     3.8607     0.0000
 54 C      6.0000     6.0000     0.0000     3.8607     3.8607    -0.0000
 55 C      6.0000     6.0000     0.0000     3.8607     3.8607    -0.0000
 56 C      6.0000     6.0000     0.0000     3.8607     3.8607     0.0000
 57 C      6.0000     6.0000     0.0000     3.8607     3.8607    -0.0000
 58 C      6.0000     6.0000    -0.0000     3.8607     3.8607    -0.0000
 59 C      6.0000     6.0000     0.0000     3.8607     3.8607     0.0000

  Mayer bond orders larger than 0.100000
B(  0-C ,  1-C ) :   1.1236 B(  0-C ,  5-C ) :   1.5706 B(  0-C ,  6-C ) :   1.1236 
B(  1-C ,  2-C ) :   1.5706 B(  1-C ,  8-C ) :   1.1236 B(  2-C ,  3-C ) :   1.1236 
B(  2-C , 10-C ) :   1.1236 B(  3-C ,  4-C ) :   1.5706 B(  3-C , 11-C ) :   1.1236 
B(  4-C ,  5-C ) :   1.1236 B(  4-C , 14-C ) :   1.1236 B(  5-C , 16-C ) :   1.1236 
B(  6-C ,  7-C ) :   1.1236 B(  6-C , 18-C ) :   1.5706 B(  7-C ,  8-C ) :   1.1236 
B(  7-C , 19-C ) :   1.5706 B(  8-C ,  9-C ) :   1.5706 B(  9-C , 56-C ) :   1.1236 
B(  9-C , 58-C ) :   1.1236 B( 10-C , 28-C ) :   1.1236 B( 10-C , 58-C ) :   1.5706 
B( 11-C , 12-C ) :   1.5706 B( 11-C , 28-C ) :   1.1236 B( 12-C , 13-C ) :   1.1236 
B( 12-C , 38-C ) :   1.1236 B( 13-C , 14-C ) :   1.5706 B( 13-C , 27-C ) :   1.1236 
B( 14-C , 15-C ) :   1.1236 B( 15-C , 16-C ) :   1.1236 B( 15-C , 25-C ) :   1.5706 
B( 16-C , 17-C ) :   1.5706 B( 17-C , 18-C ) :   1.1236 B( 17-C , 23-C ) :   1.1236 
B( 18-C , 21-C ) :   1.1236 B( 19-C , 20-C ) :   1.1236 B( 19-C , 55-C ) :   1.1236 
B( 20-C , 21-C ) :   1.5706 B( 20-C , 53-C ) :   1.1236 B( 21-C , 22-C ) :   1.1236 
B( 22-C , 23-C ) :   1.1236 B( 22-C , 51-C ) :   1.5706 B( 23-C , 24-C ) :   1.5706 
B( 24-C , 25-C ) :   1.1236 B( 24-C , 49-C ) :   1.1236 B( 25-C , 26-C ) :   1.1236 
B( 26-C , 27-C ) :   1.5706 B( 26-C , 48-C ) :   1.1236 B( 27-C , 37-C ) :   1.1236 
B( 28-C , 57-C ) :   1.5706 B( 29-C , 30-C ) :   1.5706 B( 29-C , 36-C ) :   1.1236 
B( 29-C , 59-C ) :   1.1236 B( 30-C , 31-C ) :   1.1236 B( 30-C , 39-C ) :   1.1236 
B( 31-C , 32-C ) :   1.5706 B( 31-C , 40-C ) :   1.1236 B( 32-C , 33-C ) :   1.1236 
B( 32-C , 43-C ) :   1.1236 B( 33-C , 45-C ) :   1.1236 B( 33-C , 59-C ) :   1.5706 
B( 34-C , 35-C ) :   1.1236 B( 34-C , 47-C ) :   1.5706 B( 34-C , 59-C ) :   1.1236 
B( 35-C , 36-C ) :   1.1236 B( 35-C , 48-C ) :   1.5706 B( 36-C , 37-C ) :   1.5706 
B( 37-C , 38-C ) :   1.1236 B( 38-C , 39-C ) :   1.5706 B( 39-C , 57-C ) :   1.1236 
B( 40-C , 41-C ) :   1.5706 B( 40-C , 57-C ) :   1.1236 B( 41-C , 42-C ) :   1.1236 
B( 41-C , 58-C ) :   1.1236 B( 42-C , 43-C ) :   1.5706 B( 42-C , 56-C ) :   1.1236 
B( 43-C , 44-C ) :   1.1236 B( 44-C , 45-C ) :   1.1236 B( 44-C , 54-C ) :   1.5706 
B( 45-C , 46-C ) :   1.5706 B( 46-C , 47-C ) :   1.1236 B( 46-C , 52-C ) :   1.1236 
B( 47-C , 50-C ) :   1.1236 B( 48-C , 49-C ) :   1.1236 B( 49-C , 50-C ) :   1.5706 
B( 50-C , 51-C ) :   1.1236 B( 51-C , 52-C ) :   1.1236 B( 52-C , 53-C ) :   1.5706 
B( 53-C , 54-C ) :   1.1236 B( 54-C , 55-C ) :   1.1236 B( 55-C , 56-C ) :   1.5706 


-------
TIMINGS
-------

Total SCF time: 0 days 0 hours 16 min 20 sec 

Total time                  ....     980.976 sec
Sum of individual times     ....     979.584 sec  ( 99.9%)

Fock matrix formation       ....     974.028 sec  ( 99.3%)
Diagonalization             ....       1.360 sec  (  0.1%)
Density matrix formation    ....       0.099 sec  (  0.0%)
Population analysis         ....       0.141 sec  (  0.0%)
Initial guess               ....       1.866 sec  (  0.2%)
Orbital Transformation      ....       0.000 sec  (  0.0%)
Orbital Orthonormalization  ....       0.000 sec  (  0.0%)
DIIS solution               ....       0.568 sec  (  0.1%)
SOSCF solution              ....       0.662 sec  (  0.1%)

Maximum memory used throughout the entire SCF-calculation: 319.0 MB

-------------------------   --------------------
FINAL SINGLE POINT ENERGY     -2271.685994938395
-------------------------   --------------------


                            ***************************************
                            *     ORCA property calculations      *
                            ***************************************

                                    ---------------------
                                    Active property flags
                                    ---------------------
   (+) Dipole Moment


------------------------------------------------------------------------------
                       ORCA ELECTRIC PROPERTIES CALCULATION
------------------------------------------------------------------------------

Dipole Moment Calculation                       ... on
Quadrupole Moment Calculation                   ... off
Polarizability Calculation                      ... off
GBWName                                         ... C60-sym.gbw
Electron density file                           ... C60-sym.scfp
The origin for moment calculation is the CENTER OF MASS  = (-0.000000,  0.000000  0.000000)

-------------
DIPOLE MOMENT
-------------
                                X             Y             Z
Electronic contribution:     -0.00000       0.00000      -0.00000
Nuclear contribution   :      0.00000      -0.00000       0.00000
                        -----------------------------------------
Total Dipole Moment    :     -0.00000       0.00000      -0.00000
                        -----------------------------------------
Magnitude (a.u.)       :      0.00000
Magnitude (Debye)      :      0.00000



--------------------
Rotational spectrum 
--------------------
 
Rotational constants in cm-1:     0.002631     0.002631     0.002631 
Rotational constants in MHz :    78.889333    78.889333    78.889333 

 Dipole components along the rotational axes: 
x,y,z [a.u.] :    -0.000000     0.000000    -0.000000 
x,y,z [Debye]:    -0.000000     0.000000    -0.000000 

 
--------------------------------------------------------------------------
WARNING: There was an error initializing an OpenFabrics device.

  Local host:   cnode13
  Local device: mlx5_0
--------------------------------------------------------------------------
[cnode13:75697] 7 more processes have sent help message help-mpi-btl-openib.txt / error in device init
[cnode13:75697] Set MCA parameter "orte_base_help_aggregate" to 0 to see all help / error messages

Timings for individual modules:

Sum of individual times         ...      983.824 sec (=  16.397 min)
GTO integral calculation        ...        2.399 sec (=   0.040 min)   0.2 %
SCF iterations                  ...      981.425 sec (=  16.357 min)  99.8 %
                             ****ORCA TERMINATED NORMALLY****
TOTAL RUN TIME: 0 days 0 hours 16 minutes 25 seconds 450 msec

Sender: Unischeduler System <lcz@mgt01>
Subject: Job 128310: <#!/bin/bash
#BSUB -J intel
#BSUB -o C60-sym.out
#BSUB -n 8
#BSUB -q cqueue
#BSUB -R span[hosts=1]
export LD_LIBRARY_PATH=/apps/software/openmpi-4.1.1/lib:/apps/software/orca_5_0_0:$LD_LIBRARY_PATH
export PATH=/apps/software/openmpi-4.1.1/bin:/apps/software/orca_5_0_0:$PATH
/apps/software/orca_5_0_0/orca C60-sym.inp >& C60-sym.out> Done

Job <#!/bin/bash
#BSUB -J intel
#BSUB -o C60-sym.out
#BSUB -n 8
#BSUB -q cqueue
#BSUB -R span[hosts=1]
export LD_LIBRARY_PATH=/apps/software/openmpi-4.1.1/lib:/apps/software/orca_5_0_0:$LD_LIBRARY_PATH
export PATH=/apps/software/openmpi-4.1.1/bin:/apps/software/orca_5_0_0:$PATH
/apps/software/orca_5_0_0/orca C60-sym.inp >& C60-sym.out> was submitted from host <mgt01> by user <lcz>.
Job was executed on host(s) <8*cnode13>, in queue <cqueue>, as user <lcz>.
</apps/users/lcz> was used as the home directory.
</apps/users/lcz/exe4/task2/ORCA> was used as the working directory.
Started at 2022-05-05 10:10:59
Results reported at 2022-05-05 10:27:24

Your job looked like:

------------------------------------------------------------
# User input
#!/bin/bash
#BSUB -J intel
#BSUB -o C60-sym.out
#BSUB -n 8
#BSUB -q cqueue
#BSUB -R span[hosts=1]
export LD_LIBRARY_PATH=/apps/software/openmpi-4.1.1/lib:/apps/software/orca_5_0_0:$LD_LIBRARY_PATH
export PATH=/apps/software/openmpi-4.1.1/bin:/apps/software/orca_5_0_0:$PATH
/apps/software/orca_5_0_0/orca C60-sym.inp >& C60-sym.out
------------------------------------------------------------

Successfully completed.

Resource usage summary:

    CPU time   :         7847.17 sec.
    Max Memory :              2067 MB
    Max Processes  :              13


The output (if any) follows:

