
                                        *****************
                                        * O   R   C   A *
                                        *****************

                                            #,                                       
                                            ###                                      
                                            ####                                     
                                            #####                                    
                                            ######                                   
                                           ########,                                 
                                     ,,################,,,,,                         
                               ,,#################################,,                 
                          ,,##########################################,,             
                       ,#########################################, ''#####,          
                    ,#############################################,,   '####,        
                  ,##################################################,,,,####,       
                ,###########''''           ''''###############################       
              ,#####''   ,,,,##########,,,,          '''####'''          '####       
            ,##' ,,,,###########################,,,                        '##       
           ' ,,###''''                  '''############,,,                           
         ,,##''                                '''############,,,,        ,,,,,,###''
      ,#''                                            '''#######################'''  
     '                                                          ''''####''''         
             ,#######,   #######,   ,#######,      ##                                
            ,#'     '#,  ##    ##  ,#'     '#,    #''#        ######   ,####,        
            ##       ##  ##   ,#'  ##            #'  '#       #        #'  '#        
            ##       ##  #######   ##           ,######,      #####,   #    #        
            '#,     ,#'  ##    ##  '#,     ,#' ,#      #,         ##   #,  ,#        
             '#######'   ##     ##  '#######'  #'      '#     #####' # '####'        



                  #######################################################
                  #                        -***-                        #
                  #          Department of theory and spectroscopy      #
                  #    Directorship and core code : Frank Neese         #
                  #        Max Planck Institute fuer Kohlenforschung    #
                  #                Kaiser Wilhelm Platz 1               #
                  #                 D-45470 Muelheim/Ruhr               #
                  #                      Germany                        #
                  #                                                     #
                  #                  All rights reserved                #
                  #                        -***-                        #
                  #######################################################


                         Program Version 5.0.0 -  RELEASE  -
                                (SVN: $Rev: 19529$)
                ($Date: 2021-06-28 11:36:33 +0200 (Mo, 28 Jun 2021) $)


 With contributions from (in alphabetic order):
   Daniel Aravena         : Magnetic Suceptibility
   Michael Atanasov       : Ab Initio Ligand Field Theory (pilot matlab implementation)
   Alexander A. Auer      : GIAO ZORA, VPT2 properties, NMR spectrum
   Ute Becker             : Parallelization
   Giovanni Bistoni       : ED, misc. LED, open-shell LED, HFLD
   Martin Brehm           : Molecular dynamics
   Dmytro Bykov           : SCF Hessian
   Vijay G. Chilkuri      : MRCI spin determinant printing, contributions to CSF-ICE
   Dipayan Datta          : RHF DLPNO-CCSD density
   Achintya Kumar Dutta   : EOM-CC, STEOM-CC
   Dmitry Ganyushin       : Spin-Orbit,Spin-Spin,Magnetic field MRCI
   Miquel Garcia          : C-PCM Hessian, Gaussian charge scheme
   Yang Guo               : DLPNO-NEVPT2, F12-NEVPT2, CIM, IAO-localization
   Andreas Hansen         : Spin unrestricted coupled pair/coupled cluster methods
   Benjamin Helmich-Paris : MC-RPA, TRAH-SCF, COSX integrals
   Lee Huntington         : MR-EOM, pCC
   Robert Izsak           : Overlap fitted RIJCOSX, COSX-SCS-MP3, EOM
   Marcus Kettner         : VPT2
   Christian Kollmar      : KDIIS, OOCD, Brueckner-CCSD(T), CCSD density, CASPT2, CASPT2-K
   Simone Kossmann        : Meta GGA functionals, TD-DFT gradient, OOMP2, MP2 Hessian
   Martin Krupicka        : Initial AUTO-CI
   Lucas Lang             : DCDCAS
   Marvin Lechner         : AUTO-CI (C++ implementation), FIC-MRCC
   Dagmar Lenk            : GEPOL surface, SMD
   Dimitrios Liakos       : Extrapolation schemes; Compound Job, initial MDCI parallelization
   Dimitrios Manganas     : Further ROCIS development; embedding schemes
   Dimitrios Pantazis     : SARC Basis sets
   Anastasios Papadopoulos: AUTO-CI, single reference methods and gradients
   Taras Petrenko         : DFT Hessian,TD-DFT gradient, ASA, ECA, R-Raman, ABS, FL, XAS/XES, NRVS
   Peter Pinski           : DLPNO-MP2, DLPNO-MP2 Gradient
   Christoph Reimann      : Effective Core Potentials
   Marius Retegan         : Local ZFS, SOC
   Christoph Riplinger    : Optimizer, TS searches, QM/MM, DLPNO-CCSD(T), (RO)-DLPNO pert. Triples
   Tobias Risthaus        : Range-separated hybrids, TD-DFT gradient, RPA, STAB
   Michael Roemelt        : Original ROCIS implementation
   Masaaki Saitow         : Open-shell DLPNO-CCSD energy and density
   Barbara Sandhoefer     : DKH picture change effects
   Avijit Sen             : IP-ROCIS
   Kantharuban Sivalingam : CASSCF convergence, NEVPT2, FIC-MRCI
   Bernardo de Souza      : ESD, SOC TD-DFT
   Georgi Stoychev        : AutoAux, RI-MP2 NMR
   Willem Van den Heuvel  : Paramagnetic NMR
   Boris Wezisla          : Elementary symmetry handling
   Frank Wennmohs         : Technical directorship


 We gratefully acknowledge several colleagues who have allowed us to
 interface, adapt or use parts of their codes:
   Stefan Grimme, W. Hujo, H. Kruse, P. Pracht,  : VdW corrections, initial TS optimization,
                  C. Bannwarth, S. Ehlert          DFT functionals, gCP, sTDA/sTD-DF
   Ed Valeev, F. Pavosevic, A. Kumar             : LibInt (2-el integral package), F12 methods
   Garnet Chan, S. Sharma, J. Yang, R. Olivares  : DMRG
   Ulf Ekstrom                                   : XCFun DFT Library
   Mihaly Kallay                                 : mrcc  (arbitrary order and MRCC methods)
   Jiri Pittner, Ondrej Demel                    : Mk-CCSD
   Frank Weinhold                                : gennbo (NPA and NBO analysis)
   Christopher J. Cramer and Donald G. Truhlar   : smd solvation model
   Lars Goerigk                                  : TD-DFT with DH, B97 family of functionals
   V. Asgeirsson, H. Jonsson                     : NEB implementation
   FAccTs GmbH                                   : IRC, NEB, NEB-TS, DLPNO-Multilevel, CI-OPT
                                                   MM, QMMM, 2- and 3-layer-ONIOM, Crystal-QMMM,
                                                   LR-CPCM, SF, NACMEs, symmetry and pop. for TD-DFT,
                                                   nearIR, NL-DFT gradient (VV10), updates on ESD,
                                                   ML-optimized integration grids
   S Lehtola, MJT Oliveira, MAL Marques          : LibXC Library
   Liviu Ungur et al                             : ANISO software


 Your calculation uses the libint2 library for the computation of 2-el integrals
 For citations please refer to: http://libint.valeyev.net

 Your ORCA version has been built with support for libXC version: 5.1.0
 For citations please refer to: https://tddft.org/programs/libxc/

 This ORCA versions uses:
   CBLAS   interface :  Fast vector & matrix operations
   LAPACKE interface :  Fast linear algebra routines
   SCALAPACK package :  Parallel linear algebra routines
   Shared memory     :  Shared parallel matrices
   BLAS/LAPACK       :  OpenBLAS 0.3.15  USE64BITINT DYNAMIC_ARCH NO_AFFINITY SkylakeX SINGLE_THREADED
        Core in use  :  SkylakeX
   Copyright (c) 2011-2014, The OpenBLAS Project


================================================================================

----- Orbital basis set information -----
Your calculation utilizes the basis: def2-SVP
   F. Weigend and R. Ahlrichs, Phys. Chem. Chem. Phys. 7, 3297 (2005).

================================================================================
                                        WARNINGS
                       Please study these warnings very carefully!
================================================================================


INFO   : the flag for use of the SHARK integral package has been found!

================================================================================
                                       INPUT FILE
================================================================================
NAME = C7H14-CAS22-localMO.inp
|  1> ! def2-SVP pal8
|  2> ! moread
|  3> 
|  4> %moinp "C7H14-ROHF.gbw"
|  5> 
|  6> %casscf
|  7> 	mult 	3
|  8> 	nel 	2
|  9> 	norb 	2
| 10>     ActOrbs LocOrbs
| 11> end
| 12> 
| 13> *xyz 0 3
| 14>   C     -3.693788    1.345950   -0.080153
| 15>   C     -2.193484    1.373788   -0.056812
| 16>   H     -4.225508    1.180088   -1.010334
| 17>   H     -4.255204    1.224048    0.839301
| 18>   C     -1.554416   -0.023401   -0.016100
| 19>   H     -1.824927    1.905707   -0.939850
| 20>   H     -1.852812    1.944021    0.813355
| 21>   C     -0.027056    0.014500    0.007320
| 22>   H     -1.919913   -0.559214    0.866609
| 23>   H     -1.893486   -0.598246   -0.884715
| 24>   H      0.334747    0.551752   -0.877315
| 25>   H      0.305045    0.594496    0.874340
| 26>   C      0.609304   -1.374514    0.044919
| 27>   H      0.262703   -1.951369   -0.819054
| 28>   H      0.259278   -1.912060    0.933203
| 29>   C      2.147820   -1.364759    0.037560
| 30>   H      2.493149   -2.399801   -0.057561
| 31>   H      2.498336   -0.839762   -0.856087
| 32>   C      2.771544   -0.752033    1.258758
| 33>   H      3.140055    0.266294    1.257206
| 34>   H      2.687753   -1.251260    2.218099
| 35> *
| 36> 
| 37> 
| 38>                          ****END OF INPUT****
================================================================================

                       ****************************
                       * Single Point Calculation *
                       ****************************

---------------------------------
CARTESIAN COORDINATES (ANGSTROEM)
---------------------------------
  C     -3.693788    1.345950   -0.080153
  C     -2.193484    1.373788   -0.056812
  H     -4.225508    1.180088   -1.010334
  H     -4.255204    1.224048    0.839301
  C     -1.554416   -0.023401   -0.016100
  H     -1.824927    1.905707   -0.939850
  H     -1.852812    1.944021    0.813355
  C     -0.027056    0.014500    0.007320
  H     -1.919913   -0.559214    0.866609
  H     -1.893486   -0.598246   -0.884715
  H      0.334747    0.551752   -0.877315
  H      0.305045    0.594496    0.874340
  C      0.609304   -1.374514    0.044919
  H      0.262703   -1.951369   -0.819054
  H      0.259278   -1.912060    0.933203
  C      2.147820   -1.364759    0.037560
  H      2.493149   -2.399801   -0.057561
  H      2.498336   -0.839762   -0.856087
  C      2.771544   -0.752033    1.258758
  H      3.140055    0.266294    1.257206
  H      2.687753   -1.251260    2.218099

----------------------------
CARTESIAN COORDINATES (A.U.)
----------------------------
  NO LB      ZA    FRAG     MASS         X           Y           Z
   0 C     6.0000    0    12.011   -6.980248    2.543477   -0.151467
   1 C     6.0000    0    12.011   -4.145084    2.596083   -0.107359
   2 H     1.0000    0     1.008   -7.985053    2.230043   -1.909255
   3 H     1.0000    0     1.008   -8.041170    2.313115    1.586049
   4 C     6.0000    0    12.011   -2.937421   -0.044221   -0.030425
   5 H     1.0000    0     1.008   -3.448612    3.601264   -1.776059
   6 H     1.0000    0     1.008   -3.501307    3.673667    1.537018
   7 C     6.0000    0    12.011   -0.051128    0.027401    0.013833
   8 H     1.0000    0     1.008   -3.628110   -1.056761    1.637654
   9 H     1.0000    0     1.008   -3.578170   -1.130521   -1.671869
  10 H     1.0000    0     1.008    0.632580    1.042660   -1.657885
  11 H     1.0000    0     1.008    0.576452    1.123435    1.652263
  12 C     6.0000    0    12.011    1.151418   -2.597455    0.084885
  13 H     1.0000    0     1.008    0.496437   -3.687553   -1.547788
  14 H     1.0000    0     1.008    0.489964   -3.613270    1.763498
  15 C     6.0000    0    12.011    4.058792   -2.579021    0.070978
  16 H     1.0000    0     1.008    4.711369   -4.534967   -0.108775
  17 H     1.0000    0     1.008    4.721171   -1.586920   -1.617770
  18 C     6.0000    0    12.011    5.237459   -1.421136    2.378708
  19 H     1.0000    0     1.008    5.933844    0.503223    2.375775
  20 H     1.0000    0     1.008    5.079117   -2.364539    4.191600

--------------------------------
INTERNAL COORDINATES (ANGSTROEM)
--------------------------------
 C      0   0   0     0.000000000000     0.00000000     0.00000000
 C      1   0   0     1.500743765251     0.00000000     0.00000000
 H      1   2   0     1.084192351110   120.42879934     0.00000000
 H      1   2   3     1.084178804799   120.43562932   163.54756450
 C      2   1   3     1.536945827701   113.53012927   278.33644025
 H      2   1   3     1.094773124558   109.45221448    40.17276308
 H      2   1   3     1.094720829144   109.45880931   156.49520733
 C      5   2   1     1.528009670061   113.17148236   179.99457162
 H      5   2   1     1.095380667466   109.10384564   302.13076842
 H      5   2   1     1.095402783067   109.10790480    57.75670091
 H      8   5   2     1.096412424929   109.24664694   301.95157600
 H      8   5   2     1.094719194413   109.17885325    57.71553628
 C      8   5   2     1.528308747144   113.20601741   180.11788707
 H     13   8   5     1.095145327778   109.11959760    57.18753870
 H     13   8   5     1.095683516098   109.43979772   301.29555445
 C     13   8   5     1.538564524861   114.23553050   178.71332860
 H     16  13   8     1.095268033244   108.04148555   186.82045389
 H     16  13   8     1.094115294141   109.10519992   302.04378407
 C     16  13   8     1.501928538399   114.45425243    65.22934862
 H     19  16  13     1.082955513747   121.58489679   260.39243891
 H     19  16  13     1.084704422177   119.95206054    68.34287893

---------------------------
INTERNAL COORDINATES (A.U.)
---------------------------
 C      0   0   0     0.000000000000     0.00000000     0.00000000
 C      1   0   0     2.835994713515     0.00000000     0.00000000
 H      1   2   0     2.048826620090   120.42879934     0.00000000
 H      1   2   3     2.048801021273   120.43562932   163.54756450
 C      2   1   3     2.904406697029   113.53012927   278.33644025
 H      2   1   3     2.068821384191   109.45221448    40.17276308
 H      2   1   3     2.068722560182   109.45880931   156.49520733
 C      5   2   1     2.887519806399   113.17148236   179.99457162
 H      5   2   1     2.069969473903   109.10384564   302.13076842
 H      5   2   1     2.070011266331   109.10790480    57.75670091
 H      8   5   2     2.071919212944   109.24664694   301.95157600
 H      8   5   2     2.068719470988   109.17885325    57.71553628
 C      8   5   2     2.888084980179   113.20601741   180.11788707
 H     13   8   5     2.069524746345   109.11959760    57.18753870
 H     13   8   5     2.070541774876   109.43979772   301.29555445
 C     13   8   5     2.907465591355   114.23553050   178.71332860
 H     16  13   8     2.069756626070   108.04148555   186.82045389
 H     16  13   8     2.067578264862   109.10519992   302.04378407
 C     16  13   8     2.838233610294   114.45425243    65.22934862
 H     19  16  13     2.046489336201   121.58489679   260.39243891
 H     19  16  13     2.049794294168   119.95206054    68.34287893

---------------------
BASIS SET INFORMATION
---------------------
There are 2 groups of distinct atoms

 Group   1 Type C   : 7s4p1d contracted to 3s2p1d pattern {511/31/1}
 Group   2 Type H   : 4s1p contracted to 2s1p pattern {31/1}

Atom   0C    basis set group =>   1
Atom   1C    basis set group =>   1
Atom   2H    basis set group =>   2
Atom   3H    basis set group =>   2
Atom   4C    basis set group =>   1
Atom   5H    basis set group =>   2
Atom   6H    basis set group =>   2
Atom   7C    basis set group =>   1
Atom   8H    basis set group =>   2
Atom   9H    basis set group =>   2
Atom  10H    basis set group =>   2
Atom  11H    basis set group =>   2
Atom  12C    basis set group =>   1
Atom  13H    basis set group =>   2
Atom  14H    basis set group =>   2
Atom  15C    basis set group =>   1
Atom  16H    basis set group =>   2
Atom  17H    basis set group =>   2
Atom  18C    basis set group =>   1
Atom  19H    basis set group =>   2
Atom  20H    basis set group =>   2
--------------------------------------------------------------------------
WARNING: There was an error initializing an OpenFabrics device.

  Local host:   cnode03
  Local device: mlx5_0
--------------------------------------------------------------------------


           ************************************************************
           *        Program running with 8 parallel MPI-processes     *
           *              working on a common directory               *
           ************************************************************
------------------------------------------------------------------------------
                           ORCA GTO INTEGRAL CALCULATION
------------------------------------------------------------------------------
------------------------------------------------------------------------------
                   ___                                                        
                  /   \      - P O W E R E D   B Y -                         
                 /     \                                                     
                 |  |  |   _    _      __       _____    __    __             
                 |  |  |  | |  | |    /  \     |  _  \  |  |  /  |          
                  \  \/   | |  | |   /    \    | | | |  |  | /  /          
                 / \  \   | |__| |  /  /\  \   | |_| |  |  |/  /          
                |  |  |   |  __  | /  /__\  \  |    /   |      \           
                |  |  |   | |  | | |   __   |  |    \   |  |\   \          
                \     /   | |  | | |  |  |  |  | |\  \  |  | \   \       
                 \___/    |_|  |_| |__|  |__|  |_| \__\ |__|  \__/        
                                                                              
                      - O R C A' S   B I G   F R I E N D -                    
                                      &                                       
                       - I N T E G R A L  F E E D E R -                       
                                                                              
 v1 FN, 2020, v2 2021                                                         
------------------------------------------------------------------------------


Reading SHARK input file C7H14-CAS22-localMO.SHARKINP.tmp ... ok
----------------------
SHARK INTEGRAL PACKAGE
----------------------

Number of atoms                             ...     21
Number of basis functions                   ...    168
Number of shells                            ...     84
Maximum angular momentum                    ...      2
Integral batch strategy                     ... SHARK/LIBINT Hybrid
RI-J (if used) integral strategy            ... SPLIT-RIJ (Revised 2003 algorithm where possible)
Printlevel                                  ...      1
Contraction scheme used                     ... SEGMENTED contraction
Coulomb Range Separation                    ... NOT USED
Exchange Range Separation                   ... NOT USED
Finite Nucleus Model                        ... NOT USED
Auxiliary Coulomb fitting basis             ... NOT available
Auxiliary J/K fitting basis                 ... NOT available
Auxiliary Correlation fitting basis         ... NOT available
Auxiliary 'external' fitting basis          ... NOT available
Integral threshold                          ...     1.000000e-10
Primitive cut-off                           ...     1.000000e-11
Primitive pair pre-selection threshold      ...     1.000000e-11

Calculating pre-screening integrals         ... done (  0.0 sec) Dimension = 84
Organizing shell pair data                  ... done (  0.0 sec)
Shell pair information
Total number of shell pairs                 ...      3570
Shell pairs after pre-screening             ...      3204
Total number of primitive shell pairs       ...     12068
Primitive shell pairs kept                  ...      8028
          la=0 lb=0:   1134 shell pairs
          la=1 lb=0:   1236 shell pairs
          la=1 lb=1:    349 shell pairs
          la=2 lb=0:    301 shell pairs
          la=2 lb=1:    161 shell pairs
          la=2 lb=2:     23 shell pairs

Calculating one electron integrals          ... done (  0.0 sec)
Calculating Nuclear repulsion               ... done (  0.0 sec) ENN=    291.465375762518 Eh

SHARK setup successfully completed in   0.1 seconds

Maximum memory used throughout the entire GTOINT-calculation: 6.8 MB
[cnode03:47132] 7 more processes have sent help message help-mpi-btl-openib.txt / error in device init
[cnode03:47132] Set MCA parameter "orte_base_help_aggregate" to 0 to see all help / error messages
--------------------------------------------------------------------------
WARNING: There was an error initializing an OpenFabrics device.

  Local host:   cnode03
  Local device: mlx5_0
--------------------------------------------------------------------------


           ************************************************************
           *        Program running with 8 parallel MPI-processes     *
           *              working on a common directory               *
           ************************************************************
-------------------------------------------------------------------------------
                                 ORCA SCF
-------------------------------------------------------------------------------

------------
SCF SETTINGS
------------
Hamiltonian:
 Ab initio Hamiltonian  Method          .... Hartree-Fock(GTOs)


General Settings:
 Integral files         IntName         .... C7H14-CAS22-localMO
 Hartree-Fock type      HFTyp           .... CASSCF
 Total Charge           Charge          ....    0
 Multiplicity           Mult            ....    3
 Number of Electrons    NEL             ....   56
 Basis Dimension        Dim             ....  168
 Nuclear Repulsion      ENuc            ....    291.4653757625 Eh


Diagonalization of the overlap matrix:
Smallest eigenvalue                        ... 1.230e-03
Time for diagonalization                   ...    0.003 sec
Threshold for overlap eigenvalues          ... 1.000e-08
Number of eigenvalues below threshold      ... 0
Time for construction of square roots      ...    0.004 sec
Total time needed                          ...    0.008 sec

---------------------
INITIAL GUESS: MOREAD
---------------------
Guess MOs are being read from file: C7H14-ROHF.gbw
Input Geometry matches current geometry (good)
Input basis set matches current basis set (good)
MOs were renormalized
Gram-Schmidt orthogonalization of all MOs with pivot on actives
                      ------------------
                      INITIAL GUESS DONE (   0.0 sec)
                      ------------------


 ... the calculation is a CASSCF calculation -I'm leaving here GOOD LUCK!!!

[cnode03:47192] 7 more processes have sent help message help-mpi-btl-openib.txt / error in device init
[cnode03:47192] Set MCA parameter "orte_base_help_aggregate" to 0 to see all help / error messages
--------------------------------------------------------------------------
WARNING: There was an error initializing an OpenFabrics device.

  Local host:   cnode03
  Local device: mlx5_0
--------------------------------------------------------------------------


           ************************************************************
           *        Program running with 8 parallel MPI-processes     *
           *              working on a common directory               *
           ************************************************************
-------------------------------------------------------------------------------
                              ORCA-CASSCF
-------------------------------------------------------------------------------

Setting up the integral package       ... done
Building the CAS space                ... done (1 configurations for Mult=3)

SYSTEM-SPECIFIC SETTINGS:
Number of active electrons          ...    2
Number of active orbitals           ...    2
Total number of electrons           ...   56
Total number of orbitals            ...  168

Determined orbital ranges:
   Internal       0 -   26 (  27 orbitals)
   Active        27 -   28 (   2 orbitals)
   External      29 -  167 ( 139 orbitals)
Number of rotation parameters      ...   4085

CI-STEP:
CI strategy                         ... General CI
Number of multiplicity blocks       ...    1
BLOCK  1 WEIGHT=   1.0000
  Multiplicity                      ...    3
  #(Configurations)                 ...    1
  #(CSFs)                           ...    1
  #(Roots)                          ...    1
    ROOT=0 WEIGHT=    1.000000
   ===>>> The calculation is a restricted open-shell Hartree-Fock case

  PrintLevel                        ...    1
  N(GuessMat)                       ...       512
  MaxDim(CI)                        ...        10
  MaxIter(CI)                       ...        64
  Energy Tolerance CI               ...  1.00e-08
  Residual Tolerance CI             ...  1.00e-08
  Shift(CI)                         ...  1.00e-04

INTEGRAL-TRANSFORMATION-STEP:
  Algorithm                         ... EXACT

ORBITAL-IMPROVEMENT-STEP:
  Algorithm                         ... SuperCI(PT)
  Default Parametrization           ... CAYLEY
  Act-Act rotations                 ... depends on algorithm used

  Note: SuperCI(PT) will ignore FreezeIE, FreezeAct and FreezeGrad. In general Default settings are encouraged.
        In conjunction with ShiftUp, ShiftDn or GradScaling the performance of SuperCI(PT) is less optimal.  

  MaxRot                            ... 2.00e-01 
  Max. no of vectors (DIIS)         ... 15
  DThresh (cut-off) metric          ... 1.00e-06
  Switch step at gradient           ...  3.00e-02 
  Switch step at iteration          ...        50   
  Switch step to                    ... SuperCI(PT)    

SCF-SETTINGS:
  Incremental                       ... on
  RIJCOSX approximation             ... off
  RI-JK approximation               ... off
  AO integral handling              ... DIRECT
  Integral Neglect Thresh           ...  1.00e-10
  Primitive cutoff TCut             ...  1.00e-11
  Energy convergence tolerance      ...  1.00e-07
  Orbital gradient convergence      ...  1.00e-03
  Max. number of iterations         ...        75  


FINAL ORBITALS:
  Active   Orbitals                 ... localized 
  Internal Orbitals                 ... canonical 
  External Orbitals                 ... canonical 

------------------
CAS-SCF ITERATIONS
------------------


MACRO-ITERATION   1: 
   --- Inactive Energy E0 = -272.14397205 Eh
CI-ITERATION   0: 
  -272.936270419   0.000000000000 (    0.00)
   CI-PROBLEM SOLVED
   DENSITIES MADE

                 <<<<<<<<<<<<<<<<<<INITIAL CI STATE CHECK>>>>>>>>>>>>>>>>>>

BLOCK  1 MULT= 3 NROOTS= 1 
ROOT   0:  E=    -272.9362704189 Eh
      1.00000 [     0]: 11

                 <<<<<<<<<<<<<<<<<<INITIAL CI STATE CHECK>>>>>>>>>>>>>>>>>>

   E(CAS)=  -272.936270419 Eh DE=    0.000000e+00
   --- Energy gap subspaces: Ext-Act = 0.269   Act-Int = 0.366
   N(occ)=  1.00000 1.00000
   ||g|| =     4.132984e-04 Max(G)=    8.075897e-05 Rot=33,27
                     ---- THE CAS-SCF GRADIENT HAS CONVERGED ----
                            --- FINALIZING ORBITALS ---
                    ---- DOING ONE FINAL ITERATION FOR PRINTING ----
   --- Localizing Subspace 27-28
------------------------------------------------------------------------------
                           ORCA ORBITAL LOCALIZATION
------------------------------------------------------------------------------

Input orbitals are from                  ... C7H14-CAS22-localMO.cstart_27_28.gbw
Output orbitals are to                   ... C7H14-CAS22-localMO.custom_27_28.gbw
Max. number of iterations                ... 128
Localizations seeded randomly            ... on
Convergence tolerance                    ... 1.000e-06
Treshold for strong local MOs            ... 9.500e-01
Treshold for bond MOs                    ... 8.500e-01
Operator                                 ... 0
Orbital range for localization           ... 27 to 28
Localization criterion                   ... NEW-BOYS
Doing the dipole integrals     ... o.k.
Initial value of the localization sum :    90.555926
ITERATION   0 : L=   90.5560907484 DL=  1.65e-04 (AVERGE_DL)=    0.0128533651 
ITERATION   1 : L=   90.5560907484 DL=  0.00e+00 (AVERGE_DL)=    0.0000000000 
LOCALIZATION SUM CONVERGED


------------------------------------------------------------------------------- 
                    LOCALIZED MOLECULAR ORBITAL COMPOSITIONS                   
------------------------------------------------------------------------------- 

The Mulliken populations for each LMO on each atom are computed
The LMO`s will be ordered according to atom index and type
  (A) Strongly localized MO`s have populations of >=0.950 on one atom
  (B) Two center bond orbitals have populations of >=0.850 on two atoms
  (C) Other MO`s are considered to be `delocalized`

FOUND  -   2 strongly local MO`s
       -   0 two center bond MO`s
       -   0 significantly delocalized MO`s

Rather strongly localized orbitals:
MO  28:  18C  -   0.961394
MO  27:   0C  -   0.963515
Localized MO's were stored in: C7H14-CAS22-localMO.custom_27_28.gbw
   --- Canonicalize Internal Space
   --- Canonicalize External Space

MACRO-ITERATION   2: 
[cnode03:47252] 7 more processes have sent help message help-mpi-btl-openib.txt / error in device init
[cnode03:47252] Set MCA parameter "orte_base_help_aggregate" to 0 to see all help / error messages
   --- Inactive Energy E0 = -272.14397205 Eh
   --- All densities will be recomputed
CI-ITERATION   0: 
  -272.936270419   0.000000000000 (    0.00)
   CI-PROBLEM SOLVED
   DENSITIES MADE
   E(CAS)=  -272.936270419 Eh DE=   -1.705303e-13
   --- Energy gap subspaces: Ext-Act = 0.270   Act-Int = 0.367
   N(occ)=  1.00000 1.00000
   ||g|| =     4.132984e-04 Max(G)=    8.410647e-05 Rot=33,27
--------------
CASSCF RESULTS
--------------

Final CASSCF energy       : -272.936270419 Eh   -7426.9735 eV

----------------
ORBITAL ENERGIES
----------------

  NO   OCC          E(Eh)            E(eV) 
   0   2.0000     -11.225566      -305.4632 
   1   2.0000     -11.224481      -305.4337 
   2   2.0000     -11.220898      -305.3362 
   3   2.0000     -11.220786      -305.3331 
   4   2.0000     -11.220618      -305.3285 
   5   2.0000     -11.220003      -305.3118 
   6   2.0000     -11.217698      -305.2491 
   7   2.0000      -1.080434       -29.4001 
   8   2.0000      -1.036719       -28.2106 
   9   2.0000      -0.966275       -26.2937 
  10   2.0000      -0.883689       -24.0464 
  11   2.0000      -0.817401       -22.2426 
  12   2.0000      -0.777187       -21.1483 
  13   2.0000      -0.763147       -20.7663 
  14   2.0000      -0.653693       -17.7879 
  15   2.0000      -0.625192       -17.0123 
  16   2.0000      -0.605202       -16.4684 
  17   2.0000      -0.577599       -15.7173 
  18   2.0000      -0.561374       -15.2758 
  19   2.0000      -0.553245       -15.0546 
  20   2.0000      -0.530884       -14.4461 
  21   2.0000      -0.508955       -13.8494 
  22   2.0000      -0.492506       -13.4018 
  23   2.0000      -0.473399       -12.8818 
  24   2.0000      -0.463652       -12.6166 
  25   2.0000      -0.461309       -12.5529 
  26   2.0000      -0.458415       -12.4741 
  27   1.0000      -0.091266        -2.4835 
  28   1.0000      -0.091311        -2.4847 
  29   0.0000       0.179132         4.8744 
  30   0.0000       0.194462         5.2916 
  31   0.0000       0.205438         5.5903 
  32   0.0000       0.208615         5.6767 
  33   0.0000       0.229577         6.2471 
  34   0.0000       0.236087         6.4242 
  35   0.0000       0.239968         6.5299 
  36   0.0000       0.268896         7.3170 
  37   0.0000       0.280674         7.6375 
  38   0.0000       0.286609         7.7990 
  39   0.0000       0.291244         7.9252 
  40   0.0000       0.296235         8.0610 
  41   0.0000       0.312189         8.4951 
  42   0.0000       0.323043         8.7904 
  43   0.0000       0.371800        10.1172 
  44   0.0000       0.386807        10.5256 
  45   0.0000       0.421678        11.4744 
  46   0.0000       0.435486        11.8502 
  47   0.0000       0.453327        12.3357 
  48   0.0000       0.477217        12.9857 
  49   0.0000       0.576463        15.6864 
  50   0.0000       0.595275        16.1983 
  51   0.0000       0.606092        16.4926 
  52   0.0000       0.622170        16.9301 
  53   0.0000       0.624766        17.0007 
  54   0.0000       0.650063        17.6891 
  55   0.0000       0.662088        18.0163 
  56   0.0000       0.685891        18.6640 
  57   0.0000       0.694396        18.8955 
  58   0.0000       0.721629        19.6365 
  59   0.0000       0.741389        20.1742 
  60   0.0000       0.778134        21.1741 
  61   0.0000       0.837000        22.7759 
  62   0.0000       0.857473        23.3330 
  63   0.0000       0.863588        23.4994 
  64   0.0000       0.876891        23.8614 
  65   0.0000       0.888930        24.1890 
  66   0.0000       0.895136        24.3579 
  67   0.0000       0.902522        24.5589 
  68   0.0000       0.908537        24.7225 
  69   0.0000       0.914224        24.8773 
  70   0.0000       0.924880        25.1673 
  71   0.0000       0.928217        25.2581 
  72   0.0000       0.931825        25.3562 
  73   0.0000       0.940087        25.5811 
  74   0.0000       0.945260        25.7218 
  75   0.0000       0.955218        25.9928 
  76   0.0000       0.959931        26.1211 
  77   0.0000       0.962418        26.1887 
  78   0.0000       0.967093        26.3159 
  79   0.0000       0.969920        26.3929 
  80   0.0000       0.971217        26.4282 
  81   0.0000       0.991259        26.9735 
  82   0.0000       1.034022        28.1372 
  83   0.0000       1.109956        30.2034 
  84   0.0000       1.125123        30.6162 
  85   0.0000       1.162901        31.6441 
  86   0.0000       1.246317        33.9140 
  87   0.0000       1.268830        34.5266 
  88   0.0000       1.280426        34.8422 
  89   0.0000       1.313626        35.7456 
  90   0.0000       1.338675        36.4272 
  91   0.0000       1.443480        39.2791 
  92   0.0000       1.461747        39.7762 
  93   0.0000       1.514638        41.2154 
  94   0.0000       1.523784        41.4643 
  95   0.0000       1.543892        42.0114 
  96   0.0000       1.608901        43.7804 
  97   0.0000       1.627347        44.2824 
  98   0.0000       1.649386        44.8821 
  99   0.0000       1.661233        45.2044 
 100   0.0000       1.689744        45.9803 
 101   0.0000       1.831918        49.8490 
 102   0.0000       1.890524        51.4438 
 103   0.0000       1.902873        51.7798 
 104   0.0000       1.932388        52.5830 
 105   0.0000       1.938276        52.7432 
 106   0.0000       1.959841        53.3300 
 107   0.0000       1.970544        53.6212 
 108   0.0000       1.975382        53.7529 
 109   0.0000       2.019608        54.9563 
 110   0.0000       2.037619        55.4464 
 111   0.0000       2.062410        56.1210 
 112   0.0000       2.076083        56.4931 
 113   0.0000       2.077349        56.5275 
 114   0.0000       2.089697        56.8635 
 115   0.0000       2.100083        57.1462 
 116   0.0000       2.105980        57.3066 
 117   0.0000       2.135478        58.1093 
 118   0.0000       2.143822        58.3364 
 119   0.0000       2.151029        58.5325 
 120   0.0000       2.158403        58.7331 
 121   0.0000       2.166190        58.9450 
 122   0.0000       2.181809        59.3700 
 123   0.0000       2.200358        59.8748 
 124   0.0000       2.225937        60.5708 
 125   0.0000       2.234384        60.8007 
 126   0.0000       2.242801        61.0297 
 127   0.0000       2.278465        62.0002 
 128   0.0000       2.295656        62.4680 
 129   0.0000       2.313974        62.9664 
 130   0.0000       2.354037        64.0566 
 131   0.0000       2.400212        65.3131 
 132   0.0000       2.414274        65.6957 
 133   0.0000       2.447762        66.6070 
 134   0.0000       2.458911        66.9104 
 135   0.0000       2.480919        67.5092 
 136   0.0000       2.551621        69.4331 
 137   0.0000       2.556626        69.5693 
 138   0.0000       2.617983        71.2389 
 139   0.0000       2.645040        71.9752 
 140   0.0000       2.696670        73.3801 
 141   0.0000       2.724781        74.1451 
 142   0.0000       2.742730        74.6335 
 143   0.0000       2.757023        75.0224 
 144   0.0000       2.769335        75.3574 
 145   0.0000       2.771840        75.4256 
 146   0.0000       2.821004        76.7634 
 147   0.0000       2.874672        78.2238 
 148   0.0000       2.883383        78.4608 
 149   0.0000       2.913372        79.2769 
 150   0.0000       2.939802        79.9961 
 151   0.0000       2.980136        81.0936 
 152   0.0000       3.008523        81.8661 
 153   0.0000       3.123425        84.9927 
 154   0.0000       3.174145        86.3729 
 155   0.0000       3.192042        86.8599 
 156   0.0000       3.225057        87.7583 
 157   0.0000       3.251908        88.4889 
 158   0.0000       3.266137        88.8761 
 159   0.0000       3.301432        89.8365 
 160   0.0000       3.332497        90.6819 
 161   0.0000       3.352231        91.2189 
 162   0.0000       3.365650        91.5840 
 163   0.0000       3.388184        92.1972 
 164   0.0000       3.404165        92.6321 
 165   0.0000       3.454208        93.9938 
 166   0.0000       3.482962        94.7762 
 167   0.0000       3.499695        95.2315 


---------------------------------------------
CAS-SCF STATES FOR BLOCK  1 MULT= 3 NROOTS= 1
---------------------------------------------

ROOT   0:  E=    -272.9362704189 Eh
      1.00000 [     0]: 11


--------------
DENSITY MATRIX
--------------

                  0          1    
      0       1.000000   0.000000
      1       0.000000   1.000000
Trace of the electron density:  2.000000
Extracting Spin-Density from 2-RDM (MULT=3) ... done

-------------------
SPIN-DENSITY MATRIX
-------------------

                  0          1    
      0       1.000000   0.000000
      1       0.000000   1.000000
Trace of the spin density:  2.000000

-----------------
ENERGY COMPONENTS
-----------------

One electron energy          :   -944.407440860 Eh      -25698.6330 eV
Two electron energy          :    380.005794679 Eh       10340.4834 eV
Nuclear repulsion energy     :    291.465375763 Eh        7931.1761 eV
                               ----------------
                                 -272.936270419

Kinetic energy               :    271.455303238 Eh        7386.6743 eV
Potential energy             :   -544.391573657 Eh      -14813.6478 eV
Virial ratio                 :     -2.005455658 
                               ----------------
                                 -272.936270419

Core energy                  :   -272.143972055 Eh    -7405.4140 eV


----------------------------
LOEWDIN ORBITAL-COMPOSITIONS
----------------------------

                      0         1         2         3         4         5   
                 -11.22557 -11.22448 -11.22090 -11.22079 -11.22062 -11.22000
                   2.00000   2.00000   2.00000   2.00000   2.00000   2.00000
                  --------  --------  --------  --------  --------  --------
 0 C  s               0.0       0.6       0.0       0.0      98.8       0.1
 0 C  px              0.0       0.1       0.0       0.0       0.0       0.0
 1 C  s               0.0      98.6       0.0       0.0       0.6       0.4
 1 C  px              0.0       0.0       0.0       0.0       0.1       0.0
 4 C  s               0.0       0.3       0.0       0.1       0.1      97.6
 7 C  s               0.0       0.0       0.1       0.8       0.0       1.3
 7 C  px              0.0       0.0       0.0       0.0       0.0       0.1
12 C  s               0.3       0.0       5.7      92.6       0.0       0.1
15 C  s              98.8       0.0       0.3       0.5       0.0       0.0
18 C  s               0.4       0.0      93.5       5.6       0.0       0.0

                      6         7         8         9        10        11   
                 -11.21770  -1.08043  -1.03672  -0.96628  -0.88369  -0.81740
                   2.00000   2.00000   2.00000   2.00000   2.00000   2.00000
                  --------  --------  --------  --------  --------  --------
 0 C  s               0.0       1.9       6.3      10.2      10.3       8.6
 0 C  px              0.0       1.0       2.1       1.1       0.0       1.7
 0 C  dx2y2           0.0       0.0       0.1       0.1       0.0       0.0
 1 C  s               0.0       7.5      15.1       8.1       0.3       1.2
 1 C  px              0.0       0.1       0.1       2.8       4.9       3.3
 1 C  py              0.0       1.2       0.7       0.4       2.0       0.7
 1 C  dx2y2           0.0       0.0       0.0       0.1       0.2       0.2
 2 H  s               0.0       0.3       1.2       2.4       3.4       4.3
 2 H  pz              0.0       0.0       0.1       0.2       0.2       0.3
 3 H  s               0.0       0.3       1.2       2.4       3.4       4.3
 3 H  pz              0.0       0.0       0.1       0.1       0.2       0.3
 4 C  s               1.4      13.6       8.0       1.5       8.4       3.3
 4 C  px              0.1       0.9       0.8       4.9       0.0       3.6
 4 C  py              0.0       0.4       1.8       1.5       0.0       0.0
 4 C  dx2y2           0.0       0.0       0.0       0.2       0.0       0.2
 5 H  s               0.0       1.5       3.3       2.0       0.1       0.5
 5 H  pz              0.0       0.1       0.2       0.1       0.0       0.0
 6 H  s               0.0       1.5       3.3       2.0       0.1       0.5
 6 H  pz              0.0       0.1       0.2       0.1       0.0       0.0
 6 H  py              0.0       0.0       0.1       0.0       0.0       0.0
 7 C  s              97.4      16.4       0.0      11.8       0.0       8.0
 7 C  px              0.0       0.4       3.3       0.1       4.4       1.6
 7 C  py              0.0       0.9       1.3       0.2       2.4       0.9
 7 C  dx2y2           0.0       0.0       0.1       0.0       0.2       0.0
 8 H  s               0.0       2.8       1.7       0.4       2.6       1.7
 8 H  pz              0.0       0.2       0.1       0.0       0.2       0.1
 9 H  s               0.0       2.8       1.7       0.4       2.5       1.8
 9 H  pz              0.0       0.2       0.1       0.0       0.2       0.1
10 H  s               0.0       3.4       0.0       2.8       0.0       3.9
10 H  pz              0.0       0.2       0.0       0.2       0.0       0.3
11 H  s               0.0       3.4       0.0       2.7       0.1       4.7
11 H  pz              0.0       0.2       0.0       0.2       0.0       0.3
11 H  py              0.0       0.1       0.0       0.1       0.0       0.1
12 C  s               0.8      13.7       7.7       1.2      11.1       0.9
12 C  pz              0.0       0.0       0.0       0.0       0.1       0.2
12 C  px              0.0       0.0       2.4       4.5       0.1       1.7
12 C  py              0.1       1.4       0.0       1.6       0.3       4.7
12 C  dx2y2           0.0       0.0       0.0       0.2       0.0       0.2
13 H  s               0.0       2.8       1.6       0.4       4.2       1.1
13 H  pz              0.0       0.2       0.1       0.0       0.3       0.1
13 H  py              0.0       0.1       0.0       0.0       0.1       0.0
14 H  s               0.0       2.8       1.6       0.3       3.5       0.5
14 H  pz              0.0       0.2       0.1       0.0       0.3       0.0
15 C  s               0.0       7.7      14.4       8.8       0.3       3.2
15 C  pz              0.0       0.1       0.3       0.8       2.1       2.7
15 C  px              0.0       1.2       0.3       1.5       6.5       0.8
15 C  py              0.0       0.1       0.1       0.1       0.7       2.0
15 C  dz2             0.0       0.0       0.0       0.0       0.1       0.1
16 H  s               0.0       1.5       3.2       2.5       0.1       2.4
16 H  py              0.0       0.1       0.3       0.3       0.0       0.2
17 H  s               0.0       1.6       3.1       2.2       0.1       1.4
17 H  pz              0.0       0.1       0.2       0.2       0.0       0.1
18 C  s               0.0       2.1       6.0       9.4      13.0       8.2
18 C  pz              0.0       0.6       1.2       0.7       0.0       1.5
18 C  px              0.0       0.3       0.5       0.2       0.0       0.2
18 C  py              0.0       0.1       0.3       0.2       0.0       0.8
19 H  s               0.0       0.4       1.1       2.1       4.5       4.7
19 H  py              0.0       0.0       0.1       0.2       0.4       0.3
20 H  s               0.0       0.4       1.2       2.2       4.2       4.1
20 H  pz              0.0       0.0       0.1       0.2       0.3       0.2
20 H  py              0.0       0.0       0.0       0.0       0.1       0.1

                     12        13        14        15        16        17   
                  -0.77719  -0.76315  -0.65369  -0.62519  -0.60520  -0.57760
                   2.00000   2.00000   2.00000   2.00000   2.00000   2.00000
                  --------  --------  --------  --------  --------  --------
 0 C  s               6.8       1.0       0.0       0.0       0.0       0.1
 0 C  pz              0.0       0.0       5.7       5.8      11.0       4.7
 0 C  px              5.9       0.9       0.0       0.5       1.1       4.1
 0 C  py              0.7       0.0       0.0       0.0       0.0       0.1
 0 C  dz2             0.1       0.0       0.0       0.0       0.0       0.1
 1 C  s               8.1       0.7       0.0       0.0       0.0       0.1
 1 C  pz              0.0       0.0      13.1       6.8       6.7       0.5
 1 C  px              3.8       0.1       0.0       0.5       0.8       3.8
 1 C  py              6.5       0.0       0.0       0.0       0.4       3.9
 1 C  dz2             0.1       0.0       0.0       0.0       0.0       0.1
 2 H  s               5.3       0.8       1.3       2.9       2.0       5.0
 2 H  pz              0.4       0.1       0.0       0.1       0.0       0.1
 2 H  px              0.0       0.0       0.0       0.0       0.1       0.0
 3 H  s               5.3       0.8       1.7       0.9       5.8       0.2
 3 H  pz              0.4       0.1       0.0       0.0       0.1       0.0
 4 C  s               6.1       0.0       0.0       0.0       0.0       0.0
 4 C  pz              0.0       0.0      17.1       1.9       0.0       2.1
 4 C  px              1.0       1.3       0.0       1.3       2.6       9.6
 4 C  py              8.7       0.1       0.1       0.4       0.4       0.0
 4 C  dz2             0.1       0.0       0.0       0.0       0.0       0.0
 5 H  s               7.3       0.3       3.6       2.1       1.2       2.3
 5 H  pz              0.5       0.0       0.0       0.0       0.0       0.1
 5 H  py              0.1       0.0       0.1       0.1       0.0       0.0
 6 H  s               7.3       0.3       3.3       1.7       2.9       0.5
 6 H  pz              0.5       0.0       0.0       0.0       0.0       0.1
 6 H  py              0.1       0.0       0.1       0.1       0.1       0.0
 7 C  s               1.3       2.8       0.0       0.1       0.1       0.0
 7 C  pz              0.0       0.2      15.1       0.2       7.3       3.2
 7 C  px              3.1       0.1       0.0       1.0       2.3       9.8
 7 C  py              1.8       5.5       0.2       1.7       0.7       0.1
 8 H  s               5.9       0.2       4.1       1.4       0.5       0.0
 8 H  pz              0.4       0.0       0.0       0.0       0.0       0.0
 8 H  px              0.0       0.0       0.1       0.0       0.0       0.1
 8 H  py              0.0       0.0       0.1       0.0       0.0       0.0
 9 H  s               5.9       0.1       4.7       0.1       0.2       2.5
 9 H  pz              0.4       0.0       0.0       0.0       0.0       0.1
 9 H  py              0.1       0.0       0.1       0.0       0.0       0.1
10 H  s               1.8       3.4       3.3       0.0       2.4       3.3
10 H  pz              0.1       0.2       0.0       0.0       0.0       0.1
10 H  px              0.0       0.0       0.0       0.0       0.1       0.0
10 H  py              0.0       0.0       0.1       0.0       0.0       0.1
11 H  s               1.9       2.1       4.5       0.5       1.6       0.1
11 H  pz              0.1       0.2       0.0       0.0       0.0       0.0
11 H  px              0.0       0.0       0.1       0.0       0.0       0.1
11 H  py              0.0       0.0       0.1       0.0       0.1       0.0
12 C  s               0.0       6.3       0.0       0.1       0.1       0.1
12 C  pz              0.0       0.7       8.7       5.2       9.3       0.0
12 C  px              0.1       3.8       0.1       0.1       0.6       6.0
12 C  py              0.9       3.0       0.0       1.9       3.9       4.4
12 C  dz2             0.0       0.1       0.0       0.0       0.0       0.1
13 H  s               0.1       4.2       2.7       1.0       5.8       1.6
13 H  pz              0.0       0.3       0.0       0.0       0.1       0.1
14 H  s               0.1       7.1       2.0       1.9       1.0       1.4
14 H  pz              0.0       0.4       0.0       0.0       0.0       0.1
14 H  py              0.0       0.1       0.1       0.0       0.1       0.0
15 C  s               0.0       6.7       0.1       0.0       0.1       0.0
15 C  pz              0.0       4.9       1.7       7.0       0.7       2.9
15 C  px              0.0       2.4       0.0       0.0       0.5       5.7
15 C  py              0.2       0.1       0.6      12.6       9.0       0.5
15 C  dx2y2           0.0       0.1       0.0       0.0       0.1       0.1
16 H  s               0.1       4.5       0.3       4.9       4.4       1.3
16 H  pz              0.0       0.0       0.0       0.1       0.0       0.0
16 H  py              0.0       0.4       0.0       0.1       0.1       0.1
17 H  s               0.0       7.3       0.7       5.9       0.2       1.7
17 H  pz              0.0       0.3       0.0       0.2       0.1       0.0
17 H  py              0.0       0.2       0.0       0.0       0.0       0.1
18 C  s               0.0       6.3       0.2       0.0       0.1       0.0
18 C  pz              0.0       6.1       0.1       1.9       5.7       1.3
18 C  px              0.0       0.2       0.5       1.4       0.4       2.1
18 C  py              0.0       0.8       1.3      13.7       1.6       5.6
18 C  dyz             0.0       0.1       0.0       0.0       0.0       0.0
19 H  s               0.0       4.4       1.2       7.1       0.1       4.3
19 H  py              0.0       0.3       0.1       0.2       0.0       0.1
20 H  s               0.0       6.1       0.0       3.2       4.3       2.2
20 H  pz              0.0       0.3       0.0       0.2       0.1       0.1
20 H  py              0.0       0.2       0.0       0.0       0.0       0.0

                     18        19        20        21        22        23   
                  -0.56137  -0.55325  -0.53088  -0.50895  -0.49251  -0.47340
                   2.00000   2.00000   2.00000   2.00000   2.00000   2.00000
                  --------  --------  --------  --------  --------  --------
 0 C  s               0.0       0.0       0.1       0.0       0.0       0.0
 0 C  pz              2.8       7.7       3.0       6.7       1.2       3.5
 0 C  px              2.3      10.0      10.6       0.9       0.4       0.0
 0 C  py              0.9       0.1       0.0       0.1       0.5       0.0
 0 C  dz2             0.0       0.1       0.2       0.0       0.0       0.0
 0 C  dxz             0.0       0.2       0.1       0.4       0.1       0.4
 1 C  s               0.0       0.0       0.1       0.1       0.3       0.0
 1 C  pz              0.0       0.0       0.7       6.0       1.7      12.6
 1 C  px              2.4       9.5       9.9       0.6       0.0       0.0
 1 C  py             10.3       0.5       2.5       3.3      13.6       0.2
 1 C  dz2             0.1       0.0       0.2       0.1       0.2       0.0
 1 C  dxz             0.0       0.1       0.0       0.2       0.0       0.2
 1 C  dyz             0.0       0.0       0.0       0.0       0.0       0.5
 1 C  dx2y2           0.1       0.1       0.1       0.0       0.0       0.0
 1 C  dxy             0.1       0.0       0.0       0.0       0.1       0.0
 2 H  s               2.8       0.4       5.9       2.7       1.1       2.5
 2 H  pz              0.1       0.0       0.1       0.0       0.0       0.0
 2 H  px              0.0       0.2       0.0       0.1       0.0       0.0
 3 H  s               0.2       9.6       0.0       5.3       0.4       2.8
 3 H  pz              0.0       0.2       0.0       0.0       0.0       0.0
 3 H  px              0.1       0.0       0.1       0.0       0.0       0.0
 4 C  s               0.2       0.2       0.1       0.0       0.1       0.0
 4 C  pz              1.9       7.2       2.6       2.5       0.0       5.6
 4 C  px              2.9       0.4       0.5       0.0       0.2       0.2
 4 C  py             10.0       4.1       0.0       2.7      13.9       0.3
 4 C  dz2             0.0       0.0       0.0       0.0       0.3       0.0
 4 C  dxz             0.0       0.0       0.0       0.1       0.0       0.0
 4 C  dyz             0.0       0.1       0.0       0.0       0.0       0.3
 4 C  dx2y2           0.1       0.0       0.0       0.0       0.0       0.0
 4 C  dxy             0.0       0.0       0.0       0.0       0.3       0.0
 5 H  s               0.8       0.3       0.8       6.4       0.3       8.6
 5 H  px              0.1       0.1       0.1       0.0       0.0       0.0
 5 H  py              0.1       0.0       0.0       0.0       0.2       0.1
 6 H  s               1.0       0.1       3.7       0.5       5.9       6.2
 6 H  pz              0.1       0.0       0.1       0.0       0.1       0.0
 6 H  px              0.1       0.1       0.1       0.0       0.0       0.0
 6 H  py              0.1       0.0       0.0       0.1       0.0       0.1
 7 C  s               0.3       0.3       0.2       0.0       0.0       0.0
 7 C  pz              0.8       1.1       0.4       7.6       1.7       1.4
 7 C  px              1.3       0.8       0.2       0.0       0.8       0.1
 7 C  py             11.4       1.1       3.0       0.3       0.9       0.3
 7 C  dz2             0.1       0.0       0.1       0.0       0.0       0.0
 7 C  dxz             0.0       0.0       0.0       0.1       0.0       0.0
 7 C  dyz             0.0       0.1       0.0       0.1       0.0       0.2
 8 H  s               0.1       4.9       1.3       0.1       3.3       4.5
 8 H  pz              0.0       0.1       0.0       0.0       0.1       0.0
 8 H  py              0.2       0.0       0.0       0.1       0.1       0.0
 9 H  s               1.8       0.8       0.7       3.2       3.3       1.9
 9 H  pz              0.0       0.0       0.0       0.0       0.1       0.0
 9 H  px              0.1       0.0       0.0       0.0       0.0       0.0
 9 H  py              0.0       0.1       0.0       0.0       0.1       0.1
10 H  s               0.4       0.1       0.6       4.1       2.3       0.3
11 H  s               3.3       0.6       2.6       2.4       0.0       1.4
11 H  pz              0.1       0.0       0.1       0.0       0.0       0.0
11 H  py              0.0       0.0       0.0       0.1       0.0       0.0
12 C  s               0.2       0.1       0.1       0.0       0.0       0.0
12 C  pz              1.2       5.1       2.3       0.9       0.1      11.4
12 C  px              8.1       1.0       1.8       1.7       6.9       0.1
12 C  py              3.5       1.1       4.3       1.3       0.0       0.2
12 C  dxz             0.0       0.0       0.0       0.1       0.0       0.2
12 C  dyz             0.0       0.1       0.0       0.0       0.0       0.4
13 H  s               1.0       0.9       0.0       2.3       1.1       7.0
13 H  px              0.2       0.0       0.0       0.0       0.1       0.1
14 H  s               0.1       3.0       3.6       0.0       0.4       6.1
14 H  py              0.1       0.0       0.0       0.0       0.0       0.1
15 C  pz              2.9       4.3       0.0      10.9       2.0       6.6
15 C  px              8.5       1.1       2.7       2.0       5.7       0.0
15 C  py              0.5       2.8       7.3       0.4       5.8       0.0
15 C  dz2             0.1       0.0       0.1       0.0       0.3       0.0
15 C  dxz             0.0       0.0       0.0       0.2       0.0       0.3
15 C  dyz             0.0       0.1       0.0       0.2       0.1       0.2
15 C  dx2y2           0.1       0.1       0.2       0.0       0.0       0.0
16 H  s               0.1       2.5       6.0       0.2       2.0       0.0
16 H  pz              0.0       0.0       0.0       0.2       0.0       0.1
16 H  px              0.1       0.0       0.0       0.0       0.2       0.0
17 H  s               0.0       0.7       0.4       3.0       6.7       4.9
17 H  pz              0.0       0.0       0.0       0.0       0.1       0.0
17 H  px              0.1       0.0       0.1       0.1       0.0       0.0
17 H  py              0.0       0.1       0.0       0.1       0.0       0.1
18 C  s               0.1       0.0       0.0       0.4       0.0       0.3
18 C  pz              4.7       7.1       1.1      12.1       0.3       4.5
18 C  px              0.8       0.4       2.0       0.8       0.3       0.5
18 C  py              3.9       1.3       6.3       0.5       5.5       0.2
18 C  dz2             0.1       0.0       0.2       0.0       0.3       0.0
18 C  dyz             0.1       0.1       0.1       0.2       0.0       0.1
19 H  s               2.6       0.4       5.5       0.2       4.4       0.0
19 H  pz              0.1       0.1       0.0       0.2       0.0       0.1
20 H  s               0.4       4.9       3.4       3.9       2.7       1.5
20 H  pz              0.0       0.1       0.1       0.0       0.1       0.0
20 H  py              0.1       0.0       0.0       0.1       0.0       0.0

                     24        25        26        27        28        29   
                  -0.46365  -0.46131  -0.45841  -0.09127  -0.09131   0.17913
                   2.00000   2.00000   2.00000   1.00000   1.00000   0.00000
                  --------  --------  --------  --------  --------  --------
 0 C  s               0.4       0.0       0.2       0.8       0.0       1.0
 0 C  pz              0.0       0.6       0.0       0.1       0.0       0.0
 0 C  px              5.2       0.2       2.5       1.0       0.0       0.4
 0 C  py              0.2       0.0       0.6      87.4       0.0       0.2
 0 C  dz2             0.1       0.0       0.0       0.0       0.0       0.1
 1 C  s               0.0       0.0       0.3       0.0       0.0       2.1
 1 C  pz              0.0       4.2       0.1       0.0       0.0       0.0
 1 C  px              4.4       0.3       3.6       0.2       0.0       0.3
 1 C  py              0.4       0.1       4.4       0.6       0.0       1.0
 1 C  dz2             0.1       0.0       0.0       0.1       0.0       0.1
 1 C  dyz             0.0       0.4       0.0       0.0       0.0       0.0
 1 C  dx2y2           0.3       0.0       0.2       0.0       0.0       0.0
 1 C  dxy             0.1       0.0       0.0       1.2       0.0       0.0
 2 H  s               0.5       0.7       0.1       0.1       0.0       2.0
 2 H  pz              0.0       0.0       0.0       0.0       0.0       0.4
 2 H  py              0.0       0.0       0.0       2.0       0.0       0.0
 3 H  s               0.5       0.3       0.4       0.1       0.0       1.7
 3 H  pz              0.0       0.0       0.0       0.0       0.0       0.4
 3 H  py              0.0       0.0       0.0       2.0       0.0       0.0
 4 C  s               0.5       0.0       0.0       0.8       0.0       2.4
 4 C  pz              0.0      11.2       0.4       0.0       0.0       0.0
 4 C  px             17.4       0.4       2.3       0.7       0.0       0.7
 4 C  py              1.5       0.1       4.3       1.1       0.0       1.1
 4 C  dz2             0.2       0.0       0.0       0.0       0.0       0.2
 4 C  dxz             0.0       0.4       0.0       0.0       0.0       0.0
 4 C  dyz             0.0       0.6       0.0       0.0       0.0       0.0
 4 C  dx2y2           0.4       0.0       0.1       0.0       0.0       0.0
 4 C  dxy             0.1       0.0       0.3       0.0       0.0       0.0
 5 H  s               1.2       3.0       0.1       0.5       0.0       5.0
 5 H  pz              0.0       0.0       0.0       0.0       0.0       0.9
 6 H  s               1.1       3.5       0.2       0.5       0.0       4.4
 6 H  pz              0.0       0.0       0.0       0.0       0.0       0.9
 7 C  s               0.4       0.0       0.2       0.0       0.0       3.0
 7 C  pz              0.0      13.0       0.4       0.0       0.1       0.1
 7 C  px             17.0       0.4       3.6       0.2       0.0       0.4
 7 C  py              2.2       0.3      16.0       0.0       0.0       1.2
 7 C  dz2             0.3       0.0       0.1       0.0       0.0       0.1
 7 C  dxz             0.0       0.3       0.0       0.0       0.0       0.0
 7 C  dyz             0.0       0.7       0.0       0.0       0.0       0.0
 7 C  dx2y2           0.5       0.0       0.1       0.0       0.0       0.0
 7 C  dxy             0.1       0.0       0.4       0.0       0.0       0.0
 8 H  s               2.7       8.0       0.0       0.1       0.0       5.0
 8 H  pz              0.1       0.0       0.0       0.0       0.0       1.1
 8 H  px              0.2       0.1       0.0       0.0       0.0       0.0
 9 H  s               2.2       8.0       1.7       0.1       0.0       7.1
 9 H  pz              0.1       0.0       0.0       0.0       0.0       1.3
 9 H  px              0.2       0.0       0.1       0.0       0.0       0.0
10 H  s               3.9       9.7       0.3       0.0       0.0       9.4
10 H  pz              0.1       0.0       0.0       0.0       0.0       1.5
10 H  px              0.2       0.1       0.1       0.0       0.0       0.0
10 H  py              0.0       0.0       0.2       0.0       0.0       0.0
11 H  s               2.2       8.6       3.2       0.0       0.2       4.9
11 H  pz              0.1       0.0       0.1       0.0       0.0       1.1
11 H  px              0.2       0.0       0.1       0.0       0.0       0.0
11 H  py              0.0       0.1       0.1       0.0       0.0       0.0
12 C  s               0.1       0.0       0.4       0.0       0.7       2.3
12 C  pz              0.3       6.8       0.1       0.0       0.1       0.0
12 C  px              8.7       0.2       1.3       0.0       1.5       0.4
12 C  py              1.1       0.4      17.1       0.0       0.0       1.2
12 C  dz2             0.2       0.0       0.2       0.0       0.0       0.1
12 C  dyz             0.0       0.5       0.0       0.0       0.0       0.0
12 C  dx2y2           0.4       0.0       0.1       0.0       0.0       0.0
12 C  dxy             0.1       0.0       0.5       0.0       0.0       0.0
13 H  s               1.1       4.4       3.0       0.0       0.1       6.4
13 H  pz              0.1       0.0       0.1       0.0       0.0       1.2
13 H  px              0.1       0.0       0.1       0.0       0.1       0.1
13 H  py              0.0       0.1       0.1       0.0       0.0       0.0
14 H  s               3.5       5.8       1.2       0.0       0.1       5.0
14 H  pz              0.1       0.0       0.0       0.0       0.0       1.0
14 H  py              0.0       0.0       0.2       0.0       0.0       0.0
15 C  s               0.4       0.0       0.0       0.0       0.0       1.8
15 C  pz              0.4       1.4       0.1       0.0       0.0       0.6
15 C  px             10.6       0.2       0.8       0.0       0.6       0.4
15 C  py              0.2       0.2       9.2       0.0       0.0       0.0
15 C  dz2             0.1       0.0       0.2       0.0       0.1       0.0
15 C  dxz             0.0       0.1       0.0       0.0       0.3       0.0
15 C  dyz             0.0       0.1       0.0       0.0       0.1       0.0
15 C  dx2y2           0.1       0.0       0.1       0.0       0.7       0.0
15 C  dxy             0.0       0.0       0.4       0.0       0.1       0.0
16 H  s               0.1       0.2       9.0       0.0       1.2       2.6
16 H  px              0.2       0.0       0.0       0.0       0.0       0.0
16 H  py              0.0       0.0       0.1       0.0       0.0       0.5
17 H  s               1.8       1.6       2.4       0.0       0.1       5.0
17 H  pz              0.0       0.0       0.1       0.0       0.0       0.4
17 H  px              0.1       0.0       0.0       0.0       0.0       0.0
17 H  py              0.0       0.0       0.0       0.0       0.0       0.4
18 C  s               0.0       0.1       0.0       0.0       0.5       1.1
18 C  pz              0.1       1.0       0.0       0.0       3.3       0.3
18 C  px              0.0       0.1       1.2       0.0      71.9       0.0
18 C  py              1.3       0.1       1.4       0.0      13.5       0.3
18 C  dz2             0.1       0.0       0.1       0.0       0.0       0.1
19 H  s               0.8       0.0       1.8       0.0       0.0       3.0
19 H  pz              0.0       0.0       0.0       0.0       0.1       0.1
19 H  px              0.0       0.0       0.0       0.0       1.7       0.1
19 H  py              0.0       0.0       0.0       0.0       0.3       0.4
20 H  s               0.2       0.3       0.6       0.0       0.0       2.5
20 H  px              0.0       0.0       0.0       0.0       1.7       0.0
20 H  py              0.0       0.0       0.0       0.0       0.3       0.4

                     30        31        32        33        34        35   
                   0.19446   0.20544   0.20861   0.22958   0.23609   0.23997
                   0.00000   0.00000   0.00000   0.00000   0.00000   0.00000
                  --------  --------  --------  --------  --------  --------
 0 C  s               2.4       0.3       0.5       9.6       0.0       0.8
 0 C  pz              0.0       0.3       0.7       0.0       2.3       0.5
 0 C  px              0.7       0.1       0.1       1.0       0.0       0.1
 0 C  py              0.2       0.1       0.1       0.1       0.0       0.2
 0 C  dz2             0.2       0.0       0.0       0.3       0.0       0.0
 0 C  dxz             0.0       0.1       0.2       0.0       0.4       0.1
 0 C  dx2y2           0.0       0.0       0.0       0.3       0.0       0.1
 1 C  s               3.5       0.5       0.1       0.0       0.3       3.3
 1 C  pz              0.0       0.7       1.8       0.0       2.4       0.6
 1 C  px              0.5       0.1       0.0       0.5       0.1       0.2
 1 C  py              0.9       0.2       0.1       0.1       0.1       0.6
 1 C  dz2             0.1       0.0       0.0       0.0       0.0       0.0
 1 C  dxz             0.0       0.0       0.1       0.0       0.2       0.1
 1 C  dyz             0.0       0.1       0.2       0.0       0.3       0.0
 1 C  dx2y2           0.0       0.0       0.0       0.3       0.0       0.0
 2 H  s               4.5       0.0       5.8      17.7       6.1       0.1
 2 H  pz              1.0       0.0       0.6       3.1       0.4       0.0
 2 H  px              0.0       0.0       0.2       0.4       0.5       0.0
 3 H  s               6.0       3.0       0.0      17.4       4.9       5.9
 3 H  pz              1.1       0.3       0.0       3.0       0.3       0.5
 3 H  px              0.0       0.1       0.0       0.5       0.4       0.4
 4 C  s               1.3       0.9       0.5       1.6       0.3       0.8
 4 C  pz              0.1       1.0       1.7       0.0       0.9       0.0
 4 C  px              0.1       0.4       0.1       0.1       0.0       0.3
 4 C  py              0.3       0.7       0.4       0.2       0.1       0.2
 4 C  dyz             0.0       0.1       0.2       0.0       0.2       0.0
 4 C  dx2y2           0.1       0.0       0.0       0.1       0.0       0.1
 5 H  s               7.0       7.5       1.4       0.0       2.2      15.9
 5 H  pz              1.2       0.6       0.0       0.0       0.1       1.7
 5 H  px              0.0       0.2       0.0       0.3       0.2       0.4
 5 H  py              0.0       0.3       0.1       0.0       0.2       0.7
 6 H  s               9.7       0.1       7.9       0.0       9.7       3.2
 6 H  pz              1.5       0.0       0.5       0.0       0.8       0.6
 6 H  px              0.0       0.0       0.3       0.2       0.2       0.0
 6 H  py              0.1       0.0       0.4       0.0       0.7       0.1
 7 C  s               0.0       0.8       0.5       1.9       0.0       0.1
 7 C  pz              0.2       1.2       2.0       0.0       0.1       0.0
 7 C  px              0.5       0.4       0.1       0.6       0.0       0.0
 7 C  py              0.0       0.7       0.4       0.2       0.1       0.0
 7 C  dyz             0.0       0.1       0.3       0.0       0.0       0.0
 7 C  dx2y2           0.3       0.0       0.0       0.1       0.0       0.0
 8 H  s               3.0      13.7       0.3       3.0       0.5       3.5
 8 H  pz              0.4       1.3       0.0       0.5       0.0       0.4
 8 H  px              0.2       0.1       0.0       0.0       0.0       0.0
 8 H  py              0.0       0.6       0.1       0.2       0.1       0.2
 9 H  s               0.8       0.6      11.9       2.2       5.3       1.9
 9 H  pz              0.2       0.2       0.9       0.4       0.4       0.2
 9 H  px              0.1       0.0       0.2       0.0       0.1       0.0
 9 H  py              0.0       0.0       0.7       0.2       0.4       0.1
10 H  s               0.1      13.8       0.5       3.0       0.1       0.0
10 H  pz              0.0       1.1       0.0       0.6       0.0       0.0
10 H  px              0.3       0.3       0.0       0.0       0.0       0.0
10 H  py              0.0       0.7       0.1       0.1       0.0       0.0
11 H  s               0.9       0.4      12.9       2.8       0.2       0.0
11 H  pz              0.1       0.1       0.9       0.5       0.0       0.0
11 H  px              0.1       0.0       0.2       0.0       0.0       0.0
11 H  py              0.1       0.0       1.0       0.1       0.0       0.0
12 C  s               1.6       1.5       0.4       0.3       0.0       0.0
12 C  pz              0.1       1.0       2.0       0.0       0.3       0.2
12 C  px              0.3       0.4       0.1       0.1       0.1       0.1
12 C  py              0.2       0.7       0.2       0.9       0.0       0.1
12 C  dyz             0.0       0.1       0.3       0.0       0.0       0.0
12 C  dx2y2           0.1       0.0       0.0       0.2       0.0       0.1
12 C  dxy             0.0       0.1       0.0       0.0       0.0       0.1
13 H  s               5.1       1.2      10.8       2.0       0.8       0.3
13 H  pz              0.6       0.3       0.7       0.4       0.1       0.0
13 H  px              0.0       0.0       0.1       0.1       0.0       0.1
13 H  py              0.3       0.0       0.6       0.0       0.1       0.0
14 H  s               2.4      15.8       0.9       1.7       0.5       0.5
14 H  pz              0.4       1.5       0.0       0.4       0.0       0.0
14 H  px              0.0       0.4       0.0       0.2       0.0       0.0
14 H  py              0.1       0.6       0.1       0.0       0.0       0.1
15 C  s               3.9       0.1       0.1       1.6       3.4       0.3
15 C  pz              0.8       0.9       0.0       0.3       0.1       0.9
15 C  px              0.5       0.0       0.0       0.0       0.4       0.0
15 C  py              0.4       1.1       0.0       0.5       0.0       3.8
15 C  dz2             0.0       0.1       0.0       0.0       0.1       0.5
15 C  dyz             0.0       0.1       0.1       0.0       0.0       0.3
15 C  dx2y2           0.1       0.0       0.0       0.0       0.0       0.1
16 H  s              11.6       1.3       0.4       6.4       7.2      14.5
16 H  pz              0.0       0.1       0.1       0.0       0.1       0.2
16 H  px              0.0       0.0       0.0       0.1       0.0       0.3
16 H  py              1.8       0.1       0.1       0.9       1.2       1.8
17 H  s               8.3       8.4       0.0       2.2       6.7       7.0
17 H  pz              0.6       0.9       0.0       0.1       1.1       1.0
17 H  px              0.0       0.2       0.0       0.1       0.0       0.1
17 H  py              0.9       0.2       0.0       0.4       0.2       0.0
18 C  s               1.5       0.0       3.7       1.3       6.3       0.1
18 C  pz              0.5       0.3       0.6       0.3       0.8       0.8
18 C  px              0.0       0.1       0.0       0.2       0.0       0.2
18 C  py              0.1       0.8       0.5       0.0       0.1       2.4
18 C  dz2             0.0       0.1       0.0       0.0       0.2       0.3
18 C  dyz             0.1       0.0       0.0       0.1       0.0       0.2
18 C  dx2y2           0.0       0.0       0.2       0.0       0.3       0.1
18 C  dxy             0.0       0.0       0.0       0.0       0.2       0.2
19 H  s               2.4       3.4      10.6       1.5       8.6      10.0
19 H  pz              0.2       0.0       0.1       0.1       0.0       0.1
19 H  px              0.1       0.0       0.1       0.0       0.2       0.3
19 H  py              0.3       0.4       1.5       0.3       1.6       1.2
20 H  s               3.6       2.3       6.5       2.9      14.6       6.2
20 H  pz              0.2       0.3       0.6       0.3       2.1       0.9
20 H  py              0.5       0.0       0.6       0.3       0.7       0.0

                     36        37        38        39        40        41   
                   0.26890   0.28067   0.28661   0.29124   0.29624   0.31219
                   0.00000   0.00000   0.00000   0.00000   0.00000   0.00000
                  --------  --------  --------  --------  --------  --------
 0 C  s               0.6       1.1       1.2       0.5       0.1       0.0
 0 C  pz              2.8       2.5       0.8       0.0       1.3       1.2
 0 C  px              0.1       0.3       0.2       0.5       0.0       0.0
 0 C  py              0.0       0.1       0.2       0.2       0.1       0.0
 0 C  dxz             0.6       0.1       0.0       0.0       0.1       0.3
 0 C  dx2y2           0.1       0.2       0.2       0.2       0.0       0.0
 1 C  s               0.7       0.9       0.3       3.3       0.0       0.0
 1 C  pz              1.2       0.1       0.9       0.0       3.1       0.2
 1 C  px              0.0       0.1       0.3       0.8       0.0       0.0
 1 C  py              0.0       0.1       0.3       0.7       0.1       0.1
 1 C  dxz             0.6       0.1       0.0       0.0       0.0       0.4
 1 C  dx2y2           0.0       0.1       0.1       0.2       0.0       0.0
 2 H  s              11.5       3.0       5.8       0.9       3.9       2.4
 2 H  pz              1.0       0.1       0.5       0.1       0.1       0.2
 2 H  px              1.3       0.1       0.4       0.0       0.1       0.5
 2 H  py              0.0       0.0       0.1       0.0       0.1       0.0
 3 H  s               3.2      12.8       0.9       0.9       5.2       1.9
 3 H  pz              0.1       1.0       0.0       0.1       0.3       0.2
 3 H  px              0.3       1.3       0.0       0.1       0.2       0.3
 4 C  s               0.2       0.7       2.1       0.3       0.3       0.0
 4 C  pz              2.3       0.0       1.2       0.1       1.9       5.1
 4 C  px              0.0       0.3       0.4       0.9       0.1       0.1
 4 C  py              0.2       0.8       1.0       0.2       0.2       0.1
 4 C  dxz             0.0       0.2       0.0       0.0       0.2       0.7
 4 C  dyz             0.0       0.0       0.0       0.0       0.0       0.5
 4 C  dx2y2           0.0       0.0       0.0       0.5       0.0       0.0
 4 C  dxy             0.1       0.3       0.3       0.1       0.0       0.0
 5 H  s               0.6       0.1       1.7       7.3      10.2       0.0
 5 H  pz              0.0       0.0       0.0       1.0       0.5       0.0
 5 H  px              0.1       0.0       0.3       0.0       0.3       0.1
 5 H  py              0.0       0.0       0.1       0.6       0.5       0.0
 6 H  s               6.1       1.2       3.3       4.4       5.7       0.4
 6 H  pz              0.5       0.0       0.2       0.7       0.1       0.0
 6 H  px              0.5       0.0       0.0       0.0       0.3       0.1
 6 H  py              0.3       0.0       0.1       0.5       0.5       0.0
 7 C  s               0.5       0.4       0.2       5.9       0.0       0.0
 7 C  pz              0.0       2.6       2.0       0.1       0.2       0.4
 7 C  px              0.0       0.0       0.1       0.5       0.3       0.2
 7 C  py              0.6       0.9       0.5       0.3       0.1       0.1
 7 C  dz2             0.1       0.1       0.0       0.0       0.0       0.1
 7 C  dxz             0.0       0.1       0.0       0.0       0.3       1.0
 7 C  dyz             0.2       0.1       0.0       0.0       0.1       0.1
 7 C  dx2y2           0.0       0.0       0.2       0.0       0.0       0.0
 7 C  dxy             0.1       0.3       0.2       0.1       0.0       0.0
 8 H  s               1.9       3.5      17.7       0.0       2.4       9.3
 8 H  pz              0.0       0.6       1.7       0.0       0.0       0.6
 8 H  px              0.0       0.4       0.6       0.1       0.1       1.0
 8 H  py              0.3       0.1       0.6       0.0       0.2       0.5
 9 H  s               9.1       3.3       0.7       1.3       8.3      10.8
 9 H  pz              0.5       0.4       0.5       0.1       0.6       0.7
 9 H  px              0.3       0.1       0.1       0.1       0.6       0.8
 9 H  py              0.6       0.0       0.0       0.3       0.2       0.8
10 H  s               2.0      13.5       2.3       7.2       0.3       0.4
[...]
      px      :     0.004440
      py      :     0.000700
 20 H s       :     0.000159  s :     0.000159
      pz      :     0.000141  p :     0.005158
      px      :     0.004162
      py      :     0.000855


                     *******************************
                     * LOEWDIN POPULATION ANALYSIS *
                     *******************************

-----------------------------------------
LOEWDIN ATOMIC CHARGES AND SPIN DENSITIES
-----------------------------------------
   0 C :   -0.006850    0.893037
   1 C :   -0.039302    0.020723
   2 H :    0.006519    0.021073
   3 H :    0.006563    0.021076
   4 C :   -0.019430    0.026347
   5 H :    0.016206    0.005354
   6 H :    0.016279    0.005303
   7 C :   -0.023173    0.005045
   8 H :    0.010206    0.001609
   9 H :    0.009775    0.001779
  10 H :    0.009707    0.000256
  11 H :    0.010126    0.002886
  12 C :   -0.018496    0.024134
  13 H :    0.011090    0.002220
  14 H :    0.009911    0.001323
  15 C :   -0.038363    0.020524
  16 H :    0.019243    0.011958
  17 H :    0.015897    0.001503
  18 C :   -0.009334    0.891705
  19 H :    0.007203    0.021432
  20 H :    0.006222    0.020713

--------------------------------------------------
LOEWDIN REDUCED ORBITAL CHARGES AND SPIN DENSITIES
--------------------------------------------------
CHARGE
  0 C s       :     2.922421  s :     2.922421
      pz      :     1.055024  p :     3.024316
      px      :     1.028167
      py      :     0.941125
      dz2     :     0.015202  d :     0.060113
      dxz     :     0.026757
      dyz     :     0.001755
      dx2y2   :     0.010741
      dxy     :     0.005659
  1 C s       :     2.832054  s :     2.832054
      pz      :     1.051865  p :     3.102558
      px      :     1.023226
      py      :     1.027467
      dz2     :     0.018658  d :     0.104690
      dxz     :     0.012876
      dyz     :     0.023171
      dx2y2   :     0.027196
      dxy     :     0.022790
  2 H s       :     0.917429  s :     0.917429
      pz      :     0.035512  p :     0.076053
      px      :     0.019157
      py      :     0.021384
  3 H s       :     0.917376  s :     0.917376
      pz      :     0.034975  p :     0.076060
      px      :     0.020099
      py      :     0.020986
  4 C s       :     2.837240  s :     2.837240
      pz      :     1.049818  p :     3.081930
      px      :     1.012171
      py      :     1.019941
      dz2     :     0.017987  d :     0.100260
      dxz     :     0.013508
      dyz     :     0.024005
      dx2y2   :     0.025948
      dxy     :     0.018812
  5 H s       :     0.918422  s :     0.918422
      pz      :     0.030640  p :     0.065372
      px      :     0.014940
      py      :     0.019792
  6 H s       :     0.918332  s :     0.918332
      pz      :     0.030095  p :     0.065389
      px      :     0.014470
      py      :     0.020824
  7 C s       :     2.833227  s :     2.833227
      pz      :     1.048817  p :     3.089421
      px      :     1.013276
      py      :     1.027328
      dz2     :     0.017952  d :     0.100525
      dxz     :     0.013199
      dyz     :     0.024345
      dx2y2   :     0.026016
      dxy     :     0.019013
  8 H s       :     0.923894  s :     0.923894
      pz      :     0.030537  p :     0.065899
      px      :     0.015652
      py      :     0.019711
  9 H s       :     0.924366  s :     0.924366
      pz      :     0.029921  p :     0.065859
      px      :     0.015183
      py      :     0.020756
 10 H s       :     0.924621  s :     0.924621
      pz      :     0.030405  p :     0.065672
      px      :     0.015615
      py      :     0.019652
 11 H s       :     0.923163  s :     0.923163
      pz      :     0.030185  p :     0.066711
      px      :     0.015643
      py      :     0.020883
 12 C s       :     2.837040  s :     2.837040
      pz      :     1.047834  p :     3.081221
      px      :     1.005704
      py      :     1.027683
      dz2     :     0.018304  d :     0.100235
      dxz     :     0.012653
      dyz     :     0.024211
      dx2y2   :     0.025829
      dxy     :     0.019239
 13 H s       :     0.922997  s :     0.922997
      pz      :     0.029682  p :     0.065912
      px      :     0.015622
      py      :     0.020608
 14 H s       :     0.924284  s :     0.924284
      pz      :     0.030743  p :     0.065805
      px      :     0.015517
      py      :     0.019545
 15 C s       :     2.831836  s :     2.831836
      pz      :     1.036060  p :     3.101802
      px      :     1.019611
      py      :     1.046131
      dz2     :     0.023323  d :     0.104725
      dxz     :     0.020003
      dyz     :     0.019083
      dx2y2   :     0.028117
      dxy     :     0.014200
 16 H s       :     0.915142  s :     0.915142
      pz      :     0.012231  p :     0.065615
      px      :     0.015793
      py      :     0.037592
 17 H s       :     0.918773  s :     0.918773
      pz      :     0.031011  p :     0.065330
      px      :     0.015636
      py      :     0.018682
 18 C s       :     2.922731  s :     2.922731
      pz      :     1.034511  p :     3.027114
      px      :     0.958330
      py      :     1.034274
      dz2     :     0.020516  d :     0.059489
      dxz     :     0.008511
      dyz     :     0.017742
      dx2y2   :     0.007861
      dxy     :     0.004860
 19 H s       :     0.915916  s :     0.915916
      pz      :     0.011032  p :     0.076881
      px      :     0.023141
      py      :     0.042708
 20 H s       :     0.917776  s :     0.917776
      pz      :     0.037870  p :     0.076002
      px      :     0.019076
      py      :     0.019056

SPIN
  0 C s       :     0.008409  s :     0.008409
      pz      :     0.000567  p :     0.884035
      px      :     0.009616
      py      :     0.873852
      dz2     :     0.000146  d :     0.000592
      dxz     :     0.000000
      dyz     :     0.000001
      dx2y2   :     0.000227
      dxy     :     0.000218
  1 C s       :     0.000085  s :     0.000085
      pz      :     0.000009  p :     0.007620
      px      :     0.001868
      py      :     0.005744
      dz2     :     0.000770  d :     0.013018
      dxz     :     0.000010
      dyz     :     0.000010
      dx2y2   :     0.000187
      dxy     :     0.012041
  2 H s       :     0.000594  s :     0.000594
      pz      :     0.000017  p :     0.020478
      px      :     0.000271
      py      :     0.020189
  3 H s       :     0.000595  s :     0.000595
      pz      :     0.000010  p :     0.020481
      px      :     0.000272
      py      :     0.020200
  4 C s       :     0.007609  s :     0.007609
      pz      :     0.000048  p :     0.018109
      px      :     0.006793
      py      :     0.011269
      dz2     :     0.000082  d :     0.000629
      dxz     :     0.000027
      dyz     :     0.000003
      dx2y2   :     0.000468
      dxy     :     0.000048
  5 H s       :     0.005131  s :     0.005131
      pz      :     0.000019  p :     0.000223
      px      :     0.000044
      py      :     0.000160
  6 H s       :     0.005079  s :     0.005079
      pz      :     0.000022  p :     0.000224
      px      :     0.000044
      py      :     0.000158
  7 C s       :     0.000680  s :     0.000680
      pz      :     0.000847  p :     0.003956
      px      :     0.002640
      py      :     0.000469
      dz2     :     0.000024  d :     0.000410
      dxz     :     0.000002
      dyz     :     0.000000
      dx2y2   :     0.000029
      dxy     :     0.000354
  8 H s       :     0.000993  s :     0.000993
      pz      :     0.000089  p :     0.000616
      px      :     0.000020
      py      :     0.000507
  9 H s       :     0.001158  s :     0.001158
      pz      :     0.000067  p :     0.000621
      px      :     0.000030
      py      :     0.000524
 10 H s       :     0.000104  s :     0.000104
      pz      :     0.000059  p :     0.000153
      px      :     0.000084
      py      :     0.000010
 11 H s       :     0.002303  s :     0.002303
      pz      :     0.000202  p :     0.000583
      px      :     0.000374
      py      :     0.000007
 12 C s       :     0.006997  s :     0.006997
      pz      :     0.000811  p :     0.016685
      px      :     0.015538
      py      :     0.000336
      dz2     :     0.000064  d :     0.000452
      dxz     :     0.000205
      dyz     :     0.000080
      dx2y2   :     0.000074
      dxy     :     0.000030
 13 H s       :     0.001504  s :     0.001504
      pz      :     0.000037  p :     0.000715
      px      :     0.000670
      py      :     0.000008
 14 H s       :     0.000781  s :     0.000781
      pz      :     0.000051  p :     0.000542
      px      :     0.000469
      py      :     0.000023
 15 C s       :     0.000100  s :     0.000100
      pz      :     0.000066  p :     0.006992
      px      :     0.006513
      py      :     0.000413
      dz2     :     0.001314  d :     0.013433
      dxz     :     0.002963
      dyz     :     0.001209
      dx2y2   :     0.007363
      dxy     :     0.000584
 16 H s       :     0.011653  s :     0.011653
      pz      :     0.000241  p :     0.000305
      px      :     0.000031
      py      :     0.000033
 17 H s       :     0.001267  s :     0.001267
      pz      :     0.000022  p :     0.000236
      px      :     0.000119
      py      :     0.000095
 18 C s       :     0.004878  s :     0.004878
      pz      :     0.032610  p :     0.886446
      px      :     0.718855
      py      :     0.134981
      dz2     :     0.000066  d :     0.000381
      dxz     :     0.000006
      dyz     :     0.000005
      dx2y2   :     0.000270
      dxy     :     0.000035
 19 H s       :     0.000393  s :     0.000393
      pz      :     0.000739  p :     0.021039
      px      :     0.017184
      py      :     0.003117
 20 H s       :     0.000277  s :     0.000277
      pz      :     0.000685  p :     0.020437
      px      :     0.016664
      py      :     0.003088


                      *****************************
                      * MAYER POPULATION ANALYSIS *
                      *****************************

  NA   - Mulliken gross atomic population
  ZA   - Total nuclear charge
  QA   - Mulliken gross atomic charge
  VA   - Mayer's total valence
  BVA  - Mayer's bonded valence
  FA   - Mayer's free valence

  ATOM       NA         ZA         QA         VA         BVA        FA
  0 C      6.1075     6.0000    -0.1075     3.9044     2.9761     0.9284
  1 C      6.0456     6.0000    -0.0456     3.9422     3.9422    -0.0000
  2 H      0.9445     1.0000     0.0555     0.9802     0.9801     0.0000
  3 H      0.9444     1.0000     0.0556     0.9802     0.9802     0.0000
  4 C      6.0631     6.0000    -0.0631     3.9143     3.9142     0.0001
  5 H      0.9690     1.0000     0.0310     0.9707     0.9707     0.0000
  6 H      0.9687     1.0000     0.0313     0.9710     0.9710     0.0000
  7 C      6.0602     6.0000    -0.0602     3.9003     3.9003     0.0000
  8 H      0.9776     1.0000     0.0224     0.9727     0.9727     0.0000
  9 H      0.9781     1.0000     0.0219     0.9729     0.9729     0.0000
 10 H      0.9817     1.0000     0.0183     0.9735     0.9735     0.0000
 11 H      0.9745     1.0000     0.0255     0.9791     0.9791     0.0000
 12 C      6.0529     6.0000    -0.0529     3.9265     3.9265     0.0001
 13 H      0.9759     1.0000     0.0241     0.9717     0.9717     0.0000
 14 H      0.9783     1.0000     0.0217     0.9729     0.9729     0.0000
 15 C      6.0312     6.0000    -0.0312     3.9506     3.9506    -0.0000
 16 H      0.9622     1.0000     0.0378     0.9702     0.9702     0.0001
 17 H      0.9701     1.0000     0.0299     0.9715     0.9715     0.0000
 18 C      6.1291     6.0000    -0.1291     3.8924     2.9681     0.9243
 19 H      0.9399     1.0000     0.0601     0.9799     0.9799     0.0000
 20 H      0.9457     1.0000     0.0543     0.9807     0.9807     0.0000

  Mayer bond orders larger than 0.100000
B(  0-C ,  1-C ) :   1.0333 B(  0-C ,  2-H ) :   0.9891 B(  0-C ,  3-H ) :   0.9891 
B(  1-C ,  4-C ) :   1.0217 B(  1-C ,  5-H ) :   0.9741 B(  1-C ,  6-H ) :   0.9740 
B(  4-C ,  7-C ) :   1.0303 B(  4-C ,  8-H ) :   0.9715 B(  4-C ,  9-H ) :   0.9719 
B(  7-C , 10-H ) :   0.9706 B(  7-C , 11-H ) :   0.9702 B(  7-C , 12-C ) :   1.0160 
B( 12-C , 13-H ) :   0.9737 B( 12-C , 14-H ) :   0.9714 B( 12-C , 15-C ) :   1.0429 
B( 15-C , 16-H ) :   0.9779 B( 15-C , 17-H ) :   0.9746 B( 15-C , 18-C ) :   1.0155 
B( 18-C , 19-H ) :   0.9900 B( 18-C , 20-H ) :   0.9887 


-------------------------------------------------------------
 Forming the transition density       ... done in 0.001079 sec
-------------------------------------------------------------



==========================================
CASSCF UV, CD spectra and dipole moments
==========================================
-------------------
ABSORPTION SPECTRUM
-------------------

Center of mass           = ( -0.5259, -0.2162,  0.3221)
Nuclear contribution to the dipole moment =    -0.088875,   -0.228444,   -0.027142 au

Calculating the Dipole integrals                  ... done
Transforming integrals                            ... done
Calculating the Linear Momentum integrals         ... done
Transforming integrals                            ... done
Calculating the Angular Momentum integrals        ... done
Transforming integrals                            ... done

------------------------------------------------------------------------------
                                 DIPOLE MOMENTS
------------------------------------------------------------------------------
  Root  Block           TX        TY        TZ           |T|
                      (Debye)   (Debye)   (Debye)      (Debye)
------------------------------------------------------------------------------
    0    0           -0.01363  -0.22300  -0.06565      0.23286

--------------
CASSCF TIMINGS
--------------

Total time                       ...        3.7 sec
Sum of individual times          ...        3.3 sec ( 88.1%)

Calculation of AO operators
   F(Core) operator              ...        0.6 sec ( 16.6%)
   G(Act) operator               ...        0.6 sec ( 16.1%)
   J(AO) operators               ...        0.0 sec (  0.0%)
Calculation of MO transformed quantities
   J(MO) operators               ...        2.0 sec ( 54.6%)
   (pq|rs) integrals             ...        0.0 sec (  0.0%)
   AO->MO one electron integrals ...        0.0 sec (  0.1%)
Configuration interaction steps
   CI-setup phase                ...        0.0 sec (  0.0%)
   CI-solution phase             ...        0.0 sec (  0.6%)
   Generation of densities       ...        0.0 sec (  0.0%)
Orbital improvement steps
   Orbital gradient              ...        0.0 sec (  0.1%)
Properties                       ...        0.0 sec (  0.0%)
   SOC integral calculation      ...        0.0 sec (  0.0%)
   SSC RMEs (incl. integrals)    ...        0.0 sec (  0.0%)
   SOC RMEs                      ...        0.0 sec (  0.0%)

Maximum memory used throughout the entire CASSCF-calculation: 70.8 MB

-------------------------   --------------------
FINAL SINGLE POINT ENERGY      -272.936270418919
-------------------------   --------------------


                            ***************************************
                            *     ORCA property calculations      *
                            ***************************************

                                    ---------------------
                                    Active property flags
                                    ---------------------
   (+) Dipole Moment


------------------------------------------------------------------------------
                       ORCA ELECTRIC PROPERTIES CALCULATION
------------------------------------------------------------------------------

Dipole Moment Calculation                       ... on
Quadrupole Moment Calculation                   ... off
Polarizability Calculation                      ... off
GBWName                                         ... C7H14-CAS22-localMO.gbw
Electron density file                           ... C7H14-CAS22-localMO.scfp
The origin for moment calculation is the CENTER OF MASS  = (-0.525891, -0.216213  0.322081)

-------------
DIPOLE MOMENT
-------------
                                X             Y             Z
Electronic contribution:      0.08351       0.14071       0.00132
Nuclear contribution   :     -0.08888      -0.22844      -0.02714
                        -----------------------------------------
Total Dipole Moment    :     -0.00536      -0.08773      -0.02583
                        -----------------------------------------
Magnitude (a.u.)       :      0.09161
Magnitude (Debye)      :      0.23286



--------------------
Rotational spectrum 
--------------------
 
Rotational constants in cm-1:     0.281333     0.028707     0.027530 
Rotational constants in MHz :  8434.155340   860.619249   825.340837 

 Dipole components along the rotational axes: 
x,y,z [a.u.] :     0.027311    -0.085520    -0.018263 
x,y,z [Debye]:     0.069418    -0.217376    -0.046421 

 
--------------------------------------------------------------------------
WARNING: There was an error initializing an OpenFabrics device.

  Local host:   cnode03
  Local device: mlx5_0
--------------------------------------------------------------------------
[cnode03:47332] 7 more processes have sent help message help-mpi-btl-openib.txt / error in device init
[cnode03:47332] Set MCA parameter "orte_base_help_aggregate" to 0 to see all help / error messages

Timings for individual modules:

Sum of individual times         ...        8.201 sec (=   0.137 min)
GTO integral calculation        ...        0.469 sec (=   0.008 min)   5.7 %
SCF iterations                  ...        0.460 sec (=   0.008 min)   5.6 %
CASSCF iterations               ...        7.271 sec (=   0.121 min)  88.7 %
                             ****ORCA TERMINATED NORMALLY****
TOTAL RUN TIME: 0 days 0 hours 0 minutes 8 seconds 677 msec

Sender: Unischeduler System <lcz@mgt01>
Subject: Job 128893: <#!/bin/bash
#BSUB -J intel
#BSUB -o C7H14-CAS22-localMO.out
#BSUB -n 8
#BSUB -q cqueue
#BSUB -R span[hosts=1]
export LD_LIBRARY_PATH=/apps/software/openmpi-4.1.1/lib:/apps/software/orca_5_0_0:$LD_LIBRARY_PATH
export PATH=/apps/software/openmpi-4.1.1/bin:/apps/software/orca_5_0_0:$PATH
/apps/software/orca_5_0_0/orca C7H14-CAS22-localMO.inp >& C7H14-CAS22-localMO.out> Done

Job <#!/bin/bash
#BSUB -J intel
#BSUB -o C7H14-CAS22-localMO.out
#BSUB -n 8
#BSUB -q cqueue
#BSUB -R span[hosts=1]
export LD_LIBRARY_PATH=/apps/software/openmpi-4.1.1/lib:/apps/software/orca_5_0_0:$LD_LIBRARY_PATH
export PATH=/apps/software/openmpi-4.1.1/bin:/apps/software/orca_5_0_0:$PATH
/apps/software/orca_5_0_0/orca C7H14-CAS22-localMO.inp >& C7H14-CAS22-localMO.out> was submitted from host <mgt01> by user <lcz>.
Job was executed on host(s) <8*cnode03>, in queue <cqueue>, as user <lcz>.
</apps/users/lcz> was used as the home directory.
</apps/users/lcz/exe7/task3/ORCA> was used as the working directory.
Started at 2022-05-07 12:15:50
Results reported at 2022-05-07 12:15:59

Your job looked like:

------------------------------------------------------------
# User input
#!/bin/bash
#BSUB -J intel
#BSUB -o C7H14-CAS22-localMO.out
#BSUB -n 8
#BSUB -q cqueue
#BSUB -R span[hosts=1]
export LD_LIBRARY_PATH=/apps/software/openmpi-4.1.1/lib:/apps/software/orca_5_0_0:$LD_LIBRARY_PATH
export PATH=/apps/software/openmpi-4.1.1/bin:/apps/software/orca_5_0_0:$PATH
/apps/software/orca_5_0_0/orca C7H14-CAS22-localMO.inp >& C7H14-CAS22-localMO.out
------------------------------------------------------------

Successfully completed.

Resource usage summary:

    CPU time   :            5.05 sec.
    Max Memory :                72 MB
    Max Processes  :               4


The output (if any) follows:

