 Entering Gaussian System, Link 0=/apps/software/g16/g16
 Initial command:
 /apps/software/g16/l1.exe "/scratch/Gau-53563.inp" -scrdir="/scratch/"
 Entering Link 1 = /apps/software/g16/l1.exe PID=     53564.
  
 Copyright (c) 1988,1990,1992,1993,1995,1998,2003,2009,2016,
            Gaussian, Inc.  All Rights Reserved.
  
 This is part of the Gaussian(R) 16 program.  It is based on
 the Gaussian(R) 09 system (copyright 2009, Gaussian, Inc.),
 the Gaussian(R) 03 system (copyright 2003, Gaussian, Inc.),
 the Gaussian(R) 98 system (copyright 1998, Gaussian, Inc.),
 the Gaussian(R) 94 system (copyright 1995, Gaussian, Inc.),
 the Gaussian 92(TM) system (copyright 1992, Gaussian, Inc.),
 the Gaussian 90(TM) system (copyright 1990, Gaussian, Inc.),
 the Gaussian 88(TM) system (copyright 1988, Gaussian, Inc.),
 the Gaussian 86(TM) system (copyright 1986, Carnegie Mellon
 University), and the Gaussian 82(TM) system (copyright 1983,
 Carnegie Mellon University). Gaussian is a federally registered
 trademark of Gaussian, Inc.
  
 This software contains proprietary and confidential information,
 including trade secrets, belonging to Gaussian, Inc.
  
 This software is provided under written license and may be
 used, copied, transmitted, or stored only in accord with that
 written license.
  
 The following legend is applicable only to US Government
 contracts under FAR:
  
                    RESTRICTED RIGHTS LEGEND
  
 Use, reproduction and disclosure by the US Government is
 subject to restrictions as set forth in subparagraphs (a)
 and (c) of the Commercial Computer Software - Restricted
 Rights clause in FAR 52.227-19.
  
 Gaussian, Inc.
 340 Quinnipiac St., Bldg. 40, Wallingford CT 06492
  
  
 ---------------------------------------------------------------
 Warning -- This program may not be used in any manner that
 competes with the business of Gaussian, Inc. or will provide
 assistance to any competitor of Gaussian, Inc.  The licensee
 of this program is prohibited from giving any competitor of
 Gaussian, Inc. access to this program.  By using this program,
 the user acknowledges that Gaussian, Inc. is engaged in the
 business of creating and licensing software in the field of
 computational chemistry and represents and warrants to the
 licensee that it is not a competitor of Gaussian, Inc. and that
 it will not use this program in any manner prohibited above.
 ---------------------------------------------------------------
  

 Cite this work as:
 Gaussian 16, Revision A.03,
 M. J. Frisch, G. W. Trucks, H. B. Schlegel, G. E. Scuseria, 
 M. A. Robb, J. R. Cheeseman, G. Scalmani, V. Barone, 
 G. A. Petersson, H. Nakatsuji, X. Li, M. Caricato, A. V. Marenich, 
 J. Bloino, B. G. Janesko, R. Gomperts, B. Mennucci, H. P. Hratchian, 
 J. V. Ortiz, A. F. Izmaylov, J. L. Sonnenberg, D. Williams-Young, 
 F. Ding, F. Lipparini, F. Egidi, J. Goings, B. Peng, A. Petrone, 
 T. Henderson, D. Ranasinghe, V. G. Zakrzewski, J. Gao, N. Rega, 
 G. Zheng, W. Liang, M. Hada, M. Ehara, K. Toyota, R. Fukuda, 
 J. Hasegawa, M. Ishida, T. Nakajima, Y. Honda, O. Kitao, H. Nakai, 
 T. Vreven, K. Throssell, J. A. Montgomery, Jr., J. E. Peralta, 
 F. Ogliaro, M. J. Bearpark, J. J. Heyd, E. N. Brothers, K. N. Kudin, 
 V. N. Staroverov, T. A. Keith, R. Kobayashi, J. Normand, 
 K. Raghavachari, A. P. Rendell, J. C. Burant, S. S. Iyengar, 
 J. Tomasi, M. Cossi, J. M. Millam, M. Klene, C. Adamo, R. Cammi, 
 J. W. Ochterski, R. L. Martin, K. Morokuma, O. Farkas, 
 J. B. Foresman, and D. J. Fox, Gaussian, Inc., Wallingford CT, 2016.
 
 ******************************************
 Gaussian 16:  ES64L-G16RevA.03 25-Dec-2016
                 2-May-2022 
 ******************************************
 %chk=propeneSP.chk
 %nproc=4
 Will use up to    4 processors via shared memory.
 ---------------
 #p RHF/6-31G(d)
 ---------------
 1/38=1,172=1/1;
 2/12=2,17=6,18=5,40=1/2;
 3/5=1,6=6,7=1,11=1,25=1,30=1,116=1/1,2,3;
 4//1;
 5/5=2,38=5/2;
 6/7=2,8=2,9=2,10=2,28=1/1;
 99/5=1,9=1/99;
 Leave Link    1 at Mon May  2 11:19:19 2022, MaxMem=           0 cpu:               0.1 elap:               0.0
 (Enter /apps/software/g16/l101.exe)
 -------------------
 Propene SP 6-31G(d)
 -------------------
 Symbolic Z-matrix:
 Charge =  0 Multiplicity = 1
 C                     1.27369   0.10342   0. 
 C                     0.        0.51971   0. 
 C                    -1.13135  -0.4954    0. 
 H                     1.4964   -0.95337   0. 
 H                     2.07755   0.82468   0. 
 H                    -0.22271   1.5765    0. 
 H                    -2.08809   0.02685   0. 
 H                    -1.05862  -1.1205    0.88998 
 H                    -1.05862  -1.1205   -0.88998 
 
 ITRead=  0  0  0  0  0  0  0  0  0
 MicOpt= -1 -1 -1 -1 -1 -1 -1 -1 -1
 NAtoms=      9 NQM=        9 NQMF=       0 NMMI=      0 NMMIF=      0
                NMic=       0 NMicF=      0.
                    Isotopes and Nuclear Properties:
 (Nuclear quadrupole moments (NQMom) in fm**2, nuclear magnetic moments (NMagM)
  in nuclear magnetons)

  Atom         1           2           3           4           5           6           7           8           9
 IAtWgt=          12          12          12           1           1           1           1           1           1
 AtmWgt=  12.0000000  12.0000000  12.0000000   1.0078250   1.0078250   1.0078250   1.0078250   1.0078250   1.0078250
 NucSpn=           0           0           0           1           1           1           1           1           1
 AtZEff=  -0.0000000  -0.0000000  -0.0000000  -0.0000000  -0.0000000  -0.0000000  -0.0000000  -0.0000000  -0.0000000
 NQMom=    0.0000000   0.0000000   0.0000000   0.0000000   0.0000000   0.0000000   0.0000000   0.0000000   0.0000000
 NMagM=    0.0000000   0.0000000   0.0000000   2.7928460   2.7928460   2.7928460   2.7928460   2.7928460   2.7928460
 AtZNuc=   6.0000000   6.0000000   6.0000000   1.0000000   1.0000000   1.0000000   1.0000000   1.0000000   1.0000000
 Leave Link  101 at Mon May  2 11:19:20 2022, MaxMem=   104857600 cpu:               0.5 elap:               0.1
 (Enter /apps/software/g16/l202.exe)
                          Input orientation:                          
 ---------------------------------------------------------------------
 Center     Atomic      Atomic             Coordinates (Angstroms)
 Number     Number       Type             X           Y           Z
 ---------------------------------------------------------------------
      1          6           0        1.273694    0.103415    0.000000
      2          6           0        0.000000    0.519712    0.000000
      3          6           0       -1.131346   -0.495403    0.000000
      4          1           0        1.496403   -0.953373    0.000000
      5          1           0        2.077545    0.824680    0.000000
      6          1           0       -0.222709    1.576500    0.000000
      7          1           0       -2.088089    0.026845    0.000000
      8          1           0       -1.058621   -1.120498    0.889981
      9          1           0       -1.058621   -1.120498   -0.889981
 ---------------------------------------------------------------------
                    Distance matrix (angstroms):
                    1          2          3          4          5
     1  C    0.000000
     2  C    1.340000   0.000000
     3  C    2.478467   1.520001   0.000000
     4  H    1.080000   2.099810   2.667358   0.000000
     5  H    1.080000   2.099809   3.469813   1.870614   0.000000
     6  H    2.099810   1.080000   2.262389   3.058693   2.420000
     7  H    3.362655   2.145468   1.090000   3.716101   4.241350
     8  H    2.780238   2.145468   1.089999   2.710746   3.796225
     9  H    2.780238   2.145468   1.089999   2.710746   3.796225
                    6          7          8          9
     6  H    0.000000
     7  H    2.425092   0.000000
     8  H    2.960509   1.779963   0.000000
     9  H    2.960509   1.779963   1.779962   0.000000
 Stoichiometry    C3H6
 Framework group  CS[SG(C3H4),X(H2)]
 Deg. of freedom    14
 Full point group                 CS      NOp   2
 Largest Abelian subgroup         CS      NOp   2
 Largest concise Abelian subgroup CS      NOp   2
                         Standard orientation:                         
 ---------------------------------------------------------------------
 Center     Atomic      Atomic             Coordinates (Angstroms)
 Number     Number       Type             X           Y           Z
 ---------------------------------------------------------------------
      1          6           0        1.273694    0.103415    0.000000
      2          6           0       -0.000000    0.519712    0.000000
      3          6           0       -1.131346   -0.495403    0.000000
      4          1           0        1.496403   -0.953373    0.000000
      5          1           0        2.077545    0.824681    0.000000
      6          1           0       -0.222709    1.576500    0.000000
      7          1           0       -2.088089    0.026844    0.000000
      8          1           0       -1.058620   -1.120498    0.889981
      9          1           0       -1.058620   -1.120498   -0.889981
 ---------------------------------------------------------------------
 Rotational constants (GHZ):          43.5351706           9.6001714           8.2770084
 Leave Link  202 at Mon May  2 11:19:20 2022, MaxMem=   104857600 cpu:               0.0 elap:               0.0
 (Enter /apps/software/g16/l301.exe)
 Standard basis: 6-31G(d) (6D, 7F)
 Ernie: Thresh=  0.10000D-02 Tol=  0.10000D-05 Strict=F.
 There are    43 symmetry adapted cartesian basis functions of A'  symmetry.
 There are    14 symmetry adapted cartesian basis functions of A"  symmetry.
 There are    43 symmetry adapted basis functions of A'  symmetry.
 There are    14 symmetry adapted basis functions of A"  symmetry.
    57 basis functions,   108 primitive gaussians,    57 cartesian basis functions
    12 alpha electrons       12 beta electrons
       nuclear repulsion energy        70.7860045987 Hartrees.
 IExCor=    0 DFT=F Ex=HF Corr=None ExCW=0 ScaHFX=  1.000000
 ScaDFX=  1.000000  1.000000  1.000000  1.000000 ScalE2=  1.000000  1.000000
 IRadAn=      5 IRanWt=     -1 IRanGd=            0 ICorTp=0 IEmpDi=  4
 NAtoms=    9 NActive=    9 NUniq=    8 SFac= 1.27D+00 NAtFMM=   60 NAOKFM=F Big=F
 Integral buffers will be    131072 words long.
 Raffenetti 1 integral format.
 Two-electron integral symmetry is turned on.
 Leave Link  301 at Mon May  2 11:19:20 2022, MaxMem=   104857600 cpu:               0.2 elap:               0.0
 (Enter /apps/software/g16/l302.exe)
 NPDir=0 NMtPBC=     1 NCelOv=     1 NCel=       1 NClECP=     1 NCelD=      1
         NCelK=      1 NCelE2=     1 NClLst=     1 CellRange=     0.0.
 One-electron integrals computed using PRISM.
 One-electron integral symmetry used in STVInt
 NBasis=    57 RedAO= T EigKep=  5.48D-03  NBF=    43    14
 NBsUse=    57 1.00D-06 EigRej= -1.00D+00 NBFU=    43    14
 Leave Link  302 at Mon May  2 11:19:20 2022, MaxMem=   104857600 cpu:               0.3 elap:               0.1
 (Enter /apps/software/g16/l303.exe)
 DipDrv:  MaxL=1.
 Leave Link  303 at Mon May  2 11:19:20 2022, MaxMem=   104857600 cpu:               0.1 elap:               0.0
 (Enter /apps/software/g16/l401.exe)
 ExpMin= 1.61D-01 ExpMax= 3.05D+03 ExpMxC= 4.57D+02 IAcc=3 IRadAn=         5 AccDes= 0.00D+00
 Harris functional with IExCor=  205 and IRadAn=       5 diagonalized for initial guess.
 HarFok:  IExCor=  205 AccDes= 0.00D+00 IRadAn=         5 IDoV= 1 UseB2=F ITyADJ=14
 ICtDFT=  3500011 ScaDFX=  1.000000  1.000000  1.000000  1.000000
 FoFCou: FMM=F IPFlag=           0 FMFlag=      100000 FMFlg1=           0
         NFxFlg=           0 DoJE=T BraDBF=F KetDBF=T FulRan=T
         wScrn=  0.000000 ICntrl=       500 IOpCl=  0 I1Cent=   200000004 NGrid=           0
         NMat0=    1 NMatS0=      1 NMatT0=    0 NMatD0=    1 NMtDS0=    0 NMtDT0=    0
 Petite list used in FoFCou.
 Harris En= -117.364537382959    
 JPrj=0 DoOrth=F DoCkMO=F.
 Initial guess orbital symmetries:
       Occupied  (A') (A') (A') (A') (A') (A') (A') (A') (A") (A')
                 (A') (A")
       Virtual   (A") (A') (A') (A') (A') (A") (A') (A') (A') (A')
                 (A') (A") (A') (A") (A') (A") (A') (A') (A') (A")
                 (A') (A') (A') (A') (A') (A') (A') (A") (A") (A")
                 (A') (A') (A') (A') (A") (A') (A") (A') (A") (A')
                 (A') (A') (A') (A') (A')
 The electronic state of the initial guess is 1-A'.
 Leave Link  401 at Mon May  2 11:19:20 2022, MaxMem=   104857600 cpu:               0.6 elap:               0.2
 (Enter /apps/software/g16/l502.exe)
 Keep R1 ints in memory in symmetry-blocked form, NReq=2219170.
 FoFCou: FMM=F IPFlag=           0 FMFlag=           0 FMFlg1=           0
         NFxFlg=           0 DoJE=F BraDBF=F KetDBF=F FulRan=T
         wScrn=  0.000000 ICntrl=       600 IOpCl=  0 I1Cent=           0 NGrid=           0
         NMat0=    1 NMatS0=   1653 NMatT0=    0 NMatD0=    1 NMtDS0=    0 NMtDT0=    0
 Petite list used in FoFCou.
 Closed shell SCF:
 Using DIIS extrapolation, IDIIS=  1040.
 NGot=   104857600 LenX=   104111392 LenY=   104107702
 Requested convergence on RMS density matrix=1.00D-08 within 128 cycles.
 Requested convergence on MAX density matrix=1.00D-06.
 Requested convergence on             energy=1.00D-06.
 No special actions if energy rises.

 Cycle   1  Pass 1  IDiag  1:
 E= -116.858636122770    
 DIIS: error= 6.86D-02 at cycle   1 NSaved=   1.
 NSaved= 1 IEnMin= 1 EnMin= -116.858636122770     IErMin= 1 ErrMin= 6.86D-02
 ErrMax= 6.86D-02  0.00D+00 EMaxC= 1.00D-01 BMatC= 2.54D-01 BMatP= 2.54D-01
 IDIUse=3 WtCom= 3.14D-01 WtEn= 6.86D-01
 Coeff-Com:  0.100D+01
 Coeff-En:   0.100D+01
 Coeff:      0.100D+01
 Gap=     0.523 Goal=   None    Shift=    0.000
 GapD=    0.523 DampG=2.000 DampE=0.500 DampFc=1.0000 IDamp=-1.
 RMSDP=8.83D-03 MaxDP=1.14D-01              OVMax= 1.34D-01

 Cycle   2  Pass 1  IDiag  1:
 E= -117.039103321287     Delta-E=       -0.180467198517 Rises=F Damp=F
 DIIS: error= 2.20D-02 at cycle   2 NSaved=   2.
 NSaved= 2 IEnMin= 2 EnMin= -117.039103321287     IErMin= 2 ErrMin= 2.20D-02
 ErrMax= 2.20D-02  0.00D+00 EMaxC= 1.00D-01 BMatC= 2.90D-02 BMatP= 2.54D-01
 IDIUse=3 WtCom= 7.80D-01 WtEn= 2.20D-01
 Coeff-Com:  0.196D+00 0.804D+00
 Coeff-En:   0.000D+00 0.100D+01
 Coeff:      0.153D+00 0.847D+00
 Gap=     0.538 Goal=   None    Shift=    0.000
 RMSDP=3.08D-03 MaxDP=3.20D-02 DE=-1.80D-01 OVMax= 4.16D-02

 Cycle   3  Pass 1  IDiag  1:
 E= -117.064627623922     Delta-E=       -0.025524302634 Rises=F Damp=F
 DIIS: error= 4.70D-03 at cycle   3 NSaved=   3.
 NSaved= 3 IEnMin= 3 EnMin= -117.064627623922     IErMin= 3 ErrMin= 4.70D-03
 ErrMax= 4.70D-03  0.00D+00 EMaxC= 1.00D-01 BMatC= 9.23D-04 BMatP= 2.90D-02
 IDIUse=3 WtCom= 9.53D-01 WtEn= 4.70D-02
 Coeff-Com: -0.231D-01 0.103D+00 0.920D+00
 Coeff-En:   0.000D+00 0.000D+00 0.100D+01
 Coeff:     -0.220D-01 0.980D-01 0.924D+00
 Gap=     0.527 Goal=   None    Shift=    0.000
 RMSDP=4.79D-04 MaxDP=6.31D-03 DE=-2.55D-02 OVMax= 9.08D-03

 Cycle   4  Pass 1  IDiag  1:
 E= -117.065664807857     Delta-E=       -0.001037183935 Rises=F Damp=F
 DIIS: error= 6.57D-04 at cycle   4 NSaved=   4.
 NSaved= 4 IEnMin= 4 EnMin= -117.065664807857     IErMin= 4 ErrMin= 6.57D-04
 ErrMax= 6.57D-04  0.00D+00 EMaxC= 1.00D-01 BMatC= 2.14D-05 BMatP= 9.23D-04
 IDIUse=3 WtCom= 9.93D-01 WtEn= 6.57D-03
 Coeff-Com: -0.360D-02-0.296D-03 0.949D-01 0.909D+00
 Coeff-En:   0.000D+00 0.000D+00 0.000D+00 0.100D+01
 Coeff:     -0.358D-02-0.294D-03 0.943D-01 0.910D+00
 Gap=     0.527 Goal=   None    Shift=    0.000
 RMSDP=1.19D-04 MaxDP=1.30D-03 DE=-1.04D-03 OVMax= 2.79D-03

 Cycle   5  Pass 1  IDiag  1:
 E= -117.065692867705     Delta-E=       -0.000028059848 Rises=F Damp=F
 DIIS: error= 3.11D-04 at cycle   5 NSaved=   5.
 NSaved= 5 IEnMin= 5 EnMin= -117.065692867705     IErMin= 5 ErrMin= 3.11D-04
 ErrMax= 3.11D-04  0.00D+00 EMaxC= 1.00D-01 BMatC= 4.25D-06 BMatP= 2.14D-05
 IDIUse=3 WtCom= 9.97D-01 WtEn= 3.11D-03
 Coeff-Com:  0.237D-02-0.149D-01-0.103D+00 0.210D+00 0.906D+00
 Coeff-En:   0.000D+00 0.000D+00 0.000D+00 0.000D+00 0.100D+01
 Coeff:      0.236D-02-0.148D-01-0.103D+00 0.209D+00 0.906D+00
 Gap=     0.527 Goal=   None    Shift=    0.000
 RMSDP=5.16D-05 MaxDP=5.11D-04 DE=-2.81D-05 OVMax= 7.95D-04

 Cycle   6  Pass 1  IDiag  1:
 E= -117.065698291328     Delta-E=       -0.000005423623 Rises=F Damp=F
 DIIS: error= 3.58D-05 at cycle   6 NSaved=   6.
 NSaved= 6 IEnMin= 6 EnMin= -117.065698291328     IErMin= 6 ErrMin= 3.58D-05
 ErrMax= 3.58D-05  0.00D+00 EMaxC= 1.00D-01 BMatC= 6.37D-08 BMatP= 4.25D-06
 IDIUse=1 WtCom= 1.00D+00 WtEn= 0.00D+00
 Coeff-Com:  0.266D-03-0.881D-03-0.872D-02-0.283D-01-0.424D-02 0.104D+01
 Coeff:      0.266D-03-0.881D-03-0.872D-02-0.283D-01-0.424D-02 0.104D+01
 Gap=     0.527 Goal=   None    Shift=    0.000
 RMSDP=1.11D-05 MaxDP=9.71D-05 DE=-5.42D-06 OVMax= 2.49D-04

 Cycle   7  Pass 1  IDiag  1:
 E= -117.065698476829     Delta-E=       -0.000000185502 Rises=F Damp=F
 DIIS: error= 1.21D-05 at cycle   7 NSaved=   7.
 NSaved= 7 IEnMin= 7 EnMin= -117.065698476829     IErMin= 7 ErrMin= 1.21D-05
 ErrMax= 1.21D-05  0.00D+00 EMaxC= 1.00D-01 BMatC= 8.94D-09 BMatP= 6.37D-08
 IDIUse=1 WtCom= 1.00D+00 WtEn= 0.00D+00
 Coeff-Com: -0.155D-03 0.794D-03 0.650D-02 0.341D-02-0.615D-01-0.200D+00
 Coeff-Com:  0.125D+01
 Coeff:     -0.155D-03 0.794D-03 0.650D-02 0.341D-02-0.615D-01-0.200D+00
 Coeff:      0.125D+01
 Gap=     0.527 Goal=   None    Shift=    0.000
 RMSDP=3.85D-06 MaxDP=4.22D-05 DE=-1.86D-07 OVMax= 9.10D-05

 Cycle   8  Pass 1  IDiag  1:
 E= -117.065698499012     Delta-E=       -0.000000022183 Rises=F Damp=F
 DIIS: error= 3.51D-06 at cycle   8 NSaved=   8.
 NSaved= 8 IEnMin= 8 EnMin= -117.065698499012     IErMin= 8 ErrMin= 3.51D-06
 ErrMax= 3.51D-06  0.00D+00 EMaxC= 1.00D-01 BMatC= 1.05D-09 BMatP= 8.94D-09
 IDIUse=1 WtCom= 1.00D+00 WtEn= 0.00D+00
 Coeff-Com: -0.197D-04 0.468D-04 0.582D-03 0.450D-02-0.451D-02-0.660D-01
 Coeff-Com: -0.724D-01 0.114D+01
 Coeff:     -0.197D-04 0.468D-04 0.582D-03 0.450D-02-0.451D-02-0.660D-01
 Coeff:     -0.724D-01 0.114D+01
 Gap=     0.527 Goal=   None    Shift=    0.000
 RMSDP=1.31D-06 MaxDP=1.52D-05 DE=-2.22D-08 OVMax= 3.61D-05

 Cycle   9  Pass 1  IDiag  1:
 E= -117.065698501903     Delta-E=       -0.000000002891 Rises=F Damp=F
 DIIS: error= 1.30D-06 at cycle   9 NSaved=   9.
 NSaved= 9 IEnMin= 9 EnMin= -117.065698501903     IErMin= 9 ErrMin= 1.30D-06
 ErrMax= 1.30D-06  0.00D+00 EMaxC= 1.00D-01 BMatC= 1.49D-10 BMatP= 1.05D-09
 IDIUse=1 WtCom= 1.00D+00 WtEn= 0.00D+00
 Coeff-Com:  0.245D-04-0.130D-03-0.105D-02 0.978D-04 0.730D-02 0.377D-01
 Coeff-Com: -0.216D+00-0.749D-02 0.118D+01
 Coeff:      0.245D-04-0.130D-03-0.105D-02 0.978D-04 0.730D-02 0.377D-01
 Coeff:     -0.216D+00-0.749D-02 0.118D+01
 Gap=     0.527 Goal=   None    Shift=    0.000
 RMSDP=5.82D-07 MaxDP=6.36D-06 DE=-2.89D-09 OVMax= 1.62D-05

 Cycle  10  Pass 1  IDiag  1:
 E= -117.065698502311     Delta-E=       -0.000000000408 Rises=F Damp=F
 DIIS: error= 2.29D-07 at cycle  10 NSaved=  10.
 NSaved=10 IEnMin=10 EnMin= -117.065698502311     IErMin=10 ErrMin= 2.29D-07
 ErrMax= 2.29D-07  0.00D+00 EMaxC= 1.00D-01 BMatC= 4.08D-12 BMatP= 1.49D-10
 IDIUse=1 WtCom= 1.00D+00 WtEn= 0.00D+00
 Coeff-Com: -0.293D-05 0.173D-04 0.136D-03-0.170D-03-0.138D-02-0.961D-03
 Coeff-Com:  0.387D-01-0.662D-01-0.181D+00 0.121D+01
 Coeff:     -0.293D-05 0.173D-04 0.136D-03-0.170D-03-0.138D-02-0.961D-03
 Coeff:      0.387D-01-0.662D-01-0.181D+00 0.121D+01
 Gap=     0.527 Goal=   None    Shift=    0.000
 RMSDP=8.86D-08 MaxDP=9.38D-07 DE=-4.08D-10 OVMax= 2.12D-06

 Cycle  11  Pass 1  IDiag  1:
 E= -117.065698502323     Delta-E=       -0.000000000011 Rises=F Damp=F
 DIIS: error= 6.49D-08 at cycle  11 NSaved=  11.
 NSaved=11 IEnMin=11 EnMin= -117.065698502323     IErMin=11 ErrMin= 6.49D-08
 ErrMax= 6.49D-08  0.00D+00 EMaxC= 1.00D-01 BMatC= 1.44D-13 BMatP= 4.08D-12
 IDIUse=1 WtCom= 1.00D+00 WtEn= 0.00D+00
 Coeff-Com: -0.163D-06 0.760D-06 0.569D-05 0.554D-04 0.361D-04-0.137D-02
 Coeff-Com: -0.151D-02 0.189D-01-0.422D-04-0.348D+00 0.133D+01
 Coeff:     -0.163D-06 0.760D-06 0.569D-05 0.554D-04 0.361D-04-0.137D-02
 Coeff:     -0.151D-02 0.189D-01-0.422D-04-0.348D+00 0.133D+01
 Gap=     0.527 Goal=   None    Shift=    0.000
 RMSDP=1.98D-08 MaxDP=1.65D-07 DE=-1.13D-11 OVMax= 3.05D-07

 Cycle  12  Pass 1  IDiag  1:
 E= -117.065698502323     Delta-E=        0.000000000000 Rises=F Damp=F
 DIIS: error= 9.27D-09 at cycle  12 NSaved=  12.
 NSaved=12 IEnMin=11 EnMin= -117.065698502323     IErMin=12 ErrMin= 9.27D-09
 ErrMax= 9.27D-09  0.00D+00 EMaxC= 1.00D-01 BMatC= 2.76D-15 BMatP= 1.44D-13
 IDIUse=1 WtCom= 1.00D+00 WtEn= 0.00D+00
 Coeff-Com:  0.124D-06-0.700D-06-0.530D-05-0.792D-05 0.315D-04 0.348D-03
 Coeff-Com: -0.755D-03-0.218D-02 0.399D-02 0.481D-01-0.301D+00 0.125D+01
 Coeff:      0.124D-06-0.700D-06-0.530D-05-0.792D-05 0.315D-04 0.348D-03
 Coeff:     -0.755D-03-0.218D-02 0.399D-02 0.481D-01-0.301D+00 0.125D+01
 Gap=     0.527 Goal=   None    Shift=    0.000
 RMSDP=2.66D-09 MaxDP=2.24D-08 DE= 0.00D+00 OVMax= 3.98D-08

 SCF Done:  E(RHF) =  -117.065698502     A.U. after   12 cycles
            NFock= 12  Conv=0.27D-08     -V/T= 2.0014
 KE= 1.168982190602D+02 PE=-4.135440602542D+02 EE= 1.087941380930D+02
 Leave Link  502 at Mon May  2 11:19:20 2022, MaxMem=   104857600 cpu:               0.5 elap:               0.1
 (Enter /apps/software/g16/l601.exe)
 Copying SCF densities to generalized density rwf, IOpCl= 0 IROHF=0.

 **********************************************************************

            Population analysis using the SCF density.

 **********************************************************************

 Orbital symmetries:
       Occupied  (A') (A') (A') (A') (A') (A') (A') (A') (A") (A')
                 (A') (A")
       Virtual   (A") (A') (A') (A') (A') (A") (A') (A') (A') (A')
                 (A') (A") (A') (A") (A') (A") (A') (A') (A') (A")
                 (A') (A') (A') (A') (A') (A') (A') (A") (A") (A")
                 (A') (A') (A') (A") (A') (A') (A") (A') (A") (A')
                 (A') (A') (A') (A') (A')
 The electronic state is 1-A'.
 Alpha  occ. eigenvalues --  -11.23029 -11.21879 -11.21373  -1.05695  -0.92399
 Alpha  occ. eigenvalues --   -0.75306  -0.63327  -0.57622  -0.56883  -0.51677
 Alpha  occ. eigenvalues --   -0.48762  -0.34927
 Alpha virt. eigenvalues --    0.17755   0.25440   0.27523   0.30164   0.34107
 Alpha virt. eigenvalues --    0.34822   0.35409   0.44416   0.50286   0.69077
 Alpha virt. eigenvalues --    0.74432   0.77026   0.80923   0.83472   0.90316
 Alpha virt. eigenvalues --    0.91785   0.99037   1.02997   1.14281   1.15937
 Alpha virt. eigenvalues --    1.16115   1.19390   1.21284   1.23561   1.35292
 Alpha virt. eigenvalues --    1.51305   1.52893   1.69848   1.75876   1.99758
 Alpha virt. eigenvalues --    2.10176   2.18963   2.27767   2.44719   2.45684
 Alpha virt. eigenvalues --    2.53261   2.55162   2.60490   2.79323   2.87083
 Alpha virt. eigenvalues --    3.11714   3.17445   4.53699   4.61723   4.81861
          Condensed to atoms (all electrons):
               1          2          3          4          5          6
     1  C    5.050162   0.654943  -0.066587   0.399825   0.394444  -0.037486
     2  C    0.654943   4.966757   0.339187  -0.047849  -0.037894   0.396408
     3  C   -0.066587   0.339187   5.092276  -0.003528   0.003227  -0.035972
     4  H    0.399825  -0.047849  -0.003528   0.500654  -0.024848   0.003157
     5  H    0.394444  -0.037894   0.003227  -0.024848   0.494733  -0.002951
     6  H   -0.037486   0.396408  -0.035972   0.003157  -0.002951   0.491554
     7  H    0.004192  -0.038569   0.392895   0.000070  -0.000111  -0.003396
     8  H   -0.005491  -0.038133   0.392728   0.001187  -0.000056   0.002336
     9  H   -0.005491  -0.038133   0.392728   0.001187  -0.000056   0.002336
               7          8          9
     1  C    0.004192  -0.005491  -0.005491
     2  C   -0.038569  -0.038133  -0.038133
     3  C    0.392895   0.392728   0.392728
     4  H    0.000070   0.001187   0.001187
     5  H   -0.000111  -0.000056  -0.000056
     6  H   -0.003396   0.002336   0.002336
     7  H    0.528708  -0.024568  -0.024568
     8  H   -0.024568   0.517483  -0.025066
     9  H   -0.024568  -0.025066   0.517483
 Mulliken charges:
               1
     1  C   -0.388512
     2  C   -0.156716
     3  C   -0.506952
     4  H    0.170145
     5  H    0.173512
     6  H    0.184013
     7  H    0.165349
     8  H    0.179581
     9  H    0.179581
 Sum of Mulliken charges =   0.00000
 Mulliken charges with hydrogens summed into heavy atoms:
               1
     1  C   -0.044855
     2  C    0.027297
     3  C    0.017558
 Electronic spatial extent (au):  <R**2>=            194.3533
 Charge=              0.0000 electrons
 Dipole moment (field-independent basis, Debye):
    X=             -0.3003    Y=             -0.0313    Z=              0.0000  Tot=              0.3019
 Quadrupole moment (field-independent basis, Debye-Ang):
   XX=            -19.4327   YY=            -18.7732   ZZ=            -21.7236
   XY=             -0.3352   XZ=             -0.0000   YZ=             -0.0000
 Traceless Quadrupole moment (field-independent basis, Debye-Ang):
   XX=              0.5438   YY=              1.2033   ZZ=             -1.7471
   XY=             -0.3352   XZ=             -0.0000   YZ=             -0.0000
 Octapole moment (field-independent basis, Debye-Ang**2):
  XXX=              1.4539  YYY=              1.1687  ZZZ=             -0.0000  XYY=              0.6923
  XXY=              1.3236  XXZ=             -0.0000  XZZ=             -1.7467  YZZ=             -1.3840
  YYZ=              0.0000  XYZ=              0.0000
 Hexadecapole moment (field-independent basis, Debye-Ang**3):
 XXXX=           -166.9668 YYYY=            -62.0517 ZZZZ=            -29.5988 XXXY=            -15.9267
 XXXZ=              0.0000 YYYX=            -17.0901 YYYZ=             -0.0000 ZZZX=              0.0000
 ZZZY=              0.0000 XXYY=            -37.7045 XXZZ=            -35.8165 YYZZ=            -15.4961
 XXYZ=             -0.0000 YYXZ=             -0.0000 ZZXY=             -5.1472
 N-N= 7.078600459868D+01 E-N=-4.135440601983D+02  KE= 1.168982190602D+02
 Symmetry A'   KE= 1.129891425947D+02
 Symmetry A"   KE= 3.909076465565D+00
 No NMR shielding tensors so no spin-rotation constants.
 Leave Link  601 at Mon May  2 11:19:20 2022, MaxMem=   104857600 cpu:               0.3 elap:               0.1
 (Enter /apps/software/g16/l9999.exe)
 1\1\GINC-CNODE07\SP\RHF\6-31G(d)\C3H6\LCZ\02-May-2022\0\\#p RHF/6-31G(
 d)\\Propene SP 6-31G(d)\\0,1\C,0,1.273694,0.103415,0.\C,0,0.,0.519712,
 0.\C,0,-1.131346,-0.495403,0.\H,0,1.496403,-0.953373,0.\H,0,2.077545,0
 .82468,0.\H,0,-0.222709,1.5765,0.\H,0,-2.088089,0.026845,0.\H,0,-1.058
 621,-1.120498,0.889981\H,0,-1.058621,-1.120498,-0.889981\\Version=ES64
 L-G16RevA.03\State=1-A'\HF=-117.0656985\RMSD=2.659e-09\Dipole=-0.11812
 75,-0.0123143,0.\Quadrupole=0.4043048,0.8946117,-1.2989165,-0.2491895,
 0.,0.\PG=CS [SG(C3H4),X(H2)]\\@


 IF OTHER PEOPLE ARE GOING TO TALK, CONVERSATION IS SIMPLY IMPOSSIBLE.

                                               -- WHISTLER'S PRINCIPLE
 Job cpu time:       0 days  0 hours  0 minutes  2.8 seconds.
 Elapsed time:       0 days  0 hours  0 minutes  0.7 seconds.
 File lengths (MBytes):  RWF=      6 Int=      0 D2E=      0 Chk=      2 Scr=      1
 Normal termination of Gaussian 16 at Mon May  2 11:19:20 2022.

Sender: Unischeduler System <lcz@mgt01>
Subject: Job 127372: <#!/bin/bash
#BSUB -J intel
#BSUB -o propeneSP.out
#BSUB -n 4
#BSUB -q cqueue
#BSUB -R span[hosts=1]
export g16root=/apps/software
source /apps/software/g16/bsd/g16.profile
export GAUSS_SCRDIR=/scratch
/apps/software/g16/g16 < propeneSP.gjf > propeneSP.out> Done

Job <#!/bin/bash
#BSUB -J intel
#BSUB -o propeneSP.out
#BSUB -n 4
#BSUB -q cqueue
#BSUB -R span[hosts=1]
export g16root=/apps/software
source /apps/software/g16/bsd/g16.profile
export GAUSS_SCRDIR=/scratch
/apps/software/g16/g16 < propeneSP.gjf > propeneSP.out> was submitted from host <mgt01> by user <lcz>.
Job was executed on host(s) <4*cnode07>, in queue <cqueue>, as user <lcz>.
</apps/users/lcz> was used as the home directory.
</apps/users/lcz/exe3/exe3/task1/STO-3G/Gaussian> was used as the working directory.
Started at 2022-05-02 11:19:19
Results reported at 2022-05-02 11:19:20

Your job looked like:

------------------------------------------------------------
# User input
#!/bin/bash
#BSUB -J intel
#BSUB -o propeneSP.out
#BSUB -n 4
#BSUB -q cqueue
#BSUB -R span[hosts=1]
export g16root=/apps/software
source /apps/software/g16/bsd/g16.profile
export GAUSS_SCRDIR=/scratch
/apps/software/g16/g16 < propeneSP.gjf > propeneSP.out
------------------------------------------------------------

Successfully completed.

Resource usage summary:

    CPU time   :            0.02 sec.
    Max Memory :                 7 MB
    Max Processes  :               2


The output (if any) follows:

