[Molden Format]
[N_ATOMS]
           10
[Atoms]  AU
C     1    6      -3.153812        1.523264        0.000000
H     2    1      -2.669104        3.534007        0.000000
H     3    1      -5.159592        1.037028        0.000000
C     4    6      -1.352024       -0.263651        0.000000
H     5    1      -1.897611       -2.263346        0.000000
C     6    6       1.352024        0.263651        0.000000
H     7    1       1.897611        2.263346        0.000000
C     8    6       3.153812       -1.523264        0.000000
H     9    1       2.669104       -3.534007        0.000000
H    10    1       5.159592       -1.037028        0.000000
[5D7F9G]
[GTO]
    1
    s    8
   0.823600000E+04   0.542430189E-03
   0.123500000E+04   0.419642790E-02
   0.280800000E+03   0.215409141E-01
   0.792700000E+02   0.836149496E-01
   0.255900000E+02   0.239871619E+00
   0.899700000E+01   0.443751820E+00
   0.331900000E+01   0.353579696E+00
   0.364300000E+00  -0.917636608E-02
    s    8
   0.823600000E+04  -0.196392234E-03
   0.123500000E+04  -0.152595027E-02
   0.280800000E+03  -0.789044903E-02
   0.792700000E+02  -0.315148705E-01
   0.255900000E+02  -0.969100083E-01
   0.899700000E+01  -0.220541526E+00
   0.331900000E+01  -0.296069113E+00
   0.364300000E+00   0.104050343E+01
    s    1
   0.905900000E+00   0.100000000E+01
    s    1
   0.128500000E+00   0.100000000E+01
    p    3
   0.187100000E+02   0.394263872E-01
   0.413300000E+01   0.244088985E+00
   0.120000000E+01   0.815492009E+00
    p    1
   0.382700000E+00   0.100000000E+01
    p    1
   0.120900000E+00   0.100000000E+01
    d    1
   0.109700000E+01   0.100000000E+01
    d    1
   0.318000000E+00   0.100000000E+01
    f    1
   0.761000000E+00   0.100000000E+01
 
    2
    s    3
   0.338700000E+02   0.254948632E-01
   0.509500000E+01   0.190362766E+00
   0.115900000E+01   0.852162022E+00
    s    1
   0.325800000E+00   0.100000000E+01
    s    1
   0.102700000E+00   0.100000000E+01
    p    1
   0.140700000E+01   0.100000000E+01
    p    1
   0.388000000E+00   0.100000000E+01
    d    1
   0.105700000E+01   0.100000000E+01
 
    3
    s    3
   0.338700000E+02   0.254948632E-01
   0.509500000E+01   0.190362766E+00
   0.115900000E+01   0.852162022E+00
    s    1
   0.325800000E+00   0.100000000E+01
    s    1
   0.102700000E+00   0.100000000E+01
    p    1
   0.140700000E+01   0.100000000E+01
    p    1
   0.388000000E+00   0.100000000E+01
    d    1
   0.105700000E+01   0.100000000E+01
 
    4
    s    8
   0.823600000E+04   0.542430189E-03
   0.123500000E+04   0.419642790E-02
   0.280800000E+03   0.215409141E-01
   0.792700000E+02   0.836149496E-01
   0.255900000E+02   0.239871619E+00
   0.899700000E+01   0.443751820E+00
   0.331900000E+01   0.353579696E+00
   0.364300000E+00  -0.917636608E-02
    s    8
   0.823600000E+04  -0.196392234E-03
   0.123500000E+04  -0.152595027E-02
   0.280800000E+03  -0.789044903E-02
   0.792700000E+02  -0.315148705E-01
   0.255900000E+02  -0.969100083E-01
   0.899700000E+01  -0.220541526E+00
   0.331900000E+01  -0.296069113E+00
   0.364300000E+00   0.104050343E+01
    s    1
   0.905900000E+00   0.100000000E+01
    s    1
   0.128500000E+00   0.100000000E+01
    p    3
   0.187100000E+02   0.394263872E-01
   0.413300000E+01   0.244088985E+00
   0.120000000E+01   0.815492009E+00
    p    1
   0.382700000E+00   0.100000000E+01
    p    1
   0.120900000E+00   0.100000000E+01
    d    1
   0.109700000E+01   0.100000000E+01
    d    1
   0.318000000E+00   0.100000000E+01
    f    1
   0.761000000E+00   0.100000000E+01
 
    5
    s    3
   0.338700000E+02   0.254948632E-01
   0.509500000E+01   0.190362766E+00
   0.115900000E+01   0.852162022E+00
    s    1
   0.325800000E+00   0.100000000E+01
    s    1
   0.102700000E+00   0.100000000E+01
    p    1
   0.140700000E+01   0.100000000E+01
    p    1
   0.388000000E+00   0.100000000E+01
    d    1
   0.105700000E+01   0.100000000E+01
 
    6
    s    8
   0.823600000E+04   0.542430189E-03
   0.123500000E+04   0.419642790E-02
   0.280800000E+03   0.215409141E-01
   0.792700000E+02   0.836149496E-01
   0.255900000E+02   0.239871619E+00
   0.899700000E+01   0.443751820E+00
   0.331900000E+01   0.353579696E+00
   0.364300000E+00  -0.917636608E-02
    s    8
   0.823600000E+04  -0.196392234E-03
   0.123500000E+04  -0.152595027E-02
   0.280800000E+03  -0.789044903E-02
   0.792700000E+02  -0.315148705E-01
   0.255900000E+02  -0.969100083E-01
   0.899700000E+01  -0.220541526E+00
   0.331900000E+01  -0.296069113E+00
   0.364300000E+00   0.104050343E+01
    s    1
   0.905900000E+00   0.100000000E+01
    s    1
   0.128500000E+00   0.100000000E+01
    p    3
   0.187100000E+02   0.394263872E-01
   0.413300000E+01   0.244088985E+00
   0.120000000E+01   0.815492009E+00
    p    1
   0.382700000E+00   0.100000000E+01
    p    1
   0.120900000E+00   0.100000000E+01
    d    1
   0.109700000E+01   0.100000000E+01
    d    1
   0.318000000E+00   0.100000000E+01
    f    1
   0.761000000E+00   0.100000000E+01
 
    7
    s    3
   0.338700000E+02   0.254948632E-01
   0.509500000E+01   0.190362766E+00
   0.115900000E+01   0.852162022E+00
    s    1
   0.325800000E+00   0.100000000E+01
    s    1
   0.102700000E+00   0.100000000E+01
    p    1
   0.140700000E+01   0.100000000E+01
    p    1
   0.388000000E+00   0.100000000E+01
    d    1
   0.105700000E+01   0.100000000E+01
 
    8
    s    8
   0.823600000E+04   0.542430189E-03
   0.123500000E+04   0.419642790E-02
   0.280800000E+03   0.215409141E-01
   0.792700000E+02   0.836149496E-01
   0.255900000E+02   0.239871619E+00
   0.899700000E+01   0.443751820E+00
   0.331900000E+01   0.353579696E+00
   0.364300000E+00  -0.917636608E-02
    s    8
   0.823600000E+04  -0.196392234E-03
   0.123500000E+04  -0.152595027E-02
   0.280800000E+03  -0.789044903E-02
   0.792700000E+02  -0.315148705E-01
   0.255900000E+02  -0.969100083E-01
   0.899700000E+01  -0.220541526E+00
   0.331900000E+01  -0.296069113E+00
   0.364300000E+00   0.104050343E+01
    s    1
   0.905900000E+00   0.100000000E+01
    s    1
   0.128500000E+00   0.100000000E+01
    p    3
   0.187100000E+02   0.394263872E-01
   0.413300000E+01   0.244088985E+00
   0.120000000E+01   0.815492009E+00
    p    1
   0.382700000E+00   0.100000000E+01
    p    1
   0.120900000E+00   0.100000000E+01
    d    1
   0.109700000E+01   0.100000000E+01
    d    1
   0.318000000E+00   0.100000000E+01
    f    1
   0.761000000E+00   0.100000000E+01
 
    9
    s    3
   0.338700000E+02   0.254948632E-01
   0.509500000E+01   0.190362766E+00
   0.115900000E+01   0.852162022E+00
    s    1
   0.325800000E+00   0.100000000E+01
    s    1
   0.102700000E+00   0.100000000E+01
    p    1
   0.140700000E+01   0.100000000E+01
    p    1
   0.388000000E+00   0.100000000E+01
    d    1
   0.105700000E+01   0.100000000E+01
 
   10
    s    3
   0.338700000E+02   0.254948632E-01
   0.509500000E+01   0.190362766E+00
   0.115900000E+01   0.852162022E+00
    s    1
   0.325800000E+00   0.100000000E+01
    s    1
   0.102700000E+00   0.100000000E+01
    p    1
   0.140700000E+01   0.100000000E+01
    p    1
   0.388000000E+00   0.100000000E+01
    d    1
   0.105700000E+01   0.100000000E+01
 
[MO]
 Sym= Ag  
 Ene=       -11.228203
 Spin= Alpha
 Occup=       2.000000
   1       -0.065350354
   2       -0.000048697
   3       -0.002927614
   4        0.000786641
   5       -0.000186426
   6        0.000140462
   7        0.000000000
   8        0.001021317
   9       -0.000563447
  10        0.000000000
  11        0.000882636
  12       -0.000327313
  13        0.000000000
  14       -0.000082748
  15        0.000000000
  16        0.000000000
  17       -0.000032641
  18       -0.000109589
  19        0.000061909
  20        0.000000000
  21        0.000000000
  22        0.000424995
  23       -0.000848573
  24        0.000000000
  25       -0.000117729
  26        0.000108231
  27        0.000000000
  28        0.000000000
  29       -0.000034470
  30       -0.000091999
  31        0.000028337
  32        0.000687514
  33        0.000058892
  34       -0.000002982
  35       -0.000027981
  36        0.000000000
  37        0.000035267
  38       -0.000286257
  39        0.000000000
  40       -0.000008432
  41        0.000000000
  42        0.000000000
  43       -0.000014614
  44       -0.000013718
  45       -0.000009336
  46        0.000629731
  47        0.000423877
  48        0.000050437
  49        0.000012688
  50        0.000000000
  51        0.000345823
  52       -0.000174737
  53        0.000000000
  54       -0.000030976
  55        0.000000000
  56        0.000000000
  57        0.000046885
  58       -0.000009718
  59       -0.688705401
  60       -0.001299833
  61       -0.029436377
  62       -0.002988720
  63       -0.000349925
  64        0.000152690
  65        0.000000000
  66        0.000385978
  67       -0.001328422
  68        0.000000000
  69        0.000344973
  70       -0.000826714
  71        0.000000000
  72        0.000410155
  73        0.000000000
  74        0.000000000
  75       -0.000035568
  76        0.000161638
  77       -0.000021513
  78        0.000000000
  79        0.000000000
  80        0.000593768
  81        0.000422102
  82        0.000000000
  83       -0.000140105
  84        0.000004847
  85        0.000000000
  86        0.000000000
  87       -0.000110748
  88       -0.000219336
  89       -0.000088981
  90       -0.000538496
  91        0.000150235
  92        0.000073741
  93        0.000148276
  94        0.000000000
  95        0.000086114
  96       -0.000273374
  97        0.000000000
  98       -0.000033340
  99        0.000000000
 100        0.000000000
 101       -0.000084276
 102        0.000113596
 103       -0.688705401
 104       -0.001299833
 105       -0.029436377
 106       -0.002988720
 107        0.000349925
 108       -0.000152690
 109        0.000000000
 110       -0.000385978
 111        0.001328422
 112        0.000000000
 113       -0.000344973
 114        0.000826714
 115        0.000000000
 116        0.000410155
 117        0.000000000
 118        0.000000000
 119       -0.000035568
 120        0.000161638
 121       -0.000021513
 122        0.000000000
 123        0.000000000
 124        0.000593768
 125        0.000422102
 126        0.000000000
 127        0.000140105
 128       -0.000004847
 129        0.000000000
 130        0.000000000
 131        0.000110748
 132        0.000219336
 133       -0.000088981
 134       -0.000538496
 135        0.000150235
 136       -0.000073741
 137       -0.000148276
 138        0.000000000
 139       -0.000086114
 140        0.000273374
 141        0.000000000
 142       -0.000033340
 143        0.000000000
 144        0.000000000
 145       -0.000084276
 146        0.000113596
 147       -0.065350354
 148       -0.000048697
 149       -0.002927614
 150        0.000786641
 151        0.000186426
 152       -0.000140462
 153        0.000000000
 154       -0.001021317
 155        0.000563447
 156        0.000000000
 157       -0.000882636
 158        0.000327313
 159        0.000000000
 160       -0.000082748
 161        0.000000000
 162        0.000000000
 163       -0.000032641
 164       -0.000109589
 165        0.000061909
 166        0.000000000
 167        0.000000000
 168        0.000424995
 169       -0.000848573
 170        0.000000000
 171        0.000117729
 172       -0.000108231
 173        0.000000000
 174        0.000000000
 175        0.000034470
 176        0.000091999
 177        0.000028337
 178        0.000687514
 179        0.000058892
 180        0.000002982
 181        0.000027981
 182        0.000000000
 183       -0.000035267
 184        0.000286257
 185        0.000000000
 186       -0.000008432
 187        0.000000000
 188        0.000000000
 189       -0.000014614
 190       -0.000013718
 191       -0.000009336
 192        0.000629731
 193        0.000423877
 194       -0.000050437
 195       -0.000012688
 196        0.000000000
 197       -0.000345823
 198        0.000174737
 199        0.000000000
 200       -0.000030976
 201        0.000000000
 202        0.000000000
 203        0.000046885
 204       -0.000009718
 Sym= Ag  
 Ene=       -11.219748
 Spin= Alpha
 Occup=       2.000000
   1       -0.688774207
   2       -0.001157313
   3       -0.029321113
   4       -0.002673547
   5        0.000188133
   6       -0.000223458
   7        0.000000000
   8       -0.001359385
   9        0.001726316
  10        0.000000000
  11       -0.000424480
  12        0.000276200
  13        0.000000000
  14        0.000504375
  15        0.000000000
  16        0.000000000
  17       -0.000010090
  18        0.000150497
  19       -0.000146238
  20        0.000000000
  21        0.000000000
  22        0.000355485
  23        0.000977058
  24        0.000000000
  25        0.000008833
  26       -0.000009321
  27        0.000000000
  28        0.000000000
  29        0.000399435
  30        0.000380659
  31       -0.000074696
  32       -0.000854863
  33        0.000330374
  34       -0.000043569
  35       -0.000207104
  36        0.000000000
  37       -0.000065597
  38        0.000386397
  39        0.000000000
  40       -0.000036313
  41        0.000000000
  42        0.000000000
  43       -0.000150523
  44        0.000086132
  45       -0.000072573
  46       -0.001160830
  47        0.000255308
  48        0.000224626
  49        0.000047665
  50        0.000000000
  51       -0.000410130
  52       -0.000051277
  53        0.000000000
  54       -0.000054432
  55        0.000000000
  56        0.000000000
  57        0.000168031
  58        0.000072468
  59        0.065822095
  60        0.000368893
  61        0.002682694
  62        0.000703732
  63        0.000162646
  64       -0.000172097
  65        0.000000000
  66       -0.000535193
  67        0.001377991
  68        0.000000000
  69       -0.000172151
  70        0.000347476
  71        0.000000000
  72       -0.000198950
  73        0.000000000
  74        0.000000000
  75       -0.000031751
  76       -0.000098766
  77        0.000161889
  78        0.000000000
  79        0.000000000
  80        0.001015972
  81       -0.002317153
  82        0.000000000
  83        0.000072333
  84       -0.000112104
  85        0.000000000
  86        0.000000000
  87        0.000118023
  88        0.000133075
  89        0.000054125
  90        0.002253449
  91        0.000114191
  92       -0.000027001
  93        0.000013654
  94        0.000000000
  95       -0.000176718
  96        0.000974746
  97        0.000000000
  98        0.000000967
  99        0.000000000
 100        0.000000000
 101       -0.000060196
 102       -0.000070116
 103        0.065822095
 104        0.000368893
 105        0.002682694
 106        0.000703732
 107       -0.000162646
 108        0.000172097
 109        0.000000000
 110        0.000535193
 111       -0.001377991
 112        0.000000000
 113        0.000172151
 114       -0.000347476
 115        0.000000000
 116       -0.000198950
 117        0.000000000
 118        0.000000000
 119       -0.000031751
 120       -0.000098766
 121        0.000161889
 122        0.000000000
 123        0.000000000
 124        0.001015972
 125       -0.002317153
 126        0.000000000
 127       -0.000072333
 128        0.000112104
 129        0.000000000
 130        0.000000000
 131       -0.000118023
 132       -0.000133075
 133        0.000054125
 134        0.002253449
 135        0.000114191
 136        0.000027001
 137       -0.000013654
 138        0.000000000
 139        0.000176718
 140       -0.000974746
 141        0.000000000
 142        0.000000967
 143        0.000000000
 144        0.000000000
 145       -0.000060196
 146       -0.000070116
 147       -0.688774207
 148       -0.001157313
 149       -0.029321113
 150       -0.002673547
 151       -0.000188133
 152        0.000223458
 153        0.000000000
 154        0.001359385
 155       -0.001726316
 156        0.000000000
 157        0.000424480
 158       -0.000276200
 159        0.000000000
 160        0.000504375
 161        0.000000000
 162        0.000000000
 163       -0.000010090
 164        0.000150497
 165       -0.000146238
 166        0.000000000
 167        0.000000000
 168        0.000355485
 169        0.000977058
 170        0.000000000
 171       -0.000008833
 172        0.000009321
 173        0.000000000
 174        0.000000000
 175       -0.000399435
 176       -0.000380659
 177       -0.000074696
 178       -0.000854863
 179        0.000330374
 180        0.000043569
 181        0.000207104
 182        0.000000000
 183        0.000065597
 184       -0.000386397
 185        0.000000000
 186       -0.000036313
 187        0.000000000
 188        0.000000000
 189       -0.000150523
 190        0.000086132
 191       -0.000072573
 192       -0.001160830
 193        0.000255308
 194       -0.000224626
 195       -0.000047665
 196        0.000000000
 197        0.000410130
 198        0.000051277
 199        0.000000000
 200       -0.000054432
 201        0.000000000
 202        0.000000000
 203        0.000168031
 204        0.000072468
 Sym= Ag  
 Ene=        -1.082610
 Spin= Alpha
 Occup=       2.000000
   1       -0.008986779
   2        0.200468466
   3        0.040330871
   4        0.071118976
   5        0.034275825
   6       -0.028143353
   7        0.000000000
   8        0.031395401
   9       -0.025776296
  10        0.000000000
  11        0.005274543
  12       -0.004219206
  13        0.000000000
  14       -0.006684022
  15        0.000000000
  16        0.000000000
  17        0.000836664
  18       -0.004914192
  19       -0.007076853
  20        0.000000000
  21        0.000000000
  22       -0.006978763
  23       -0.002133024
  24        0.000000000
  25       -0.000377788
  26        0.000300441
  27        0.000000000
  28        0.000000000
  29       -0.003138092
  30       -0.003268723
  31        0.026100938
  32        0.015049459
  33        0.001549198
  34        0.000172869
  35       -0.002451117
  36        0.000000000
  37        0.002365567
  38        0.003582153
  39        0.000000000
  40       -0.000160843
  41        0.000000000
  42        0.000000000
  43        0.000083976
  44       -0.000637360
  45        0.023657320
  46        0.020205412
  47        0.000229639
  48        0.002041789
  49       -0.000084468
  50        0.000000000
  51       -0.002122030
  52        0.001127169
  53        0.000000000
  54        0.000219754
  55        0.000000000
  56        0.000000000
  57       -0.000356762
  58       -0.000106036
  59       -0.012958210
  60        0.303711726
  61        0.060850772
  62        0.084894230
  63        0.010401755
  64        0.026794957
  65        0.000000000
  66        0.016902509
  67        0.019467655
  68        0.000000000
  69        0.001630537
  70       -0.000719214
  71        0.000000000
  72       -0.010618531
  73        0.000000000
  74        0.000000000
  75        0.003890688
  76       -0.003506281
  77       -0.009724969
  78        0.000000000
  79        0.000000000
  80       -0.008709740
  81        0.005171537
  82        0.000000000
  83       -0.000358708
  84       -0.000145964
  85        0.000000000
  86        0.000000000
  87        0.005910010
  88        0.004346972
  89        0.038844162
  90        0.022291508
  91        0.001306578
  92        0.001118393
  93        0.003180406
  94        0.000000000
  95       -0.001122061
  96       -0.006460304
  97        0.000000000
  98       -0.000319457
  99        0.000000000
 100        0.000000000
 101        0.000751781
 102       -0.000145114
 103       -0.012958210
 104        0.303711726
 105        0.060850772
 106        0.084894230
 107       -0.010401755
 108       -0.026794957
 109        0.000000000
 110       -0.016902509
 111       -0.019467655
 112        0.000000000
 113       -0.001630537
 114        0.000719214
 115        0.000000000
 116       -0.010618531
 117        0.000000000
 118        0.000000000
 119        0.003890688
 120       -0.003506281
 121       -0.009724969
 122        0.000000000
 123        0.000000000
 124       -0.008709740
 125        0.005171537
 126        0.000000000
 127        0.000358708
 128        0.000145964
 129        0.000000000
 130        0.000000000
 131       -0.005910010
 132       -0.004346972
 133        0.038844162
 134        0.022291508
 135        0.001306578
 136       -0.001118393
 137       -0.003180406
 138        0.000000000
 139        0.001122061
 140        0.006460304
 141        0.000000000
 142       -0.000319457
 143        0.000000000
 144        0.000000000
 145        0.000751781
 146       -0.000145114
 147       -0.008986779
 148        0.200468466
 149        0.040330871
 150        0.071118976
 151       -0.034275825
 152        0.028143353
 153        0.000000000
 154       -0.031395401
 155        0.025776296
 156        0.000000000
 157       -0.005274543
 158        0.004219206
 159        0.000000000
 160       -0.006684022
 161        0.000000000
 162        0.000000000
 163        0.000836664
 164       -0.004914192
 165       -0.007076853
 166        0.000000000
 167        0.000000000
 168       -0.006978763
 169       -0.002133024
 170        0.000000000
 171        0.000377788
 172       -0.000300441
 173        0.000000000
 174        0.000000000
 175        0.003138092
 176        0.003268723
 177        0.026100938
 178        0.015049459
 179        0.001549198
 180       -0.000172869
 181        0.002451117
 182        0.000000000
 183       -0.002365567
 184       -0.003582153
 185        0.000000000
 186       -0.000160843
 187        0.000000000
 188        0.000000000
 189        0.000083976
 190       -0.000637360
 191        0.023657320
 192        0.020205412
 193        0.000229639
 194       -0.002041789
 195        0.000084468
 196        0.000000000
 197        0.002122030
 198       -0.001127169
 199        0.000000000
 200        0.000219754
 201        0.000000000
 202        0.000000000
 203       -0.000356762
 204       -0.000106036
 Sym= Ag  
 Ene=        -0.818684
 Spin= Alpha
 Occup=       2.000000
   1       -0.005829089
   2        0.257391742
   3        0.052150390
   4        0.154405300
   5       -0.039674223
   6        0.020572182
   7        0.000000000
   8       -0.046721990
   9        0.023321167
  10        0.000000000
  11       -0.007412978
  12        0.001687777
  13        0.000000000
  14       -0.007236569
  15        0.000000000
  16        0.000000000
  17       -0.000548983
  18        0.001835455
  19       -0.012259905
  20        0.000000000
  21        0.000000000
  22       -0.005122174
  23        0.002324526
  24        0.000000000
  25        0.000424626
  26       -0.000108491
  27        0.000000000
  28        0.000000000
  29       -0.004757338
  30       -0.003222861
  31        0.059524055
  32        0.068097417
  33        0.015432854
  34       -0.002172928
  35       -0.005061940
  36        0.000000000
  37       -0.001671603
  38       -0.001346437
  39        0.000000000
  40       -0.000358951
  41        0.000000000
  42        0.000000000
  43       -0.000363773
  44        0.000777728
  45        0.071552432
  46        0.090848737
  47        0.017690068
  48        0.006428097
  49        0.001909381
  50        0.000000000
  51        0.004587441
  52        0.002537138
  53        0.000000000
  54       -0.000609685
  55        0.000000000
  56        0.000000000
  57        0.000924105
  58        0.000453355
  59        0.003673362
  60       -0.170272628
  61       -0.033075103
  62       -0.102380590
  63       -0.091380393
  64        0.030207399
  65        0.000000000
  66       -0.103505420
  67        0.030774900
  68        0.000000000
  69       -0.016263271
  70        0.002679515
  71        0.000000000
  72        0.005180475
  73        0.000000000
  74        0.000000000
  75       -0.003878946
  76       -0.007542112
  77        0.009751302
  78        0.000000000
  79        0.000000000
  80       -0.010320568
  81       -0.003851387
  82        0.000000000
  83        0.001998675
  84        0.000084680
  85        0.000000000
  86        0.000000000
  87       -0.004028256
  88       -0.002587101
  89       -0.036972496
  90       -0.051141942
  91       -0.009073718
  92       -0.002432427
  93       -0.002822284
  94        0.000000000
  95       -0.004473978
  96       -0.003681148
  97        0.000000000
  98        0.000280322
  99        0.000000000
 100        0.000000000
 101       -0.000019764
 102       -0.001293736
 103        0.003673362
 104       -0.170272628
 105       -0.033075103
 106       -0.102380590
 107        0.091380393
 108       -0.030207399
 109        0.000000000
 110        0.103505420
 111       -0.030774900
 112        0.000000000
 113        0.016263271
 114       -0.002679515
 115        0.000000000
 116        0.005180475
 117        0.000000000
 118        0.000000000
 119       -0.003878946
 120       -0.007542112
 121        0.009751302
 122        0.000000000
 123        0.000000000
 124       -0.010320568
 125       -0.003851387
 126        0.000000000
 127       -0.001998675
 128       -0.000084680
 129        0.000000000
 130        0.000000000
 131        0.004028256
 132        0.002587101
 133       -0.036972496
 134       -0.051141942
 135       -0.009073718
 136        0.002432427
 137        0.002822284
 138        0.000000000
 139        0.004473978
 140        0.003681148
 141        0.000000000
 142        0.000280322
 143        0.000000000
 144        0.000000000
 145       -0.000019764
 146       -0.001293736
 147       -0.005829089
 148        0.257391742
 149        0.052150390
 150        0.154405300
 151        0.039674223
 152       -0.020572182
 153        0.000000000
 154        0.046721990
 155       -0.023321167
 156        0.000000000
 157        0.007412978
 158       -0.001687777
 159        0.000000000
 160       -0.007236569
 161        0.000000000
 162        0.000000000
 163       -0.000548983
 164        0.001835455
 165       -0.012259905
 166        0.000000000
 167        0.000000000
 168       -0.005122174
 169        0.002324526
 170        0.000000000
 171       -0.000424626
 172        0.000108491
 173        0.000000000
 174        0.000000000
 175        0.004757338
 176        0.003222861
 177        0.059524055
 178        0.068097417
 179        0.015432854
 180        0.002172928
 181        0.005061940
 182        0.000000000
 183        0.001671603
 184        0.001346437
 185        0.000000000
 186       -0.000358951
 187        0.000000000
 188        0.000000000
 189       -0.000363773
 190        0.000777728
 191        0.071552432
 192        0.090848737
 193        0.017690068
 194       -0.006428097
 195       -0.001909381
 196        0.000000000
 197       -0.004587441
 198       -0.002537138
 199        0.000000000
 200       -0.000609685
 201        0.000000000
 202        0.000000000
 203        0.000924105
 204        0.000453355
 Sym= Ag  
 Ene=        -0.626111
 Spin= Alpha
 Occup=       2.000000
   1       -0.001068217
   2        0.014437426
   3        0.002638498
   4        0.001645213
   5        0.047317554
   6        0.130858901
   7        0.000000000
   8        0.056245427
   9        0.157398389
  10        0.000000000
  11        0.020577167
  12        0.066407989
  13        0.000000000
  14        0.000018951
  15        0.000000000
  16        0.000000000
  17       -0.004206720
  18        0.004788629
  19       -0.002232916
  20        0.000000000
  21        0.000000000
  22        0.002778423
  23        0.005602234
  24        0.000000000
  25       -0.000717303
  26       -0.001608677
  27        0.000000000
  28        0.000000000
  29        0.002648942
  30       -0.001244015
  31        0.092893457
  32        0.147417853
  33        0.044135767
  34       -0.001313297
  35       -0.008673919
  36        0.000000000
  37       -0.002709930
  38       -0.011046125
  39        0.000000000
  40       -0.001233885
  41        0.000000000
  42        0.000000000
  43       -0.002419576
  44        0.000600518
  45       -0.044684772
  46       -0.076767569
  47       -0.021976313
  48       -0.004427995
  49        0.001669310
  50        0.000000000
  51       -0.008686477
  52        0.002382994
  53        0.000000000
  54        0.000869837
  55        0.000000000
  56        0.000000000
  57       -0.001744579
  58        0.001033363
  59        0.000474706
  60       -0.019494556
  61       -0.005235392
  62       -0.003551119
  63        0.124152649
  64        0.051100152
  65        0.000000000
  66        0.153787478
  67        0.066672732
  68        0.000000000
  69        0.037832013
  70        0.043820761
  71        0.000000000
  72        0.000181828
  73        0.000000000
  74        0.000000000
  75        0.004845949
  76        0.002562205
  77       -0.000370523
  78        0.000000000
  79        0.000000000
  80        0.013331004
  81       -0.005260727
  82        0.000000000
  83       -0.003485425
  84       -0.000682270
  85        0.000000000
  86        0.000000000
  87        0.003976020
  88       -0.003285036
  89       -0.056530922
  90       -0.074403403
  91       -0.021808163
  92        0.001212604
  93       -0.005825911
  94        0.000000000
  95        0.006172750
  96       -0.003041295
  97        0.000000000
  98        0.000628042
  99        0.000000000
 100        0.000000000
 101        0.002198347
 102        0.001398535
 103        0.000474706
 104       -0.019494556
 105       -0.005235392
 106       -0.003551119
 107       -0.124152649
 108       -0.051100152
 109        0.000000000
 110       -0.153787478
 111       -0.066672732
 112        0.000000000
 113       -0.037832013
 114       -0.043820761
 115        0.000000000
 116        0.000181828
 117        0.000000000
 118        0.000000000