[Molden Format]
[N_ATOMS]
           10
[Atoms]  AU
C     1    6      -3.153812        1.523264        0.000000
H     2    1      -2.669104        3.534007        0.000000
H     3    1      -5.159592        1.037028        0.000000
C     4    6      -1.352024       -0.263651        0.000000
H     5    1      -1.897611       -2.263346        0.000000
C     6    6       1.352024        0.263651        0.000000
H     7    1       1.897611        2.263346        0.000000
C     8    6       3.153812       -1.523264        0.000000
H     9    1       2.669104       -3.534007        0.000000
H    10    1       5.159592       -1.037028        0.000000
[5D7F9G]
[GTO]
    1
    s    8
   0.823600000E+04   0.542430189E-03
   0.123500000E+04   0.419642790E-02
   0.280800000E+03   0.215409141E-01
   0.792700000E+02   0.836149496E-01
   0.255900000E+02   0.239871619E+00
   0.899700000E+01   0.443751820E+00
   0.331900000E+01   0.353579696E+00
   0.364300000E+00  -0.917636608E-02
    s    8
   0.823600000E+04  -0.196392234E-03
   0.123500000E+04  -0.152595027E-02
   0.280800000E+03  -0.789044903E-02
   0.792700000E+02  -0.315148705E-01
   0.255900000E+02  -0.969100083E-01
   0.899700000E+01  -0.220541526E+00
   0.331900000E+01  -0.296069113E+00
   0.364300000E+00   0.104050343E+01
    s    1
   0.905900000E+00   0.100000000E+01
    s    1
   0.128500000E+00   0.100000000E+01
    p    3
   0.187100000E+02   0.394263872E-01
   0.413300000E+01   0.244088985E+00
   0.120000000E+01   0.815492009E+00
    p    1
   0.382700000E+00   0.100000000E+01
    p    1
   0.120900000E+00   0.100000000E+01
    d    1
   0.109700000E+01   0.100000000E+01
    d    1
   0.318000000E+00   0.100000000E+01
    f    1
   0.761000000E+00   0.100000000E+01
 
    2
    s    3
   0.338700000E+02   0.254948632E-01
   0.509500000E+01   0.190362766E+00
   0.115900000E+01   0.852162022E+00
    s    1
   0.325800000E+00   0.100000000E+01
    s    1
   0.102700000E+00   0.100000000E+01
    p    1
   0.140700000E+01   0.100000000E+01
    p    1
   0.388000000E+00   0.100000000E+01
    d    1
   0.105700000E+01   0.100000000E+01
 
    3
    s    3
   0.338700000E+02   0.254948632E-01
   0.509500000E+01   0.190362766E+00
   0.115900000E+01   0.852162022E+00
    s    1
   0.325800000E+00   0.100000000E+01
    s    1
   0.102700000E+00   0.100000000E+01
    p    1
   0.140700000E+01   0.100000000E+01
    p    1
   0.388000000E+00   0.100000000E+01
    d    1
   0.105700000E+01   0.100000000E+01
 
    4
    s    8
   0.823600000E+04   0.542430189E-03
   0.123500000E+04   0.419642790E-02
   0.280800000E+03   0.215409141E-01
   0.792700000E+02   0.836149496E-01
   0.255900000E+02   0.239871619E+00
   0.899700000E+01   0.443751820E+00
   0.331900000E+01   0.353579696E+00
   0.364300000E+00  -0.917636608E-02
    s    8
   0.823600000E+04  -0.196392234E-03
   0.123500000E+04  -0.152595027E-02
   0.280800000E+03  -0.789044903E-02
   0.792700000E+02  -0.315148705E-01
   0.255900000E+02  -0.969100083E-01
   0.899700000E+01  -0.220541526E+00
   0.331900000E+01  -0.296069113E+00
   0.364300000E+00   0.104050343E+01
    s    1
   0.905900000E+00   0.100000000E+01
    s    1
   0.128500000E+00   0.100000000E+01
    p    3
   0.187100000E+02   0.394263872E-01
   0.413300000E+01   0.244088985E+00
   0.120000000E+01   0.815492009E+00
    p    1
   0.382700000E+00   0.100000000E+01
    p    1
   0.120900000E+00   0.100000000E+01
    d    1
   0.109700000E+01   0.100000000E+01
    d    1
   0.318000000E+00   0.100000000E+01
    f    1
   0.761000000E+00   0.100000000E+01
 
    5
    s    3
   0.338700000E+02   0.254948632E-01
   0.509500000E+01   0.190362766E+00
   0.115900000E+01   0.852162022E+00
    s    1
   0.325800000E+00   0.100000000E+01
    s    1
   0.102700000E+00   0.100000000E+01
    p    1
   0.140700000E+01   0.100000000E+01
    p    1
   0.388000000E+00   0.100000000E+01
    d    1
   0.105700000E+01   0.100000000E+01
 
    6
    s    8
   0.823600000E+04   0.542430189E-03
   0.123500000E+04   0.419642790E-02
   0.280800000E+03   0.215409141E-01
   0.792700000E+02   0.836149496E-01
   0.255900000E+02   0.239871619E+00
   0.899700000E+01   0.443751820E+00
   0.331900000E+01   0.353579696E+00
   0.364300000E+00  -0.917636608E-02
    s    8
   0.823600000E+04  -0.196392234E-03
   0.123500000E+04  -0.152595027E-02
   0.280800000E+03  -0.789044903E-02
   0.792700000E+02  -0.315148705E-01
   0.255900000E+02  -0.969100083E-01
   0.899700000E+01  -0.220541526E+00
   0.331900000E+01  -0.296069113E+00
   0.364300000E+00   0.104050343E+01
    s    1
   0.905900000E+00   0.100000000E+01
    s    1
   0.128500000E+00   0.100000000E+01
    p    3
   0.187100000E+02   0.394263872E-01
   0.413300000E+01   0.244088985E+00
   0.120000000E+01   0.815492009E+00
    p    1
   0.382700000E+00   0.100000000E+01
    p    1
   0.120900000E+00   0.100000000E+01
    d    1
   0.109700000E+01   0.100000000E+01
    d    1
   0.318000000E+00   0.100000000E+01
    f    1
   0.761000000E+00   0.100000000E+01
 
    7
    s    3
   0.338700000E+02   0.254948632E-01
   0.509500000E+01   0.190362766E+00
   0.115900000E+01   0.852162022E+00
    s    1
   0.325800000E+00   0.100000000E+01
    s    1
   0.102700000E+00   0.100000000E+01
    p    1
   0.140700000E+01   0.100000000E+01
    p    1
   0.388000000E+00   0.100000000E+01
    d    1
   0.105700000E+01   0.100000000E+01
 
    8
    s    8
   0.823600000E+04   0.542430189E-03
   0.123500000E+04   0.419642790E-02
   0.280800000E+03   0.215409141E-01
   0.792700000E+02   0.836149496E-01
   0.255900000E+02   0.239871619E+00
   0.899700000E+01   0.443751820E+00
   0.331900000E+01   0.353579696E+00
   0.364300000E+00  -0.917636608E-02
    s    8
   0.823600000E+04  -0.196392234E-03
   0.123500000E+04  -0.152595027E-02
   0.280800000E+03  -0.789044903E-02
   0.792700000E+02  -0.315148705E-01
   0.255900000E+02  -0.969100083E-01
   0.899700000E+01  -0.220541526E+00
   0.331900000E+01  -0.296069113E+00
   0.364300000E+00   0.104050343E+01
    s    1
   0.905900000E+00   0.100000000E+01
    s    1
   0.128500000E+00   0.100000000E+01
    p    3
   0.187100000E+02   0.394263872E-01
   0.413300000E+01   0.244088985E+00
   0.120000000E+01   0.815492009E+00
    p    1
   0.382700000E+00   0.100000000E+01
    p    1
   0.120900000E+00   0.100000000E+01
    d    1
   0.109700000E+01   0.100000000E+01
    d    1
   0.318000000E+00   0.100000000E+01
    f    1
   0.761000000E+00   0.100000000E+01
 
    9
    s    3
   0.338700000E+02   0.254948632E-01
   0.509500000E+01   0.190362766E+00
   0.115900000E+01   0.852162022E+00
    s    1
   0.325800000E+00   0.100000000E+01
    s    1
   0.102700000E+00   0.100000000E+01
    p    1
   0.140700000E+01   0.100000000E+01
    p    1
   0.388000000E+00   0.100000000E+01
    d    1
   0.105700000E+01   0.100000000E+01
 
   10
    s    3
   0.338700000E+02   0.254948632E-01
   0.509500000E+01   0.190362766E+00
   0.115900000E+01   0.852162022E+00
    s    1
   0.325800000E+00   0.100000000E+01
    s    1
   0.102700000E+00   0.100000000E+01
    p    1
   0.140700000E+01   0.100000000E+01
    p    1
   0.388000000E+00   0.100000000E+01
    d    1
   0.105700000E+01   0.100000000E+01
 
[MO]
 Sym= Ag  
 Ene=         0.000000
 Spin= Alpha
 Occup=       0.000000
   1       -0.057606990
   2       -0.000024918
   3       -0.002580272
   4        0.000830963
   5       -0.000185053
   6        0.000140108
   7        0.000000000
   8        0.001053698
   9       -0.000608276
  10        0.000000000
  11        0.000897372
  12       -0.000330862
  13        0.000000000
  14       -0.000086915
  15        0.000000000
  16        0.000000000
  17       -0.000032848
  18       -0.000113510
  19        0.000063718
  20        0.000000000
  21        0.000000000
  22        0.000415345
  23       -0.000858022
  24        0.000000000
  25       -0.000117548
  26        0.000108419
  27        0.000000000
  28        0.000000000
  29       -0.000033653
  30       -0.000089033
  31        0.000030990
  32        0.000705366
  33        0.000053762
  34       -0.000003615
  35       -0.000027770
  36        0.000000000
  37        0.000033163
  38       -0.000296069
  39        0.000000000
  40       -0.000008507
  41        0.000000000
  42        0.000000000
  43       -0.000013977
  44       -0.000013135
  45       -0.000006593
  46        0.000654294
  47        0.000423687
  48        0.000049979
  49        0.000012616
  50        0.000000000
  51        0.000353970
  52       -0.000169125
  53        0.000000000
  54       -0.000030130
  55        0.000000000
  56        0.000000000
  57        0.000045832
  58       -0.000008960
  59       -0.689465941
  60       -0.001326893
  61       -0.029351310
  62       -0.003006929
  63       -0.000400546
  64        0.000176123
  65        0.000000000
  66        0.000427351
  67       -0.001378365
  68        0.000000000
  69        0.000348921
  70       -0.000854663
  71        0.000000000
  72        0.000433375
  73        0.000000000
  74        0.000000000
  75       -0.000037456
  76        0.000157529
  77       -0.000016983
  78        0.000000000
  79        0.000000000
  80        0.000570631
  81        0.000483777
  82        0.000000000
  83       -0.000141024
  84        0.000005545
  85        0.000000000
  86        0.000000000
  87       -0.000112110
  88       -0.000223277
  89       -0.000090309
  90       -0.000594639
  91        0.000140231
  92        0.000073395
  93        0.000146285
  94        0.000000000
  95        0.000088338
  96       -0.000297963
  97        0.000000000
  98       -0.000032383
  99        0.000000000
 100        0.000000000
 101       -0.000080567
 102        0.000112622
 103       -0.689465941
 104       -0.001326893
 105       -0.029351310
 106       -0.003006929
 107        0.000400546
 108       -0.000176123
 109        0.000000000
 110       -0.000427351
 111        0.001378365
 112        0.000000000
 113       -0.000348921
 114        0.000854663
 115        0.000000000
 116        0.000433375
 117        0.000000000
 118        0.000000000
 119       -0.000037456
 120        0.000157529
 121       -0.000016983
 122        0.000000000
 123        0.000000000
 124        0.000570631
 125        0.000483777
 126        0.000000000
 127        0.000141024
 128       -0.000005545
 129        0.000000000
 130        0.000000000
 131        0.000112110
 132        0.000223277
 133       -0.000090309
 134       -0.000594639
 135        0.000140231
 136       -0.000073395
 137       -0.000146285
 138        0.000000000
 139       -0.000088338
 140        0.000297963
 141        0.000000000
 142       -0.000032383
 143        0.000000000
 144        0.000000000
 145       -0.000080567
 146        0.000112622
 147       -0.057606990
 148       -0.000024918
 149       -0.002580272
 150        0.000830963
 151        0.000185053
 152       -0.000140108
 153        0.000000000
 154       -0.001053698
 155        0.000608276
 156        0.000000000
 157       -0.000897372
 158        0.000330862
 159        0.000000000
 160       -0.000086915
 161        0.000000000
 162        0.000000000
 163       -0.000032848
 164       -0.000113510
 165        0.000063718
 166        0.000000000
 167        0.000000000
 168        0.000415345
 169       -0.000858022
 170        0.000000000
 171        0.000117548
 172       -0.000108419
 173        0.000000000
 174        0.000000000
 175        0.000033653
 176        0.000089033
 177        0.000030990
 178        0.000705366
 179        0.000053762
 180        0.000003615
 181        0.000027770
 182        0.000000000
 183       -0.000033163
 184        0.000296069
 185        0.000000000
 186       -0.000008507
 187        0.000000000
 188        0.000000000
 189       -0.000013977
 190       -0.000013135
 191       -0.000006593
 192        0.000654294
 193        0.000423687
 194       -0.000049979
 195       -0.000012616
 196        0.000000000
 197       -0.000353970
 198        0.000169125
 199        0.000000000
 200       -0.000030130
 201        0.000000000
 202        0.000000000
 203        0.000045832
 204       -0.000008960
 Sym= Ag  
 Ene=         0.000000
 Spin= Alpha
 Occup=       0.000000
   1       -0.689528122
   2       -0.001176043
   3       -0.029237552
   4       -0.002672925
   5        0.000210281
   6       -0.000246166
   7        0.000000000
   8       -0.001379254
   9        0.001749309
  10        0.000000000
  11       -0.000425634
  12        0.000282111
  13        0.000000000
  14        0.000525164
  15        0.000000000
  16        0.000000000
  17       -0.000010316
  18        0.000147091
  19       -0.000140566
  20        0.000000000
  21        0.000000000
  22        0.000359393
  23        0.000985498
  24        0.000000000
  25        0.000006225
  26       -0.000006886
  27        0.000000000
  28        0.000000000
  29        0.000399300
  30        0.000380278
  31       -0.000075465
  32       -0.000859891
  33        0.000326923
  34       -0.000043160
  35       -0.000206163
  36        0.000000000
  37       -0.000064333
  38        0.000389898
  39        0.000000000
  40       -0.000035911
  41        0.000000000
  42        0.000000000
  43       -0.000149296
  44        0.000084863
  45       -0.000073606
  46       -0.001167476
  47        0.000256193
  48        0.000223747
  49        0.000047340
  50        0.000000000
  51       -0.000413338
  52       -0.000054166
  53        0.000000000
  54       -0.000054182
  55        0.000000000
  56        0.000000000
  57        0.000167036
  58        0.000071086
  59        0.058092775
  60        0.000367716
  61        0.002347661
  62        0.000682319
  63        0.000162066
  64       -0.000171762
  65        0.000000000
  66       -0.000544330
  67        0.001384106
  68        0.000000000
  69       -0.000171664
  70        0.000349012
  71        0.000000000
  72       -0.000197418
  73        0.000000000
  74        0.000000000
  75       -0.000030455
  76       -0.000097970
  77        0.000158637
  78        0.000000000
  79        0.000000000
  80        0.001022317
  81       -0.002304223
  82        0.000000000
  83        0.000070377
  84       -0.000112174
  85        0.000000000
  86        0.000000000
  87        0.000113659
  88        0.000127405
  89        0.000053762
  90        0.002253679
  91        0.000120691
  92       -0.000025446
  93        0.000016683
  94        0.000000000
  95       -0.000170081
  96        0.000974535
  97        0.000000000
  98        0.000000124
  99        0.000000000
 100        0.000000000
 101       -0.000061563
 102       -0.000066724
 103        0.058092775
 104        0.000367716
 105        0.002347661
 106        0.000682319
 107       -0.000162066
 108        0.000171762
 109        0.000000000
 110        0.000544330
 111       -0.001384106
 112        0.000000000
 113        0.000171664
 114       -0.000349012
 115        0.000000000
 116       -0.000197418
 117        0.000000000
 118        0.000000000
 119       -0.000030455
 120       -0.000097970
 121        0.000158637
 122        0.000000000
 123        0.000000000
 124        0.001022317
 125       -0.002304223
 126        0.000000000
 127       -0.000070377
 128        0.000112174
 129        0.000000000
 130        0.000000000
 131       -0.000113659
 132       -0.000127405
 133        0.000053762
 134        0.002253679
 135        0.000120691
 136        0.000025446
 137       -0.000016683
 138        0.000000000
 139        0.000170081
 140       -0.000974535
 141        0.000000000
 142        0.000000124
 143        0.000000000
 144        0.000000000
 145       -0.000061563
 146       -0.000066724
 147       -0.689528122
 148       -0.001176043
 149       -0.029237552
 150       -0.002672925
 151       -0.000210281
 152        0.000246166
 153        0.000000000
 154        0.001379254
 155       -0.001749309
 156        0.000000000
 157        0.000425634
 158       -0.000282111
 159        0.000000000
 160        0.000525164
 161        0.000000000
 162        0.000000000
 163       -0.000010316
 164        0.000147091
 165       -0.000140566
 166        0.000000000
 167        0.000000000
 168        0.000359393
 169        0.000985498
 170        0.000000000
 171       -0.000006225
 172        0.000006886
 173        0.000000000
 174        0.000000000
 175       -0.000399300
 176       -0.000380278
 177       -0.000075465
 178       -0.000859891
 179        0.000326923
 180        0.000043160
 181        0.000206163
 182        0.000000000
 183        0.000064333
 184       -0.000389898
 185        0.000000000
 186       -0.000035911
 187        0.000000000
 188        0.000000000
 189       -0.000149296
 190        0.000084863
 191       -0.000073606
 192       -0.001167476
 193        0.000256193
 194       -0.000223747
 195       -0.000047340
 196        0.000000000
 197        0.000413338
 198        0.000054166
 199        0.000000000
 200       -0.000054182
 201        0.000000000
 202        0.000000000
 203        0.000167036
 204        0.000071086
 Sym= Ag  
 Ene=         0.000000
 Spin= Alpha
 Occup=       0.000000
   1       -0.008932184
   2        0.200026097
   3        0.040554687
   4        0.070336965
   5        0.034262956
   6       -0.028048640
   7        0.000000000
   8        0.031137389
   9       -0.025446936
  10        0.000000000
  11        0.005474356
  12       -0.003986890
  13        0.000000000
  14       -0.006695633
  15        0.000000000
  16        0.000000000
  17        0.000846493
  18       -0.004867248
  19       -0.006937269
  20        0.000000000
  21        0.000000000
  22       -0.007194143
  23       -0.002180030
  24        0.000000000
  25       -0.000301756
  26        0.000221824
  27        0.000000000
  28        0.000000000
  29       -0.003153632
  30       -0.003293163
  31        0.025986946
  32        0.014223874
  33        0.001368446
  34        0.000184289
  35       -0.002440896
  36        0.000000000
  37        0.002379346
  38        0.003799222
  39        0.000000000
  40       -0.000149470
  41        0.000000000
  42        0.000000000
  43        0.000099061
  44       -0.000652108
  45        0.023517857
  46        0.019823700
  47        0.000200359
  48        0.002031964
  49       -0.000099152
  50        0.000000000
  51       -0.002265159
  52        0.001224239
  53        0.000000000
  54        0.000242134
  55        0.000000000
  56        0.000000000
  57       -0.000374667
  58       -0.000101938
  59       -0.012902282
  60        0.304824080
  61        0.061606019
  62        0.085567725
  63        0.011166762
  64        0.026750600
  65        0.000000000
  66        0.017876330
  67        0.018621252
  68        0.000000000
  69        0.000790354
  70        0.000569012
  71        0.000000000
  72       -0.010756484
  73        0.000000000
  74        0.000000000
  75        0.003966719
  76       -0.003445419
  77       -0.009827760
  78        0.000000000
  79        0.000000000
  80       -0.009008303
  81        0.005586329
  82        0.000000000
  83       -0.000425632
  84       -0.000062263
  85        0.000000000
  86        0.000000000
  87        0.006022962
  88        0.004415384
  89        0.038809887
  90        0.021114517
  91        0.001422549
  92        0.001119220
  93        0.003167361
  94        0.000000000
  95       -0.001097000
  96       -0.007013567
  97        0.000000000
  98       -0.000286389
  99        0.000000000
 100        0.000000000
 101        0.000804344
 102       -0.000149791
 103       -0.012902282
 104        0.304824080
 105        0.061606019
 106        0.085567725
 107       -0.011166762
 108       -0.026750600
 109        0.000000000
 110       -0.017876330
 111       -0.018621252
 112        0.000000000
 113       -0.000790354
 114       -0.000569012
 115        0.000000000
 116       -0.010756484
 117        0.000000000
 118        0.000000000
 119        0.003966719
 120       -0.003445419
 121       -0.009827760
 122        0.000000000
 123        0.000000000
 124       -0.009008303
 125        0.005586329
 126        0.000000000
 127        0.000425632
 128        0.000062263
 129        0.000000000
 130        0.000000000
 131       -0.006022962
 132       -0.004415384
 133        0.038809887
 134        0.021114517
 135        0.001422549
 136       -0.001119220
 137       -0.003167361
 138        0.000000000
 139        0.001097000
 140        0.007013567
 141        0.000000000
 142       -0.000286389
 143        0.000000000
 144        0.000000000
 145        0.000804344
 146       -0.000149791
 147       -0.008932184
 148        0.200026097
 149        0.040554687
 150        0.070336965
 151       -0.034262956
 152        0.028048640
 153        0.000000000
 154       -0.031137389
 155        0.025446936
 156        0.000000000
 157       -0.005474356
 158        0.003986890
 159        0.000000000
 160       -0.006695633
 161        0.000000000
 162        0.000000000
 163        0.000846493
 164       -0.004867248
 165       -0.006937269
 166        0.000000000
 167        0.000000000
 168       -0.007194143
 169       -0.002180030
 170        0.000000000
 171        0.000301756
 172       -0.000221824
 173        0.000000000
 174        0.000000000
 175        0.003153632
 176        0.003293163
 177        0.025986946
 178        0.014223874
 179        0.001368446
 180       -0.000184289
 181        0.002440896
 182        0.000000000
 183       -0.002379346
 184       -0.003799222
 185        0.000000000
 186       -0.000149470
 187        0.000000000
 188        0.000000000
 189        0.000099061
 190       -0.000652108
 191        0.023517857
 192        0.019823700
 193        0.000200359
 194       -0.002031964
 195        0.000099152
 196        0.000000000
 197        0.002265159
 198       -0.001224239
 199        0.000000000
 200        0.000242134
 201        0.000000000
 202        0.000000000
 203       -0.000374667
 204       -0.000101938
 Sym= Ag  
 Ene=         0.000000
 Spin= Alpha
 Occup=       0.000000
   1       -0.005752150
   2        0.258767071
   3        0.052908563
   4        0.153745051
   5       -0.039674743
   6        0.020458730
   7        0.000000000
   8       -0.047235407
   9        0.023575695
  10        0.000000000
  11       -0.007530380
  12        0.001705927
  13        0.000000000
  14       -0.007415786
  15        0.000000000
  16        0.000000000
  17       -0.000550349
  18        0.001759765
  19       -0.012732228
  20        0.000000000
  21        0.000000000
  22       -0.005144374
  23        0.002350444
  24        0.000000000
  25        0.000422623
  26       -0.000110179
  27        0.000000000
  28        0.000000000
  29       -0.004842417
  30       -0.003282957
  31        0.059422807
  32        0.067236884
  33        0.014899496
  34       -0.002175289
  35       -0.005067475
  36        0.000000000
  37       -0.001669911
  38       -0.001154639
  39        0.000000000
  40       -0.000352772
  41        0.000000000
  42        0.000000000
  43       -0.000348625
  44        0.000778090
  45        0.071422628
  46        0.089782544
  47        0.016933575
  48        0.006438117
  49        0.001911617
  50        0.000000000
  51        0.004359141
  52        0.002560564
  53        0.000000000
  54       -0.000603258
  55        0.000000000
  56        0.000000000
  57        0.000910804
  58        0.000446621
  59        0.003560163
  60       -0.169804354
  61       -0.033330262
  62       -0.100459061
  63       -0.092593819
  64        0.030461972
  65        0.000000000
  66       -0.104800692
  67        0.031260166
  68        0.000000000
  69       -0.016362595
  70        0.003091442
  71        0.000000000
  72        0.005329487
  73        0.000000000
  74        0.000000000
  75       -0.003999769
  76       -0.007566053
  77        0.010153919
  78        0.000000000
  79        0.000000000
  80       -0.010621443
  81       -0.003952682
  82        0.000000000
  83        0.002005083
  84        0.000108089
  85        0.000000000
  86        0.000000000
  87       -0.004091601
  88       -0.002634183
  89       -0.036593756
  90       -0.050470449
  91       -0.008517809
  92       -0.002445732
  93       -0.002791153
  94        0.000000000
  95       -0.004533108
  96       -0.003625643
  97        0.000000000
  98        0.000279540
  99        0.000000000
 100        0.000000000
 101       -0.000036315
 102       -0.001307192
 103        0.003560163
 104       -0.169804354
 105       -0.033330262
 106       -0.100459061
 107        0.092593819
 108       -0.030461972
 109        0.000000000
 110        0.104800692
 111       -0.031260166
 112        0.000000000
 113        0.016362595
 114       -0.003091442
 115        0.000000000
 116        0.005329487
 117        0.000000000
 118        0.000000000
 119       -0.003999769
 120       -0.007566053
 121        0.010153919
 122        0.000000000
 123        0.000000000
 124       -0.010621443
 125       -0.003952682
 126        0.000000000
 127       -0.002005083
 128       -0.000108089
 129        0.000000000
 130        0.000000000
 131        0.004091601
 132        0.002634183
 133       -0.036593756
 134       -0.050470449
 135       -0.008517809
 136        0.002445732
 137        0.002791153
 138        0.000000000
 139        0.004533108
 140        0.003625643
 141        0.000000000
 142        0.000279540
 143        0.000000000
 144        0.000000000
 145       -0.000036315
 146       -0.001307192
 147       -0.005752150
 148        0.258767071
 149        0.052908563
 150        0.153745051
 151        0.039674743
 152       -0.020458730
 153        0.000000000
 154        0.047235407
 155       -0.023575695
 156        0.000000000
 157        0.007530380
 158       -0.001705927
 159        0.000000000
 160       -0.007415786
 161        0.000000000
 162        0.000000000
 163       -0.000550349
 164        0.001759765
 165       -0.012732228
 166        0.000000000
 167        0.000000000
 168       -0.005144374
 169        0.002350444
 170        0.000000000
 171       -0.000422623
 172        0.000110179
 173        0.000000000
 174        0.000000000
 175        0.004842417
 176        0.003282957
 177        0.059422807
 178        0.067236884
 179        0.014899496
 180        0.002175289
 181        0.005067475
 182        0.000000000
 183        0.001669911
 184        0.001154639
 185        0.000000000
 186       -0.000352772
 187        0.000000000
 188        0.000000000
 189       -0.000348625
 190        0.000778090
 191        0.071422628
 192        0.089782544
 193        0.016933575
 194       -0.006438117
 195       -0.001911617
 196        0.000000000
 197       -0.004359141
 198       -0.002560564
 199        0.000000000
 200       -0.000603258
 201        0.000000000
 202        0.000000000
 203        0.000910804
 204        0.000446621
 Sym= Ag  
 Ene=         0.000000
 Spin= Alpha
 Occup=       0.000000
   1       -0.001071778
   2        0.014833859
   3        0.002760803
   4        0.002104713
   5        0.046114073
   6        0.131838499
   7        0.000000000
   8        0.054723212
   9        0.158394074
  10        0.000000000
  11        0.019720968
  12        0.065938340
  13        0.000000000
  14       -0.000020083
  15        0.000000000
  16        0.000000000
  17       -0.004232025
  18        0.004873920
  19       -0.002392894
  20        0.000000000
  21        0.000000000
  22        0.002656811
  23        0.005700256
  24        0.000000000
  25       -0.000695091
  26       -0.001610004
  27        0.000000000
  28        0.000000000
  29        0.002700400
  30       -0.001246412
  31        0.092689862
  32        0.146597527
  33        0.042866412
  34       -0.001360869
  35       -0.008715917
  36        0.000000000
  37       -0.002822496
  38       -0.011000120
  39        0.000000000
  40       -0.001245653
  41        0.000000000
  42        0.000000000
  43       -0.002423784
  44        0.000619745
  45       -0.043590542
  46       -0.074850628
  47       -0.020865969
  48       -0.004356818
  49        0.001692378
  50        0.000000000
  51       -0.008579328
  52        0.002401590
  53        0.000000000
  54        0.000861174
  55        0.000000000
  56        0.000000000
  57       -0.001731601
  58        0.001057599
  59        0.000466570
  60       -0.020403501
  61       -0.005525442
  62       -0.004037107
  63        0.126001412
  64        0.051371874
  65        0.000000000
  66        0.155483909
  67        0.067192902
  68        0.000000000
  69        0.037794453
  70        0.043275663
  71        0.000000000
  72        0.000147225
  73        0.000000000
  74        0.000000000
  75        0.005114275
  76        0.002658913
  77       -0.000480293
  78        0.000000000
  79        0.000000000
  80        0.014004388
  81       -0.005418097
  82        0.000000000
  83       -0.003526140
  84       -0.000685958
  85        0.000000000
  86        0.000000000
  87        0.004012714
  88       -0.003275196
  89       -0.056844862
  90       -0.074231448
  91       -0.021366084
  92        0.001194298
  93       -0.005892432
  94        0.000000000
  95        0.006204088
  96       -0.002924432
  97        0.000000000
  98        0.000632980
  99        0.000000000
 100        0.000000000
 101        0.002211802
 102        0.001407208
 103        0.000466570
 104       -0.020403501
 105       -0.005525442
 106       -0.004037107
 107       -0.126001412
 108       -0.051371874
 109        0.000000000
 110       -0.155483909
 111       -0.067192902
 112        0.000000000
 113       -0.037794453
 114       -0.043275663
 115        0.000000000
 116        0.000147225
 117        0.000000000
 118        0.000000000