[Molden Format]
[N_ATOMS]
           10
[Atoms]  AU
C     1    6      -3.153812        1.523264        0.000000
H     2    1      -2.669104        3.534007        0.000000
H     3    1      -5.159592        1.037028        0.000000
C     4    6      -1.352024       -0.263651        0.000000
H     5    1      -1.897611       -2.263346        0.000000
C     6    6       1.352024        0.263651        0.000000
H     7    1       1.897611        2.263346        0.000000
C     8    6       3.153812       -1.523264        0.000000
H     9    1       2.669104       -3.534007        0.000000
H    10    1       5.159592       -1.037028        0.000000
[5D7F9G]
[GTO]
    1
    s    8
   0.666500000E+04   0.691583963E-03
   0.100000000E+04   0.532579615E-02
   0.228000000E+03   0.270607210E-01
   0.647100000E+02   0.101656846E+00
   0.210600000E+02   0.274574824E+00
   0.749500000E+01   0.448294319E+00
   0.279700000E+01   0.284902611E+00
   0.521500000E+00   0.151948592E-01
    s    8
   0.666500000E+04  -0.293269653E-03
   0.100000000E+04  -0.231803547E-02
   0.228000000E+03  -0.114997860E-01
   0.647100000E+02  -0.468267270E-01
   0.210600000E+02  -0.128466169E+00
   0.749500000E+01  -0.301266272E+00
   0.279700000E+01  -0.255630702E+00
   0.521500000E+00   0.109379336E+01
    s    1
   0.159600000E+00   0.100000000E+01
    p    3
   0.943900000E+01   0.569792516E-01
   0.200200000E+01   0.313207212E+00
   0.545600000E+00   0.760376742E+00
    p    1
   0.151700000E+00   0.100000000E+01
    d    1
   0.550000000E+00   0.100000000E+01
 
    2
    s    3
   0.130100000E+02   0.334987264E-01
   0.196200000E+01   0.234800801E+00
   0.444600000E+00   0.813682958E+00
    s    1
   0.122000000E+00   0.100000000E+01
    p    1
   0.727000000E+00   0.100000000E+01
 
    3
    s    3
   0.130100000E+02   0.334987264E-01
   0.196200000E+01   0.234800801E+00
   0.444600000E+00   0.813682958E+00
    s    1
   0.122000000E+00   0.100000000E+01
    p    1
   0.727000000E+00   0.100000000E+01
 
    4
    s    8
   0.666500000E+04   0.691583963E-03
   0.100000000E+04   0.532579615E-02
   0.228000000E+03   0.270607210E-01
   0.647100000E+02   0.101656846E+00
   0.210600000E+02   0.274574824E+00
   0.749500000E+01   0.448294319E+00
   0.279700000E+01   0.284902611E+00
   0.521500000E+00   0.151948592E-01
    s    8
   0.666500000E+04  -0.293269653E-03
   0.100000000E+04  -0.231803547E-02
   0.228000000E+03  -0.114997860E-01
   0.647100000E+02  -0.468267270E-01
   0.210600000E+02  -0.128466169E+00
   0.749500000E+01  -0.301266272E+00
   0.279700000E+01  -0.255630702E+00
   0.521500000E+00   0.109379336E+01
    s    1
   0.159600000E+00   0.100000000E+01
    p    3
   0.943900000E+01   0.569792516E-01
   0.200200000E+01   0.313207212E+00
   0.545600000E+00   0.760376742E+00
    p    1
   0.151700000E+00   0.100000000E+01
    d    1
   0.550000000E+00   0.100000000E+01
 
    5
    s    3
   0.130100000E+02   0.334987264E-01
   0.196200000E+01   0.234800801E+00
   0.444600000E+00   0.813682958E+00
    s    1
   0.122000000E+00   0.100000000E+01
    p    1
   0.727000000E+00   0.100000000E+01
 
    6
    s    8
   0.666500000E+04   0.691583963E-03
   0.100000000E+04   0.532579615E-02
   0.228000000E+03   0.270607210E-01
   0.647100000E+02   0.101656846E+00
   0.210600000E+02   0.274574824E+00
   0.749500000E+01   0.448294319E+00
   0.279700000E+01   0.284902611E+00
   0.521500000E+00   0.151948592E-01
    s    8
   0.666500000E+04  -0.293269653E-03
   0.100000000E+04  -0.231803547E-02
   0.228000000E+03  -0.114997860E-01
   0.647100000E+02  -0.468267270E-01
   0.210600000E+02  -0.128466169E+00
   0.749500000E+01  -0.301266272E+00
   0.279700000E+01  -0.255630702E+00
   0.521500000E+00   0.109379336E+01
    s    1
   0.159600000E+00   0.100000000E+01
    p    3
   0.943900000E+01   0.569792516E-01
   0.200200000E+01   0.313207212E+00
   0.545600000E+00   0.760376742E+00
    p    1
   0.151700000E+00   0.100000000E+01
    d    1
   0.550000000E+00   0.100000000E+01
 
    7
    s    3
   0.130100000E+02   0.334987264E-01
   0.196200000E+01   0.234800801E+00
   0.444600000E+00   0.813682958E+00
    s    1
   0.122000000E+00   0.100000000E+01
    p    1
   0.727000000E+00   0.100000000E+01
 
    8
    s    8
   0.666500000E+04   0.691583963E-03
   0.100000000E+04   0.532579615E-02
   0.228000000E+03   0.270607210E-01
   0.647100000E+02   0.101656846E+00
   0.210600000E+02   0.274574824E+00
   0.749500000E+01   0.448294319E+00
   0.279700000E+01   0.284902611E+00
   0.521500000E+00   0.151948592E-01
    s    8
   0.666500000E+04  -0.293269653E-03
   0.100000000E+04  -0.231803547E-02
   0.228000000E+03  -0.114997860E-01
   0.647100000E+02  -0.468267270E-01
   0.210600000E+02  -0.128466169E+00
   0.749500000E+01  -0.301266272E+00
   0.279700000E+01  -0.255630702E+00
   0.521500000E+00   0.109379336E+01
    s    1
   0.159600000E+00   0.100000000E+01
    p    3
   0.943900000E+01   0.569792516E-01
   0.200200000E+01   0.313207212E+00
   0.545600000E+00   0.760376742E+00
    p    1
   0.151700000E+00   0.100000000E+01
    d    1
   0.550000000E+00   0.100000000E+01
 
    9
    s    3
   0.130100000E+02   0.334987264E-01
   0.196200000E+01   0.234800801E+00
   0.444600000E+00   0.813682958E+00
    s    1
   0.122000000E+00   0.100000000E+01
    p    1
   0.727000000E+00   0.100000000E+01
 
   10
    s    3
   0.130100000E+02   0.334987264E-01
   0.196200000E+01   0.234800801E+00
   0.444600000E+00   0.813682958E+00
    s    1
   0.122000000E+00   0.100000000E+01
    p    1
   0.727000000E+00   0.100000000E+01
 
[MO]
 Sym= Ag  
 Ene=       -11.232032
 Spin= Alpha
 Occup=       2.000000
   1       -0.090674729
   2        0.000064563
   3       -0.002052150
   4        0.000088880
   5       -0.000057563
   6        0.000000000
   7       -0.001119289
   8        0.000711027
   9        0.000000000
  10       -0.000067375
  11        0.000000000
  12        0.000000000
  13       -0.000042090
  14       -0.000005488
  15        0.000087715
  16       -0.000134862
  17        0.000012506
  18        0.000037635
  19        0.000000000
  20        0.000037200
  21       -0.000402141
  22       -0.000020608
  23        0.000013012
  24        0.000000000
  25       -0.702567592
  26       -0.002929405
  27        0.005458839
  28       -0.000003840
  29        0.000078727
  30        0.000000000
  31       -0.000806069
  32        0.001303751
  33        0.000000000
  34        0.000141652
  35        0.000000000
  36        0.000000000
  37        0.000138524
  38        0.000283318
  39        0.000254799
  40       -0.000643382
  41        0.000148160
  42        0.000227057
  43        0.000000000
  44       -0.702567592
  45       -0.002929405
  46        0.005458839
  47        0.000003840
  48       -0.000078727
  49        0.000000000
  50        0.000806069
  51       -0.001303751
  52        0.000000000
  53        0.000141652
  54        0.000000000
  55        0.000000000
  56        0.000138524
  57        0.000283318
  58        0.000254799
  59       -0.000643382
  60       -0.000148160
  61       -0.000227057
  62        0.000000000
  63       -0.090674729
  64        0.000064563
  65       -0.002052150
  66       -0.000088880
  67        0.000057563
  68        0.000000000
  69        0.001119289
  70       -0.000711027
  71        0.000000000
  72       -0.000067375
  73        0.000000000
  74        0.000000000
  75       -0.000042090
  76       -0.000005488
  77        0.000087715
  78       -0.000134862
  79       -0.000012506
  80       -0.000037635
  81        0.000000000
  82        0.000037200
  83       -0.000402141
  84        0.000020608
  85       -0.000013012
  86        0.000000000
 Sym= Ag  
 Ene=       -11.225984
 Spin= Alpha
 Occup=       2.000000
   1       -0.702675408
   2       -0.002946934
   3        0.005178988
   4        0.000093483
   5       -0.000108187
   6        0.000000000
   7        0.000297225
   8       -0.000171491
   9        0.000000000
  10        0.000528572
  11        0.000000000
  12        0.000000000
  13       -0.000073755
  14        0.000026550
  15        0.000227924
  16       -0.000890696
  17       -0.000125121
  18       -0.000374630
  19        0.000000000
  20        0.000330245
  21       -0.000825797
  22        0.000405386
  23        0.000148951
  24        0.000000000
  25        0.091364816
  26        0.000692897
  27       -0.001848680
  28       -0.000094192
  29        0.000004311
  30        0.000000000
  31        0.000290974
  32       -0.000324785
  33        0.000000000
  34       -0.000209361
  35        0.000000000
  36        0.000000000
  37       -0.000143749
  38        0.000070958
  39       -0.000115843
  40        0.000061532
  41        0.000010587
  42       -0.000200694
  43        0.000000000
  44        0.091364816
  45        0.000692897
  46       -0.001848680
  47        0.000094192
  48       -0.000004311
  49        0.000000000
  50       -0.000290974
  51        0.000324785
  52        0.000000000
  53       -0.000209361
  54        0.000000000
  55        0.000000000
  56       -0.000143749
  57        0.000070958
  58       -0.000115843
  59        0.000061532
  60       -0.000010587
  61        0.000200694
  62        0.000000000
  63       -0.702675408
  64       -0.002946934
  65        0.005178988
  66       -0.000093483
  67        0.000108187
  68        0.000000000
  69       -0.000297225
  70        0.000171491
  71        0.000000000
  72        0.000528572
  73        0.000000000
  74        0.000000000
  75       -0.000073755
  76        0.000026550
  77        0.000227924
  78       -0.000890696
  79        0.000125121
  80        0.000374630
  81        0.000000000
  82        0.000330245
  83       -0.000825797
  84       -0.000405386
  85       -0.000148951
  86        0.000000000
 Sym= Ag  
 Ene=        -1.083099
 Spin= Alpha
 Occup=       2.000000
   1       -0.012863544
   2        0.169039120
   3        0.063189271
   4        0.063075143
   5       -0.051945699
   6        0.000000000
   7       -0.004874162
   8       -0.005045971
   9        0.000000000
  10       -0.004047953
  11        0.000000000
  12        0.000000000
  13        0.003765245
  14       -0.011951106
  15        0.062010024
  16        0.005692843
  17       -0.001327304
  18       -0.010966773
  19        0.000000000
  20        0.052589287
  21       -0.000489982
  22        0.009517613
  23        0.000088715
  24        0.000000000
  25       -0.019257452
  26        0.256291663
  27        0.182068466
  28        0.024376428
  29        0.050463983
  30        0.000000000
  31       -0.005800946
  32        0.054666297
  33        0.000000000
  34       -0.013224726
  35        0.000000000
  36        0.000000000
  37        0.012741810
  38       -0.007704602
  39        0.092827062
  40        0.016436193
  41        0.004596232
  42        0.013864323
  43        0.000000000
  44       -0.019257452
  45        0.256291663
  46        0.182068466
  47       -0.024376428
  48       -0.050463983
  49        0.000000000
  50        0.005800946
  51       -0.054666297
  52        0.000000000
  53       -0.013224726
  54        0.000000000
  55        0.000000000
  56        0.012741810
  57       -0.007704602
  58        0.092827062
  59        0.016436193
  60       -0.004596232
  61       -0.013864323
  62        0.000000000
  63       -0.012863544
  64        0.169039120
  65        0.063189271
  66       -0.063075143
  67        0.051945699
  68        0.000000000
  69        0.004874162
  70        0.005045971
  71        0.000000000
  72       -0.004047953
  73        0.000000000
  74        0.000000000
  75        0.003765245
  76       -0.011951106
  77        0.062010024
  78        0.005692843
  79        0.001327304
  80        0.010966773
  81        0.000000000
  82        0.052589287
  83       -0.000489982
  84       -0.009517613
  85       -0.000088715
  86        0.000000000
 Sym= Ag  
 Ene=        -0.818176
 Spin= Alpha
 Occup=       2.000000
   1       -0.013972779
   2        0.210452251
   3        0.166848125
   4       -0.072328029
   5        0.037283336
   6        0.000000000
   7       -0.016016554
   8        0.023251265
   9        0.000000000
  10       -0.002326219
  11        0.000000000
  12        0.000000000
  13       -0.002655479
  14        0.005063111
  15        0.131936283
  16        0.021378841
  17       -0.005508338
  18       -0.015566236
  19        0.000000000
  20        0.162331687
  21        0.031950635
  22        0.017966201
  23        0.006314785
  24        0.000000000
  25        0.005443350
  26       -0.145793784
  27       -0.101880578
  28       -0.172878225
  29        0.054517072
  30        0.000000000
  31       -0.060362717
  32        0.012982003
  33        0.000000000
  34        0.004610872
  35        0.000000000
  36        0.000000000
  37       -0.008546737
  38       -0.017933828
  39       -0.084642603
  40       -0.015954197
  41       -0.006215019
  42       -0.008324984
  43        0.000000000
  44        0.005443350
  45       -0.145793784
  46       -0.101880578
  47        0.172878225
  48       -0.054517072
  49        0.000000000
  50        0.060362717
  51       -0.012982003
  52        0.000000000
  53        0.004610872
  54        0.000000000
  55        0.000000000
  56       -0.008546737
  57       -0.017933828
  58       -0.084642603
  59       -0.015954197
  60        0.006215019
  61        0.008324984
  62        0.000000000
  63       -0.013972779
  64        0.210452251
  65        0.166848125
  66        0.072328029
  67       -0.037283336
  68        0.000000000
  69        0.016016554
  70       -0.023251265
  71        0.000000000
  72       -0.002326219
  73        0.000000000
  74        0.000000000
  75       -0.002655479
  76        0.005063111
  77        0.131936283
  78        0.021378841
  79        0.005508338
  80        0.015566236
  81        0.000000000
  82        0.162331687
  83        0.031950635
  84       -0.017966201
  85       -0.006314785
  86        0.000000000
 Sym= Ag  
 Ene=        -0.624506
 Spin= Alpha
 Occup=       2.000000
   1        0.001336849
   2       -0.012491520
   3       -0.025217467
   4       -0.086409936
   5       -0.234685142
   6        0.000000000
   7       -0.027732416
   8       -0.084462484
   9        0.000000000
  10       -0.000384089
  11        0.000000000
  12        0.000000000
  13        0.000284551
  14       -0.006409365
  15       -0.210309217
  16       -0.066047646
  17        0.003405622
  18        0.014787007
  19        0.000000000
  20        0.103311891
  21        0.034463445
  22        0.008153912
  23       -0.002986832
  24        0.000000000
  25       -0.003285462
  26        0.011980892
  27        0.020237054
  28       -0.227172161
  29       -0.094580324
  30        0.000000000
  31       -0.087645805
  32       -0.039591561
  33        0.000000000
  34        0.002346644
  35        0.000000000
  36        0.000000000
  37       -0.002607276
  38       -0.002313586
  39        0.129176627
  40        0.036208730
  41       -0.000713589
  42        0.011356066
  43        0.000000000
  44       -0.003285462
  45        0.011980892
  46        0.020237054
  47        0.227172161
  48        0.094580324
  49        0.000000000
  50        0.087645805
  51        0.039591561
  52        0.000000000
  53        0.002346644
  54        0.000000000
  55        0.000000000
  56       -0.002607276
  57       -0.002313586
  58        0.129176627
  59        0.036208730
  60        0.000713589
  61       -0.011356066
  62        0.000000000
  63        0.001336849
  64       -0.012491520
  65       -0.025217467
  66        0.086409936
  67        0.234685142
  68        0.000000000
  69        0.027732416
  70        0.084462484
  71        0.000000000
  72       -0.000384089
  73        0.000000000
  74        0.000000000
  75        0.000284551
  76       -0.006409365
  77       -0.210309217
  78       -0.066047646
  79       -0.003405622
  80       -0.014787007
  81        0.000000000
  82        0.103311891
  83        0.034463445
  84       -0.008153912
  85        0.002986832
  86        0.000000000
 Sym= Ag  
 Ene=        -0.548022
 Spin= Alpha
 Occup=       2.000000
   1        0.000092116
   2        0.043041218
   3        0.036790047
   4        0.260953187
   5       -0.142814083
   6        0.000000000
   7        0.108066500
   8       -0.055332948
   9        0.000000000
  10        0.000879674
  11        0.000000000
  12        0.000000000
  13       -0.001503367
  14       -0.015851955
  15       -0.045600721
  16       -0.023853635
  17        0.007061302
  18       -0.000805176
  19        0.000000000
  20       -0.170505848
  21       -0.070355963
  22       -0.008561233
  23       -0.007532251
  24        0.000000000
  25        0.001643643
  26        0.005692458
  27       -0.026341434
  28       -0.200243471
  29        0.222932596
  30        0.000000000
  31       -0.069528933
  32        0.073213991
  33        0.000000000
  34        0.002044528
  35        0.000000000
  36        0.000000000
  37        0.000536976
  38       -0.028544727
  39       -0.147899149
  40       -0.071000283
  41       -0.010092912
  42       -0.005605822
  43        0.000000000
  44        0.001643643
  45        0.005692458
  46       -0.026341434
  47        0.200243471
  48       -0.222932596
  49        0.000000000
  50        0.069528933
  51       -0.073213991
  52        0.000000000
  53        0.002044528
  54        0.000000000
  55        0.000000000
  56        0.000536976
  57       -0.028544727
  58       -0.147899149
  59       -0.071000283
  60        0.010092912
  61        0.005605822
  62        0.000000000
  63        0.000092116
  64        0.043041218
  65        0.036790047
  66       -0.260953187
  67        0.142814083
  68        0.000000000
  69       -0.108066500
  70        0.055332948
  71        0.000000000
  72        0.000879674
  73        0.000000000
  74        0.000000000
  75       -0.001503367
  76       -0.015851955
  77       -0.045600721
  78       -0.023853635
  79       -0.007061302
  80        0.000805176
  81        0.000000000
  82       -0.170505848
  83       -0.070355963
  84        0.008561233
  85        0.007532251
  86        0.000000000
 Sym= Ag  
 Ene=        -0.484347
 Spin= Alpha
 Occup=       2.000000
   1        0.000188141
   2       -0.008378858
   3        0.005909788
   4        0.125117931
   5        0.122616702
   6        0.000000000
   7        0.070056446
   8        0.046755072
   9        0.000000000
  10       -0.001650985
  11        0.000000000
  12        0.000000000
  13       -0.031121059
  14       -0.000197145
  15        0.156859177
  16        0.091746736
  17        0.003445786
  18       -0.006887565
  19        0.000000000
  20       -0.162776374
  21       -0.082913145
  22       -0.008332493
  23        0.002738912
  24        0.000000000
  25       -0.001400979
  26       -0.036455249
  27       -0.064977640
  28       -0.224044629
  29       -0.183178497
  30        0.000000000
  31       -0.086570628
  32       -0.091898208
  33        0.000000000
  34        0.001175667
  35        0.000000000
  36        0.000000000
  37       -0.035825937
  38        0.008758697
  39        0.224774996
  40        0.123364712
  41       -0.001024591
  42        0.010757754
  43        0.000000000
  44       -0.001400979
  45       -0.036455249
  46       -0.064977640
  47        0.224044629
  48        0.183178497
  49        0.000000000
  50        0.086570628
  51        0.091898208
  52        0.000000000
  53        0.001175667
  54        0.000000000
  55        0.000000000
  56       -0.035825937
  57        0.008758697
  58        0.224774996
  59        0.123364712
  60        0.001024591
  61       -0.010757754
  62        0.000000000
  63        0.000188141
  64       -0.008378858
  65        0.005909788
  66       -0.125117931
  67       -0.122616702
  68        0.000000000
  69       -0.070056446
  70       -0.046755072
  71        0.000000000
  72       -0.001650985
  73        0.000000000
  74        0.000000000
  75       -0.031121059
  76       -0.000197145
  77        0.156859177
  78        0.091746736
  79       -0.003445786
  80        0.006887565
  81        0.000000000
  82       -0.162776374
  83       -0.082913145
  84        0.008332493
  85       -0.002738912
  86        0.000000000
 Sym= Ag  
 Ene=         0.207945
 Spin= Alpha
 Occup=       0.000000
   1        0.042284933
   2       -0.024583735
   3       -1.314563261
   4        0.099968023
   5       -0.068592416
   6        0.000000000
   7        0.159777105
   8       -0.221101628
   9        0.000000000
  10        0.017621384
  11        0.000000000
  12        0.000000000
  13        0.001323221
  14       -0.001402543
  15       -0.007392587
  16        0.604009424
  17        0.003052537
  18       -0.009896616
  19        0.000000000
  20        0.028570180
  21        0.791836501
  22        0.014669681
  23        0.000417499
  24        0.000000000
  25        0.018248466
  26       -0.031204933
  27       -0.568498691
  28        0.024175131
  29        0.118321411
  30        0.000000000
  31       -0.015753300
  32        0.824859948
  33        0.000000000
  34        0.005034505
  35        0.000000000
  36        0.000000000
  37        0.003724850
  38       -0.010517810
  39       -0.022160711
  40        0.999019848
  41        0.008696692
  42        0.008442449
  43        0.000000000
  44        0.018248466
  45       -0.031204933
  46       -0.568498691
  47       -0.024175131
  48       -0.118321411
  49        0.000000000
  50        0.015753300
  51       -0.824859948
  52        0.000000000
  53        0.005034505
  54        0.000000000
  55        0.000000000
  56        0.003724850
  57       -0.010517810
  58       -0.022160711
  59        0.999019848
  60       -0.008696692
  61       -0.008442449
  62        0.000000000
  63        0.042284933
  64       -0.024583735
  65       -1.314563261
  66       -0.099968023
  67        0.068592416
  68        0.000000000
  69       -0.159777105
  70        0.221101628
  71        0.000000000
  72        0.017621384
  73        0.000000000
  74        0.000000000
  75        0.001323221
  76       -0.001402543
  77       -0.007392587
  78        0.604009424
  79       -0.003052537
  80        0.009896616
  81        0.000000000
  82        0.028570180
  83        0.791836501
  84       -0.014669681
  85       -0.000417499
  86        0.000000000
 Sym= Ag  
 Ene=         0.269797
 Spin= Alpha
 Occup=       0.000000
   1        0.013801635
   2       -0.015313755
   3       -0.391882171
   4       -0.128000857
   5       -0.164181806
   6        0.000000000
   7       -0.782189139
   8       -0.822256419
   9        0.000000000
  10        0.004933532
  11        0.000000000
  12        0.000000000
  13        0.012533058
  14       -0.004391908
  15        0.007785480
  16        1.585792102
  17       -0.003934172
  18       -0.018567215
  19        0.000000000
  20       -0.003916618
  21       -1.128132636
  22       -0.014244808
  23        0.000421692
  24        0.000000000
  25       -0.004409092
  26        0.026518061
  27        0.087425087
  28       -0.011798766
  29       -0.012473964
  30        0.000000000
  31        0.136704995
  32        0.213418554
  33        0.000000000
  34        0.002711371
  35        0.000000000
  36        0.000000000
  37        0.013367657
  38        0.000820510
  39       -0.040998726
  40       -0.101761232
  41       -0.001681264
  42        0.001316980
  43        0.000000000
  44       -0.004409092
  45        0.026518061
  46        0.087425087
  47        0.011798766
  48        0.012473964
  49        0.000000000
  50       -0.136704995
  51       -0.213418554
  52        0.000000000
  53        0.002711371
  54        0.000000000
  55        0.000000000
  56        0.013367657
  57        0.000820510
  58       -0.040998726
  59       -0.101761232
  60        0.001681264
  61       -0.001316980
  62        0.000000000
  63        0.013801635
  64       -0.015313755
  65       -0.391882171
  66        0.128000857
  67        0.164181806
  68        0.000000000
  69        0.782189139
  70        0.822256419
  71        0.000000000
  72        0.004933532
  73        0.000000000
  74        0.000000000
  75        0.012533058
  76       -0.004391908
  77        0.007785480
  78        1.585792102
  79        0.003934172
  80        0.018567215
  81        0.000000000
  82       -0.003916618
  83       -1.128132636
  84        0.014244808
  85       -0.000421692
  86        0.000000000
 Sym= Ag  
 Ene=         0.277933
 Spin= Alpha
 Occup=       0.000000
   1       -0.037265566
   2        0.042503144
   3        1.010304475
   4       -0.080079744
   5        0.017723779
   6        0.000000000
   7       -0.467347304
   8       -0.232362751
   9        0.000000000
  10       -0.011569162
  11        0.000000000
  12        0.000000000
  13        0.016047540
  14        0.010197908
  15       -0.038408450
  16       -0.355514430
  17        0.013009997
  18        0.001955265
  19        0.000000000
  20        0.034881461
  21       -1.115735338
  22       -0.016851597
  23       -0.003447189
  24        0.000000000
  25        0.026466305
  26       -0.048967870
  27       -1.126718041
  28        0.090391722
  29        0.081402359
  30        0.000000000
  31        0.370534567
  32        0.765004636
  33        0.000000000
  34        0.011871992
  35        0.000000000
  36        0.000000000
  37        0.006889720
  38       -0.003814579
  39        0.018456649
  40        1.458723012
  41        0.006890607
  42        0.018396272
  43        0.000000000
  44        0.026466305
  45       -0.048967870
  46       -1.126718041
  47       -0.090391722
  48       -0.081402359
  49        0.000000000
  50       -0.370534567
  51       -0.765004636
  52        0.000000000
  53        0.011871992
  54        0.000000000
  55        0.000000000
  56        0.006889720
  57       -0.003814579
  58        0.018456649
  59        1.458723012
  60       -0.006890607
  61       -0.018396272
  62        0.000000000
  63       -0.037265566
  64        0.042503144
  65        1.010304475
  66        0.080079744
  67       -0.017723779
  68        0.000000000
  69        0.467347304
  70        0.232362751
  71        0.000000000
  72       -0.011569162
  73        0.000000000
  74        0.000000000
  75        0.016047540
  76        0.010197908
  77       -0.038408450
  78       -0.355514430
  79       -0.013009997
  80       -0.001955265
  81        0.000000000
  82        0.034881461
  83       -1.115735338
  84        0.016851597
  85        0.003447189
  86        0.000000000
 Sym= Ag  
 Ene=         0.442522
 Spin= Alpha
 Occup=       0.000000
   1       -0.060237642
   2       -0.068558017
   3        3.166272298
   4        0.021246208
   5       -0.069164209
   6        0.000000000
   7        1.817249990
   8       -1.760631896
   9        0.000000000
  10       -0.050468428
  11        0.000000000
  12        0.000000000
  13        0.032156601
  14       -0.005097702
  15        0.019113469
  16        0.488661670
  17        0.024254297
  18        0.006310916
  19        0.000000000
  20        0.171781903
  21        0.378793375
  22       -0.030809821
  23       -0.001984644
  24        0.000000000
  25        0.048045824
  26       -0.007544320
  27       -2.910448223
  28        0.014111442
  29       -0.086166450
  30        0.000000000
  31        1.768970540
  32       -2.759234347
  33        0.000000000
  34        0.020584915
  35        0.000000000
  36        0.000000000
  37       -0.016119388
  38        0.034848226
  39        0.031766096
  40       -1.319068517
  41       -0.007326818
  42       -0.008141031
  43        0.000000000
  44        0.048045824
  45       -0.007544320
  46       -2.910448223
  47       -0.014111442
  48        0.086166450
  49        0.000000000
  50       -1.768970540
  51        2.759234347
  52        0.000000000
  53        0.020584915
  54        0.000000000
  55        0.000000000
  56       -0.016119388
  57        0.034848226
  58        0.031766096
  59       -1.319068517
  60        0.007326818
  61        0.008141031
  62        0.000000000
  63       -0.060237642
  64       -0.068558017
  65        3.166272298
  66       -0.021246208
  67        0.069164209
  68        0.000000000
  69       -1.817249990
  70        1.760631896
  71        0.000000000
  72       -0.050468428
  73        0.000000000
  74        0.000000000
  75        0.032156601
  76       -0.005097702
  77        0.019113469
  78        0.488661670
  79       -0.024254297
  80       -0.006310916
  81        0.000000000
  82        0.171781903
  83        0.378793375
  84        0.030809821
  85        0.001984644
  86        0.000000000
 Sym= Ag  
 Ene=         0.597277
 Spin= Alpha
 Occup=       0.000000
   1        0.041954987
   2        0.094620759
   3        0.120151775
   4        0.113988772
   5       -0.162115813
   6        0.000000000
   7       -0.307719782
   8        0.664735843
   9        0.000000000
  10        0.003502764
  11        0.000000000
  12        0.000000000
  13        0.077495575
  14       -0.026584185
  15       -0.435187256
  16        0.001795665
  17        0.008219598
  18       -0.027134723
  19        0.000000000
  20        0.144703939
  21       -0.174320837
  22       -0.037178575
  23        0.039717006
  24        0.000000000
  25        0.016473305
  26        0.016014422
  27        0.192424389
  28       -0.251121807
  29        0.117208745
  30        0.000000000
  31        0.377307452
  32       -0.158721243
  33        0.000000000
  34       -0.038758067
  35        0.000000000
  36        0.000000000