[Molden Format]
[N_ATOMS]
           10
[Atoms]  AU
C     1    6      -3.153812        1.523264        0.000000
H     2    1      -2.669104        3.534007        0.000000
H     3    1      -5.159592        1.037028        0.000000
C     4    6      -1.352024       -0.263651        0.000000
H     5    1      -1.897611       -2.263346        0.000000
C     6    6       1.352024        0.263651        0.000000
H     7    1       1.897611        2.263346        0.000000
C     8    6       3.153812       -1.523264        0.000000
H     9    1       2.669104       -3.534007        0.000000
H    10    1       5.159592       -1.037028        0.000000
[5D7F9G]
[GTO]
    1
    s    8
   0.666500000E+04   0.691583963E-03
   0.100000000E+04   0.532579615E-02
   0.228000000E+03   0.270607210E-01
   0.647100000E+02   0.101656846E+00
   0.210600000E+02   0.274574824E+00
   0.749500000E+01   0.448294319E+00
   0.279700000E+01   0.284902611E+00
   0.521500000E+00   0.151948592E-01
    s    8
   0.666500000E+04  -0.293269653E-03
   0.100000000E+04  -0.231803547E-02
   0.228000000E+03  -0.114997860E-01
   0.647100000E+02  -0.468267270E-01
   0.210600000E+02  -0.128466169E+00
   0.749500000E+01  -0.301266272E+00
   0.279700000E+01  -0.255630702E+00
   0.521500000E+00   0.109379336E+01
    s    1
   0.159600000E+00   0.100000000E+01
    p    3
   0.943900000E+01   0.569792516E-01
   0.200200000E+01   0.313207212E+00
   0.545600000E+00   0.760376742E+00
    p    1
   0.151700000E+00   0.100000000E+01
    d    1
   0.550000000E+00   0.100000000E+01
 
    2
    s    3
   0.130100000E+02   0.334987264E-01
   0.196200000E+01   0.234800801E+00
   0.444600000E+00   0.813682958E+00
    s    1
   0.122000000E+00   0.100000000E+01
    p    1
   0.727000000E+00   0.100000000E+01
 
    3
    s    3
   0.130100000E+02   0.334987264E-01
   0.196200000E+01   0.234800801E+00
   0.444600000E+00   0.813682958E+00
    s    1
   0.122000000E+00   0.100000000E+01
    p    1
   0.727000000E+00   0.100000000E+01
 
    4
    s    8
   0.666500000E+04   0.691583963E-03
   0.100000000E+04   0.532579615E-02
   0.228000000E+03   0.270607210E-01
   0.647100000E+02   0.101656846E+00
   0.210600000E+02   0.274574824E+00
   0.749500000E+01   0.448294319E+00
   0.279700000E+01   0.284902611E+00
   0.521500000E+00   0.151948592E-01
    s    8
   0.666500000E+04  -0.293269653E-03
   0.100000000E+04  -0.231803547E-02
   0.228000000E+03  -0.114997860E-01
   0.647100000E+02  -0.468267270E-01
   0.210600000E+02  -0.128466169E+00
   0.749500000E+01  -0.301266272E+00
   0.279700000E+01  -0.255630702E+00
   0.521500000E+00   0.109379336E+01
    s    1
   0.159600000E+00   0.100000000E+01
    p    3
   0.943900000E+01   0.569792516E-01
   0.200200000E+01   0.313207212E+00
   0.545600000E+00   0.760376742E+00
    p    1
   0.151700000E+00   0.100000000E+01
    d    1
   0.550000000E+00   0.100000000E+01
 
    5
    s    3
   0.130100000E+02   0.334987264E-01
   0.196200000E+01   0.234800801E+00
   0.444600000E+00   0.813682958E+00
    s    1
   0.122000000E+00   0.100000000E+01
    p    1
   0.727000000E+00   0.100000000E+01
 
    6
    s    8
   0.666500000E+04   0.691583963E-03
   0.100000000E+04   0.532579615E-02
   0.228000000E+03   0.270607210E-01
   0.647100000E+02   0.101656846E+00
   0.210600000E+02   0.274574824E+00
   0.749500000E+01   0.448294319E+00
   0.279700000E+01   0.284902611E+00
   0.521500000E+00   0.151948592E-01
    s    8
   0.666500000E+04  -0.293269653E-03
   0.100000000E+04  -0.231803547E-02
   0.228000000E+03  -0.114997860E-01
   0.647100000E+02  -0.468267270E-01
   0.210600000E+02  -0.128466169E+00
   0.749500000E+01  -0.301266272E+00
   0.279700000E+01  -0.255630702E+00
   0.521500000E+00   0.109379336E+01
    s    1
   0.159600000E+00   0.100000000E+01
    p    3
   0.943900000E+01   0.569792516E-01
   0.200200000E+01   0.313207212E+00
   0.545600000E+00   0.760376742E+00
    p    1
   0.151700000E+00   0.100000000E+01
    d    1
   0.550000000E+00   0.100000000E+01
 
    7
    s    3
   0.130100000E+02   0.334987264E-01
   0.196200000E+01   0.234800801E+00
   0.444600000E+00   0.813682958E+00
    s    1
   0.122000000E+00   0.100000000E+01
    p    1
   0.727000000E+00   0.100000000E+01
 
    8
    s    8
   0.666500000E+04   0.691583963E-03
   0.100000000E+04   0.532579615E-02
   0.228000000E+03   0.270607210E-01
   0.647100000E+02   0.101656846E+00
   0.210600000E+02   0.274574824E+00
   0.749500000E+01   0.448294319E+00
   0.279700000E+01   0.284902611E+00
   0.521500000E+00   0.151948592E-01
    s    8
   0.666500000E+04  -0.293269653E-03
   0.100000000E+04  -0.231803547E-02
   0.228000000E+03  -0.114997860E-01
   0.647100000E+02  -0.468267270E-01
   0.210600000E+02  -0.128466169E+00
   0.749500000E+01  -0.301266272E+00
   0.279700000E+01  -0.255630702E+00
   0.521500000E+00   0.109379336E+01
    s    1
   0.159600000E+00   0.100000000E+01
    p    3
   0.943900000E+01   0.569792516E-01
   0.200200000E+01   0.313207212E+00
   0.545600000E+00   0.760376742E+00
    p    1
   0.151700000E+00   0.100000000E+01
    d    1
   0.550000000E+00   0.100000000E+01
 
    9
    s    3
   0.130100000E+02   0.334987264E-01
   0.196200000E+01   0.234800801E+00
   0.444600000E+00   0.813682958E+00
    s    1
   0.122000000E+00   0.100000000E+01
    p    1
   0.727000000E+00   0.100000000E+01
 
   10
    s    3
   0.130100000E+02   0.334987264E-01
   0.196200000E+01   0.234800801E+00
   0.444600000E+00   0.813682958E+00
    s    1
   0.122000000E+00   0.100000000E+01
    p    1
   0.727000000E+00   0.100000000E+01
 
[MO]
 Sym= Ag  
 Ene=         0.000000
 Spin= Alpha
 Occup=       0.000000
   1       -0.077462734
   2        0.000125552
   3       -0.002076852
   4        0.000077611
   5       -0.000044126
   6        0.000000000
   7       -0.001122340
   8        0.000691287
   9        0.000000000
  10       -0.000072664
  11        0.000000000
  12        0.000000000
  13       -0.000040091
  14        0.000016905
  15        0.000080983
  16       -0.000113322
  17        0.000012524
  18        0.000047342
  19        0.000000000
  20        0.000020273
  21       -0.000387792
  22       -0.000031305
  23        0.000012497
  24        0.000000000
  25       -0.704112592
  26       -0.002805018
  27        0.005393669
  28       -0.000044720
  29        0.000098939
  30        0.000000000
  31       -0.000748231
  32        0.001225175
  33        0.000000000
  34        0.000161394
  35        0.000000000
  36        0.000000000
  37        0.000136236
  38        0.000274364
  39        0.000240965
  40       -0.000653652
  41        0.000140094
  42        0.000222460
  43        0.000000000
  44       -0.704112592
  45       -0.002805018
  46        0.005393669
  47        0.000044720
  48       -0.000098939
  49        0.000000000
  50        0.000748231
  51       -0.001225175
  52        0.000000000
  53        0.000161394
  54        0.000000000
  55        0.000000000
  56        0.000136236
  57        0.000274364
  58        0.000240965
  59       -0.000653652
  60       -0.000140094
  61       -0.000222460
  62        0.000000000
  63       -0.077462734
  64        0.000125552
  65       -0.002076852
  66       -0.000077611
  67        0.000044126
  68        0.000000000
  69        0.001122340
  70       -0.000691287
  71        0.000000000
  72       -0.000072664
  73        0.000000000
  74        0.000000000
  75       -0.000040091
  76        0.000016905
  77        0.000080983
  78       -0.000113322
  79       -0.000012524
  80       -0.000047342
  81        0.000000000
  82        0.000020273
  83       -0.000387792
  84        0.000031305
  85       -0.000012497
  86        0.000000000
 Sym= Ag  
 Ene=         0.000000
 Spin= Alpha
 Occup=       0.000000
   1       -0.704208694
   2       -0.002806735
   3        0.005131899
   4        0.000121108
   5       -0.000134374
   6        0.000000000
   7        0.000272866
   8       -0.000164854
   9        0.000000000
  10        0.000540414
  11        0.000000000
  12        0.000000000
  13       -0.000076497
  14        0.000016808
  15        0.000225900
  16       -0.000885055
  17       -0.000120436
  18       -0.000365945
  19        0.000000000
  20        0.000324581
  21       -0.000827958
  22        0.000397591
  23        0.000145821
  24        0.000000000
  25        0.078152381
  26        0.000615631
  27       -0.001768748
  28       -0.000080282
  29       -0.000006918
  30        0.000000000
  31        0.000306907
  32       -0.000351060
  33        0.000000000
  34       -0.000205865
  35        0.000000000
  36        0.000000000
  37       -0.000145215
  38        0.000102851
  39       -0.000122834
  40        0.000039210
  41        0.000013721
  42       -0.000197638
  43        0.000000000
  44        0.078152381
  45        0.000615631
  46       -0.001768748
  47        0.000080282
  48        0.000006918
  49        0.000000000
  50       -0.000306907
  51        0.000351060
  52        0.000000000
  53       -0.000205865
  54        0.000000000
  55        0.000000000
  56       -0.000145215
  57        0.000102851
  58       -0.000122834
  59        0.000039210
  60       -0.000013721
  61        0.000197638
  62        0.000000000
  63       -0.704208694
  64       -0.002806735
  65        0.005131899
  66       -0.000121108
  67        0.000134374
  68        0.000000000
  69       -0.000272866
  70        0.000164854
  71        0.000000000
  72        0.000540414
  73        0.000000000
  74        0.000000000
  75       -0.000076497
  76        0.000016808
  77        0.000225900
  78       -0.000885055
  79        0.000120436
  80        0.000365945
  81        0.000000000
  82        0.000324581
  83       -0.000827958
  84       -0.000397591
  85       -0.000145821
  86        0.000000000
 Sym= Ag  
 Ene=         0.000000
 Spin= Alpha
 Occup=       0.000000
   1       -0.012713115
   2        0.168688595
   3        0.062256603
   4        0.062910121
   5       -0.051649930
   6        0.000000000
   7       -0.005057250
   8       -0.004846519
   9        0.000000000
  10       -0.003854743
  11        0.000000000
  12        0.000000000
  13        0.003802500
  14       -0.011978538
  15        0.061677705
  16        0.005521242
  17       -0.001376600
  18       -0.010978309
  19        0.000000000
  20        0.052220364
  21       -0.000639161
  22        0.009522399
  23        0.000120681
  24        0.000000000
  25       -0.018881492
  26        0.257566743
  27        0.182150916
  28        0.025904480
  29        0.050158625
  30        0.000000000
  31       -0.005956923
  32        0.055429369
  33        0.000000000
  34       -0.013271717
  35        0.000000000
  36        0.000000000
  37        0.012910185
  38       -0.007629861
  39        0.092817231
  40        0.016439276
  41        0.004709818
  42        0.013909706
  43        0.000000000
  44       -0.018881492
  45        0.257566743
  46        0.182150916
  47       -0.025904480
  48       -0.050158625
  49        0.000000000
  50        0.005956923
  51       -0.055429369
  52        0.000000000
  53       -0.013271717
  54        0.000000000
  55        0.000000000
  56        0.012910185
  57       -0.007629861
  58        0.092817231
  59        0.016439276
  60       -0.004709818
  61       -0.013909706
  62        0.000000000
  63       -0.012713115
  64        0.168688595
  65        0.062256603
  66       -0.062910121
  67        0.051649930
  68        0.000000000
  69        0.005057250
  70        0.004846519
  71        0.000000000
  72       -0.003854743
  73        0.000000000
  74        0.000000000
  75        0.003802500
  76       -0.011978538
  77        0.061677705
  78        0.005521242
  79        0.001376600
  80        0.010978309
  81        0.000000000
  82        0.052220364
  83       -0.000639161
  84       -0.009522399
  85       -0.000120681
  86        0.000000000
 Sym= Ag  
 Ene=         0.000000
 Spin= Alpha
 Occup=       0.000000
   1       -0.013509829
   2        0.212073810
   3        0.165603103
   4       -0.072446811
   5        0.037229273
   6        0.000000000
   7       -0.016310132
   8        0.023444939
   9        0.000000000
  10       -0.002666741
  11        0.000000000
  12        0.000000000
  13       -0.002687952
  14        0.004858682
  15        0.131684544
  16        0.020736100
  17       -0.005516306
  18       -0.015597852
  19        0.000000000
  20        0.161949521
  21        0.031028349
  22        0.017999575
  23        0.006366388
  24        0.000000000
  25        0.004815890
  26       -0.146148016
  27       -0.099409797
  28       -0.174974245
  29        0.055008480
  30        0.000000000
  31       -0.060578481
  32        0.013610791
  33        0.000000000
  34        0.005000414
  35        0.000000000
  36        0.000000000
  37       -0.008772707
  38       -0.017881981
  39       -0.083899533
  40       -0.015155318
  41       -0.006254664
  42       -0.008271992
  43        0.000000000
  44        0.004815890
  45       -0.146148016
  46       -0.099409797
  47        0.174974245
  48       -0.055008480
  49        0.000000000
  50        0.060578481
  51       -0.013610791
  52        0.000000000
  53        0.005000414
  54        0.000000000
  55        0.000000000
  56       -0.008772707
  57       -0.017881981
  58       -0.083899533
  59       -0.015155318
  60        0.006254664
  61        0.008271992
  62        0.000000000
  63       -0.013509829
  64        0.212073810
  65        0.165603103
  66        0.072446811
  67       -0.037229273
  68        0.000000000
  69        0.016310132
  70       -0.023444939
  71        0.000000000
  72       -0.002666741
  73        0.000000000
  74        0.000000000
  75       -0.002687952
  76        0.004858682
  77        0.131684544
  78        0.020736100
  79        0.005516306
  80        0.015597852
  81        0.000000000
  82        0.161949521
  83        0.031028349
  84       -0.017999575
  85       -0.006366388
  86        0.000000000
 Sym= Ag  
 Ene=         0.000000
 Spin= Alpha
 Occup=       0.000000
   1        0.001265442
   2       -0.012925558
   3       -0.025227054
   4       -0.084419450
   5       -0.236247848
   6        0.000000000
   7       -0.026518147
   8       -0.084188426
   9        0.000000000
  10       -0.000214535
  11        0.000000000
  12        0.000000000
  13        0.000444470
  14       -0.006454392
  15       -0.209653706
  16       -0.064617727
  17        0.003524840
  18        0.014720322
  19        0.000000000
  20        0.100917961
  21        0.033111902
  22        0.007988239
  23       -0.002998935
  24        0.000000000
  25       -0.003299755
  26        0.012658959
  27        0.020344505
  28       -0.230237601
  29       -0.095161739
  30        0.000000000
  31       -0.087290159
  32       -0.039441552
  33        0.000000000
  34        0.002441556
  35        0.000000000
  36        0.000000000
  37       -0.003117288
  38       -0.002355188
  39        0.129797543
  40        0.035748695
  41       -0.000723487
  42        0.011405701
  43        0.000000000
  44       -0.003299755
  45        0.012658959
  46        0.020344505
  47        0.230237601
  48        0.095161739
  49        0.000000000
  50        0.087290159
  51        0.039441552
  52        0.000000000
  53        0.002441556
  54        0.000000000
  55        0.000000000
  56       -0.003117288
  57       -0.002355188
  58        0.129797543
  59        0.035748695
  60        0.000723487
  61       -0.011405701
  62        0.000000000
  63        0.001265442
  64       -0.012925558
  65       -0.025227054
  66        0.084419450
  67        0.236247848
  68        0.000000000
  69        0.026518147
  70        0.084188426
  71        0.000000000
  72       -0.000214535
  73        0.000000000
  74        0.000000000
  75        0.000444470
  76       -0.006454392
  77       -0.209653706
  78       -0.064617727
  79       -0.003524840
  80       -0.014720322
  81        0.000000000
  82        0.100917961
  83        0.033111902
  84       -0.007988239
  85        0.002998935
  86        0.000000000
 Sym= Ag  
 Ene=         0.000000
 Spin= Alpha
 Occup=       0.000000
   1       -0.000017461
   2       -0.042034554
   3       -0.036254293
   4       -0.263449666
   5        0.141113872
   6        0.000000000
   7       -0.108030977
   8        0.054840520
   9        0.000000000
  10       -0.001150338
  11        0.000000000
  12        0.000000000
  13        0.001766368
  14        0.015612129
  15        0.043545718
  16        0.022214569
  17       -0.007086390
  18        0.000902081
  19        0.000000000
  20        0.171855375
  21        0.069489763
  22        0.008666642
  23        0.007542035
  24        0.000000000
  25       -0.001446826
  26       -0.005286230
  27        0.027263420
  28        0.200113897
  29       -0.223948239
  30        0.000000000
  31        0.067626397
  32       -0.071927209
  33        0.000000000
  34       -0.002361409
  35        0.000000000
  36        0.000000000
  37       -0.000311764
  38        0.028165834
  39        0.147309234
  40        0.069349059
  41        0.010166718
  42        0.005621864
  43        0.000000000
  44       -0.001446826
  45       -0.005286230
  46        0.027263420
  47       -0.200113897
  48        0.223948239
  49        0.000000000
  50       -0.067626397
  51        0.071927209
  52        0.000000000
  53       -0.002361409
  54        0.000000000
  55        0.000000000
  56       -0.000311764
  57        0.028165834
  58        0.147309234
  59        0.069349059
  60       -0.010166718
  61       -0.005621864
  62        0.000000000
  63       -0.000017461
  64       -0.042034554
  65       -0.036254293
  66        0.263449666
  67       -0.141113872
  68        0.000000000
  69        0.108030977
  70       -0.054840520
  71        0.000000000
  72       -0.001150338
  73        0.000000000
  74        0.000000000
  75        0.001766368
  76        0.015612129
  77        0.043545718
  78        0.022214569
  79        0.007086390
  80       -0.000902081
  81        0.000000000
  82        0.171855375
  83        0.069489763
  84       -0.008666642
  85       -0.007542035
  86        0.000000000
 Sym= Ag  
 Ene=         0.000000
 Spin= Alpha
 Occup=       0.000000
   1        0.000156431
   2       -0.008885325
   3        0.006283420
   4        0.125487875
   5        0.125722997
   6        0.000000000
   7        0.069254943
   8        0.046790180
   9        0.000000000
  10       -0.001651769
  11        0.000000000
  12        0.000000000
  13       -0.031520292
  14       -0.000113381
  15        0.158046781
  16        0.091168054
  17        0.003386619
  18       -0.006917955
  19        0.000000000
  20       -0.162629607
  21       -0.081624561
  22       -0.008336452
  23        0.002769362
  24        0.000000000
  25       -0.001528587
  26       -0.035760122
  27       -0.063820372
  28       -0.222232837
  29       -0.185225246
  30        0.000000000
  31       -0.083615124
  32       -0.091660898
  33        0.000000000
  34        0.001178193
  35        0.000000000
  36        0.000000000
  37       -0.036442666
  38        0.008970470
  39        0.224827229
  40        0.121441905
  41       -0.000921085
  42        0.010704911
  43        0.000000000
  44       -0.001528587
  45       -0.035760122
  46       -0.063820372
  47        0.222232837
  48        0.185225246
  49        0.000000000
  50        0.083615124
  51        0.091660898
  52        0.000000000
  53        0.001178193
  54        0.000000000
  55        0.000000000
  56       -0.036442666
  57        0.008970470
  58        0.224827229
  59        0.121441905
  60        0.000921085
  61       -0.010704911
  62        0.000000000
  63        0.000156431
  64       -0.008885325
  65        0.006283420
  66       -0.125487875
  67       -0.125722997
  68        0.000000000
  69       -0.069254943
  70       -0.046790180
  71        0.000000000
  72       -0.001651769
  73        0.000000000
  74        0.000000000
  75       -0.031520292
  76       -0.000113381
  77        0.158046781
  78        0.091168054
  79       -0.003386619
  80        0.006917955
  81        0.000000000
  82       -0.162629607
  83       -0.081624561
  84        0.008336452
  85       -0.002769362
  86        0.000000000
 Sym= Ag  
 Ene=         0.000000
 Spin= Alpha
 Occup=       0.000000
   1       -0.041720118
   2        0.025726352
   3        1.309281318
   4       -0.099798082
   5        0.069165230
   6        0.000000000
   7       -0.156938374
   8        0.221461358
   9        0.000000000
  10       -0.017774859
  11        0.000000000
  12        0.000000000
  13       -0.001433199
  14        0.001031379
  15        0.006863846
  16       -0.605634858
  17       -0.003137019
  18        0.009811072
  19        0.000000000
  20       -0.029691171
  21       -0.786861831
  22       -0.014460923
  23       -0.000404855
  24        0.000000000
  25       -0.017895396
  26        0.032157768
  27        0.567882833
  28       -0.024489730
  29       -0.118763682
  30        0.000000000
  31        0.014444327
  32       -0.821227285
  33        0.000000000
  34       -0.005128744
  35        0.000000000
  36        0.000000000
  37       -0.003749034
  38        0.010376139
  39        0.020881695
  40       -0.998070182
  41       -0.008646648
  42       -0.008270965
  43        0.000000000
  44       -0.017895396
  45        0.032157768
  46        0.567882833
  47        0.024489730
  48        0.118763682
  49        0.000000000
  50       -0.014444327
  51        0.821227285
  52        0.000000000
  53       -0.005128744
  54        0.000000000
  55        0.000000000
  56       -0.003749034
  57        0.010376139
  58        0.020881695
  59       -0.998070182
  60        0.008646648
  61        0.008270965
  62        0.000000000
  63       -0.041720118
  64        0.025726352
  65        1.309281318
  66        0.099798082
  67       -0.069165230
  68        0.000000000
  69        0.156938374
  70       -0.221461358
  71        0.000000000
  72       -0.017774859
  73        0.000000000
  74        0.000000000
  75       -0.001433199
  76        0.001031379
  77        0.006863846
  78       -0.605634858
  79        0.003137019
  80       -0.009811072
  81        0.000000000
  82       -0.029691171
  83       -0.786861831
  84        0.014460923
  85        0.000404855
  86        0.000000000
 Sym= Ag  
 Ene=         0.000000
 Spin= Alpha
 Occup=       0.000000
   1       -0.013539919
   2        0.015486312
   3        0.388182941
   4        0.128840403
   5        0.164970173
   6        0.000000000
   7        0.779963758
   8        0.818515967
   9        0.000000000
  10       -0.004977743
  11        0.000000000
  12        0.000000000
  13       -0.012561523
  14        0.004335528
  15       -0.009078417
  16       -1.581443473
  17        0.003982443
  18        0.018356129
  19        0.000000000
  20        0.004897090
  21        1.128008449
  22        0.014135117
  23       -0.000359722
  24        0.000000000
  25        0.004258138
  26       -0.026730205
  27       -0.087970817
  28        0.011880969
  29        0.012851883
  30        0.000000000
  31       -0.135728144
  32       -0.211542767
  33        0.000000000
  34       -0.002678427
  35        0.000000000
  36        0.000000000
  37       -0.013522078
  38       -0.000808189
  39        0.041057814
  40        0.102711888
  41        0.001665659
  42       -0.001325862
  43        0.000000000
  44        0.004258138
  45       -0.026730205
  46       -0.087970817
  47       -0.011880969
  48       -0.012851883
  49        0.000000000
  50        0.135728144
  51        0.211542767
  52        0.000000000
  53       -0.002678427
  54        0.000000000
  55        0.000000000
  56       -0.013522078
  57       -0.000808189
  58        0.041057814
  59        0.102711888
  60       -0.001665659
  61        0.001325862
  62        0.000000000
  63       -0.013539919
  64        0.015486312
  65        0.388182941
  66       -0.128840403
  67       -0.164970173
  68        0.000000000
  69       -0.779963758
  70       -0.818515967
  71        0.000000000
  72       -0.004977743
  73        0.000000000
  74        0.000000000
  75       -0.012561523
  76        0.004335528
  77       -0.009078417
  78       -1.581443473
  79       -0.003982443
  80       -0.018356129
  81        0.000000000
  82        0.004897090
  83        1.128008449
  84       -0.014135117
  85        0.000359722
  86        0.000000000
 Sym= Ag  
 Ene=         0.000000
 Spin= Alpha
 Occup=       0.000000
   1       -0.036850300
   2        0.043379336
   3        1.012289615
   4       -0.080592867
   5        0.017994528
   6        0.000000000
   7       -0.463470237
   8       -0.232830780
   9        0.000000000
  10       -0.011740658
  11        0.000000000
  12        0.000000000
  13        0.016115708
  14        0.010000763
  15       -0.038617348
  16       -0.355695737
  17        0.013006426
  18        0.001914582
  19        0.000000000
  20        0.033871596
  21       -1.113907491
  22       -0.016717301
  23       -0.003430747
  24        0.000000000
  25        0.026068443
  26       -0.049740531
  27       -1.125816009
  28        0.090353967
  29        0.082021467
  30        0.000000000
  31        0.370298483
  32        0.758112039
  33        0.000000000
  34        0.011993450
  35        0.000000000
  36        0.000000000
  37        0.006938596
  38       -0.003684415
  39        0.019646157
  40        1.453665546
  41        0.006831011
  42        0.018159793
  43        0.000000000
  44        0.026068443
  45       -0.049740531
  46       -1.125816009
  47       -0.090353967
  48       -0.082021467
  49        0.000000000
  50       -0.370298483
  51       -0.758112039
  52        0.000000000
  53        0.011993450
  54        0.000000000
  55        0.000000000
  56        0.006938596
  57       -0.003684415
  58        0.019646157
  59        1.453665546
  60       -0.006831011
  61       -0.018159793
  62        0.000000000
  63       -0.036850300
  64        0.043379336
  65        1.012289615
  66        0.080592867
  67       -0.017994528
  68        0.000000000
  69        0.463470237
  70        0.232830780
  71        0.000000000
  72       -0.011740658
  73        0.000000000
  74        0.000000000
  75        0.016115708
  76        0.010000763
  77       -0.038617348
  78       -0.355695737
  79       -0.013006426
  80       -0.001914582
  81        0.000000000
  82        0.033871596
  83       -1.113907491
  84        0.016717301
  85        0.003430747
  86        0.000000000
 Sym= Ag  
 Ene=         0.000000
 Spin= Alpha
 Occup=       0.000000
   1       -0.059840969
   2       -0.067648522
   3        3.158245740
   4        0.021654533
   5       -0.069651734
   6        0.000000000
   7        1.814440408
   8       -1.756810710
   9        0.000000000
  10       -0.050379322
  11        0.000000000
  12        0.000000000
  13        0.032248932
  14       -0.004522650
  15        0.019686100
  16        0.487750550
  17        0.024408736
  18        0.006290553
  19        0.000000000
  20        0.172371092
  21        0.378688875
  22       -0.030751566
  23       -0.002008833
  24        0.000000000
  25        0.047518979
  26       -0.008486570
  27       -2.902613182
  28        0.014338641
  29       -0.086805498
  30        0.000000000
  31        1.765516247
  32       -2.753944193
  33        0.000000000
  34        0.020470670
  35        0.000000000
  36        0.000000000
  37       -0.016347166
  38        0.034319145
  39        0.031205064
  40       -1.318143760
  41       -0.007069415
  42       -0.008094083
  43        0.000000000
  44        0.047518979
  45       -0.008486570
  46       -2.902613182
  47       -0.014338641
  48        0.086805498
  49        0.000000000
  50       -1.765516247
  51        2.753944193
  52        0.000000000
  53        0.020470670
  54        0.000000000
  55        0.000000000
  56       -0.016347166
  57        0.034319145
  58        0.031205064
  59       -1.318143760
  60        0.007069415
  61        0.008094083
  62        0.000000000
  63       -0.059840969
  64       -0.067648522
  65        3.158245740
  66       -0.021654533
  67        0.069651734
  68        0.000000000
  69       -1.814440408
  70        1.756810710
  71        0.000000000
  72       -0.050379322
  73        0.000000000
  74        0.000000000
  75        0.032248932
  76       -0.004522650
  77        0.019686100
  78        0.487750550
  79       -0.024408736
  80       -0.006290553
  81        0.000000000
  82        0.172371092
  83        0.378688875
  84        0.030751566
  85        0.002008833
  86        0.000000000
 Sym= Ag  
 Ene=         0.000000
 Spin= Alpha
 Occup=       0.000000
   1       -0.041318985
   2       -0.092941711
   3       -0.122932494
   4       -0.113816198
   5        0.161046236
   6        0.000000000
   7        0.310329860
   8       -0.663779011
   9        0.000000000
  10       -0.003169932
  11        0.000000000
  12        0.000000000
  13       -0.077784418
  14        0.026703019
  15        0.434250940
  16       -0.001724811
  17       -0.008266053
  18        0.027041016
  19        0.000000000
  20       -0.144882235
  21        0.177785779
  22        0.037340906
  23       -0.039893667
  24        0.000000000
  25       -0.015528607
  26       -0.014338797
  27       -0.196510117
  28        0.251060123
  29       -0.118121821
  30        0.000000000
  31       -0.377784327
  32        0.160258016
  33        0.000000000
  34        0.038634812
  35        0.000000000
  36        0.000000000