 Entering Gaussian System, Link 0=/apps/software/g16/g16
 Initial command:
 /apps/software/g16/l1.exe "/scratch/Gau-239584.inp" -scrdir="/scratch/"
 Entering Link 1 = /apps/software/g16/l1.exe PID=    239585.
  
 Copyright (c) 1988,1990,1992,1993,1995,1998,2003,2009,2016,
            Gaussian, Inc.  All Rights Reserved.
  
 This is part of the Gaussian(R) 16 program.  It is based on
 the Gaussian(R) 09 system (copyright 2009, Gaussian, Inc.),
 the Gaussian(R) 03 system (copyright 2003, Gaussian, Inc.),
 the Gaussian(R) 98 system (copyright 1998, Gaussian, Inc.),
 the Gaussian(R) 94 system (copyright 1995, Gaussian, Inc.),
 the Gaussian 92(TM) system (copyright 1992, Gaussian, Inc.),
 the Gaussian 90(TM) system (copyright 1990, Gaussian, Inc.),
 the Gaussian 88(TM) system (copyright 1988, Gaussian, Inc.),
 the Gaussian 86(TM) system (copyright 1986, Carnegie Mellon
 University), and the Gaussian 82(TM) system (copyright 1983,
 Carnegie Mellon University). Gaussian is a federally registered
 trademark of Gaussian, Inc.
  
 This software contains proprietary and confidential information,
 including trade secrets, belonging to Gaussian, Inc.
  
 This software is provided under written license and may be
 used, copied, transmitted, or stored only in accord with that
 written license.
  
 The following legend is applicable only to US Government
 contracts under FAR:
  
                    RESTRICTED RIGHTS LEGEND
  
 Use, reproduction and disclosure by the US Government is
 subject to restrictions as set forth in subparagraphs (a)
 and (c) of the Commercial Computer Software - Restricted
 Rights clause in FAR 52.227-19.
  
 Gaussian, Inc.
 340 Quinnipiac St., Bldg. 40, Wallingford CT 06492
  
  
 ---------------------------------------------------------------
 Warning -- This program may not be used in any manner that
 competes with the business of Gaussian, Inc. or will provide
 assistance to any competitor of Gaussian, Inc.  The licensee
 of this program is prohibited from giving any competitor of
 Gaussian, Inc. access to this program.  By using this program,
 the user acknowledges that Gaussian, Inc. is engaged in the
 business of creating and licensing software in the field of
 computational chemistry and represents and warrants to the
 licensee that it is not a competitor of Gaussian, Inc. and that
 it will not use this program in any manner prohibited above.
 ---------------------------------------------------------------
  

 Cite this work as:
 Gaussian 16, Revision A.03,
 M. J. Frisch, G. W. Trucks, H. B. Schlegel, G. E. Scuseria, 
 M. A. Robb, J. R. Cheeseman, G. Scalmani, V. Barone, 
 G. A. Petersson, H. Nakatsuji, X. Li, M. Caricato, A. V. Marenich, 
 J. Bloino, B. G. Janesko, R. Gomperts, B. Mennucci, H. P. Hratchian, 
 J. V. Ortiz, A. F. Izmaylov, J. L. Sonnenberg, D. Williams-Young, 
 F. Ding, F. Lipparini, F. Egidi, J. Goings, B. Peng, A. Petrone, 
 T. Henderson, D. Ranasinghe, V. G. Zakrzewski, J. Gao, N. Rega, 
 G. Zheng, W. Liang, M. Hada, M. Ehara, K. Toyota, R. Fukuda, 
 J. Hasegawa, M. Ishida, T. Nakajima, Y. Honda, O. Kitao, H. Nakai, 
 T. Vreven, K. Throssell, J. A. Montgomery, Jr., J. E. Peralta, 
 F. Ogliaro, M. J. Bearpark, J. J. Heyd, E. N. Brothers, K. N. Kudin, 
 V. N. Staroverov, T. A. Keith, R. Kobayashi, J. Normand, 
 K. Raghavachari, A. P. Rendell, J. C. Burant, S. S. Iyengar, 
 J. Tomasi, M. Cossi, J. M. Millam, M. Klene, C. Adamo, R. Cammi, 
 J. W. Ochterski, R. L. Martin, K. Morokuma, O. Farkas, 
 J. B. Foresman, and D. J. Fox, Gaussian, Inc., Wallingford CT, 2016.
 
 ******************************************
 Gaussian 16:  ES64L-G16RevA.03 25-Dec-2016
                 2-Apr-2022 
 ******************************************
 %chk=/apps/users/lcz/exe4/task4/O2/singlet/O2.chk
 ------------------------------------------
 #p UHF/cc-pVDZ nosymm guess=mix stable=opt
 ------------------------------------------
 1/38=1,172=1/1;
 2/12=2,15=1,17=6,18=5,40=1/2;
 3/5=16,11=2,25=1,30=1,116=2/1,2,3;
 4/13=-1/1;
 5/5=2,38=5/2;
 6/7=2,8=2,9=2,10=2,28=1/1;
 8/6=1,10=90,11=11/1;
 9/8=-3,42=1,46=1/14;
 5/5=2,8=3,17=40,38=5/8(-2);
 6/7=2,8=2,9=2,10=2,28=1/1;
 99/5=1,9=1/99;
 Leave Link    1 at Sat Apr  2 12:37:47 2022, MaxMem=           0 cpu:               0.0 elap:               0.0
 (Enter /apps/software/g16/l101.exe)
 -----
 O2 SP
 -----
 Symbolic Z-matrix:
 Charge =  0 Multiplicity = 1
 O                     0.        0.        0. 
 O                     0.        0.        1.25 
 
 ITRead=  0  0
 MicOpt= -1 -1
 NAtoms=      2 NQM=        2 NQMF=       0 NMMI=      0 NMMIF=      0
                NMic=       0 NMicF=      0.
                    Isotopes and Nuclear Properties:
 (Nuclear quadrupole moments (NQMom) in fm**2, nuclear magnetic moments (NMagM)
  in nuclear magnetons)

  Atom         1           2
 IAtWgt=          16          16
 AtmWgt=  15.9949146  15.9949146
 NucSpn=           0           0
 AtZEff=  -0.0000000  -0.0000000
 NQMom=    0.0000000   0.0000000
 NMagM=    0.0000000   0.0000000
 AtZNuc=   8.0000000   8.0000000
 Leave Link  101 at Sat Apr  2 12:37:47 2022, MaxMem=   104857600 cpu:               0.1 elap:               0.1
 (Enter /apps/software/g16/l202.exe)
                          Input orientation:                          
 ---------------------------------------------------------------------
 Center     Atomic      Atomic             Coordinates (Angstroms)
 Number     Number       Type             X           Y           Z
 ---------------------------------------------------------------------
      1          8           0        0.000000    0.000000    0.000000
      2          8           0        0.000000    0.000000    1.250000
 ---------------------------------------------------------------------
 Symmetry turned off by external request.
 Stoichiometry    O2
 Framework group  D*H[C*(O.O)]
 Deg. of freedom     1
 Full point group                 D*H     NOp   8
 Rotational constants (GHZ):           0.0000000          40.4431750          40.4431750
 Leave Link  202 at Sat Apr  2 12:37:47 2022, MaxMem=   104857600 cpu:               0.0 elap:               0.0
 (Enter /apps/software/g16/l301.exe)
 Standard basis: CC-pVDZ (5D, 7F)
 Ernie: Thresh=  0.10000D-02 Tol=  0.10000D-05 Strict=F.
 Ernie:  4 primitive shells out of 44 were deleted.
    28 basis functions,    66 primitive gaussians,    30 cartesian basis functions
     8 alpha electrons        8 beta electrons
       nuclear repulsion energy        27.0938731991 Hartrees.
 IExCor=    0 DFT=F Ex=HF Corr=None ExCW=0 ScaHFX=  1.000000
 ScaDFX=  1.000000  1.000000  1.000000  1.000000 ScalE2=  1.000000  1.000000
 IRadAn=      5 IRanWt=     -1 IRanGd=            0 ICorTp=0 IEmpDi=  4
 NAtoms=    2 NActive=    2 NUniq=    2 SFac= 1.00D+00 NAtFMM=   60 NAOKFM=F Big=F
 Integral buffers will be    131072 words long.
 Raffenetti 2 integral format.
 Two-electron integral symmetry is turned off.
 Leave Link  301 at Sat Apr  2 12:37:47 2022, MaxMem=   104857600 cpu:               0.1 elap:               0.1
 (Enter /apps/software/g16/l302.exe)
 NPDir=0 NMtPBC=     1 NCelOv=     1 NCel=       1 NClECP=     1 NCelD=      1
         NCelK=      1 NCelE2=     1 NClLst=     1 CellRange=     0.0.
 One-electron integrals computed using PRISM.
 NBasis=    28 RedAO= T EigKep=  2.24D-02  NBF=    28
 NBsUse=    28 1.00D-06 EigRej= -1.00D+00 NBFU=    28
 Leave Link  302 at Sat Apr  2 12:37:47 2022, MaxMem=   104857600 cpu:               0.1 elap:               0.1
 (Enter /apps/software/g16/l303.exe)
 DipDrv:  MaxL=1.
 Leave Link  303 at Sat Apr  2 12:37:47 2022, MaxMem=   104857600 cpu:               0.0 elap:               0.0
 (Enter /apps/software/g16/l401.exe)
 ExpMin= 2.75D-01 ExpMax= 1.17D+04 ExpMxC= 4.01D+02 IAcc=3 IRadAn=         5 AccDes= 0.00D+00
 Harris functional with IExCor=  205 and IRadAn=       5 diagonalized for initial guess.
 HarFok:  IExCor=  205 AccDes= 0.00D+00 IRadAn=         5 IDoV= 1 UseB2=F ITyADJ=14
 ICtDFT=  3500011 ScaDFX=  1.000000  1.000000  1.000000  1.000000
 FoFCou: FMM=F IPFlag=           0 FMFlag=      100000 FMFlg1=           0
         NFxFlg=           0 DoJE=T BraDBF=F KetDBF=T FulRan=T
         wScrn=  0.000000 ICntrl=       500 IOpCl=  0 I1Cent=   200000004 NGrid=           0
         NMat0=    1 NMatS0=      1 NMatT0=    0 NMatD0=    1 NMtDS0=    0 NMtDT0=    0
 Symmetry not used in FoFCou.
 Harris En= -149.550006687473    
 JPrj=0 DoOrth=F DoCkMO=T.
 Mixing orbitals, IMix= 1 IMixAn=  0 NRI=1 NE=    8 Coef=  7.07106781D-01  7.07106781D-01
 Mixing orbitals, IMix= 1 IMixAn=  0 NRI=1 NE=    8 Coef= -7.07106781D-01  7.07106781D-01
 Initial guess <Sx>= 0.0000 <Sy>= 0.0000 <Sz>= 0.0000 <S**2>= 1.0000 S= 0.6180
 Leave Link  401 at Sat Apr  2 12:37:47 2022, MaxMem=   104857600 cpu:               0.1 elap:               0.2
 (Enter /apps/software/g16/l502.exe)
 Keep R1 and R2 ints in memory in canonical form, NReq=1000977.
 FoFCou: FMM=F IPFlag=           0 FMFlag=           0 FMFlg1=           0
         NFxFlg=           0 DoJE=F BraDBF=F KetDBF=F FulRan=T
         wScrn=  0.000000 ICntrl=       600 IOpCl=  0 I1Cent=           0 NGrid=           0
         NMat0=    1 NMatS0=    406 NMatT0=    0 NMatD0=    1 NMtDS0=    0 NMtDT0=    0
 Symmetry not used in FoFCou.
 Two-electron integral symmetry not used.
 UHF open shell SCF:
 Using DIIS extrapolation, IDIIS=  1040.
 NGot=   104857600 LenX=   104690006 LenY=   104688665
 Requested convergence on RMS density matrix=1.00D-08 within 128 cycles.
 Requested convergence on MAX density matrix=1.00D-06.
 Requested convergence on             energy=1.00D-06.
 No special actions if energy rises.

 Cycle   1  Pass 1  IDiag  1:
 E= -149.559633036494    
 DIIS: error= 6.33D-02 at cycle   1 NSaved=   1.
 NSaved= 1 IEnMin= 1 EnMin= -149.559633036494     IErMin= 1 ErrMin= 6.33D-02
 ErrMax= 6.33D-02  0.00D+00 EMaxC= 1.00D-01 BMatC= 2.60D-01 BMatP= 2.60D-01
 IDIUse=3 WtCom= 3.67D-01 WtEn= 6.33D-01
 Coeff-Com:  0.100D+01
 Coeff-En:   0.100D+01
 Coeff:      0.100D+01
 Gap=     0.585 Goal=   None    Shift=    0.000
 Gap=     0.585 Goal=   None    Shift=    0.000
 GapD=    0.585 DampG=2.000 DampE=0.500 DampFc=1.0000 IDamp=-1.
 RMSDP=3.46D-03 MaxDP=2.63D-02              OVMax= 4.82D-02

 Cycle   2  Pass 1  IDiag  1:
 E= -149.587516356577     Delta-E=       -0.027883320083 Rises=F Damp=F
 DIIS: error= 9.56D-03 at cycle   2 NSaved=   2.
 NSaved= 2 IEnMin= 2 EnMin= -149.587516356577     IErMin= 2 ErrMin= 9.56D-03
 ErrMax= 9.56D-03  0.00D+00 EMaxC= 1.00D-01 BMatC= 6.71D-03 BMatP= 2.60D-01
 IDIUse=3 WtCom= 9.04D-01 WtEn= 9.56D-02
 Coeff-Com: -0.690D-01 0.107D+01
 Coeff-En:   0.000D+00 0.100D+01
 Coeff:     -0.624D-01 0.106D+01
 Gap=     0.598 Goal=   None    Shift=    0.000
 Gap=     0.598 Goal=   None    Shift=    0.000
 RMSDP=1.08D-03 MaxDP=8.45D-03 DE=-2.79D-02 OVMax= 1.36D-02

 Cycle   3  Pass 1  IDiag  1:
 E= -149.589299891379     Delta-E=       -0.001783534802 Rises=F Damp=F
 DIIS: error= 2.84D-03 at cycle   3 NSaved=   3.
 NSaved= 3 IEnMin= 3 EnMin= -149.589299891379     IErMin= 3 ErrMin= 2.84D-03
 ErrMax= 2.84D-03  0.00D+00 EMaxC= 1.00D-01 BMatC= 4.84D-04 BMatP= 6.71D-03
 IDIUse=3 WtCom= 9.72D-01 WtEn= 2.84D-02
 Coeff-Com: -0.915D-02-0.195D+00 0.120D+01
 Coeff-En:   0.000D+00 0.000D+00 0.100D+01
 Coeff:     -0.889D-02-0.189D+00 0.120D+01
 Gap=     0.605 Goal=   None    Shift=    0.000
 Gap=     0.605 Goal=   None    Shift=    0.000
 RMSDP=4.03D-04 MaxDP=4.12D-03 DE=-1.78D-03 OVMax= 4.90D-03

 Cycle   4  Pass 1  IDiag  1:
 E= -149.589471107731     Delta-E=       -0.000171216352 Rises=F Damp=F
 DIIS: error= 6.76D-04 at cycle   4 NSaved=   4.
 NSaved= 4 IEnMin= 4 EnMin= -149.589471107731     IErMin= 4 ErrMin= 6.76D-04
 ErrMax= 6.76D-04  0.00D+00 EMaxC= 1.00D-01 BMatC= 1.93D-05 BMatP= 4.84D-04
 IDIUse=3 WtCom= 9.93D-01 WtEn= 6.76D-03
 Coeff-Com:  0.390D-02-0.309D-01-0.109D+00 0.114D+01
 Coeff-En:   0.000D+00 0.000D+00 0.000D+00 0.100D+01
 Coeff:      0.388D-02-0.307D-01-0.108D+00 0.113D+01
 Gap=     0.607 Goal=   None    Shift=    0.000
 Gap=     0.607 Goal=   None    Shift=    0.000
 RMSDP=9.23D-05 MaxDP=8.44D-04 DE=-1.71D-04 OVMax= 1.25D-03

 Cycle   5  Pass 1  IDiag  1:
 E= -149.589478550058     Delta-E=       -0.000007442327 Rises=F Damp=F
 DIIS: error= 9.68D-05 at cycle   5 NSaved=   5.
 NSaved= 5 IEnMin= 5 EnMin= -149.589478550058     IErMin= 5 ErrMin= 9.68D-05
 ErrMax= 9.68D-05  0.00D+00 EMaxC= 1.00D-01 BMatC= 5.81D-07 BMatP= 1.93D-05
 IDIUse=1 WtCom= 1.00D+00 WtEn= 0.00D+00
 Coeff-Com:  0.673D-04 0.461D-02-0.288D-01-0.114D-01 0.104D+01
 Coeff:      0.673D-04 0.461D-02-0.288D-01-0.114D-01 0.104D+01
 Gap=     0.607 Goal=   None    Shift=    0.000
 Gap=     0.607 Goal=   None    Shift=    0.000
 RMSDP=1.68D-05 MaxDP=2.09D-04 DE=-7.44D-06 OVMax= 1.80D-04

 Cycle   6  Pass 1  IDiag  1:
 E= -149.589478737439     Delta-E=       -0.000000187381 Rises=F Damp=F
 DIIS: error= 1.79D-05 at cycle   6 NSaved=   6.
 NSaved= 6 IEnMin= 6 EnMin= -149.589478737439     IErMin= 6 ErrMin= 1.79D-05
 ErrMax= 1.79D-05  0.00D+00 EMaxC= 1.00D-01 BMatC= 3.35D-08 BMatP= 5.81D-07
 IDIUse=1 WtCom= 1.00D+00 WtEn= 0.00D+00
 Coeff-Com: -0.166D-03 0.217D-02 0.506D-02-0.755D-01 0.521D-01 0.102D+01
 Coeff:     -0.166D-03 0.217D-02 0.506D-02-0.755D-01 0.521D-01 0.102D+01
 Gap=     0.607 Goal=   None    Shift=    0.000
 Gap=     0.607 Goal=   None    Shift=    0.000
 RMSDP=3.37D-06 MaxDP=2.42D-05 DE=-1.87D-07 OVMax= 2.96D-05

 Cycle   7  Pass 1  IDiag  1:
 E= -149.589478745983     Delta-E=       -0.000000008543 Rises=F Damp=F
 DIIS: error= 1.46D-06 at cycle   7 NSaved=   7.
 NSaved= 7 IEnMin= 7 EnMin= -149.589478745983     IErMin= 7 ErrMin= 1.46D-06
 ErrMax= 1.46D-06  0.00D+00 EMaxC= 1.00D-01 BMatC= 1.23D-10 BMatP= 3.35D-08
 IDIUse=1 WtCom= 1.00D+00 WtEn= 0.00D+00
 Coeff-Com:  0.343D-04-0.495D-03-0.102D-02 0.173D-01-0.177D-01-0.234D+00
 Coeff-Com:  0.124D+01
 Coeff:      0.343D-04-0.495D-03-0.102D-02 0.173D-01-0.177D-01-0.234D+00
 Coeff:      0.124D+01
 Gap=     0.607 Goal=   None    Shift=    0.000
 Gap=     0.607 Goal=   None    Shift=    0.000
 RMSDP=2.56D-07 MaxDP=1.66D-06 DE=-8.54D-09 OVMax= 2.24D-06

 Cycle   8  Pass 1  IDiag  1:
 E= -149.589478746020     Delta-E=       -0.000000000037 Rises=F Damp=F
 DIIS: error= 7.99D-08 at cycle   8 NSaved=   8.
 NSaved= 8 IEnMin= 8 EnMin= -149.589478746020     IErMin= 8 ErrMin= 7.99D-08
 ErrMax= 7.99D-08  0.00D+00 EMaxC= 1.00D-01 BMatC= 4.84D-13 BMatP= 1.23D-10
 IDIUse=1 WtCom= 1.00D+00 WtEn= 0.00D+00
 Coeff-Com: -0.527D-05 0.793D-04 0.140D-03-0.262D-02 0.283D-02 0.356D-01
 Coeff-Com: -0.214D+00 0.118D+01
 Coeff:     -0.527D-05 0.793D-04 0.140D-03-0.262D-02 0.283D-02 0.356D-01
 Coeff:     -0.214D+00 0.118D+01
 Gap=     0.607 Goal=   None    Shift=    0.000
 Gap=     0.607 Goal=   None    Shift=    0.000
 RMSDP=1.35D-08 MaxDP=8.44D-08 DE=-3.69D-11 OVMax= 1.41D-07

 Cycle   9  Pass 1  IDiag  1:
 E= -149.589478746020     Delta-E=       -0.000000000000 Rises=F Damp=F
 DIIS: error= 8.74D-09 at cycle   9 NSaved=   9.
 NSaved= 9 IEnMin= 9 EnMin= -149.589478746020     IErMin= 9 ErrMin= 8.74D-09
 ErrMax= 8.74D-09  0.00D+00 EMaxC= 1.00D-01 BMatC= 6.29D-15 BMatP= 4.84D-13
 IDIUse=1 WtCom= 1.00D+00 WtEn= 0.00D+00
 Coeff-Com:  0.662D-06-0.104D-04-0.149D-04 0.322D-03-0.351D-03-0.449D-02
 Coeff-Com:  0.290D-01-0.235D+00 0.121D+01
 Coeff:      0.662D-06-0.104D-04-0.149D-04 0.322D-03-0.351D-03-0.449D-02
 Coeff:      0.290D-01-0.235D+00 0.121D+01
 Gap=     0.607 Goal=   None    Shift=    0.000
 Gap=     0.607 Goal=   None    Shift=    0.000
 RMSDP=1.23D-09 MaxDP=9.25D-09 DE=-1.71D-13 OVMax= 1.59D-08

 SCF Done:  E(UHF) =  -149.589478746     A.U. after    9 cycles
            NFock=  9  Conv=0.12D-08     -V/T= 2.0017
 <Sx>= 0.0000 <Sy>= 0.0000 <Sz>= 0.0000 <S**2>= 1.0202 S= 0.6270
 <L.S>=  0.00000000000    
 KE= 1.493363726221D+02 PE=-4.090327610065D+02 EE= 8.301303643925D+01
 Annihilation of the first spin contaminant:
 S**2 before annihilation     1.0202,   after     0.1614
 Leave Link  502 at Sat Apr  2 12:37:48 2022, MaxMem=   104857600 cpu:               0.1 elap:               0.1
 (Enter /apps/software/g16/l601.exe)
 Copying SCF densities to generalized density rwf, IOpCl= 1 IROHF=0.

 **********************************************************************

            Population analysis using the SCF density.

 **********************************************************************

 Alpha  occ. eigenvalues --  -20.73600 -20.73520  -1.61841  -1.11438  -0.80141
 Alpha  occ. eigenvalues --   -0.71783  -0.57514  -0.53680
 Alpha virt. eigenvalues --    0.07033   0.41023   1.06363   1.06783   1.16380
 Alpha virt. eigenvalues --    1.17324   1.17384   1.27311   1.34083   1.94546
 Alpha virt. eigenvalues --    2.38105   2.44094   2.70447   2.70717   2.98619
 Alpha virt. eigenvalues --    2.98747   3.06528   3.57205   3.63233   4.18742
  Beta  occ. eigenvalues --  -20.73600 -20.73520  -1.61841  -1.11438  -0.80141
  Beta  occ. eigenvalues --   -0.71783  -0.57514  -0.53680
  Beta virt. eigenvalues --    0.07033   0.41023   1.06363   1.06783   1.16380
  Beta virt. eigenvalues --    1.17324   1.17384   1.27311   1.34083   1.94546
  Beta virt. eigenvalues --    2.38105   2.44094   2.70447   2.70717   2.98619
  Beta virt. eigenvalues --    2.98747   3.06528   3.57205   3.63233   4.18742
          Condensed to atoms (all electrons):
               1          2
     1  O    7.822485   0.177515
     2  O    0.177515   7.822485
          Atomic-Atomic Spin Densities.
               1          2
     1  O    0.000000   0.000000
     2  O    0.000000  -0.000000
 Mulliken charges and spin densities:
               1          2
     1  O    0.000000   0.000000
     2  O   -0.000000  -0.000000
 Sum of Mulliken charges =  -0.00000   0.00000
 Mulliken charges and spin densities with hydrogens summed into heavy atoms:
               1          2
     1  O    0.000000   0.000000
     2  O   -0.000000  -0.000000
 Electronic spatial extent (au):  <R**2>=             67.1540
 Charge=              0.0000 electrons
 Dipole moment (field-independent basis, Debye):
    X=             -0.0000    Y=             -0.0000    Z=             -0.0000  Tot=              0.0000
 Quadrupole moment (field-independent basis, Debye-Ang):
   XX=             -9.9505   YY=             -9.9505   ZZ=            -10.3833
   XY=              0.0000   XZ=             -0.0000   YZ=             -0.0000
 Traceless Quadrupole moment (field-independent basis, Debye-Ang):
   XX=              0.1443   YY=              0.1443   ZZ=             -0.2885
   XY=              0.0000   XZ=             -0.0000   YZ=             -0.0000
 Octapole moment (field-independent basis, Debye-Ang**2):
  XXX=             -0.0000  YYY=             -0.0000  ZZZ=            -19.4687  XYY=             -0.0000
  XXY=             -0.0000  XXZ=             -6.2191  XZZ=              0.0000  YZZ=             -0.0000
  YYZ=             -6.2191  XYZ=              0.0000
 Hexadecapole moment (field-independent basis, Debye-Ang**3):
 XXXX=             -6.5452 YYYY=             -6.5452 ZZZZ=            -53.4281 XXXY=              0.0000
 XXXZ=             -0.0000 YYYX=             -0.0000 YYYZ=             -0.0000 ZZZX=              0.0000
 ZZZY=             -0.0000 XXYY=             -2.1816 XXZZ=            -10.0465 YYZZ=            -10.0465
 XXYZ=             -0.0000 YYXZ=             -0.0000 ZZXY=              0.0000
 N-N= 2.709387319910D+01 E-N=-4.090327609617D+02  KE= 1.493363726221D+02
                          Isotropic Fermi Contact Couplings
        Atom                 a.u.       MegaHertz       Gauss      10(-4) cm-1
     1  O(17)             -0.00000       0.00000       0.00000       0.00000
     2  O(17)             -0.00000       0.00000       0.00000       0.00000
 --------------------------------------------------------
       Center         ----  Spin Dipole Couplings  ----
                      3XX-RR        3YY-RR        3ZZ-RR
 --------------------------------------------------------
     1   Atom       -3.876902      3.876902     -0.000000
     2   Atom       -3.876902      3.876902      0.000000
 --------------------------------------------------------
                        XY            XZ            YZ
 --------------------------------------------------------
     1   Atom        0.544200      0.000000     -0.000000
     2   Atom        0.544200      0.000000      0.000000
 --------------------------------------------------------


 ---------------------------------------------------------------------------------
              Anisotropic Spin Dipole Couplings in Principal Axis System
 ---------------------------------------------------------------------------------

       Atom             a.u.   MegaHertz   Gauss  10(-4) cm-1        Axes

              Baa    -3.9149   283.280   101.081    94.492  0.9976 -0.0697 -0.0000
     1 O(17)  Bbb    -0.0000     0.000     0.000     0.000  0.0000  0.0000  1.0000
              Bcc     3.9149  -283.280  -101.081   -94.492  0.0697  0.9976 -0.0000
 
              Baa    -3.9149   283.280   101.081    94.492  0.9976 -0.0697  0.0000
     2 O(17)  Bbb     0.0000    -0.000    -0.000    -0.000 -0.0000 -0.0000  1.0000
              Bcc     3.9149  -283.280  -101.081   -94.492  0.0697  0.9976  0.0000
 

 ---------------------------------------------------------------------------------

 No NMR shielding tensors so no spin-rotation constants.
 Leave Link  601 at Sat Apr  2 12:37:48 2022, MaxMem=   104857600 cpu:               0.1 elap:               0.1
 (Enter /apps/software/g16/l801.exe)
 Range of M.O.s used for correlation:     1    28
 NBasis=    28 NAE=     8 NBE=     8 NFC=     0 NFV=     0
 NROrb=     28 NOA=     8 NOB=     8 NVA=    20 NVB=    20
 Leave Link  801 at Sat Apr  2 12:37:48 2022, MaxMem=   104857600 cpu:               0.0 elap:               0.0
 (Enter /apps/software/g16/l914.exe)
 UHF ground state
 Doing stability rather than CIS.
 Keep R1 and R2 ints in memory in canonical form, NReq=1001317.
 FoFCou: FMM=F IPFlag=           0 FMFlag=           0 FMFlg1=           0
         NFxFlg=           0 DoJE=F BraDBF=F KetDBF=F FulRan=T
         wScrn=  0.000000 ICntrl=       600 IOpCl=  0 I1Cent=           0 NGrid=           0
         NMat0=    1 NMatS0=    406 NMatT0=    0 NMatD0=    1 NMtDS0=    0 NMtDT0=    0
 Symmetry not used in FoFCou.
 Two-electron integral symmetry not used.
 MDV=   104857600 DFT=F DoStab=T Mixed=F DoRPA=F DoScal=F NonHer=F
 Making orbital integer symmetry assigments:
    12 initial guesses have been made.
 Convergence on wavefunction:    0.001000000000000
 Davidson Disk Diagonalization:  ConvIn= 1.00D-03 SkipCon=T Conv= 1.00D-03.
 Max sub-space:   640 roots to seek:    12 dimension of matrix:          320
 Iteration     1 Dimension    12 NMult     0 NNew     12
 CISAX will form    12 AO SS matrices at one time.
 NMat=    12 NSing=    12 JSym2X= 0.
 New state      1 was old state      3
 Excitation Energies [eV] at current iteration:
 Root      1 :    -1.511992587172090
 Root      2 :     0.860181375800720
 Root      3 :     3.437532832507502
 Root      4 :     5.378444253996901
 Root      5 :     5.378444253997010
 Root      6 :     8.370321127404781
 Root      7 :    10.523506652911600
 Root      8 :    11.272346579460924
 Root      9 :    11.272346579461196
 Root     10 :    14.596339933742867
 Root     11 :    14.596339933743073
 Root     12 :    17.077004477616445
 Iteration     2 Dimension    24 NMult    12 NNew     12
 CISAX will form    12 AO SS matrices at one time.
 NMat=    12 NSing=    12 JSym2X= 0.
 Root      1 not converged, maximum delta is    0.041193401213420
 Excitation Energies [eV] at current iteration:
 Root      1 :    -1.818758848213227   Change is   -0.306766261041137
 Root      2 :     0.012104738314069   Change is   -0.848076637486651
 Root      3 :     3.060828517126825   Change is   -0.376704315380677
 Root      4 :     4.650579809998111   Change is   -0.727864443998790
 Root      5 :     4.650579809998208   Change is   -0.727864443998802
 Root      6 :     5.597881906479597   Change is  -11.479122571136848
 Root      7 :     7.497476417315641   Change is   -0.872844710089141
 Root      8 :    10.207650221400941   Change is   -0.315856431510659
 Root      9 :    10.410061555259352   Change is   -0.862285024201573
 Root     10 :    10.410061555259631   Change is   -0.862285024201567
 Root     11 :    13.683051382866017   Change is   -0.913288550876850
 Root     12 :    13.683051382866173   Change is   -0.913288550876898
 Iteration     3 Dimension    27 NMult    24 NNew      3
 CISAX will form     3 AO SS matrices at one time.
 NMat=     3 NSing=     3 JSym2X= 0.
 Root      1 not converged, maximum delta is    0.008790455283723
 Excitation Energies [eV] at current iteration:
 Root      1 :    -1.842357204181122   Change is   -0.023598355967896
 Root      2 :     0.000087286087005   Change is   -0.012017452227063
 Root      3 :     3.057679254285353   Change is   -0.003149262841471
 Iteration     4 Dimension    30 NMult    27 NNew      3
 CISAX will form     3 AO SS matrices at one time.
 NMat=     3 NSing=     3 JSym2X= 0.
 Root      1 not converged, maximum delta is    0.010429189641716
 Excitation Energies [eV] at current iteration:
 Root      1 :    -1.846035644624120   Change is   -0.003678440442998
 Root      2 :     0.000000549345886   Change is   -0.000086736741119
 Root      3 :     3.057662743577399   Change is   -0.000016510707954
 Iteration     5 Dimension    33 NMult    30 NNew      3
 CISAX will form     3 AO SS matrices at one time.
 NMat=     3 NSing=     3 JSym2X= 0.
 Root      1 has converged.
 Excitation Energies [eV] at current iteration:
 Root      1 :    -1.846228495974094   Change is   -0.000192851349973
 Root      2 :     0.000000010892077   Change is   -0.000000538453809
 Root      3 :     3.057662619708791   Change is   -0.000000123868608
 Convergence achieved on expansion vectors.
 ***********************************************************************
 Stability analysis using <AA,BB:AA,BB> singles matrix:
 ***********************************************************************
 1PDM for each excited state written to RWF  633
 Ground to excited state transition densities written to RWF  633

 Eigenvectors of the stability matrix:
 
 Excited state symmetry could not be determined.
 Eigenvector   1:  2.263-?Sym  Eigenvalue=-0.0678476  <S**2>=1.030
      7A ->  9A       -0.69651
      7B ->  9B        0.69651
 The wavefunction has an internal instability.
 Leave Link  914 at Sat Apr  2 12:37:48 2022, MaxMem=   104857600 cpu:               0.1 elap:               0.1
 (Enter /apps/software/g16/l508.exe)
 Keep R1 and R2 ints in memory in canonical form, NReq=1001377.
 FoFCou: FMM=F IPFlag=           0 FMFlag=           0 FMFlg1=           0
         NFxFlg=           0 DoJE=F BraDBF=F KetDBF=F FulRan=T
         wScrn=  0.000000 ICntrl=       600 IOpCl=  0 I1Cent=           0 NGrid=           0
         NMat0=    1 NMatS0=    406 NMatT0=    0 NMatD0=    1 NMtDS0=    0 NMtDT0=    0
 Symmetry not used in FoFCou.
 Two-electron integral symmetry not used.
 Tight linear equation convergence will be used.
 UHF wavefunction.
 Quadratic Convergence SCF Method.
 Line search only if initial step raises energy.
 Perform preliminary linear searches along instability eigenvector.
     ILin= 1 X=0.000D+00 Y=-1.495894787460D+02 DE= 0.00D+00
     ILin= 2 X=1.000D-01 Y=-1.495901383266D+02 DE=-6.60D-04
     ILin= 3 X=1.414D-01 Y=-1.495907603462D+02 DE=-1.28D-03
     ILin= 4 X=2.000D-01 Y=-1.495918930893D+02 DE=-2.41D-03
     ILin= 5 X=2.828D-01 Y=-1.495937229589D+02 DE=-4.24D-03
     ILin= 6 X=4.000D-01 Y=-1.495957151428D+02 DE=-6.24D-03
     ILin= 7 X=5.657D-01 Y=-1.495936026728D+02 DE=-4.12D-03
     An  expanding polynomial of degree  7 produced  0.4427
 Iteration F X= 4.427D-01 EE=-1.495959214683035D+02
     ILin= 1 X=0.000D+00 Y=-1.495894787460D+02 DE= 0.00D+00
     ILin= 2 X=1.000D-01 Y=-1.495901383266D+02 DE=-6.60D-04
     ILin= 3 X=1.414D-01 Y=-1.495907603462D+02 DE=-1.28D-03
 The two search directions are symmetric.
 Iteration B X= 4.427D-01 EE=-1.495959214683035D+02
 Take forward step, X= 4.427D-01 Step= 4.427D-01
 Iteration   1 EE= -149.595921621808                                    Grad=3.220D-02 Max rot=    1.0155 deg.
 Gradient too large for Newton-Raphson -- use scaled steepest descent instead.
 Alpha Gap=     0.637 HL deriv= 3.32D-15
  Beta Gap=     0.637 HL deriv= 2.19D-15
     ILin= 1 X=0.000D+00 Y=-1.495959216218D+02 DE= 0.00D+00 F= -1.01D-03
     ILin= 2 X=3.000D-01 Y=-1.495961928003D+02 DE=-2.71D-04 F= -7.95D-04
     ILin= 3 X=6.000D-01 Y=-1.495963985589D+02 DE=-4.77D-04 F= -5.77D-04
     ILin= 4 X=1.200D+00 Y=-1.495966137525D+02 DE=-6.92D-04 F= -1.40D-04
     ILin= 5 X=2.400D+00 Y=-1.495962585149D+02 DE=-3.37D-04 F=  7.33D-04
     An  expanding polynomial of degree  5 produced  1.3931
 Iteration   2 EE= -149.596627316320     Delta-E=       -0.000705694511 Grad=6.744D-03 Max rot=    0.1202 deg.
 QCNR:  CnvC1=1.79D-09 CnvC2=1.79D-08
 LinEq1:  Iter=  0 NonCon=     1 RMS=2.52D-04 Max=2.39D-03 NDo=     1
 AX will form     1 AO Fock derivatives at one time.
 LinEq1:  Iter=  1 NonCon=     1 RMS=1.12D-04 Max=7.66D-04 NDo=     1
 LinEq1:  Iter=  2 NonCon=     1 RMS=2.97D-05 Max=2.05D-04 NDo=     1
 LinEq1:  Iter=  3 NonCon=     1 RMS=3.78D-06 Max=1.94D-05 NDo=     1
 LinEq1:  Iter=  4 NonCon=     1 RMS=5.32D-07 Max=2.46D-06 NDo=     1
 LinEq1:  Iter=  5 NonCon=     1 RMS=1.00D-07 Max=7.06D-07 NDo=     1
 LinEq1:  Iter=  6 NonCon=     1 RMS=1.72D-08 Max=1.14D-07 NDo=     1
 LinEq1:  Iter=  7 NonCon=     1 RMS=9.17D-09 Max=6.91D-08 NDo=     1
 LinEq1:  Iter=  8 NonCon=     1 RMS=2.41D-09 Max=2.64D-08 NDo=     1
 LinEq1:  Iter=  9 NonCon=     0 RMS=3.46D-10 Max=1.99D-09 NDo=     1
 Linear equations converged to 1.789D-09 1.789D-08 after     9 iterations.
 Angle between quadratic step and gradient=  57.65 degrees.
     ILin= 1 X=0.000D+00 Y=-1.495966273163D+02 DE= 0.00D+00 F= -2.04D-04
     ILin= 2 X=1.000D+00 Y=-1.495967246385D+02 DE=-9.73D-05 F=  1.44D-05
     Accept linear search using points  1 and  2.
     An  expanding polynomial of degree  2 produced  0.9379
     Minimum is close to point  2 DX= -6.21D-02 DF= -4.47D-07 DXR=  6.62D-02 DFR=  4.59D-03 which will be used.
 Iteration   3 EE= -149.596724638503     Delta-E=       -0.000097322183 Grad=2.876D-04 Max rot=    0.0105 deg.
 QCNR:  CnvC1=1.79D-09 CnvC2=1.79D-08
 LinEq1:  Iter=  0 NonCon=     1 RMS=2.05D-05 Max=2.55D-04 NDo=     1
 LinEq1:  Iter=  1 NonCon=     1 RMS=2.19D-06 Max=1.99D-05 NDo=     1
 LinEq1:  Iter=  2 NonCon=     1 RMS=3.00D-07 Max=1.25D-06 NDo=     1
 LinEq1:  Iter=  3 NonCon=     1 RMS=8.42D-08 Max=6.14D-07 NDo=     1
 LinEq1:  Iter=  4 NonCon=     1 RMS=2.52D-08 Max=1.74D-07 NDo=     1
 LinEq1:  Iter=  5 NonCon=     1 RMS=6.21D-09 Max=3.88D-08 NDo=     1
 LinEq1:  Iter=  6 NonCon=     0 RMS=1.70D-09 Max=9.97D-09 NDo=     1
 Linear equations converged to 1.789D-09 1.789D-08 after     6 iterations.
 Angle between quadratic step and gradient=  23.28 degrees.
     ILin= 1 X=0.000D+00 Y=-1.495967246385D+02 DE= 0.00D+00 F= -1.11D-06
     ILin= 2 X=1.000D+00 Y=-1.495967251942D+02 DE=-5.56D-07 F= -6.35D-09
     Reject lnstep minimum 1.006D+00 FVal=-1.495967251942D+02 Lims=  0.00D+00  1.00D+00
     ILin= 3 X=2.000D+00 Y=-1.495967246555D+02 DE=-1.70D-08 F=  1.08D-06
     An  expanding polynomial of degree  3 produced  1.0078
     Minimum is close to point  2 DX=  7.79D-03 DF= -3.32D-11 DXR=  7.73D-03 DFR=  5.97D-05 which will be used.
 Iteration   4 EE= -149.596725194230     Delta-E=       -0.000000555727 Grad=3.361D-06 Max rot=    0.0001 deg.
 QCNR:  CnvC1=3.36D-11 CnvC2=3.36D-10
 LinEq1:  Iter=  0 NonCon=     1 RMS=1.39D-07 Max=1.55D-06 NDo=     1
 LinEq1:  Iter=  1 NonCon=     1 RMS=4.59D-08 Max=3.33D-07 NDo=     1
 LinEq1:  Iter=  2 NonCon=     1 RMS=1.50D-08 Max=1.09D-07 NDo=     1
 LinEq1:  Iter=  3 NonCon=     1 RMS=6.29D-09 Max=4.78D-08 NDo=     1
 LinEq1:  Iter=  4 NonCon=     1 RMS=2.59D-09 Max=1.63D-08 NDo=     1
 LinEq1:  Iter=  5 NonCon=     1 RMS=4.47D-10 Max=3.29D-09 NDo=     1
 LinEq1:  Iter=  6 NonCon=     1 RMS=1.62D-10 Max=1.41D-09 NDo=     1
 LinEq1:  Iter=  7 NonCon=     0 RMS=2.71D-11 Max=1.60D-10 NDo=     1
 Linear equations converged to 3.361D-11 3.361D-10 after     7 iterations.
 Angle between quadratic step and gradient=  56.53 degrees.
     ILin= 1 X=0.000D+00 Y=-1.495967251942D+02 DE= 0.00D+00 F= -4.60D-11
     ILin= 2 X=1.000D+00 Y=-1.495967251943D+02 DE=-2.31D-11
 Iteration   5 EE= -149.596725194253     Delta-E=       -0.000000000023 Grad=2.486D-08 Max rot=    0.0000 deg.
 Rotation gradient small -- convergence achieved.
 SCF Done:  E(UHF) =  -149.596725194     a.u. after    5 cycles
            Convg  =    0.2486D-07                    40 Fock formations.
              S**2 =  1.0147                  -V/T =  2.0003
 <Sx>= 0.0000 <Sy>= 0.0000 <Sz>= 0.0000 <S**2>= 1.0147 S= 0.6246
 <L.S>=  0.00000000000    
 Annihilation of the first spin contaminant:
 S**2 before annihilation     1.0147,   after     0.1180
 Leave Link  508 at Sat Apr  2 12:37:48 2022, MaxMem=   104857600 cpu:               0.1 elap:               0.1
 (Enter /apps/software/g16/l801.exe)
 Range of M.O.s used for correlation:     1    28
 NBasis=    28 NAE=     8 NBE=     8 NFC=     0 NFV=     0
 NROrb=     28 NOA=     8 NOB=     8 NVA=    20 NVB=    20
 Leave Link  801 at Sat Apr  2 12:37:48 2022, MaxMem=   104857600 cpu:               0.0 elap:               0.0
 (Enter /apps/software/g16/l914.exe)
 UHF ground state
 Doing stability rather than CIS.
 Keep R1 and R2 ints in memory in canonical form, NReq=1001317.
 FoFCou: FMM=F IPFlag=           0 FMFlag=           0 FMFlg1=           0
         NFxFlg=           0 DoJE=F BraDBF=F KetDBF=F FulRan=T
         wScrn=  0.000000 ICntrl=       600 IOpCl=  0 I1Cent=           0 NGrid=           0
         NMat0=    1 NMatS0=    406 NMatT0=    0 NMatD0=    1 NMtDS0=    0 NMtDT0=    0
 Symmetry not used in FoFCou.
 Two-electron integral symmetry not used.
 MDV=   104857600 DFT=F DoStab=T Mixed=F DoRPA=F DoScal=F NonHer=F
 Making orbital integer symmetry assigments:
    12 initial guesses have been made.
 Convergence on wavefunction:    0.001000000000000
 Davidson Disk Diagonalization:  ConvIn= 1.00D-03 SkipCon=T Conv= 1.00D-03.
 Max sub-space:   640 roots to seek:    12 dimension of matrix:          320
 Iteration     1 Dimension    12 NMult     0 NNew     12
 CISAX will form    12 AO SS matrices at one time.
 NMat=    12 NSing=    12 JSym2X= 0.
 New state      1 was old state      2
 Excitation Energies [eV] at current iteration:
 Root      1 :     0.668883679865540
 Root      2 :     2.281150036663246
 Root      3 :     3.836760469317515
 Root      4 :     6.749481050188057
 Root      5 :     6.749481050278677
 Root      6 :    10.876324951945973
 Root      7 :    10.876324952150851
 Root      8 :    11.282094222698298
 Root      9 :    12.459414116084590
 Root     10 :    15.270567738153837
 Root     11 :    15.270567738404029
 Root     12 :    15.628285273772773
 Iteration     2 Dimension    24 NMult    12 NNew     12
 CISAX will form    12 AO SS matrices at one time.
 NMat=    12 NSing=    12 JSym2X= 0.
 Root      1 not converged, maximum delta is    0.046245509418184
 Excitation Energies [eV] at current iteration:
 Root      1 :     0.009626681917020   Change is   -0.659256997948520
 Root      2 :     1.885264594630416   Change is   -0.395885442032830
 Root      3 :     3.386059417886071   Change is   -0.450701051431444
 Root      4 :     5.965861666739417   Change is   -0.783619383448640
 Root      5 :     5.965861666868912   Change is   -0.783619383409765
 Root      6 :     7.606450981752047   Change is   -8.021834292020728
 Root      7 :    10.075701605306069   Change is   -0.800623346639905
 Root      8 :    10.075701605486335   Change is   -0.800623346664514
 Root      9 :    10.582935927246639   Change is   -0.699158295451660
 Root     10 :    12.102504390521675   Change is   -0.356909725562915
 Root     11 :    14.231385035329584   Change is   -1.039182702824252
 Root     12 :    14.231385035469442   Change is   -1.039182702934588
 Iteration     3 Dimension    27 NMult    24 NNew      3
 CISAX will form     3 AO SS matrices at one time.
 NMat=     3 NSing=     3 JSym2X= 0.
 Root      1 not converged, maximum delta is    0.008781146655047
 Excitation Energies [eV] at current iteration:
 Root      1 :     0.000077153986671   Change is   -0.009549527930349
 Root      2 :     1.882185492523432   Change is   -0.003079102106984
 Root      3 :     3.344411694207747   Change is   -0.041647723678325
 Iteration     4 Dimension    30 NMult    27 NNew      3
 CISAX will form     3 AO SS matrices at one time.
 NMat=     3 NSing=     3 JSym2X= 0.
 Root      1 has converged.
 Excitation Energies [eV] at current iteration:
 Root      1 :     0.000000585664484   Change is   -0.000076568322186
 Root      2 :     1.882162126508690   Change is   -0.000023366014742
 Root      3 :     3.333810031904853   Change is   -0.010601662302894
 Convergence achieved on expansion vectors.
 ***********************************************************************
 Stability analysis using <AA,BB:AA,BB> singles matrix:
 ***********************************************************************
 1PDM for each excited state written to RWF  633
 Ground to excited state transition densities written to RWF  633

 Eigenvectors of the stability matrix:
 
 Excited state symmetry could not be determined.
 Eigenvector   1:  1.635-?Sym  Eigenvalue= 0.0000000  <S**2>=0.418
      5A ->  9A        0.11440
      8A ->  9A        0.68631
      5B ->  9B       -0.11440
      8B ->  9B       -0.68631
 The wavefunction is stable under the perturbations considered.
 Leave Link  914 at Sat Apr  2 12:37:48 2022, MaxMem=   104857600 cpu:               0.1 elap:               0.1
 (Enter /apps/software/g16/l508.exe)
 The wavefunction is already stable.
 Leave Link  508 at Sat Apr  2 12:37:48 2022, MaxMem=   104857600 cpu:               0.0 elap:               0.0
 (Enter /apps/software/g16/l601.exe)
 Copying SCF densities to generalized density rwf, IOpCl= 1 IROHF=0.

 **********************************************************************

            Population analysis using the SCF density.

 **********************************************************************

 Alpha  occ. eigenvalues --  -20.73159 -20.70436  -1.61805  -1.10503  -0.80167
 Alpha  occ. eigenvalues --   -0.70941  -0.61354  -0.52039
 Alpha virt. eigenvalues --    0.10281   0.41503   1.06412   1.07461   1.15321
 Alpha virt. eigenvalues --    1.17981   1.18363   1.28885   1.34427   1.94832
 Alpha virt. eigenvalues --    2.38436   2.44483   2.70493   2.70741   2.99439
 Alpha virt. eigenvalues --    2.99565   3.06899   3.57791   3.63509   4.19326
  Beta  occ. eigenvalues --  -20.73159 -20.70436  -1.61805  -1.10503  -0.80167
  Beta  occ. eigenvalues --   -0.70941  -0.61354  -0.52039
  Beta virt. eigenvalues --    0.10281   0.41503   1.06412   1.07461   1.15321
  Beta virt. eigenvalues --    1.17981   1.18363   1.28885   1.34427   1.94832
  Beta virt. eigenvalues --    2.38436   2.44483   2.70493   2.70741   2.99439
  Beta virt. eigenvalues --    2.99565   3.06899   3.57791   3.63509   4.19326
          Condensed to atoms (all electrons):
               1          2
     1  O    7.885547   0.114453
     2  O    0.114453   7.885547
          Atomic-Atomic Spin Densities.
               1          2
     1  O    0.696008  -0.000000
     2  O   -0.000000  -0.696008
 Mulliken charges and spin densities:
               1          2
     1  O    0.000000   0.696008
     2  O    0.000000  -0.696008
 Sum of Mulliken charges =   0.00000   0.00000
 Mulliken charges and spin densities with hydrogens summed into heavy atoms:
               1          2
     1  O    0.000000   0.696008
     2  O    0.000000  -0.696008
 Electronic spatial extent (au):  <R**2>=             67.1589
 Charge=              0.0000 electrons
 Dipole moment (field-independent basis, Debye):
    X=             -0.0000    Y=             -0.0000    Z=              0.0000  Tot=              0.0000
 Quadrupole moment (field-independent basis, Debye-Ang):
   XX=             -9.8671   YY=             -9.8671   ZZ=            -10.5568
   XY=             -0.0000   XZ=              0.0000   YZ=             -0.0000
 Traceless Quadrupole moment (field-independent basis, Debye-Ang):
   XX=              0.2299   YY=              0.2299   ZZ=             -0.4598
   XY=             -0.0000   XZ=              0.0000   YZ=             -0.0000
 Octapole moment (field-independent basis, Debye-Ang**2):
  XXX=             -0.0000  YYY=             -0.0000  ZZZ=            -19.7941  XYY=             -0.0000
  XXY=             -0.0000  XXZ=             -5.7264  XZZ=              0.0000  YZZ=              0.0000
  YYZ=             -6.6074  XYZ=             -0.0618
 Hexadecapole moment (field-independent basis, Debye-Ang**3):
 XXXX=             -6.4316 YYYY=             -6.4316 ZZZZ=            -54.0822 XXXY=              0.0000
 XXXZ=             -0.0000 YYYX=             -0.0000 YYYZ=             -0.0000 ZZZX=              0.0000
 ZZZY=              0.0000 XXYY=             -2.1438 XXZZ=             -9.4888 YYZZ=            -10.5900
 XXYZ=             -0.0000 YYXZ=             -0.0000 ZZXY=             -0.0773
 N-N= 2.709387319910D+01 E-N=-4.093309080892D+02  KE= 1.495577982307D+02
                          Isotropic Fermi Contact Couplings
        Atom                 a.u.       MegaHertz       Gauss      10(-4) cm-1
     1  O(17)              0.16028     -48.57999     -17.33455     -16.20454
     2  O(17)             -0.16028      48.57999      17.33455      16.20454
 --------------------------------------------------------
       Center         ----  Spin Dipole Couplings  ----
                      3XX-RR        3YY-RR        3ZZ-RR
 --------------------------------------------------------
     1   Atom       -3.069286      4.144579     -1.075293
     2   Atom       -4.144579      3.069286      1.075293
 --------------------------------------------------------
                        XY            XZ            YZ
 --------------------------------------------------------
     1   Atom        0.506305      0.000000     -0.000000
     2   Atom        0.506305      0.000000      0.000000
 --------------------------------------------------------


 ---------------------------------------------------------------------------------
              Anisotropic Spin Dipole Couplings in Principal Axis System
 ---------------------------------------------------------------------------------

       Atom             a.u.   MegaHertz   Gauss  10(-4) cm-1        Axes

              Baa    -3.1046   224.650    80.161    74.935  0.9976 -0.0697 -0.0000
     1 O(17)  Bbb    -1.0753    77.807    27.764    25.954  0.0000  0.0000  1.0000
              Bcc     4.1799  -302.458  -107.924  -100.889  0.0697  0.9976  0.0000
 
              Baa    -4.1799   302.458   107.924   100.889  0.9976 -0.0697 -0.0000
     2 O(17)  Bbb     1.0753   -77.807   -27.764   -25.954  0.0000  0.0000  1.0000
              Bcc     3.1046  -224.650   -80.161   -74.935  0.0697  0.9976  0.0000
 

 ---------------------------------------------------------------------------------

 No NMR shielding tensors so no spin-rotation constants.
 Leave Link  601 at Sat Apr  2 12:37:48 2022, MaxMem=   104857600 cpu:               0.1 elap:               0.1
 (Enter /apps/software/g16/l9999.exe)
 1\1\GINC-CNODE05\Stability\UHF\CC-pVDZ\O2\ROOT\02-Apr-2022\0\\#p UHF/c
 c-pVDZ nosymm guess=mix stable=opt\\O2 SP\\0,1\O,0,0.,0.,0.\O,0,0.,0.,
 1.25\\Version=ES64L-G16RevA.03\HF=-149.5967252\S2=1.0147\S2-1=0.\S2A=0
 .11802\RMSD=1.390e-09\Dipole=0.,0.,0.\Quadrupole=0.1709411,0.1709411,-
 0.3418822,0.,0.,0.\PG=D*H [C*(O1.O1)]\\@


 THE ONLY TROUBLE WITH A SURE THING IS THE UNCERTAINTY.
     -- FROM A TEABAG (BELONGING TO W.H.?)
 Job cpu time:       0 days  0 hours  0 minutes  1.4 seconds.
 Elapsed time:       0 days  0 hours  0 minutes  1.3 seconds.
 File lengths (MBytes):  RWF=      8 Int=      0 D2E=      0 Chk=      2 Scr=      1
 Normal termination of Gaussian 16 at Sat Apr  2 12:37:48 2022.

Sender: Unischeduler System <lcz@mgt01>
Subject: Job 113621: <#!/bin/bash
#BSUB -J intel
#BSUB -o O2.out
#BSUB -n 8
#BSUB -q cqueue
#BSUB -R span[hosts=1]
export g16root=/apps/software
source /apps/software/g16/bsd/g16.profile
export GAUSS_SCRDIR=/scratch
/apps/software/g16/g16 < O2.gjf > O2.out> Done

Job <#!/bin/bash
#BSUB -J intel
#BSUB -o O2.out
#BSUB -n 8
#BSUB -q cqueue
#BSUB -R span[hosts=1]
export g16root=/apps/software
source /apps/software/g16/bsd/g16.profile
export GAUSS_SCRDIR=/scratch
/apps/software/g16/g16 < O2.gjf > O2.out> was submitted from host <mgt01> by user <lcz>.
Job was executed on host(s) <8*cnode05>, in queue <cqueue>, as user <lcz>.
</apps/users/lcz> was used as the home directory.
</apps/users/lcz/exe4/task4/O2/singlet> was used as the working directory.
Started at 2022-04-02 12:37:47
Results reported at 2022-04-02 12:37:48

Your job looked like:

------------------------------------------------------------
# User input
#!/bin/bash
#BSUB -J intel
#BSUB -o O2.out
#BSUB -n 8
#BSUB -q cqueue
#BSUB -R span[hosts=1]
export g16root=/apps/software
source /apps/software/g16/bsd/g16.profile
export GAUSS_SCRDIR=/scratch
/apps/software/g16/g16 < O2.gjf > O2.out
------------------------------------------------------------

Successfully completed.

Resource usage summary:

    CPU time   :            0.02 sec.
    Max Memory :                 7 MB
    Max Processes  :               2


The output (if any) follows:

