[Molden Format]
[N_ATOMS]
           21
[Atoms]  AU
C     1    6      -6.980248        2.543477       -0.151467
C     2    6      -4.145084        2.596083       -0.107359
H     3    1      -7.985053        2.230043       -1.909255
H     4    1      -8.041170        2.313115        1.586049
C     5    6      -2.937421       -0.044221       -0.030425
H     6    1      -3.448612        3.601264       -1.776059
H     7    1      -3.501307        3.673667        1.537018
C     8    6      -0.051128        0.027401        0.013833
H     9    1      -3.628110       -1.056761        1.637654
H    10    1      -3.578170       -1.130521       -1.671869
H    11    1       0.632580        1.042660       -1.657885
H    12    1       0.576452        1.123435        1.652263
C    13    6       1.151418       -2.597455        0.084885
H    14    1       0.496437       -3.687553       -1.547788
H    15    1       0.489964       -3.613270        1.763498
C    16    6       4.058792       -2.579021        0.070978
H    17    1       4.711369       -4.534967       -0.108775
H    18    1       4.721171       -1.586920       -1.617770
C    19    6       5.237459       -1.421136        2.378708
H    20    1       5.933844        0.503223        2.375775
H    21    1       5.079117       -2.364539        4.191600
[5D7F9G]
[GTO]
    1
    s    5
   0.123840169E+04   0.551736504E-02
   0.186290050E+03   0.410888285E-01
   0.422511764E+02   0.182253821E+00
   0.116765579E+02   0.468284594E+00
   0.359305065E+01   0.445758173E+00
    s    1
   0.402451470E+00   0.100000000E+01
    s    1
   0.130901830E+00   0.100000000E+01
    p    3
   0.946809706E+01   0.568883319E-01
   0.201035451E+01   0.312940593E+00
   0.547710050E+00   0.760650164E+00
    p    1
   0.152686140E+00   0.100000000E+01
    d    1
   0.800000000E+00   0.100000000E+01
 
    2
    s    5
   0.123840169E+04   0.551736504E-02
   0.186290050E+03   0.410888285E-01
   0.422511764E+02   0.182253821E+00
   0.116765579E+02   0.468284594E+00
   0.359305065E+01   0.445758173E+00
    s    1
   0.402451470E+00   0.100000000E+01
    s    1
   0.130901830E+00   0.100000000E+01
    p    3
   0.946809706E+01   0.568883319E-01
   0.201035451E+01   0.312940593E+00
   0.547710050E+00   0.760650164E+00
    p    1
   0.152686140E+00   0.100000000E+01
    d    1
   0.800000000E+00   0.100000000E+01
 
    3
    s    3
   0.130107010E+02   0.334854848E-01
   0.196225720E+01   0.234721871E+00
   0.444537960E+00   0.813770285E+00
    s    1
   0.121949620E+00   0.100000000E+01
    p    1
   0.800000000E+00   0.100000000E+01
 
    4
    s    3
   0.130107010E+02   0.334854848E-01
   0.196225720E+01   0.234721871E+00
   0.444537960E+00   0.813770285E+00
    s    1
   0.121949620E+00   0.100000000E+01
    p    1
   0.800000000E+00   0.100000000E+01
 
    5
    s    5
   0.123840169E+04   0.551736504E-02
   0.186290050E+03   0.410888285E-01
   0.422511764E+02   0.182253821E+00
   0.116765579E+02   0.468284594E+00
   0.359305065E+01   0.445758173E+00
    s    1
   0.402451470E+00   0.100000000E+01
    s    1
   0.130901830E+00   0.100000000E+01
    p    3
   0.946809706E+01   0.568883319E-01
   0.201035451E+01   0.312940593E+00
   0.547710050E+00   0.760650164E+00
    p    1
   0.152686140E+00   0.100000000E+01
    d    1
   0.800000000E+00   0.100000000E+01
 
    6
    s    3
   0.130107010E+02   0.334854848E-01
   0.196225720E+01   0.234721871E+00
   0.444537960E+00   0.813770285E+00
    s    1
   0.121949620E+00   0.100000000E+01
    p    1
   0.800000000E+00   0.100000000E+01
 
    7
    s    3
   0.130107010E+02   0.334854848E-01
   0.196225720E+01   0.234721871E+00
   0.444537960E+00   0.813770285E+00
    s    1
   0.121949620E+00   0.100000000E+01
    p    1
   0.800000000E+00   0.100000000E+01
 
    8
    s    5
   0.123840169E+04   0.551736504E-02
   0.186290050E+03   0.410888285E-01
   0.422511764E+02   0.182253821E+00
   0.116765579E+02   0.468284594E+00
   0.359305065E+01   0.445758173E+00
    s    1
   0.402451470E+00   0.100000000E+01
    s    1
   0.130901830E+00   0.100000000E+01
    p    3
   0.946809706E+01   0.568883319E-01
   0.201035451E+01   0.312940593E+00
   0.547710050E+00   0.760650164E+00
    p    1
   0.152686140E+00   0.100000000E+01
    d    1
   0.800000000E+00   0.100000000E+01
 
    9
    s    3
   0.130107010E+02   0.334854848E-01
   0.196225720E+01   0.234721871E+00
   0.444537960E+00   0.813770285E+00
    s    1
   0.121949620E+00   0.100000000E+01
    p    1
   0.800000000E+00   0.100000000E+01
 
   10
    s    3
   0.130107010E+02   0.334854848E-01
   0.196225720E+01   0.234721871E+00
   0.444537960E+00   0.813770285E+00
    s    1
   0.121949620E+00   0.100000000E+01
    p    1
   0.800000000E+00   0.100000000E+01
 
   11
    s    3
   0.130107010E+02   0.334854848E-01
   0.196225720E+01   0.234721871E+00
   0.444537960E+00   0.813770285E+00
    s    1
   0.121949620E+00   0.100000000E+01
    p    1
   0.800000000E+00   0.100000000E+01
 
   12
    s    3
   0.130107010E+02   0.334854848E-01
   0.196225720E+01   0.234721871E+00
   0.444537960E+00   0.813770285E+00
    s    1
   0.121949620E+00   0.100000000E+01
    p    1
   0.800000000E+00   0.100000000E+01
 
   13
    s    5
   0.123840169E+04   0.551736504E-02
   0.186290050E+03   0.410888285E-01
   0.422511764E+02   0.182253821E+00
   0.116765579E+02   0.468284594E+00
   0.359305065E+01   0.445758173E+00
    s    1
   0.402451470E+00   0.100000000E+01
    s    1
   0.130901830E+00   0.100000000E+01
    p    3
   0.946809706E+01   0.568883319E-01
   0.201035451E+01   0.312940593E+00
   0.547710050E+00   0.760650164E+00
    p    1
   0.152686140E+00   0.100000000E+01
    d    1
   0.800000000E+00   0.100000000E+01
 
   14
    s    3
   0.130107010E+02   0.334854848E-01
   0.196225720E+01   0.234721871E+00
   0.444537960E+00   0.813770285E+00
    s    1
   0.121949620E+00   0.100000000E+01
    p    1
   0.800000000E+00   0.100000000E+01
 
   15
    s    3
   0.130107010E+02   0.334854848E-01
   0.196225720E+01   0.234721871E+00
   0.444537960E+00   0.813770285E+00
    s    1
   0.121949620E+00   0.100000000E+01
    p    1
   0.800000000E+00   0.100000000E+01
 
   16
    s    5
   0.123840169E+04   0.551736504E-02
   0.186290050E+03   0.410888285E-01
   0.422511764E+02   0.182253821E+00
   0.116765579E+02   0.468284594E+00
   0.359305065E+01   0.445758173E+00
    s    1
   0.402451470E+00   0.100000000E+01
    s    1
   0.130901830E+00   0.100000000E+01
    p    3
   0.946809706E+01   0.568883319E-01
   0.201035451E+01   0.312940593E+00
   0.547710050E+00   0.760650164E+00
    p    1
   0.152686140E+00   0.100000000E+01
    d    1
   0.800000000E+00   0.100000000E+01
 
   17
    s    3
   0.130107010E+02   0.334854848E-01
   0.196225720E+01   0.234721871E+00
   0.444537960E+00   0.813770285E+00
    s    1
   0.121949620E+00   0.100000000E+01
    p    1
   0.800000000E+00   0.100000000E+01
 
   18
    s    3
   0.130107010E+02   0.334854848E-01
   0.196225720E+01   0.234721871E+00
   0.444537960E+00   0.813770285E+00
    s    1
   0.121949620E+00   0.100000000E+01
    p    1
   0.800000000E+00   0.100000000E+01
 
   19
    s    5
   0.123840169E+04   0.551736504E-02
   0.186290050E+03   0.410888285E-01
   0.422511764E+02   0.182253821E+00
   0.116765579E+02   0.468284594E+00
   0.359305065E+01   0.445758173E+00
    s    1
   0.402451470E+00   0.100000000E+01
    s    1
   0.130901830E+00   0.100000000E+01
    p    3
   0.946809706E+01   0.568883319E-01
   0.201035451E+01   0.312940593E+00
   0.547710050E+00   0.760650164E+00
    p    1
   0.152686140E+00   0.100000000E+01
    d    1
   0.800000000E+00   0.100000000E+01
 
   20
    s    3
   0.130107010E+02   0.334854848E-01
   0.196225720E+01   0.234721871E+00
   0.444537960E+00   0.813770285E+00
    s    1
   0.121949620E+00   0.100000000E+01
    p    1
   0.800000000E+00   0.100000000E+01
 
   21
    s    3
   0.130107010E+02   0.334854848E-01
   0.196225720E+01   0.234721871E+00
   0.444537960E+00   0.813770285E+00
    s    1
   0.121949620E+00   0.100000000E+01
    p    1
   0.800000000E+00   0.100000000E+01
 
[MO]
 Sym= A   
 Ene=       -11.225569
 Spin= Alpha
 Occup=       0.000000
   1        0.000137986
   2       -0.001811484
   3       -0.003610952
   4       -0.000791293
   5        0.000869986
   6        0.000035392
   7       -0.003547891
   8        0.009739030
   9        0.025146558
  10       -0.001240563
  11        0.000867632
  12        0.000380640
  13       -0.000678681
  14        0.001534587
  15       -0.000023414
  16       -0.015960797
  17        0.300197078
  18        0.002420462
  19       -0.002468296
  20        0.001288125
  21        0.090659460
  22       -0.117343793
  23       -0.050239361
  24       -0.001752614
  25       -0.001875699
  26        0.000664993
  27       -0.002121901
  28       -0.005746155
  29        0.004729450
  30        0.005098899
  31       -0.000545815
  32       -0.000266390
  33        0.000811413
  34       -0.002158006
  35       -0.015776352
  36       -0.001487674
  37       -0.001000322
  38       -0.000328528
  39       -0.001038314
  40        0.036660812
  41       -0.603777642
  42       -0.010604286
  43        0.016113942
  44       -0.005540538
  45       -0.066764351
  46       -0.173133575
  47        0.093867046
  48        0.002055277
  49        0.000070357
  50       -0.000902016
  51       -0.001572136
  52        0.003307723
  53       -0.020315565
  54       -0.036253391
  55       -0.001074889
  56        0.000796898
  57       -0.001942677
  58       -0.005263467
  59        0.011716800
  60       -0.003582073
  61       -0.001354843
  62        0.000440038
  63        0.001727442
  64       -0.094351277
  65        1.087200142
  66        0.017633158
  67        0.008781343
  68        0.008965469
  69       -0.044284229
  70       -0.270362539
  71       -0.077820014
  72       -0.003333159
  73       -0.000583365
  74       -0.000560184
  75       -0.008040836
  76       -0.004515442
  77       -0.014697721
  78        0.024252267
  79       -0.004475619
  80        0.005767897
  81        0.000072948
  82        0.015307674
  83        0.075287839
  84       -0.002766932
  85        0.011893319
  86       -0.003721281
  87       -0.052326259
  88       -0.097753397
  89        0.008785582
  90        0.010843875
  91        0.001147070
  92       -0.011524813
  93       -0.105840033
  94        0.002764354
  95        0.014214066
  96        0.006410949
  97       -0.056328640
  98        0.042447900
  99       -0.174984283
 100       -0.023438481
 101        0.046601635
 102       -0.015358017
 103        0.432277031
 104       -0.493161043
 105        0.098533871
 106        0.004801211
 107        0.003083337
 108        0.005536230
 109        0.019459274
 110        0.015099455
 111       -0.006849844
 112       -0.066046752
 113       -0.027978876
 114        0.023037929
 115       -0.021923596
 116       -0.005208688
 117       -0.096241122
 118       -0.033551016
 119        0.030117220
 120        0.006125264
 121       -0.987705053
 122        0.025508521
 123       -0.710275894
 124       -0.014296248
 125        0.009639258
 126        0.010524789
 127        0.119398357
 128        0.044160905
 129       -0.169800728
 130        0.003990487
 131       -0.000275224
 132       -0.005499570
 133        0.006595735
 134        0.003550781
 135        0.055050924
 136        0.045839282
 137        0.034992868
 138        0.050828452
 139        0.025701168
 140        0.013377381
 141        0.026804074
 142       -0.030959164
 143       -0.026451927
 144       -0.007777802
 145       -0.063570912
 146       -0.037303518
 147        0.336285870
 148        0.026105644
 149       -0.013667234
 150        0.016790910
 151       -0.189319580
 152       -0.043623512
 153       -0.199748484
 154        0.003166821
 155        0.017194326
 156        0.006050901
 157       -0.003226296
 158        0.019357889
 159       -0.012052365
 160       -0.037220731
 161        0.014927215
 162       -0.000236781
 163        0.019084248
 164       -0.007711241
 165        0.058954172
 166        0.022294771
 167        0.003689758
 168        0.002212449
 Sym= A   
 Ene=       -11.224484
 Spin= Alpha
 Occup=       0.000000
   1       -0.076140400
   2       -0.058952828
   3        0.474366122
   4       -0.017351499
   5        0.025808983
   6       -0.013127682
   7        0.272337984
   8       -0.125996096
   9        0.127521753
  10        0.001297025
  11        0.004977011
  12        0.003553493
  13        0.031208257
  14       -0.009968844
  15       -0.987366235
  16        0.056742692
  17       -1.100033757
  18        0.002643572
  19       -0.006988508
  20        0.009473238
  21       -0.026396098
  22        0.270100244
  23       -0.175162261
  24        0.000040125
  25       -0.003893447
  26       -0.007117870
  27       -0.003137001
  28        0.015735519
  29       -0.001761484
  30        0.013522283
  31       -0.019408213
  32        0.018488735
  33       -0.002687468
  34       -0.031652585
  35       -0.071823110
  36       -0.025187851
  37        0.016985809
  38       -0.006853541
  39       -0.054423419
  40       -0.066681143
  41        0.995734526
  42       -0.036839654
  43       -0.054200190
  44       -0.021966099
  45        0.313884156
  46        0.571202598
  47        0.226876720
  48       -0.016484795
  49       -0.004670829
  50       -0.006945776
  51       -0.002565042
  52       -0.024552856
  53        0.013964693
  54        0.024882066
  55       -0.008744094
  56       -0.016116120
  57       -0.001262842
  58        0.069876516
  59        0.110132327
  60       -0.041489332
  61        0.002545610
  62       -0.018077228
  63       -0.003592720
  64        0.086528583
  65       -1.171284334
  66        0.004970743
  67       -0.007100509
  68        0.011976773
  69        0.204803697
  70        0.105653504
  71       -0.215034063
  72        0.004046573
  73       -0.000256950
  74       -0.004859254
  75       -0.000657235
  76        0.020113674
  77       -0.010524443
  78       -0.044361407
  79       -0.019659868
  80       -0.038366947
  81       -0.031636418
  82        0.064780224
  83        0.135763152
  84       -0.015812705
  85       -0.022416896
  86        0.025089890
  87        0.002412015
  88        0.009756165
  89        0.006847727
  90        0.007557637
  91        0.003813015
  92        0.070078583
  93        0.153927518
  94        0.004888296
  95       -0.010550855
  96       -0.000732703
  97        0.002653573
  98       -0.074714329
  99        0.557073542
 100        0.006218226
 101       -0.010229992
 102       -0.003938747
 103       -0.193131392
 104        0.223327920
 105        0.096129835
 106       -0.004711768
 107       -0.005244830
 108        0.002569919
 109       -0.001688069
 110       -0.012763323
 111       -0.004546731
 112       -0.018364732
 113        0.012945795
 114       -0.006006055
 115       -0.001110935
 116       -0.043254890
 117       -0.073516233
 118        0.006546956
 119       -0.007362771
 120       -0.000543142
 121       -0.000187101
 122        0.008545842
 123       -0.070667548
 124        0.001736436
 125        0.006803758
 126       -0.001519756
 127       -0.009480986
 128       -0.074204841
 129       -0.030707966
 130        0.001038369
 131        0.002813894
 132       -0.000101882
 133       -0.000043376
 134        0.004483453
 135       -0.005478913
 136        0.009176798
 137       -0.006267503
 138        0.007280169
 139        0.003898689
 140        0.006996499
 141        0.001464131
 142        0.001906331
 143        0.005100282
 144        0.000402118
 145       -0.000511573
 146        0.012557169
 147        0.019677462
 148       -0.000494345
 149       -0.005572496
 150        0.001290149
 151        0.007343527
 152        0.045407329
 153       -0.060851492
 154       -0.001492639
 155        0.001616349
 156        0.001500074
 157       -0.001050456
 158        0.000145625
 159       -0.009617140
 160       -0.031222274
 161       -0.000142851
 162        0.001157930
 163        0.002963240
 164        0.016047968
 165        0.038392656
 166        0.000235285
 167       -0.001206411
 168       -0.003674203
 Sym= A   
 Ene=       -11.220911
 Spin= Alpha
 Occup=       0.000000
   1        0.001671751
   2       -0.000027620
   3        0.005837643
   4        0.000114339
   5        0.000011928
   6       -0.000201869
   7        0.002597800
   8       -0.008573379
   9       -0.001714569
  10        0.000198587
  11       -0.000370520
  12       -0.000279982
  13        0.000430932
  14       -0.001633145
  15       -0.001178644
  16        0.010006351
  17       -0.059589982
  18        0.000392564
  19       -0.001338357
  20       -0.000019012
  21       -0.019093623
  22        0.023980826
  23        0.011201486
  24        0.001030776
  25        0.000345298
  26       -0.001607756
  27        0.000191981
  28        0.002298718
  29       -0.000933237
  30        0.000201355
  31        0.000035984
  32        0.000874455
  33       -0.000207236
  34       -0.000392901
  35       -0.000795231
  36       -0.000477428
  37        0.000944680
  38        0.000316403
  39        0.003363687
  40       -0.010484685
  41        0.227492825
  42        0.003695869
  43        0.002460932
  44        0.000695696
  45        0.068656299
  46       -0.019802514
  47       -0.045093113
  48       -0.001149343
  49       -0.001766294
  50        0.000484389
  51        0.001571757
  52       -0.004397169
  53        0.002453254
  54        0.009929600
  55        0.001082645
  56       -0.000729821
  57       -0.000823215
  58        0.000127171
  59        0.004249489
  60        0.001679612
  61       -0.001137838
  62        0.000222540
  63        0.023981214
  64       -0.024776118
  65       -0.163944692
  66       -0.020231358
  67       -0.005788743
  68       -0.004623720
  69        0.125997114
  70        0.128179528
  71        0.096665512
  72        0.002057252
  73        0.003408708
  74       -0.000807986
  75       -0.001870959
  76        0.006729902
  77       -0.004613690
  78        0.006013399
  79        0.001843569
  80        0.003873398
  81        0.000925048
  82       -0.014989671
  83       -0.033800024
  84        0.001298442
  85        0.000218957
  86       -0.001408759
  87       -0.005060383
  88       -0.000613552
  89       -0.012599021
  90       -0.004996782
  91       -0.007988320
  92       -0.032401920
  93       -0.070067447
  94       -0.007201089
  95       -0.000205186
  96        0.006522611
  97        0.228521425
  98       -0.056542013
  99        0.670110449
 100        0.001286532
 101       -0.001980163
 102        0.009429416
 103        0.186017045
 104        0.070710319
 105       -0.159812249
 106       -0.001710651
 107       -0.003151211
 108        0.002905481
 109        0.005335164
 110        0.001368684
 111       -0.050039623
 112       -0.083521463
 113       -0.006499429
 114       -0.011494703
 115        0.003420715
 116        0.002719717
 117       -0.009891767
 118       -0.012183861
 119       -0.001823749
 120        0.003014576
 121        0.048638497
 122        0.043207123
 123       -0.269120602
 124       -0.045392644
 125        0.038272278
 126       -0.026092112
 127        0.475869646
 128       -0.225082688
 129        0.278073465
 130        0.008421405
 131        0.012810798
 132        0.013412681
 133       -0.013905635
 134        0.002101540
 135       -0.044523971
 136       -0.175837679
 137       -0.023996439
 138       -0.010482546
 139       -0.029215817
 140        0.056224185
 141        0.138539620
 142       -0.042996319
 143        0.018443940
 144       -0.002680253
 145       -0.959853041
 146       -0.043534424
 147       -0.187831385
 148       -0.007080011
 149       -0.022980954
 150       -0.001396843
 151       -0.017934075
 152        0.110093011
 153        0.048254084
 154       -0.000065928
 155        0.008297191
 156       -0.010868031
 157        0.026292158
 158       -0.007093667
 159        0.016153530
 160        0.012013229
 161       -0.051052906
 162       -0.047413926
 163       -0.030021060
 164        0.019772328
 165        0.027177165
 166        0.012581529
 167        0.025479920
 168       -0.002634941
 Sym= A   
 Ene=       -11.220794
 Spin= Alpha
 Occup=       0.000000
   1       -0.019895383
   2        0.005340041
   3        0.034792404
   4        0.002029128
   5       -0.001212867
   6        0.001311808
   7        0.026511145
   8       -0.030643185
   9       -0.058856336
  10        0.001942399
  11       -0.001014582
  12       -0.000662927
  13        0.003234573
  14       -0.006051493
  15       -0.002886086
  16        0.069857170
  17       -0.578804056
  18        0.002412654
  19       -0.007766972
  20       -0.004462616
  21       -0.159121430
  22        0.202822219
  23        0.097780767
  24        0.004877116
  25        0.003482169
  26       -0.002518064
  27        0.001846933
  28        0.012445019
  29       -0.011773324
  30       -0.014504650
  31       -0.000420594
  32        0.001490024
  33       -0.000692989
  34        0.008840277
  35        0.026930477
  36        0.000917404
  37        0.003288322
  38        0.000448592
  39        0.025516891
  40       -0.084678653
  41        1.102819329
  42        0.007675432
  43       -0.010883744
  44        0.010726227
  45        0.171573389
  46        0.125112031
  47       -0.196438207
  48       -0.003891433
  49        0.000395955
  50        0.004049069
  51        0.000165704
  52       -0.019689368
  53        0.042427448
  54        0.080974457
  55        0.004839527
  56       -0.006398305
  57       -0.000420735
  58        0.003726960
  59        0.029622789
  60        0.010692119
  61       -0.005419296
  62       -0.002678260
  63        0.085356982
  64        0.042538893
  65       -0.782101176
  66       -0.036658302
  67       -0.048727538
  68       -0.019390255
  69        0.349824465
  70        0.517304438
  71        0.209529799
  72        0.015103330
  73        0.004714897
  74        0.007719453
  75        0.003797698
  76        0.022369933
  77       -0.003927897
  78       -0.005297797
  79        0.007539286
  80        0.004397142
  81        0.002095874
  82       -0.063537873
  83       -0.141833912
  84        0.005577342
  85       -0.011523218
  86       -0.000217861
  87        0.002152479
  88        0.004995884
  89       -0.019767283
  90       -0.034217981
  91       -0.031607979
  92       -0.062444869
  93       -0.186649965
  94       -0.018588975
  95       -0.015688470
  96        0.029124902
  97        0.958181761
  98       -0.025160867
  99        0.802508010
 100        0.006589415
 101       -0.002921519
 102        0.006772426
 103       -0.082751091
 104        0.253750766
 105       -0.142501298
 106        0.002058934
 107        0.001484998
 108        0.005406686
 109        0.003885388
 110       -0.007768140
 111       -0.054365794
 112       -0.072365262
 113       -0.039699852
 114        0.003181663
 115       -0.016678201
 116       -0.010436787
 117       -0.008600316
 118       -0.008887038
 119       -0.017907545
 120       -0.001168519
 121       -0.069634252
 122        0.068460744
 123       -0.365784587
 124       -0.017843819
 125        0.047997401
 126       -0.013200027
 127        0.198775027
 128       -0.362358208
 129        0.118652089
 130       -0.003863516
 131       -0.009576800
 132       -0.000648669
 133       -0.025341030
 134       -0.007960662
 135       -0.049614715
 136       -0.129214103
 137       -0.005938294
 138        0.002142586
 139       -0.010607590
 140        0.062370199
 141        0.138744432
 142       -0.020117428
 143        0.025065915
 144        0.003144628
 145        0.220758511
 146        0.031831863
 147        0.083524730
 148       -0.006002611
 149       -0.005156147
 150        0.000778183
 151       -0.021239859
 152        0.140641381
 153       -0.098628113
 154        0.007604665
 155        0.010586416
 156       -0.007475593
 157        0.003392057
 158        0.003281983
 159       -0.032963133
 160       -0.065428759
 161        0.013872137
 162        0.007098079
 163        0.006051281
 164        0.013525575
 165        0.062497232
 166        0.001032238
 167       -0.018425628
 168        0.001298723
 Sym= A   
 Ene=       -11.220633
 Spin= Alpha
 Occup=       0.000000
   1        0.986343059
   2        0.019000741
   3        0.271745274
   4       -0.003827250
   5       -0.003699902
   6       -0.007871254
   7        0.104477384
   8        0.060102347
   9       -0.052109734
  10        0.010466770
  11        0.002277608
  12        0.009236311
  13        0.002638696
  14        0.017269460
  15       -0.074002192
  16       -0.033668813
  17        0.241091957
  18       -0.025635598
  19        0.039850282
  20       -0.019714533
  21        0.366811196
  22       -0.452831992
  23        0.139509325
  24       -0.008190109
  25       -0.003079765
  26       -0.006032967
  27       -0.026781499
  28       -0.009665457
  29       -0.028353435
  30       -0.060279271
  31       -0.049622507
  32        0.020804742
  33       -0.024075998
  34       -0.002727338
  35       -0.016103366
  36       -0.020623643
  37       -0.007607307
  38       -0.002137497
  39       -0.038929962
  40        0.094732079
  41       -1.002598752
  42        0.006209060
  43        0.007000649
  44        0.004332099
  45        0.020916020
  46       -0.237041271
  47       -0.084033607
  48        0.000400436
  49        0.003016359
  50       -0.001564229
  51        0.009787591
  52        0.002880215
  53        0.014787920
  54        0.098507751
  55       -0.036838228
  56        0.024366972
  57        0.003670862
  58       -0.005609871
  59        0.039538480
  60       -0.028438762
  61        0.026043319
  62       -0.024159426
  63        0.000975283
  64       -0.037274628
  65        0.503855990
  66       -0.005358071
  67        0.011784691
  68       -0.002718853
  69       -0.059353176
  70       -0.134220268
  71        0.064813505
  72       -0.001054211
  73       -0.000962592
  74       -0.000026151
  75        0.002400126
  76       -0.000497907
  77        0.058519957
  78        0.118466037
  79        0.003740118
  80        0.010387056
  81       -0.006007522
  82        0.028607940
  83        0.059865911
  84        0.001867837
  85        0.008562929
  86        0.007977813
  87        0.008793248
  88       -0.033576194
  89       -0.001607401
  90        0.004371810
  91       -0.000583743
  92       -0.009595018
  93       -0.066139523
  94       -0.001075817
  95        0.007597774
  96       -0.001924915
  97        0.018930781
  98        0.013270825
  99       -0.229078125
 100        0.002872045
 101       -0.001337623
 102        0.000579577
 103        0.077316667
 104       -0.094959749
 105       -0.027695373
 106        0.001342368
 107        0.001006348
 108       -0.000364637
 109        0.001051771
 110        0.004630480
 111        0.002505414
 112        0.002136504
 113       -0.003641241
 114       -0.000090368
 115        0.000121897
 116        0.014203586
 117        0.018677461
 118       -0.001510956
 119       -0.000405970
 120       -0.001261314
 121       -0.001778398
 122       -0.001000732
 123        0.011611376
 124       -0.001543700
 125       -0.000959051
 126       -0.000026722
 127        0.013890104
 128        0.004603032
 129        0.014485144
 130       -0.001476196
 131       -0.000903131
 132        0.000428309
 133       -0.001862589
 134       -0.001404344
 135       -0.002154073
 136       -0.013984418
 137        0.002642799
 138       -0.003701520
 139       -0.001948001
 140       -0.001339583
 141        0.013777056
 142       -0.003092233
 143       -0.000688661
 144        0.001229110
 145        0.006232795
 146       -0.003298997
 147       -0.004160852
 148       -0.000056617
 149        0.002008306
 150       -0.000708350
 151       -0.006931229
 152       -0.014693058
 153        0.018939081
 154        0.001041244
 155        0.000113964
 156       -0.001246752
 157        0.000939419
 158       -0.000083070
 159        0.001413375
 160        0.016804874
 161        0.000164564
 162       -0.001246312
 163       -0.000953052
 164       -0.005663216
 165       -0.014278556
 166        0.000196940
 167       -0.000158480
 168        0.001891827
 Sym= A   
 Ene=       -11.220011
 Spin= Alpha
 Occup=       0.000000
   1       -0.028854183
   2       -0.015415220
   3       -0.487901274
   4       -0.012058205
   5        0.005508393
   6       -0.003508964
   7       -0.213790664
   8        0.049749026
   9        0.147177535
  10       -0.008980930
  11       -0.002750236
  12       -0.002664556
  13       -0.010915248
  14        0.013593862
  15        0.057404435
  16        0.003021726
  17        0.519498250
  18        0.056962930
  19        0.033426051
  20        0.020883560
  21       -0.412453747
  22       -0.401126655
  23       -0.200949309
  24       -0.009822325
  25       -0.005439355
  26       -0.005455778
  27       -0.005527460
  28       -0.016675095
  29        0.042955843
  30        0.083409466
  31        0.010337656
  32        0.001731024
  33        0.006770072
  34       -0.010641858
  35       -0.056515261
  36        0.000153365
  37       -0.006955569
  38        0.000700109
  39       -0.980654560
  40        0.004119495
  41       -0.666471430
  42       -0.016157388
  43        0.020523830
  44       -0.008212154
  45        0.033047525
  46       -0.276362903
  47        0.141278712
  48       -0.002119781
  49       -0.000823713
  50       -0.004577137
  51       -0.002689903
  52        0.003693891
  53        0.005710387
  54        0.014905765