[Molden Format]
[N_ATOMS]
           21
[Atoms]  AU
C     1    6      -6.980248        2.543477       -0.151467
C     2    6      -4.145084        2.596083       -0.107359
H     3    1      -7.985053        2.230043       -1.909255
H     4    1      -8.041170        2.313115        1.586049
C     5    6      -2.937421       -0.044221       -0.030425
H     6    1      -3.448612        3.601264       -1.776059
H     7    1      -3.501307        3.673667        1.537018
C     8    6      -0.051128        0.027401        0.013833
H     9    1      -3.628110       -1.056761        1.637654
H    10    1      -3.578170       -1.130521       -1.671869
H    11    1       0.632580        1.042660       -1.657885
H    12    1       0.576452        1.123435        1.652263
C    13    6       1.151418       -2.597455        0.084885
H    14    1       0.496437       -3.687553       -1.547788
H    15    1       0.489964       -3.613270        1.763498
C    16    6       4.058792       -2.579021        0.070978
H    17    1       4.711369       -4.534967       -0.108775
H    18    1       4.721171       -1.586920       -1.617770
C    19    6       5.237459       -1.421136        2.378708
H    20    1       5.933844        0.503223        2.375775
H    21    1       5.079117       -2.364539        4.191600
[5D7F9G]
[GTO]
    1
    s    5
   0.123840169E+04   0.551736504E-02
   0.186290050E+03   0.410888285E-01
   0.422511764E+02   0.182253821E+00
   0.116765579E+02   0.468284594E+00
   0.359305065E+01   0.445758173E+00
    s    1
   0.402451470E+00   0.100000000E+01
    s    1
   0.130901830E+00   0.100000000E+01
    p    3
   0.946809706E+01   0.568883319E-01
   0.201035451E+01   0.312940593E+00
   0.547710050E+00   0.760650164E+00
    p    1
   0.152686140E+00   0.100000000E+01
    d    1
   0.800000000E+00   0.100000000E+01
 
    2
    s    5
   0.123840169E+04   0.551736504E-02
   0.186290050E+03   0.410888285E-01
   0.422511764E+02   0.182253821E+00
   0.116765579E+02   0.468284594E+00
   0.359305065E+01   0.445758173E+00
    s    1
   0.402451470E+00   0.100000000E+01
    s    1
   0.130901830E+00   0.100000000E+01
    p    3
   0.946809706E+01   0.568883319E-01
   0.201035451E+01   0.312940593E+00
   0.547710050E+00   0.760650164E+00
    p    1
   0.152686140E+00   0.100000000E+01
    d    1
   0.800000000E+00   0.100000000E+01
 
    3
    s    3
   0.130107010E+02   0.334854848E-01
   0.196225720E+01   0.234721871E+00
   0.444537960E+00   0.813770285E+00
    s    1
   0.121949620E+00   0.100000000E+01
    p    1
   0.800000000E+00   0.100000000E+01
 
    4
    s    3
   0.130107010E+02   0.334854848E-01
   0.196225720E+01   0.234721871E+00
   0.444537960E+00   0.813770285E+00
    s    1
   0.121949620E+00   0.100000000E+01
    p    1
   0.800000000E+00   0.100000000E+01
 
    5
    s    5
   0.123840169E+04   0.551736504E-02
   0.186290050E+03   0.410888285E-01
   0.422511764E+02   0.182253821E+00
   0.116765579E+02   0.468284594E+00
   0.359305065E+01   0.445758173E+00
    s    1
   0.402451470E+00   0.100000000E+01
    s    1
   0.130901830E+00   0.100000000E+01
    p    3
   0.946809706E+01   0.568883319E-01
   0.201035451E+01   0.312940593E+00
   0.547710050E+00   0.760650164E+00
    p    1
   0.152686140E+00   0.100000000E+01
    d    1
   0.800000000E+00   0.100000000E+01
 
    6
    s    3
   0.130107010E+02   0.334854848E-01
   0.196225720E+01   0.234721871E+00
   0.444537960E+00   0.813770285E+00
    s    1
   0.121949620E+00   0.100000000E+01
    p    1
   0.800000000E+00   0.100000000E+01
 
    7
    s    3
   0.130107010E+02   0.334854848E-01
   0.196225720E+01   0.234721871E+00
   0.444537960E+00   0.813770285E+00
    s    1
   0.121949620E+00   0.100000000E+01
    p    1
   0.800000000E+00   0.100000000E+01
 
    8
    s    5
   0.123840169E+04   0.551736504E-02
   0.186290050E+03   0.410888285E-01
   0.422511764E+02   0.182253821E+00
   0.116765579E+02   0.468284594E+00
   0.359305065E+01   0.445758173E+00
    s    1
   0.402451470E+00   0.100000000E+01
    s    1
   0.130901830E+00   0.100000000E+01
    p    3
   0.946809706E+01   0.568883319E-01
   0.201035451E+01   0.312940593E+00
   0.547710050E+00   0.760650164E+00
    p    1
   0.152686140E+00   0.100000000E+01
    d    1
   0.800000000E+00   0.100000000E+01
 
    9
    s    3
   0.130107010E+02   0.334854848E-01
   0.196225720E+01   0.234721871E+00
   0.444537960E+00   0.813770285E+00
    s    1
   0.121949620E+00   0.100000000E+01
    p    1
   0.800000000E+00   0.100000000E+01
 
   10
    s    3
   0.130107010E+02   0.334854848E-01
   0.196225720E+01   0.234721871E+00
   0.444537960E+00   0.813770285E+00
    s    1
   0.121949620E+00   0.100000000E+01
    p    1
   0.800000000E+00   0.100000000E+01
 
   11
    s    3
   0.130107010E+02   0.334854848E-01
   0.196225720E+01   0.234721871E+00
   0.444537960E+00   0.813770285E+00
    s    1
   0.121949620E+00   0.100000000E+01
    p    1
   0.800000000E+00   0.100000000E+01
 
   12
    s    3
   0.130107010E+02   0.334854848E-01
   0.196225720E+01   0.234721871E+00
   0.444537960E+00   0.813770285E+00
    s    1
   0.121949620E+00   0.100000000E+01
    p    1
   0.800000000E+00   0.100000000E+01
 
   13
    s    5
   0.123840169E+04   0.551736504E-02
   0.186290050E+03   0.410888285E-01
   0.422511764E+02   0.182253821E+00
   0.116765579E+02   0.468284594E+00
   0.359305065E+01   0.445758173E+00
    s    1
   0.402451470E+00   0.100000000E+01
    s    1
   0.130901830E+00   0.100000000E+01
    p    3
   0.946809706E+01   0.568883319E-01
   0.201035451E+01   0.312940593E+00
   0.547710050E+00   0.760650164E+00
    p    1
   0.152686140E+00   0.100000000E+01
    d    1
   0.800000000E+00   0.100000000E+01
 
   14
    s    3
   0.130107010E+02   0.334854848E-01
   0.196225720E+01   0.234721871E+00
   0.444537960E+00   0.813770285E+00
    s    1
   0.121949620E+00   0.100000000E+01
    p    1
   0.800000000E+00   0.100000000E+01
 
   15
    s    3
   0.130107010E+02   0.334854848E-01
   0.196225720E+01   0.234721871E+00
   0.444537960E+00   0.813770285E+00
    s    1
   0.121949620E+00   0.100000000E+01
    p    1
   0.800000000E+00   0.100000000E+01
 
   16
    s    5
   0.123840169E+04   0.551736504E-02
   0.186290050E+03   0.410888285E-01
   0.422511764E+02   0.182253821E+00
   0.116765579E+02   0.468284594E+00
   0.359305065E+01   0.445758173E+00
    s    1
   0.402451470E+00   0.100000000E+01
    s    1
   0.130901830E+00   0.100000000E+01
    p    3
   0.946809706E+01   0.568883319E-01
   0.201035451E+01   0.312940593E+00
   0.547710050E+00   0.760650164E+00
    p    1
   0.152686140E+00   0.100000000E+01
    d    1
   0.800000000E+00   0.100000000E+01
 
   17
    s    3
   0.130107010E+02   0.334854848E-01
   0.196225720E+01   0.234721871E+00
   0.444537960E+00   0.813770285E+00
    s    1
   0.121949620E+00   0.100000000E+01
    p    1
   0.800000000E+00   0.100000000E+01
 
   18
    s    3
   0.130107010E+02   0.334854848E-01
   0.196225720E+01   0.234721871E+00
   0.444537960E+00   0.813770285E+00
    s    1
   0.121949620E+00   0.100000000E+01
    p    1
   0.800000000E+00   0.100000000E+01
 
   19
    s    5
   0.123840169E+04   0.551736504E-02
   0.186290050E+03   0.410888285E-01
   0.422511764E+02   0.182253821E+00
   0.116765579E+02   0.468284594E+00
   0.359305065E+01   0.445758173E+00
    s    1
   0.402451470E+00   0.100000000E+01
    s    1
   0.130901830E+00   0.100000000E+01
    p    3
   0.946809706E+01   0.568883319E-01
   0.201035451E+01   0.312940593E+00
   0.547710050E+00   0.760650164E+00
    p    1
   0.152686140E+00   0.100000000E+01
    d    1
   0.800000000E+00   0.100000000E+01
 
   20
    s    3
   0.130107010E+02   0.334854848E-01
   0.196225720E+01   0.234721871E+00
   0.444537960E+00   0.813770285E+00
    s    1
   0.121949620E+00   0.100000000E+01
    p    1
   0.800000000E+00   0.100000000E+01
 
   21
    s    3
   0.130107010E+02   0.334854848E-01
   0.196225720E+01   0.234721871E+00
   0.444537960E+00   0.813770285E+00
    s    1
   0.121949620E+00   0.100000000E+01
    p    1
   0.800000000E+00   0.100000000E+01
 
[MO]
 Sym= A   
 Ene=       -11.262777
 Spin= Alpha
 Occup=       2.000000
   1       -0.000135613
   2       -0.000147704
   3        0.001053728
   4        0.000000471
   5        0.000009592
   6       -0.000003693
   7        0.000490436
   8       -0.000183314
   9       -0.000070375
  10       -0.000002288
  11       -0.000008290
  12        0.000002391
  13        0.000025534
  14       -0.000022764
  15       -0.000028789
  16        0.000023871
  17       -0.001116222
  18       -0.000044689
  19       -0.000001915
  20       -0.000015468
  21        0.000363523
  22        0.000341048
  23        0.000341779
  24        0.000007075
  25        0.000019056
  26        0.000016937
  27       -0.000022738
  28        0.000031672
  29       -0.000045086
  30       -0.000093879
  31       -0.000024270
  32        0.000019097
  33        0.000008696
  34       -0.000041817
  35        0.000007271
  36       -0.000024761
  37        0.000022124
  38       -0.000010030
  39        0.000034332
  40       -0.000358461
  41        0.005514292
  42        0.000057317
  43        0.000011166
  44        0.000044512
  45        0.002232615
  46       -0.000037684
  47       -0.000047922
  48       -0.000055382
  49        0.000046132
  50        0.000016423
  51        0.000107947
  52       -0.000007179
  53        0.000010788
  54        0.000192494
  55       -0.000023223
  56        0.000000125
  57       -0.000005945
  58       -0.000030173
  59       -0.000431760
  60       -0.000015278
  61        0.000053824
  62        0.000034138
  63       -0.000152871
  64        0.000036588
  65       -0.005960526
  66       -0.000365919
  67        0.000113129
  68       -0.000046430
  69        0.003038875
  70        0.000357452
  71       -0.001210833
  72        0.000024777
  73       -0.000088827
  74        0.000040646
  75       -0.000143469
  76        0.000034158
  77       -0.000075036
  78       -0.000428148
  79       -0.000036826
  80        0.000025811
  81       -0.000005910
  82       -0.000226419
  83       -0.000302754
  84       -0.000064948
  85        0.000010624
  86        0.000021905
  87       -0.000173799
  88       -0.000574297
  89       -0.000196062
  90        0.000113405
  91       -0.000109312
  92       -0.000066900
  93        0.001846336
  94       -0.000110974
  95       -0.000089139
  96        0.000000718
  97       -0.000066620
  98       -0.001195281
  99        0.007274967
 100       -0.000036128
 101       -0.000158508
 102       -0.000168822
 103        0.002388999
 104        0.001398690
 105        0.002439315
 106       -0.000029028
 107        0.000098182
 108        0.000003552
 109        0.000172159
 110        0.000004366
 111        0.000322209
 112        0.000289934
 113       -0.000078914
 114        0.000039335
 115        0.000007578
 116       -0.000575175
 117       -0.000891772
 118       -0.000028860
 119       -0.000083610
 120       -0.000131818
 121        0.012843707
 122        0.000563983
 123       -0.003900349
 124       -0.000574300
 125       -0.000300839
 126       -0.000707272
 127        0.002763690
 128       -0.000754224
 129       -0.000506817
 130       -0.000418942
 131       -0.000560387
 132       -0.000435927
 133       -0.000072778
 134       -0.000303092
 135        0.000050088
 136        0.000694891
 137        0.000045192
 138        0.000127774
 139        0.000414030
 140        0.000306875
 141        0.000707548
 142        0.000013688
 143        0.000261363
 144        0.000356286
 145        0.990897182
 146        0.035601392
 147       -0.021495018
 148       -0.000389875
 149        0.000390772
 150        0.000493196
 151        0.000812430
 152       -0.000337235
 153       -0.000714410
 154        0.000549744
 155        0.000357417
 156       -0.000390694
 157       -0.000980583
 158        0.000940363
 159       -0.002188254
 160        0.005227041
 161        0.000285893
 162        0.001274200
 163       -0.000082547
 164       -0.002081790
 165        0.005612380
 166       -0.000285550
 167       -0.000622598
 168        0.001077902
 Sym= A   
 Ene=       -11.254990
 Spin= Alpha
 Occup=       2.000000
   1       -0.990875119
   2       -0.035554936
   3        0.020816793
   4        0.000362584
   5        0.000702571
   6       -0.000009160
   7       -0.000821101
   8       -0.001127880
   9        0.000011705
  10       -0.000990211
  11        0.000015193
  12       -0.000073061
  13       -0.001173314
  14       -0.000277467
  15       -0.014738327
  16       -0.000405305
  17        0.005761601
  18       -0.000859950
  19        0.000087186
  20       -0.000015393
  21       -0.000064321
  22       -0.003238409
  23        0.000073709
  24       -0.000450985
  25        0.000026409
  26       -0.000001849
  27        0.000760650
  28       -0.000067056
  29        0.002149965
  30       -0.005570581
  31        0.000499942
  32        0.000347978
  33        0.001122462
  34        0.002150177
  35       -0.005570429
  36        0.000535415
  37        0.000294953
  38       -0.001120167
  39       -0.000137185
  40        0.000836542
  41       -0.005704714
  42       -0.000336965
  43        0.000107991
  44       -0.000006846
  45        0.005048429
  46       -0.003328048
  47        0.000136945
  48        0.000099450
  49       -0.000007259
  50        0.000006262
  51       -0.000020685
  52        0.000163652
  53       -0.000137683
  54       -0.000847645
  55        0.000443730
  56        0.000158041
  57        0.000081533
  58       -0.000138349
  59       -0.000849987
  60        0.000445830
  61        0.000154680
  62       -0.000074047
  63       -0.000083125
  64       -0.000015198
  65       -0.003191623
  66        0.000171744
  67       -0.000096853
  68        0.000002820
  69       -0.000021778
  70        0.001263063
  71       -0.000002923
  72        0.000021201
  73        0.000000349
  74       -0.000000315
  75       -0.000015589
  76       -0.000031056
  77        0.000420224
  78        0.000316879
  79       -0.000251884
  80        0.000040895
  81        0.000013794
  82        0.000415475
  83        0.000306769
  84       -0.000251373
  85        0.000038974
  86       -0.000023147
  87       -0.000035164
  88        0.000413423
  89        0.000008482
  90       -0.000089098
  91       -0.000010210
  92       -0.000046717
  93        0.000410887
  94        0.000010816
  95       -0.000088584
  96        0.000013132
  97        0.000076261
  98        0.000071132
  99        0.002433810
 100       -0.000165483
 101        0.000066336
 102       -0.000002800
 103        0.001673223
 104        0.000529504
 105       -0.000025445
 106       -0.000019522
 107       -0.000001538
 108       -0.000000861
 109        0.000000871
 110       -0.000014753
 111        0.000088433
 112        0.000023666
 113       -0.000094050
 114        0.000013851
 115        0.000045902
 116        0.000090078
 117        0.000036716
 118       -0.000098971
 119        0.000013215
 120       -0.000047200
 121       -0.000067623
 122        0.000051395
 123       -0.002021839
 124        0.000053245
 125       -0.000016902
 126        0.000002207
 127        0.000975793
 128        0.000238393
 129        0.000032175
 130        0.000026854
 131        0.000000646
 132       -0.000005435
 133       -0.000035866
 134        0.000004864
 135        0.000104139
 136        0.000224140
 137       -0.000026564
 138        0.000001006
 139        0.000001880
 140        0.000028377
 141       -0.000000251
 142       -0.000000778
 143       -0.000005547
 144       -0.000019415
 145       -0.000145723
 146        0.000071632
 147       -0.000139073
 148       -0.000018291
 149        0.000002264
 150       -0.000003625
 151        0.000002105
 152       -0.000021296
 153        0.000081012
 154       -0.000006692
 155        0.000006535
 156       -0.000001874
 157       -0.000013811
 158        0.000001901
 159        0.000026508
 160        0.000011358
 161       -0.000000837
 162        0.000008023
 163       -0.000009250
 164        0.000011793
 165       -0.000006569
 166       -0.000005718
 167       -0.000008450
 168       -0.000006273
 Sym= A   
 Ene=       -11.237719
 Spin= Alpha
 Occup=       2.000000
   1        0.000069553
   2        0.000044909
   3       -0.001570206
   4       -0.000035404
   5       -0.000007258
   6       -0.000000429
   7       -0.000728001
   8        0.000086520
   9       -0.000074508
  10       -0.000004213
  11       -0.000007884
  12       -0.000002573
  13       -0.000037299
  14        0.000002333
  15        0.000110454
  16       -0.000034545
  17        0.002112283
  18        0.000120497
  19       -0.000042293
  20        0.000000278
  21       -0.001012520
  22       -0.000183946
  23        0.000239618
  24       -0.000003538
  25        0.000011116
  26       -0.000007666
  27        0.000022926
  28       -0.000010536
  29        0.000033077
  30        0.000050505
  31        0.000033777
  32       -0.000010608
  33       -0.000003983
  34        0.000047501
  35        0.000076206
  36        0.000027650
  37       -0.000006918
  38        0.000009769
  39       -0.000105146
  40        0.000231496
  41       -0.004514585
  42       -0.000082574
  43        0.000046768
  44        0.000020652
  45       -0.001422383
  46       -0.000432731
  47       -0.000558614
  48        0.000033850
  49       -0.000007451
  50        0.000018515
  51       -0.000058282
  52        0.000003056
  53        0.000072196
  54       -0.000092692
  55        0.000052305
  56       -0.000015847
  57        0.000013209
  58        0.000033757
  59       -0.000371390
  60        0.000063802
  61       -0.000004420
  62       -0.000003585
  63       -0.000123519
  64        0.000820819
  65       -0.002668229
  66        0.000318398
  67       -0.000079905
  68       -0.000056857
  69       -0.005092489
  70        0.001027437
  71        0.000481753
  72        0.000040147
  73       -0.000004314
  74        0.000016545
  75       -0.000043390
  76        0.000046819
  77        0.000148155
  78        0.000608227
  79        0.000038530
  80        0.000040779
  81        0.000012048
  82        0.000002567
  83        0.000094884
  84        0.000012998
  85        0.000002389
  86       -0.000020885
  87        0.000549550
  88        0.001134032
  89        0.000223300
  90       -0.000057786
  91        0.000064356
  92        0.000242640
  93        0.001210279
  94        0.000287375
  95       -0.000070050
  96       -0.000109046
  97       -0.031249830
  98       -0.000731161
  99       -0.004614200
 100        0.000616729
 101       -0.000050295
 102       -0.000012687
 103       -0.002927056
 104        0.001654642
 105       -0.000551610
 106       -0.000415400
 107       -0.000080176
 108       -0.000021746
 109        0.000628409
 110       -0.000080105
 111        0.000009071
 112        0.000187798
 113       -0.000243237
 114       -0.000061945
 115        0.000140386
 116        0.000100447
 117       -0.000248747
 118       -0.000416635
 119       -0.000081407
 120       -0.000045877
 121       -0.989958620
 122       -0.039476301
 123        0.041014077
 124       -0.000210712
 125        0.000019785
 126        0.000221954
 127       -0.000971049
 128        0.002831624
 129        0.003193446
 130       -0.000026053
 131        0.000183470
 132        0.000154335
 133        0.000409669
 134        0.000121763
 135        0.001388324
 136       -0.005759788
 137       -0.000330266
 138        0.001290093
 139       -0.000092568
 140        0.000876749
 141       -0.006894340
 142       -0.000202305
 143       -0.000855797
 144        0.000841200
 145        0.012621633
 146        0.001671210
 147       -0.012646316
 148       -0.000270654
 149       -0.000360705
 150       -0.000611459
 151        0.002745324
 152        0.001871124
 153        0.004008113
 154        0.000438755
 155        0.000394195
 156        0.000536546
 157       -0.000118444
 158        0.000256154
 159       -0.000015375
 160        0.000373327
 161        0.000048716
 162        0.000213215
 163       -0.000002522
 164        0.000091031
 165        0.000219307
 166       -0.000021872
 167       -0.000059233
 168        0.000208190
 Sym= A   
 Ene=       -11.233277
 Spin= Alpha
 Occup=       2.000000
   1        0.014483152
   2        0.001773710
   3       -0.009915015
   4        0.000848006
   5       -0.000002597
   6        0.000013393
   7       -0.003854099
   8        0.000503911
   9       -0.000071942
  10       -0.000348111
  11        0.000018754
  12        0.000006786
  13        0.000787470
  14        0.000141491
  15       -0.989735159
  16       -0.038831810
  17        0.039642137
  18       -0.000246930
  19       -0.000434060
  20        0.000008074
  21       -0.000695702
  22       -0.002082160
  23        0.000039416
  24       -0.000362540
  25        0.000017040
  26       -0.000017231
  27        0.000003392
  28       -0.000292008
  29       -0.000026027
  30        0.000231518
  31       -0.000175021
  32       -0.000056391
  33       -0.000163001
  34       -0.000026800
  35        0.000231477
  36       -0.000179926
  37       -0.000048543
  38        0.000159981
  39       -0.038333866
  40       -0.000437373
  41       -0.008432673
  42       -0.000259994
  43        0.000688722
  44       -0.000018035
  45        0.001109177
  46       -0.002982491
  47        0.000085370
  48       -0.000365744
  49        0.000013792
  50       -0.000031031
  51       -0.000489502
  52       -0.000449597
  53        0.001042936
  54       -0.006797820
  55       -0.000405371
  56       -0.000413937
  57        0.001044529
  58        0.001043559
  59       -0.006819587
  60       -0.000371875
  61       -0.000456808
  62       -0.001035051
  63       -0.000493532
  64        0.000379070
  65        0.000223267
  66       -0.000093726
  67        0.000127722
  68       -0.000004301
  69        0.000102313
  70       -0.001951778
  71       -0.000009771
  72        0.000020973
  73       -0.000004165
  74        0.000004782
  75        0.000088735
  76        0.000067225
  77        0.000065485
  78       -0.000282370
  79        0.000139584
  80       -0.000356697
  81        0.000013284
  82        0.000064109
  83       -0.000284790
  84        0.000137277
  85       -0.000356866
  86        0.000006488
  87        0.000156681
  88        0.000743950
  89       -0.000023146
  90        0.000083035
  91        0.000049148
  92        0.000157557
  93        0.000845693
  94       -0.000020697
  95        0.000073622
  96       -0.000058623
  97       -0.000357273
  98        0.000138038
  99       -0.002622204
 100        0.000056751
 101       -0.000031989
 102       -0.000004716
 103        0.000153592
 104       -0.000538462
 105        0.000097747
 106        0.000007893
 107       -0.000002235
 108       -0.000002719
 109       -0.000021071
 110        0.000017398
 111        0.000061791
 112        0.000383656
 113        0.000016828
 114        0.000006339
 115        0.000011138
 116        0.000032688
 117        0.000309893
 118        0.000009898
 119       -0.000001261
 120       -0.000011068
 121       -0.000098754
 122       -0.000059548
 123        0.001041937
 124       -0.000029535
 125        0.000002198
 126        0.000000289
 127       -0.000167037
 128        0.000110585
 129        0.000010653
 130        0.000000724
 131        0.000000260
 132        0.000001542
 133        0.000007832
 134       -0.000001023
 135       -0.000028795
 136       -0.000118686
 137        0.000011059
 138       -0.000007297
 139       -0.000002494
 140       -0.000025550
 141       -0.000221792
 142        0.000007435
 143       -0.000003574
 144       -0.000013322
 145       -0.000028303
 146        0.000044949
 147       -0.000313240
 148       -0.000017418
 149        0.000012573
 150        0.000006200
 151        0.000139581
 152       -0.000028322
 153        0.000101861
 154       -0.000003565
 155       -0.000005354
 156        0.000000488
 157        0.000007548
 158       -0.000001672
 159        0.000036236
 160       -0.000015108
 161       -0.000003109
 162        0.000003867
 163       -0.000002726
 164        0.000016773
 165       -0.000019638
 166       -0.000012342
 167        0.000004188
 168        0.000002352
 Sym= A   
 Ene=       -11.229806
 Spin= Alpha
 Occup=       2.000000
   1       -0.000099224
   2        0.000079304
   3        0.000086864
   4        0.000027851
   5       -0.000021880
   6       -0.000001054
   7       -0.000014313
   8       -0.000030948
   9       -0.000008505
  10        0.000008201
  11       -0.000003355
  12        0.000000652
  13        0.000010096
  14       -0.000006093
  15        0.000417372
  16        0.000174399
  17       -0.002422344
  18       -0.000045355
  19        0.000030202
  20       -0.000002596
  21       -0.000530411
  22        0.000712637
  23        0.000077148
  24        0.000010436
  25        0.000005299
  26        0.000002741
  27       -0.000011072
  28        0.000027899
  29        0.000014608
  30       -0.000052615
  31        0.000004730
  32       -0.000001634
  33       -0.000011918
  34        0.000010129
  35       -0.000040432
  36        0.000002077
  37       -0.000000122
  38        0.000013012
  39       -0.001428168
  40        0.000293284
  41        0.000936997
  42        0.000100414
  43       -0.000137578
  44        0.000016906
  45       -0.000091873
  46        0.002035141
  47       -0.000138572
  48        0.000025443
  49        0.000007931
  50        0.000009312
  51        0.000082936
  52        0.000065403
  53        0.000064990
  54        0.000369714
  55        0.000000232
  56       -0.000007886
  57        0.000012727
  58        0.000063987
  59        0.000156390
  60        0.000001439
  61        0.000007807
  62       -0.000001184
  63       -0.029324722
  64        0.000150395
  65       -0.011461166
  66        0.000248484
  67       -0.000679609
  68        0.000001100
  69       -0.001690202
  70        0.003656390
  71       -0.000325963
  72       -0.000340349
  73       -0.000015924
  74       -0.000018581
  75       -0.000491236
  76       -0.000410583
  77        0.000186319
  78        0.000672353
  79        0.000041157
  80       -0.000084985
  81       -0.000044811
  82        0.000136348
  83        0.000608447
  84        0.000025141
  85       -0.000092487
  86        0.000049505
  87        0.000142213
  88       -0.000140614
  89       -0.000116432
  90        0.000362617
  91       -0.000031863
  92        0.000079448
  93        0.000574568
  94       -0.000106751
  95        0.000310000
  96       -0.000022232
  97       -0.989628592
  98       -0.039274784
  99        0.039959217
 100        0.000182214
 101        0.000390627
 102       -0.000069372
 103       -0.000043427
 104        0.003488302
 105        0.000261702
 106       -0.000386978
 107       -0.000014457
 108       -0.000035030
 109        0.000095866
 110       -0.000284159
 111        0.001183072
 112       -0.006400805
 113        0.000424880
 114        0.000447929
 115        0.001110960
 116        0.000967181
 117       -0.006786707
 118        0.000346467
 119        0.000359486
 120       -0.001117425
 121        0.031016611
 122        0.001763377
 123       -0.006653469
 124       -0.000687596
 125       -0.000023713
 126       -0.000118532
 127        0.002902921
 128       -0.000553497
 129        0.001534227
 130       -0.000402368
 131        0.000048167
 132       -0.000013090
 133        0.000707304
 134        0.000117296
 135       -0.000225081
 136        0.000377120
 137        0.000265447
 138        0.000028958
 139       -0.000085813
 140        0.000115642
 141        0.000377279
 142        0.000392630
 143        0.000021763
 144       -0.000064807
 145       -0.000559867
 146        0.000915224
 147       -0.003952671
 148       -0.000079118
 149       -0.000049611
 150        0.000039034
 151        0.001614741
 152        0.001240119
 153       -0.000067667
 154        0.000005173
 155       -0.000077630
 156        0.000031593
 157       -0.000147751
 158       -0.000098311
 159       -0.000060188
 160        0.000144355
 161       -0.000171232
 162        0.000023410
 163       -0.000054379
 164        0.000516747
 165        0.001278945
 166       -0.000171908
 167       -0.000055117
 168       -0.000128167
 Sym= A   
 Ene=       -11.226969
 Spin= Alpha
 Occup=       2.000000
   1       -0.000455068
   2        0.000298990
   3       -0.000567270
   4       -0.000026932
   5        0.000019878
   6       -0.000000760
   7        0.000473348
   8        0.000279665
   9        0.000004335
  10        0.000039006
  11       -0.000002135
  12        0.000003439
  13        0.000039247
  14        0.000095671
  15        0.038034364
  16        0.002540802
  17       -0.010522663
  18        0.000354846
  19       -0.000688125
  20        0.000020776
  21       -0.001555374
  22        0.003014645
  23       -0.000105630
  24       -0.000345909
  25        0.000010662
  26       -0.000032501
  27       -0.000522351
  28       -0.000476672
  29        0.000090402
  30        0.000597975
  31        0.000070151
  32       -0.000050587
  33        0.000028551
  34        0.000090347
  35        0.000593235
  36        0.000071050
  37       -0.000052103
  38       -0.000024028
  39       -0.988940454
  40       -0.038900558
  41        0.039440808
  42        0.000365284
  43        0.000424278
  44       -0.000001433
  45        0.001176975
  46        0.001606078
  47       -0.000009325
  48       -0.000379065
  49        0.000014814
  50       -0.000016951
  51        0.000166923
  52       -0.000279001
  53       -0.000014917
  54        0.000288396