[Molden Format]
[N_ATOMS]
           12
[Atoms]  AU
C     1    6       2.288567        1.321231        0.000000
C     2    6       0.000000        2.642354        0.000000
C     3    6      -2.288567        1.321231        0.000000
C     4    6      -2.288567       -1.321231        0.000000
C     5    6      -0.000000       -2.642354        0.000000
C     6    6       2.288567       -1.321231        0.000000
H     7    1       4.076666        2.353666        0.000000
H     8    1       0.000000        4.707134        0.000000
H     9    1      -4.076666        2.353666        0.000000
H    10    1      -4.076666       -2.353666        0.000000
H    11    1      -0.000000       -4.707134        0.000000
H    12    1       4.076666       -2.353666        0.000000
[5D7F9G]
[GTO]
    1
    s    8
   0.823600000E+04   0.542430189E-03
   0.123500000E+04   0.419642790E-02
   0.280800000E+03   0.215409141E-01
   0.792700000E+02   0.836149496E-01
   0.255900000E+02   0.239871619E+00
   0.899700000E+01   0.443751820E+00
   0.331900000E+01   0.353579696E+00
   0.364300000E+00  -0.917636608E-02
    s    8
   0.823600000E+04  -0.196392234E-03
   0.123500000E+04  -0.152595027E-02
   0.280800000E+03  -0.789044903E-02
   0.792700000E+02  -0.315148705E-01
   0.255900000E+02  -0.969100083E-01
   0.899700000E+01  -0.220541526E+00
   0.331900000E+01  -0.296069113E+00
   0.364300000E+00   0.104050343E+01
    s    1
   0.905900000E+00   0.100000000E+01
    s    1
   0.128500000E+00   0.100000000E+01
    p    3
   0.187100000E+02   0.394263872E-01
   0.413300000E+01   0.244088985E+00
   0.120000000E+01   0.815492009E+00
    p    1
   0.382700000E+00   0.100000000E+01
    p    1
   0.120900000E+00   0.100000000E+01
    d    1
   0.109700000E+01   0.100000000E+01
    d    1
   0.318000000E+00   0.100000000E+01
    f    1
   0.761000000E+00   0.100000000E+01
 
    2
    s    8
   0.823600000E+04   0.542430189E-03
   0.123500000E+04   0.419642790E-02
   0.280800000E+03   0.215409141E-01
   0.792700000E+02   0.836149496E-01
   0.255900000E+02   0.239871619E+00
   0.899700000E+01   0.443751820E+00
   0.331900000E+01   0.353579696E+00
   0.364300000E+00  -0.917636608E-02
    s    8
   0.823600000E+04  -0.196392234E-03
   0.123500000E+04  -0.152595027E-02
   0.280800000E+03  -0.789044903E-02
   0.792700000E+02  -0.315148705E-01
   0.255900000E+02  -0.969100083E-01
   0.899700000E+01  -0.220541526E+00
   0.331900000E+01  -0.296069113E+00
   0.364300000E+00   0.104050343E+01
    s    1
   0.905900000E+00   0.100000000E+01
    s    1
   0.128500000E+00   0.100000000E+01
    p    3
   0.187100000E+02   0.394263872E-01
   0.413300000E+01   0.244088985E+00
   0.120000000E+01   0.815492009E+00
    p    1
   0.382700000E+00   0.100000000E+01
    p    1
   0.120900000E+00   0.100000000E+01
    d    1
   0.109700000E+01   0.100000000E+01
    d    1
   0.318000000E+00   0.100000000E+01
    f    1
   0.761000000E+00   0.100000000E+01
 
    3
    s    8
   0.823600000E+04   0.542430189E-03
   0.123500000E+04   0.419642790E-02
   0.280800000E+03   0.215409141E-01
   0.792700000E+02   0.836149496E-01
   0.255900000E+02   0.239871619E+00
   0.899700000E+01   0.443751820E+00
   0.331900000E+01   0.353579696E+00
   0.364300000E+00  -0.917636608E-02
    s    8
   0.823600000E+04  -0.196392234E-03
   0.123500000E+04  -0.152595027E-02
   0.280800000E+03  -0.789044903E-02
   0.792700000E+02  -0.315148705E-01
   0.255900000E+02  -0.969100083E-01
   0.899700000E+01  -0.220541526E+00
   0.331900000E+01  -0.296069113E+00
   0.364300000E+00   0.104050343E+01
    s    1
   0.905900000E+00   0.100000000E+01
    s    1
   0.128500000E+00   0.100000000E+01
    p    3
   0.187100000E+02   0.394263872E-01
   0.413300000E+01   0.244088985E+00
   0.120000000E+01   0.815492009E+00
    p    1
   0.382700000E+00   0.100000000E+01
    p    1
   0.120900000E+00   0.100000000E+01
    d    1
   0.109700000E+01   0.100000000E+01
    d    1
   0.318000000E+00   0.100000000E+01
    f    1
   0.761000000E+00   0.100000000E+01
 
    4
    s    8
   0.823600000E+04   0.542430189E-03
   0.123500000E+04   0.419642790E-02
   0.280800000E+03   0.215409141E-01
   0.792700000E+02   0.836149496E-01
   0.255900000E+02   0.239871619E+00
   0.899700000E+01   0.443751820E+00
   0.331900000E+01   0.353579696E+00
   0.364300000E+00  -0.917636608E-02
    s    8
   0.823600000E+04  -0.196392234E-03
   0.123500000E+04  -0.152595027E-02
   0.280800000E+03  -0.789044903E-02
   0.792700000E+02  -0.315148705E-01
   0.255900000E+02  -0.969100083E-01
   0.899700000E+01  -0.220541526E+00
   0.331900000E+01  -0.296069113E+00
   0.364300000E+00   0.104050343E+01
    s    1
   0.905900000E+00   0.100000000E+01
    s    1
   0.128500000E+00   0.100000000E+01
    p    3
   0.187100000E+02   0.394263872E-01
   0.413300000E+01   0.244088985E+00
   0.120000000E+01   0.815492009E+00
    p    1
   0.382700000E+00   0.100000000E+01
    p    1
   0.120900000E+00   0.100000000E+01
    d    1
   0.109700000E+01   0.100000000E+01
    d    1
   0.318000000E+00   0.100000000E+01
    f    1
   0.761000000E+00   0.100000000E+01
 
    5
    s    8
   0.823600000E+04   0.542430189E-03
   0.123500000E+04   0.419642790E-02
   0.280800000E+03   0.215409141E-01
   0.792700000E+02   0.836149496E-01
   0.255900000E+02   0.239871619E+00
   0.899700000E+01   0.443751820E+00
   0.331900000E+01   0.353579696E+00
   0.364300000E+00  -0.917636608E-02
    s    8
   0.823600000E+04  -0.196392234E-03
   0.123500000E+04  -0.152595027E-02
   0.280800000E+03  -0.789044903E-02
   0.792700000E+02  -0.315148705E-01
   0.255900000E+02  -0.969100083E-01
   0.899700000E+01  -0.220541526E+00
   0.331900000E+01  -0.296069113E+00
   0.364300000E+00   0.104050343E+01
    s    1
   0.905900000E+00   0.100000000E+01
    s    1
   0.128500000E+00   0.100000000E+01
    p    3
   0.187100000E+02   0.394263872E-01
   0.413300000E+01   0.244088985E+00
   0.120000000E+01   0.815492009E+00
    p    1
   0.382700000E+00   0.100000000E+01
    p    1
   0.120900000E+00   0.100000000E+01
    d    1
   0.109700000E+01   0.100000000E+01
    d    1
   0.318000000E+00   0.100000000E+01
    f    1
   0.761000000E+00   0.100000000E+01
 
    6
    s    8
   0.823600000E+04   0.542430189E-03
   0.123500000E+04   0.419642790E-02
   0.280800000E+03   0.215409141E-01
   0.792700000E+02   0.836149496E-01
   0.255900000E+02   0.239871619E+00
   0.899700000E+01   0.443751820E+00
   0.331900000E+01   0.353579696E+00
   0.364300000E+00  -0.917636608E-02
    s    8
   0.823600000E+04  -0.196392234E-03
   0.123500000E+04  -0.152595027E-02
   0.280800000E+03  -0.789044903E-02
   0.792700000E+02  -0.315148705E-01
   0.255900000E+02  -0.969100083E-01
   0.899700000E+01  -0.220541526E+00
   0.331900000E+01  -0.296069113E+00
   0.364300000E+00   0.104050343E+01
    s    1
   0.905900000E+00   0.100000000E+01
    s    1
   0.128500000E+00   0.100000000E+01
    p    3
   0.187100000E+02   0.394263872E-01
   0.413300000E+01   0.244088985E+00
   0.120000000E+01   0.815492009E+00
    p    1
   0.382700000E+00   0.100000000E+01
    p    1
   0.120900000E+00   0.100000000E+01
    d    1
   0.109700000E+01   0.100000000E+01
    d    1
   0.318000000E+00   0.100000000E+01
    f    1
   0.761000000E+00   0.100000000E+01
 
    7
    s    3
   0.338700000E+02   0.254948632E-01
   0.509500000E+01   0.190362766E+00
   0.115900000E+01   0.852162022E+00
    s    1
   0.325800000E+00   0.100000000E+01
    s    1
   0.102700000E+00   0.100000000E+01
    p    1
   0.140700000E+01   0.100000000E+01
    p    1
   0.388000000E+00   0.100000000E+01
    d    1
   0.105700000E+01   0.100000000E+01
 
    8
    s    3
   0.338700000E+02   0.254948632E-01
   0.509500000E+01   0.190362766E+00
   0.115900000E+01   0.852162022E+00
    s    1
   0.325800000E+00   0.100000000E+01
    s    1
   0.102700000E+00   0.100000000E+01
    p    1
   0.140700000E+01   0.100000000E+01
    p    1
   0.388000000E+00   0.100000000E+01
    d    1
   0.105700000E+01   0.100000000E+01
 
    9
    s    3
   0.338700000E+02   0.254948632E-01
   0.509500000E+01   0.190362766E+00
   0.115900000E+01   0.852162022E+00
    s    1
   0.325800000E+00   0.100000000E+01
    s    1
   0.102700000E+00   0.100000000E+01
    p    1
   0.140700000E+01   0.100000000E+01
    p    1
   0.388000000E+00   0.100000000E+01
    d    1
   0.105700000E+01   0.100000000E+01
 
   10
    s    3
   0.338700000E+02   0.254948632E-01
   0.509500000E+01   0.190362766E+00
   0.115900000E+01   0.852162022E+00
    s    1
   0.325800000E+00   0.100000000E+01
    s    1
   0.102700000E+00   0.100000000E+01
    p    1
   0.140700000E+01   0.100000000E+01
    p    1
   0.388000000E+00   0.100000000E+01
    d    1
   0.105700000E+01   0.100000000E+01
 
   11
    s    3
   0.338700000E+02   0.254948632E-01
   0.509500000E+01   0.190362766E+00
   0.115900000E+01   0.852162022E+00
    s    1
   0.325800000E+00   0.100000000E+01
    s    1
   0.102700000E+00   0.100000000E+01
    p    1
   0.140700000E+01   0.100000000E+01
    p    1
   0.388000000E+00   0.100000000E+01
    d    1
   0.105700000E+01   0.100000000E+01
 
   12
    s    3
   0.338700000E+02   0.254948632E-01
   0.509500000E+01   0.190362766E+00
   0.115900000E+01   0.852162022E+00
    s    1
   0.325800000E+00   0.100000000E+01
    s    1
   0.102700000E+00   0.100000000E+01
    p    1
   0.140700000E+01   0.100000000E+01
    p    1
   0.388000000E+00   0.100000000E+01
    d    1
   0.105700000E+01   0.100000000E+01
 
[MO]
 Sym= Ag  
 Ene=       -11.525246
 Spin= Alpha
 Occup=       2.000000
   1        0.399653813
   2        0.000694696
   3        0.016666257
   4        0.001426102
   5       -0.000373379
   6       -0.000216090
   7        0.000000000
   8        0.000016289
   9        0.000010236
  10        0.000000000
  11        0.000049983
  12        0.000028962
  13        0.000000000
  14       -0.000223722
  15        0.000000000
  16        0.000000000
  17       -0.000032014
  18       -0.000055692
  19       -0.000051260
  20        0.000000000
  21        0.000000000
  22        0.000089441
  23        0.000154831
  24        0.000000000
  25       -0.000064539
  26       -0.000037339
  27        0.000000000
  28        0.000000000
  29        0.000000194
  30       -0.000013995
  31        0.398680469
  32        0.000694398
  33        0.016626282
  34        0.001424339
  35        0.000000000
  36       -0.000430731
  37        0.000000000
  38        0.000000000
  39        0.000021153
  40        0.000000000
  41        0.000000000
  42        0.000058687
  43        0.000000000
  44       -0.000222647
  45        0.000000000
  46        0.000000000
  47        0.000064321
  48        0.000000000
  49       -0.000052340
  50        0.000000000
  51        0.000000000
  52       -0.000183614
  53        0.000000000
  54        0.000000000
  55        0.000000000
  56       -0.000074560
  57        0.000000000
  58        0.000000000
  59        0.000000000
  60        0.000015007
  61        0.399653813
  62        0.000694696
  63        0.016666257
  64        0.001426102
  65        0.000373379
  66       -0.000216090
  67        0.000000000
  68       -0.000016289
  69        0.000010236
  70        0.000000000
  71       -0.000049983
  72        0.000028962
  73        0.000000000
  74       -0.000223722
  75        0.000000000
  76        0.000000000
  77       -0.000032014
  78        0.000055692
  79       -0.000051260
  80        0.000000000
  81        0.000000000
  82        0.000089441
  83       -0.000154831
  84        0.000000000
  85        0.000064539
  86       -0.000037339
  87        0.000000000
  88        0.000000000
  89       -0.000000194
  90       -0.000013995
  91        0.399653813
  92        0.000694696
  93        0.016666257
  94        0.001426102
  95        0.000373379
  96        0.000216090
  97        0.000000000
  98       -0.000016289
  99       -0.000010236
 100        0.000000000
 101       -0.000049983
 102       -0.000028962
 103        0.000000000
 104       -0.000223722
 105        0.000000000
 106        0.000000000
 107       -0.000032014
 108       -0.000055692
 109       -0.000051260
 110        0.000000000
 111        0.000000000
 112        0.000089441
 113        0.000154831
 114        0.000000000
 115        0.000064539
 116        0.000037339
 117        0.000000000
 118        0.000000000
 119       -0.000000194
 120        0.000013995
 121        0.398680469
 122        0.000694398
 123        0.016626282
 124        0.001424339
 125        0.000000000
 126        0.000430731
 127        0.000000000
 128        0.000000000
 129       -0.000021153
 130        0.000000000
 131        0.000000000
 132       -0.000058687
 133        0.000000000
 134       -0.000222647
 135        0.000000000
 136        0.000000000
 137        0.000064321
 138        0.000000000
 139       -0.000052340
 140        0.000000000
 141        0.000000000
 142       -0.000183614
 143        0.000000000
 144        0.000000000
 145        0.000000000
 146        0.000074560
 147        0.000000000
 148        0.000000000
 149        0.000000000
 150       -0.000015007
 151        0.399653813
 152        0.000694696
 153        0.016666257
 154        0.001426102
 155       -0.000373379
 156        0.000216090
 157        0.000000000
 158        0.000016289
 159       -0.000010236
 160        0.000000000
 161        0.000049983
 162       -0.000028962
 163        0.000000000
 164       -0.000223722
 165        0.000000000
 166        0.000000000
 167       -0.000032014
 168        0.000055692
 169       -0.000051260
 170        0.000000000
 171        0.000000000
 172        0.000089441
 173       -0.000154831
 174        0.000000000
 175       -0.000064539
 176        0.000037339
 177        0.000000000
 178        0.000000000
 179        0.000000194
 180        0.000013995
 181        0.000087782
 182        0.000122209
 183       -0.000289259
 184        0.000089557
 185        0.000051754
 186        0.000000000
 187       -0.000024305
 188       -0.000014022
 189        0.000000000
 190        0.000009324
 191        0.000000000
 192        0.000000000
 193       -0.000014525
 194       -0.000025304
 195        0.000087593
 196        0.000116024
 197       -0.000289547
 198        0.000000000
 199        0.000103101
 200        0.000000000
 201        0.000000000
 202       -0.000025898
 203        0.000000000
 204        0.000009253
 205        0.000000000
 206        0.000000000
 207        0.000029075
 208        0.000000000
 209        0.000087782
 210        0.000122209
 211       -0.000289259
 212       -0.000089557
 213        0.000051754
 214        0.000000000
 215        0.000024305
 216       -0.000014022
 217        0.000000000
 218        0.000009324
 219        0.000000000
 220        0.000000000
 221       -0.000014525
 222        0.000025304
 223        0.000087782
 224        0.000122209
 225       -0.000289259
 226       -0.000089557
 227       -0.000051754
 228        0.000000000
 229        0.000024305
 230        0.000014022
 231        0.000000000
 232        0.000009324
 233        0.000000000
 234        0.000000000
 235       -0.000014525
 236       -0.000025304
 237        0.000087593
 238        0.000116024
 239       -0.000289547
 240        0.000000000
 241       -0.000103101
 242        0.000000000
 243        0.000000000
 244        0.000025898
 245        0.000000000
 246        0.000009253
 247        0.000000000
 248        0.000000000
 249        0.000029075
 250        0.000000000
 251        0.000087782
 252        0.000122209
 253       -0.000289259
 254        0.000089557
 255       -0.000051754
 256        0.000000000
 257       -0.000024305
 258        0.000014022
 259        0.000000000
 260        0.000009324
 261        0.000000000
 262        0.000000000
 263       -0.000014525
 264        0.000025304
 Sym= Ag  
 Ene=       -11.521275
 Spin= Alpha
 Occup=       2.000000
   1       -0.281999242
   2       -0.000059942
   3       -0.011557824
   4       -0.000958245
   5       -0.000013369
   6        0.000336005
   7        0.000000000
   8        0.000356884
   9        0.000123450
  10        0.000000000
  11        0.000401352
  12        0.000151859
  13        0.000000000
  14        0.000290875
  15        0.000000000
  16        0.000000000
  17       -0.000060261
  18        0.000071970
  19       -0.000226759
  20        0.000000000
  21        0.000000000
  22        0.000051849
  23        0.000683194
  24        0.000000000
  25       -0.000045943
  26        0.000065261
  27        0.000000000
  28        0.000000000
  29       -0.000093847
  30       -0.000272397
  31        0.565374765
  32        0.000122544
  33        0.023172874
  34        0.001922125
  35        0.000000000
  36       -0.000314237
  37        0.000000000
  38        0.000000000
  39       -0.000740781
  40        0.000000000
  41        0.000000000
  42       -0.000846579
  43        0.000000000
  44       -0.000582470
  45        0.000000000
  46        0.000000000
  47        0.000064824
  48        0.000000000
  49        0.000453069
  50        0.000000000
  51        0.000000000
  52        0.001234265
  53        0.000000000
  54        0.000000000
  55        0.000000000
  56        0.000014042
  57        0.000000000
  58        0.000000000
  59        0.000000000
  60       -0.000544705
  61       -0.281999242
  62       -0.000059942
  63       -0.011557824
  64       -0.000958245
  65        0.000013369
  66        0.000336005
  67        0.000000000
  68       -0.000356884
  69        0.000123450
  70        0.000000000
  71       -0.000401352
  72        0.000151859
  73        0.000000000
  74        0.000290875
  75        0.000000000
  76        0.000000000
  77       -0.000060261
  78       -0.000071970
  79       -0.000226759
  80        0.000000000
  81        0.000000000
  82        0.000051849
  83       -0.000683194
  84        0.000000000
  85        0.000045943
  86        0.000065261
  87        0.000000000
  88        0.000000000
  89        0.000093847
  90       -0.000272397
  91       -0.281999242
  92       -0.000059942
  93       -0.011557824
  94       -0.000958245
  95        0.000013369
  96       -0.000336005
  97        0.000000000
  98       -0.000356884
  99       -0.000123450
 100        0.000000000
 101       -0.000401352
 102       -0.000151859
 103        0.000000000
 104        0.000290875
 105        0.000000000
 106        0.000000000
 107       -0.000060261
 108        0.000071970
 109       -0.000226759
 110        0.000000000
 111        0.000000000
 112        0.000051849
 113        0.000683194
 114        0.000000000
 115        0.000045943
 116       -0.000065261
 117        0.000000000
 118        0.000000000
 119        0.000093847
 120        0.000272397
 121        0.565374765
 122        0.000122544
 123        0.023172874
 124        0.001922125
 125        0.000000000
 126        0.000314237
 127        0.000000000
 128        0.000000000
 129        0.000740781
 130        0.000000000
 131        0.000000000
 132        0.000846579
 133        0.000000000
 134       -0.000582470
 135        0.000000000
 136        0.000000000
 137        0.000064824
 138        0.000000000
 139        0.000453069
 140        0.000000000
 141        0.000000000
 142        0.001234265
 143        0.000000000
 144        0.000000000
 145        0.000000000
 146       -0.000014042
 147        0.000000000
 148        0.000000000
 149        0.000000000
 150        0.000544705
 151       -0.281999242
 152       -0.000059942
 153       -0.011557824
 154       -0.000958245
 155       -0.000013369
 156       -0.000336005
 157        0.000000000
 158        0.000356884
 159       -0.000123450
 160        0.000000000
 161        0.000401352
 162       -0.000151859
 163        0.000000000
 164        0.000290875
 165        0.000000000
 166        0.000000000
 167       -0.000060261
 168       -0.000071970
 169       -0.000226759
 170        0.000000000
 171        0.000000000
 172        0.000051849
 173       -0.000683194
 174        0.000000000
 175       -0.000045943
 176       -0.000065261
 177        0.000000000
 178        0.000000000
 179       -0.000093847
 180        0.000272397
 181       -0.000030298
 182       -0.001125942
 183       -0.000132439
 184       -0.000067842
 185       -0.000074231
 186        0.000000000
 187        0.000405160
 188        0.000094620
 189        0.000000000
 190       -0.000002459
 191        0.000000000
 192        0.000000000
 193       -0.000042654
 194        0.000070404
 195        0.000060936
 196        0.002251210
 197        0.000263621
 198        0.000000000
 199        0.000192084
 200        0.000000000
 201        0.000000000
 202       -0.000795998
 203        0.000000000
 204        0.000004981
 205        0.000000000
 206        0.000000000
 207        0.000079422
 208        0.000000000
 209       -0.000030298
 210       -0.001125942
 211       -0.000132439
 212        0.000067842
 213       -0.000074231
 214        0.000000000
 215       -0.000405160
 216        0.000094620
 217        0.000000000
 218       -0.000002459
 219        0.000000000
 220        0.000000000
 221       -0.000042654
 222       -0.000070404
 223       -0.000030298
 224       -0.001125942
 225       -0.000132439
 226        0.000067842
 227        0.000074231
 228        0.000000000
 229       -0.000405160
 230       -0.000094620
 231        0.000000000
 232       -0.000002459
 233        0.000000000
 234        0.000000000
 235       -0.000042654
 236        0.000070404
 237        0.000060936
 238        0.002251210
 239        0.000263621
 240        0.000000000
 241       -0.000192084
 242        0.000000000
 243        0.000000000
 244        0.000795998
 245        0.000000000
 246        0.000004981
 247        0.000000000
 248        0.000000000
 249        0.000079422
 250        0.000000000
 251       -0.000030298
 252       -0.001125942
 253       -0.000132439
 254       -0.000067842
 255        0.000074231
 256        0.000000000
 257        0.000405160
 258       -0.000094620
 259        0.000000000
 260       -0.000002459
 261        0.000000000
 262        0.000000000
 263       -0.000042654
 264       -0.000070404
 Sym= Ag  
 Ene=        -1.436397
 Spin= Alpha
 Occup=       2.000000
   1        0.014937927
   2       -0.202177218
   3       -0.047926539
   4       -0.059887194
   5        0.029001110
   6        0.016748692
   7        0.000000000
   8        0.023332131
   9        0.013475697
  10        0.000000000
  11        0.005713965
  12        0.003299434
  13        0.000000000
  14        0.006616051
  15        0.000000000
  16        0.000000000
  17       -0.000093511
  18       -0.000163146
  19        0.009177456
  20        0.000000000
  21        0.000000000
  22       -0.003826510
  23       -0.006629586
  24        0.000000000
  25       -0.001059190
  26       -0.000611691
  27        0.000000000
  28        0.000000000
  29        0.000000301
  30       -0.003947659
  31        0.014937854
  32       -0.202174819
  33       -0.047925960
  34       -0.059881565
  35        0.000000000
  36        0.033486329
  37        0.000000000
  38        0.000000000
  39        0.026943131
  40        0.000000000
  41        0.000000000
  42        0.006600033
  43        0.000000000
  44        0.006616059
  45        0.000000000
  46        0.000000000
  47        0.000187113
  48        0.000000000
  49        0.009175967
  50        0.000000000
  51        0.000000000
  52        0.007651203
  53        0.000000000
  54        0.000000000
  55        0.000000000
  56       -0.001222777
  57        0.000000000
  58        0.000000000
  59        0.000000000
  60        0.003948050
  61        0.014937927
  62       -0.202177218
  63       -0.047926539
  64       -0.059887194
  65       -0.029001110
  66        0.016748692
  67        0.000000000
  68       -0.023332131
  69        0.013475697
  70        0.000000000
  71       -0.005713965
  72        0.003299434
  73        0.000000000
  74        0.006616051
  75        0.000000000
  76        0.000000000
  77       -0.000093511
  78        0.000163146
  79        0.009177456
  80        0.000000000
  81        0.000000000
  82       -0.003826510
  83        0.006629586
  84        0.000000000
  85        0.001059190
  86       -0.000611691
  87        0.000000000
  88        0.000000000
  89       -0.000000301
  90       -0.003947659
  91        0.014937927
  92       -0.202177218
  93       -0.047926539
  94       -0.059887194
  95       -0.029001110
  96       -0.016748692
  97        0.000000000
  98       -0.023332131
  99       -0.013475697
 100        0.000000000
 101       -0.005713965
 102       -0.003299434
 103        0.000000000
 104        0.006616051
 105        0.000000000
 106        0.000000000
 107       -0.000093511
 108       -0.000163146
 109        0.009177456
 110        0.000000000
 111        0.000000000
 112       -0.003826510
 113       -0.006629586
 114        0.000000000
 115        0.001059190
 116        0.000611691
 117        0.000000000
 118        0.000000000
 119       -0.000000301
 120        0.003947659
 121        0.014937854
 122       -0.202174819
 123       -0.047925960
 124       -0.059881565
 125        0.000000000
 126       -0.033486329
 127        0.000000000
 128        0.000000000
 129       -0.026943131
 130        0.000000000
 131        0.000000000
 132       -0.006600033
 133        0.000000000
 134        0.006616059
 135        0.000000000
 136        0.000000000
 137        0.000187113
 138        0.000000000
 139        0.009175967
 140        0.000000000
 141        0.000000000
 142        0.007651203
 143        0.000000000
 144        0.000000000
 145        0.000000000
 146        0.001222777
 147        0.000000000
 148        0.000000000
 149        0.000000000
 150       -0.003948050
 151        0.014937927
 152       -0.202177218
 153       -0.047926539
 154       -0.059887194
 155        0.029001110
 156       -0.016748692
 157        0.000000000
 158        0.023332131
 159       -0.013475697
 160        0.000000000
 161        0.005713965
 162       -0.003299434
 163        0.000000000
 164        0.006616051
 165        0.000000000
 166        0.000000000
 167       -0.000093511
 168        0.000163146
 169        0.009177456
 170        0.000000000
 171        0.000000000
 172       -0.003826510
 173        0.006629586
 174        0.000000000
 175       -0.001059190
 176        0.000611691
 177        0.000000000
 178        0.000000000
 179        0.000000301
 180        0.003947659
 181       -0.013493919
 182        0.010285795
 183       -0.000411866
 184        0.000795554
 185        0.000459382
 186        0.000000000
 187       -0.008319070
 188       -0.004803131
 189        0.000000000
 190       -0.000229782
 191        0.000000000
 192        0.000000000
 193        0.000613958
 194        0.001063424
 195       -0.013494358
 196        0.010278354
 197       -0.000414520
 198        0.000000000
 199        0.000918681
 200        0.000000000
 201        0.000000000
 202       -0.009603685
 203        0.000000000
 204       -0.000229734
 205        0.000000000
 206        0.000000000
 207       -0.001227781
 208        0.000000000
 209       -0.013493919
 210        0.010285795
 211       -0.000411866
 212       -0.000795554
 213        0.000459382
 214        0.000000000
 215        0.008319070
 216       -0.004803131
 217        0.000000000
 218       -0.000229782
 219        0.000000000
 220        0.000000000
 221        0.000613958
 222       -0.001063424
 223       -0.013493919
 224        0.010285795
 225       -0.000411866
 226       -0.000795554
 227       -0.000459382
 228        0.000000000
 229        0.008319070
 230        0.004803131
 231        0.000000000
 232       -0.000229782
 233        0.000000000
 234        0.000000000
 235        0.000613958
 236        0.001063424
 237       -0.013494358
 238        0.010278354
 239       -0.000414520
 240        0.000000000
 241       -0.000918681
 242        0.000000000
 243        0.000000000
 244        0.009603685
 245        0.000000000
 246       -0.000229734
 247        0.000000000
 248        0.000000000
 249       -0.001227781
 250        0.000000000
 251       -0.013493919
 252        0.010285795
 253       -0.000411866
 254        0.000795554
 255       -0.000459382
 256        0.000000000
 257       -0.008319070
 258        0.004803131
 259        0.000000000
 260       -0.000229782
 261        0.000000000
 262        0.000000000
 263        0.000613958
 264       -0.001063424
 Sym= Ag  
 Ene=        -0.980406
 Spin= Alpha
 Occup=       2.000000
   1        0.001253055
   2       -0.139088396
   3       -0.034635611
   4       -0.065444757
   5       -0.056197271
   6        0.076788706
   7        0.000000000
   8       -0.062601805
   9        0.084349227
  10        0.000000000
  11       -0.021975337
  12        0.021213873
  13        0.000000000
  14        0.002563496
  15        0.000000000
  16        0.000000000
  17        0.006205427
  18       -0.002747277
  19        0.005095907
  20        0.000000000
  21        0.000000000
  22        0.006488328
  23       -0.002548269
  24        0.000000000
  25        0.001395143
  26       -0.002825324
  27        0.000000000
  28        0.000000000
  29        0.002075475
  30       -0.002867004
  31       -0.002505640
  32        0.278168716
  33        0.069268057
  34        0.130890632
  35        0.000000000
  36        0.020537054
  37        0.000000000
  38        0.000000000
  39        0.024066129
  40        0.000000000
  41        0.000000000
  42        0.016841558
  43        0.000000000
  44       -0.005126446
  45        0.000000000
  46        0.000000000
  47        0.001446062
  48        0.000000000
  49       -0.010193363
  50        0.000000000