[Molden Format]
[N_ATOMS]
           12
[Atoms]  AU
C     1    6       2.288567        1.321231        0.000000
C     2    6       0.000000        2.642354        0.000000
C     3    6      -2.288567        1.321231        0.000000
C     4    6      -2.288567       -1.321231        0.000000
C     5    6      -0.000000       -2.642354        0.000000
C     6    6       2.288567       -1.321231        0.000000
H     7    1       4.076666        2.353666        0.000000
H     8    1       0.000000        4.707134        0.000000
H     9    1      -4.076666        2.353666        0.000000
H    10    1      -4.076666       -2.353666        0.000000
H    11    1      -0.000000       -4.707134        0.000000
H    12    1       4.076666       -2.353666        0.000000
[5D7F9G]
[GTO]
    1
    s    8
   0.823600000E+04   0.542430189E-03
   0.123500000E+04   0.419642790E-02
   0.280800000E+03   0.215409141E-01
   0.792700000E+02   0.836149496E-01
   0.255900000E+02   0.239871619E+00
   0.899700000E+01   0.443751820E+00
   0.331900000E+01   0.353579696E+00
   0.364300000E+00  -0.917636608E-02
    s    8
   0.823600000E+04  -0.196392234E-03
   0.123500000E+04  -0.152595027E-02
   0.280800000E+03  -0.789044903E-02
   0.792700000E+02  -0.315148705E-01
   0.255900000E+02  -0.969100083E-01
   0.899700000E+01  -0.220541526E+00
   0.331900000E+01  -0.296069113E+00
   0.364300000E+00   0.104050343E+01
    s    1
   0.905900000E+00   0.100000000E+01
    s    1
   0.128500000E+00   0.100000000E+01
    p    3
   0.187100000E+02   0.394263872E-01
   0.413300000E+01   0.244088985E+00
   0.120000000E+01   0.815492009E+00
    p    1
   0.382700000E+00   0.100000000E+01
    p    1
   0.120900000E+00   0.100000000E+01
    d    1
   0.109700000E+01   0.100000000E+01
    d    1
   0.318000000E+00   0.100000000E+01
    f    1
   0.761000000E+00   0.100000000E+01
 
    2
    s    8
   0.823600000E+04   0.542430189E-03
   0.123500000E+04   0.419642790E-02
   0.280800000E+03   0.215409141E-01
   0.792700000E+02   0.836149496E-01
   0.255900000E+02   0.239871619E+00
   0.899700000E+01   0.443751820E+00
   0.331900000E+01   0.353579696E+00
   0.364300000E+00  -0.917636608E-02
    s    8
   0.823600000E+04  -0.196392234E-03
   0.123500000E+04  -0.152595027E-02
   0.280800000E+03  -0.789044903E-02
   0.792700000E+02  -0.315148705E-01
   0.255900000E+02  -0.969100083E-01
   0.899700000E+01  -0.220541526E+00
   0.331900000E+01  -0.296069113E+00
   0.364300000E+00   0.104050343E+01
    s    1
   0.905900000E+00   0.100000000E+01
    s    1
   0.128500000E+00   0.100000000E+01
    p    3
   0.187100000E+02   0.394263872E-01
   0.413300000E+01   0.244088985E+00
   0.120000000E+01   0.815492009E+00
    p    1
   0.382700000E+00   0.100000000E+01
    p    1
   0.120900000E+00   0.100000000E+01
    d    1
   0.109700000E+01   0.100000000E+01
    d    1
   0.318000000E+00   0.100000000E+01
    f    1
   0.761000000E+00   0.100000000E+01
 
    3
    s    8
   0.823600000E+04   0.542430189E-03
   0.123500000E+04   0.419642790E-02
   0.280800000E+03   0.215409141E-01
   0.792700000E+02   0.836149496E-01
   0.255900000E+02   0.239871619E+00
   0.899700000E+01   0.443751820E+00
   0.331900000E+01   0.353579696E+00
   0.364300000E+00  -0.917636608E-02
    s    8
   0.823600000E+04  -0.196392234E-03
   0.123500000E+04  -0.152595027E-02
   0.280800000E+03  -0.789044903E-02
   0.792700000E+02  -0.315148705E-01
   0.255900000E+02  -0.969100083E-01
   0.899700000E+01  -0.220541526E+00
   0.331900000E+01  -0.296069113E+00
   0.364300000E+00   0.104050343E+01
    s    1
   0.905900000E+00   0.100000000E+01
    s    1
   0.128500000E+00   0.100000000E+01
    p    3
   0.187100000E+02   0.394263872E-01
   0.413300000E+01   0.244088985E+00
   0.120000000E+01   0.815492009E+00
    p    1
   0.382700000E+00   0.100000000E+01
    p    1
   0.120900000E+00   0.100000000E+01
    d    1
   0.109700000E+01   0.100000000E+01
    d    1
   0.318000000E+00   0.100000000E+01
    f    1
   0.761000000E+00   0.100000000E+01
 
    4
    s    8
   0.823600000E+04   0.542430189E-03
   0.123500000E+04   0.419642790E-02
   0.280800000E+03   0.215409141E-01
   0.792700000E+02   0.836149496E-01
   0.255900000E+02   0.239871619E+00
   0.899700000E+01   0.443751820E+00
   0.331900000E+01   0.353579696E+00
   0.364300000E+00  -0.917636608E-02
    s    8
   0.823600000E+04  -0.196392234E-03
   0.123500000E+04  -0.152595027E-02
   0.280800000E+03  -0.789044903E-02
   0.792700000E+02  -0.315148705E-01
   0.255900000E+02  -0.969100083E-01
   0.899700000E+01  -0.220541526E+00
   0.331900000E+01  -0.296069113E+00
   0.364300000E+00   0.104050343E+01
    s    1
   0.905900000E+00   0.100000000E+01
    s    1
   0.128500000E+00   0.100000000E+01
    p    3
   0.187100000E+02   0.394263872E-01
   0.413300000E+01   0.244088985E+00
   0.120000000E+01   0.815492009E+00
    p    1
   0.382700000E+00   0.100000000E+01
    p    1
   0.120900000E+00   0.100000000E+01
    d    1
   0.109700000E+01   0.100000000E+01
    d    1
   0.318000000E+00   0.100000000E+01
    f    1
   0.761000000E+00   0.100000000E+01
 
    5
    s    8
   0.823600000E+04   0.542430189E-03
   0.123500000E+04   0.419642790E-02
   0.280800000E+03   0.215409141E-01
   0.792700000E+02   0.836149496E-01
   0.255900000E+02   0.239871619E+00
   0.899700000E+01   0.443751820E+00
   0.331900000E+01   0.353579696E+00
   0.364300000E+00  -0.917636608E-02
    s    8
   0.823600000E+04  -0.196392234E-03
   0.123500000E+04  -0.152595027E-02
   0.280800000E+03  -0.789044903E-02
   0.792700000E+02  -0.315148705E-01
   0.255900000E+02  -0.969100083E-01
   0.899700000E+01  -0.220541526E+00
   0.331900000E+01  -0.296069113E+00
   0.364300000E+00   0.104050343E+01
    s    1
   0.905900000E+00   0.100000000E+01
    s    1
   0.128500000E+00   0.100000000E+01
    p    3
   0.187100000E+02   0.394263872E-01
   0.413300000E+01   0.244088985E+00
   0.120000000E+01   0.815492009E+00
    p    1
   0.382700000E+00   0.100000000E+01
    p    1
   0.120900000E+00   0.100000000E+01
    d    1
   0.109700000E+01   0.100000000E+01
    d    1
   0.318000000E+00   0.100000000E+01
    f    1
   0.761000000E+00   0.100000000E+01
 
    6
    s    8
   0.823600000E+04   0.542430189E-03
   0.123500000E+04   0.419642790E-02
   0.280800000E+03   0.215409141E-01
   0.792700000E+02   0.836149496E-01
   0.255900000E+02   0.239871619E+00
   0.899700000E+01   0.443751820E+00
   0.331900000E+01   0.353579696E+00
   0.364300000E+00  -0.917636608E-02
    s    8
   0.823600000E+04  -0.196392234E-03
   0.123500000E+04  -0.152595027E-02
   0.280800000E+03  -0.789044903E-02
   0.792700000E+02  -0.315148705E-01
   0.255900000E+02  -0.969100083E-01
   0.899700000E+01  -0.220541526E+00
   0.331900000E+01  -0.296069113E+00
   0.364300000E+00   0.104050343E+01
    s    1
   0.905900000E+00   0.100000000E+01
    s    1
   0.128500000E+00   0.100000000E+01
    p    3
   0.187100000E+02   0.394263872E-01
   0.413300000E+01   0.244088985E+00
   0.120000000E+01   0.815492009E+00
    p    1
   0.382700000E+00   0.100000000E+01
    p    1
   0.120900000E+00   0.100000000E+01
    d    1
   0.109700000E+01   0.100000000E+01
    d    1
   0.318000000E+00   0.100000000E+01
    f    1
   0.761000000E+00   0.100000000E+01
 
    7
    s    3
   0.338700000E+02   0.254948632E-01
   0.509500000E+01   0.190362766E+00
   0.115900000E+01   0.852162022E+00
    s    1
   0.325800000E+00   0.100000000E+01
    s    1
   0.102700000E+00   0.100000000E+01
    p    1
   0.140700000E+01   0.100000000E+01
    p    1
   0.388000000E+00   0.100000000E+01
    d    1
   0.105700000E+01   0.100000000E+01
 
    8
    s    3
   0.338700000E+02   0.254948632E-01
   0.509500000E+01   0.190362766E+00
   0.115900000E+01   0.852162022E+00
    s    1
   0.325800000E+00   0.100000000E+01
    s    1
   0.102700000E+00   0.100000000E+01
    p    1
   0.140700000E+01   0.100000000E+01
    p    1
   0.388000000E+00   0.100000000E+01
    d    1
   0.105700000E+01   0.100000000E+01
 
    9
    s    3
   0.338700000E+02   0.254948632E-01
   0.509500000E+01   0.190362766E+00
   0.115900000E+01   0.852162022E+00
    s    1
   0.325800000E+00   0.100000000E+01
    s    1
   0.102700000E+00   0.100000000E+01
    p    1
   0.140700000E+01   0.100000000E+01
    p    1
   0.388000000E+00   0.100000000E+01
    d    1
   0.105700000E+01   0.100000000E+01
 
   10
    s    3
   0.338700000E+02   0.254948632E-01
   0.509500000E+01   0.190362766E+00
   0.115900000E+01   0.852162022E+00
    s    1
   0.325800000E+00   0.100000000E+01
    s    1
   0.102700000E+00   0.100000000E+01
    p    1
   0.140700000E+01   0.100000000E+01
    p    1
   0.388000000E+00   0.100000000E+01
    d    1
   0.105700000E+01   0.100000000E+01
 
   11
    s    3
   0.338700000E+02   0.254948632E-01
   0.509500000E+01   0.190362766E+00
   0.115900000E+01   0.852162022E+00
    s    1
   0.325800000E+00   0.100000000E+01
    s    1
   0.102700000E+00   0.100000000E+01
    p    1
   0.140700000E+01   0.100000000E+01
    p    1
   0.388000000E+00   0.100000000E+01
    d    1
   0.105700000E+01   0.100000000E+01
 
   12
    s    3
   0.338700000E+02   0.254948632E-01
   0.509500000E+01   0.190362766E+00
   0.115900000E+01   0.852162022E+00
    s    1
   0.325800000E+00   0.100000000E+01
    s    1
   0.102700000E+00   0.100000000E+01
    p    1
   0.140700000E+01   0.100000000E+01
    p    1
   0.388000000E+00   0.100000000E+01
    d    1
   0.105700000E+01   0.100000000E+01
 
[MO]
 Sym= Ag  
 Ene=       -11.613011
 Spin= Alpha
 Occup=       2.000000
   1       -0.399349749
   2       -0.001878792
   3       -0.016938643
   4       -0.001779578
   5        0.000524816
   6        0.000303298
   7        0.000000000
   8        0.000097081
   9        0.000055310
  10        0.000000000
  11       -0.000025326
  12       -0.000014668
  13        0.000000000
  14        0.000261950
  15        0.000000000
  16        0.000000000
  17        0.000031926
  18        0.000055401
  19        0.000104561
  20        0.000000000
  21        0.000000000
  22       -0.000110567
  23       -0.000191875
  24        0.000000000
  25        0.000059049
  26        0.000034099
  27        0.000000000
  28        0.000000000
  29       -0.000000122
  30       -0.000008737
  31       -0.399007947
  32       -0.001878512
  33       -0.016924523
  34       -0.001779873
  35        0.000000000
  36        0.000605850
  37        0.000000000
  38        0.000000000
  39        0.000110670
  40        0.000000000
  41        0.000000000
  42       -0.000029206
  43        0.000000000
  44        0.000261524
  45        0.000000000
  46        0.000000000
  47       -0.000064104
  48        0.000000000
  49        0.000105123
  50        0.000000000
  51        0.000000000
  52        0.000224853
  53        0.000000000
  54        0.000000000
  55        0.000000000
  56        0.000068172
  57        0.000000000
  58        0.000000000
  59        0.000000000
  60        0.000008336
  61       -0.399349749
  62       -0.001878792
  63       -0.016938643
  64       -0.001779578
  65       -0.000524816
  66        0.000303298
  67        0.000000000
  68       -0.000097081
  69        0.000055310
  70        0.000000000
  71        0.000025326
  72       -0.000014668
  73        0.000000000
  74        0.000261950
  75        0.000000000
  76        0.000000000
  77        0.000031926
  78       -0.000055401
  79        0.000104561
  80        0.000000000
  81        0.000000000
  82       -0.000110567
  83        0.000191875
  84        0.000000000
  85       -0.000059049
  86        0.000034099
  87        0.000000000
  88        0.000000000
  89        0.000000122
  90       -0.000008737
  91       -0.399349749
  92       -0.001878792
  93       -0.016938643
  94       -0.001779578
  95       -0.000524816
  96       -0.000303298
  97        0.000000000
  98       -0.000097081
  99       -0.000055310
 100        0.000000000
 101        0.000025326
 102        0.000014668
 103        0.000000000
 104        0.000261950
 105        0.000000000
 106        0.000000000
 107        0.000031926
 108        0.000055401
 109        0.000104561
 110        0.000000000
 111        0.000000000
 112       -0.000110567
 113       -0.000191875
 114        0.000000000
 115       -0.000059049
 116       -0.000034099
 117        0.000000000
 118        0.000000000
 119        0.000000122
 120        0.000008737
 121       -0.399007947
 122       -0.001878512
 123       -0.016924523
 124       -0.001779873
 125        0.000000000
 126       -0.000605850
 127        0.000000000
 128        0.000000000
 129       -0.000110670
 130        0.000000000
 131        0.000000000
 132        0.000029206
 133        0.000000000
 134        0.000261524
 135        0.000000000
 136        0.000000000
 137       -0.000064104
 138        0.000000000
 139        0.000105123
 140        0.000000000
 141        0.000000000
 142        0.000224853
 143        0.000000000
 144        0.000000000
 145        0.000000000
 146       -0.000068172
 147        0.000000000
 148        0.000000000
 149        0.000000000
 150       -0.000008336
 151       -0.399349749
 152       -0.001878792
 153       -0.016938643
 154       -0.001779578
 155        0.000524816
 156       -0.000303298
 157        0.000000000
 158        0.000097081
 159       -0.000055310
 160        0.000000000
 161       -0.000025326
 162        0.000014668
 163        0.000000000
 164        0.000261950
 165        0.000000000
 166        0.000000000
 167        0.000031926
 168       -0.000055401
 169        0.000104561
 170        0.000000000
 171        0.000000000
 172       -0.000110567
 173        0.000191875
 174        0.000000000
 175        0.000059049
 176       -0.000034099
 177        0.000000000
 178        0.000000000
 179       -0.000000122
 180        0.000008737
 181       -0.000177738
 182       -0.000076782
 183        0.000281784
 184       -0.000083865
 185       -0.000048441
 186        0.000000000
 187       -0.000023823
 188       -0.000013661
 189        0.000000000
 190       -0.000010516
 191        0.000000000
 192        0.000000000
 193        0.000017988
 194        0.000031194
 195       -0.000177578
 196       -0.000073108
 197        0.000281786
 198        0.000000000
 199       -0.000096733
 200        0.000000000
 201        0.000000000
 202       -0.000028721
 203        0.000000000
 204       -0.000010451
 205        0.000000000
 206        0.000000000
 207       -0.000035996
 208        0.000000000
 209       -0.000177738
 210       -0.000076782
 211        0.000281784
 212        0.000083865
 213       -0.000048441
 214        0.000000000
 215        0.000023823
 216       -0.000013661
 217        0.000000000
 218       -0.000010516
 219        0.000000000
 220        0.000000000
 221        0.000017988
 222       -0.000031194
 223       -0.000177738
 224       -0.000076782
 225        0.000281784
 226        0.000083865
 227        0.000048441
 228        0.000000000
 229        0.000023823
 230        0.000013661
 231        0.000000000
 232       -0.000010516
 233        0.000000000
 234        0.000000000
 235        0.000017988
 236        0.000031194
 237       -0.000177578
 238       -0.000073108
 239        0.000281786
 240        0.000000000
 241        0.000096733
 242        0.000000000
 243        0.000000000
 244        0.000028721
 245        0.000000000
 246       -0.000010451
 247        0.000000000
 248        0.000000000
 249       -0.000035996
 250        0.000000000
 251       -0.000177738
 252       -0.000076782
 253        0.000281784
 254       -0.000083865
 255        0.000048441
 256        0.000000000
 257       -0.000023823
 258        0.000013661
 259        0.000000000
 260       -0.000010516
 261        0.000000000
 262        0.000000000
 263        0.000017988
 264       -0.000031194
 Sym= B3u 
 Ene=       -11.609022
 Spin= Alpha
 Occup=       2.000000
   1       -0.489049157
   2       -0.001365233
   3       -0.020578235
   4       -0.001568845
   5        0.000235500
   6        0.000426885
   7        0.000000000
   8        0.001160000
   9        0.000611845
  10        0.000000000
  11        0.000690174
  12        0.000290291
  13        0.000000000
  14        0.000388954
  15        0.000000000
  16        0.000000000
  17        0.000026825
  18        0.000090536
  19       -0.000245458
  20        0.000000000
  21        0.000000000
  22       -0.000317441
  23        0.000443410
  24        0.000000000
  25       -0.000030322
  26        0.000058493
  27        0.000000000
  28        0.000000000
  29        0.000016262
  30       -0.000057246
  31        0.000000000
  32        0.000000000
  33        0.000000000
  34        0.000000000
  35       -0.000503650
  36        0.000000000
  37        0.000000000
  38        0.000100356
  39        0.000000000
  40        0.000000000
  41        0.000187415
  42        0.000000000
  43        0.000000000
  44        0.000000000
  45        0.000000000
  46        0.000000000
  47        0.000000000
  48       -0.000044134
  49        0.000000000
  50        0.000000000
  51        0.000000000
  52        0.000000000
  53       -0.000993015
  54        0.000000000
  55       -0.000131600
  56        0.000000000
  57        0.000000000
  58        0.000000000
  59       -0.000032403
  60        0.000000000
  61        0.489049157
  62        0.001365233
  63        0.020578235
  64        0.001568845
  65        0.000235500
  66       -0.000426885
  67        0.000000000
  68        0.001160000
  69       -0.000611845
  70        0.000000000
  71        0.000690174
  72       -0.000290291
  73        0.000000000
  74       -0.000388954
  75        0.000000000
  76        0.000000000
  77       -0.000026825
  78        0.000090536
  79        0.000245458
  80        0.000000000
  81        0.000000000
  82        0.000317441
  83        0.000443410
  84        0.000000000
  85       -0.000030322
  86       -0.000058493
  87        0.000000000
  88        0.000000000
  89        0.000016262
  90        0.000057246
  91        0.489049157
  92        0.001365233
  93        0.020578235
  94        0.001568845
  95        0.000235500
  96        0.000426885
  97        0.000000000
  98        0.001160000
  99        0.000611845
 100        0.000000000
 101        0.000690174
 102        0.000290291
 103        0.000000000
 104       -0.000388954
 105        0.000000000
 106        0.000000000
 107       -0.000026825
 108       -0.000090536
 109        0.000245458
 110        0.000000000
 111        0.000000000
 112        0.000317441
 113       -0.000443410
 114        0.000000000
 115       -0.000030322
 116        0.000058493
 117        0.000000000
 118        0.000000000
 119        0.000016262
 120       -0.000057246
 121        0.000000000
 122        0.000000000
 123        0.000000000
 124        0.000000000
 125       -0.000503650
 126        0.000000000
 127        0.000000000
 128        0.000100356
 129        0.000000000
 130        0.000000000
 131        0.000187415
 132        0.000000000
 133        0.000000000
 134        0.000000000
 135        0.000000000
 136        0.000000000
 137        0.000000000
 138        0.000044134
 139        0.000000000
 140        0.000000000
 141        0.000000000
 142        0.000000000
 143        0.000993015
 144        0.000000000
 145       -0.000131600
 146        0.000000000
 147        0.000000000
 148        0.000000000
 149       -0.000032403
 150        0.000000000
 151       -0.489049157
 152       -0.001365233
 153       -0.020578235
 154       -0.001568845
 155        0.000235500
 156       -0.000426885
 157        0.000000000
 158        0.001160000
 159       -0.000611845
 160        0.000000000
 161        0.000690174
 162       -0.000290291
 163        0.000000000
 164        0.000388954
 165        0.000000000
 166        0.000000000
 167        0.000026825
 168       -0.000090536
 169       -0.000245458
 170        0.000000000
 171        0.000000000
 172       -0.000317441
 173       -0.000443410
 174        0.000000000
 175       -0.000030322
 176       -0.000058493
 177        0.000000000
 178        0.000000000
 179        0.000016262
 180        0.000057246
 181       -0.000178529
 182       -0.001853832
 183       -0.000289863
 184       -0.000053481
 185       -0.000043021
 186        0.000000000
 187        0.000707117
 188        0.000248598
 189        0.000000000
 190        0.000028605
 191        0.000000000
 192        0.000000000
 193       -0.000032502
 194        0.000000986
 195        0.000000000
 196        0.000000000
 197        0.000000000
 198        0.000021069
 199        0.000000000
 200        0.000000000
 201        0.000276492
 202        0.000000000
 203        0.000000000
 204        0.000000000
 205        0.000000000
 206        0.000000000
 207        0.000000000
 208       -0.000057304
 209        0.000178529
 210        0.001853832
 211        0.000289863
 212       -0.000053481
 213        0.000043021
 214        0.000000000
 215        0.000707117
 216       -0.000248598
 217        0.000000000
 218       -0.000028605
 219        0.000000000
 220        0.000000000
 221        0.000032502
 222        0.000000986
 223        0.000178529
 224        0.001853832
 225        0.000289863
 226       -0.000053481
 227       -0.000043021
 228        0.000000000
 229        0.000707117
 230        0.000248598
 231        0.000000000
 232       -0.000028605
 233        0.000000000
 234        0.000000000
 235        0.000032502
 236       -0.000000986
 237        0.000000000
 238        0.000000000
 239        0.000000000
 240        0.000021069
 241        0.000000000
 242        0.000000000
 243        0.000276492
 244        0.000000000
 245        0.000000000
 246        0.000000000
 247        0.000000000
 248        0.000000000
 249        0.000000000
 250        0.000057304
 251       -0.000178529
 252       -0.001853832
 253       -0.000289863
 254       -0.000053481
 255        0.000043021
 256        0.000000000
 257        0.000707117
 258       -0.000248598
 259        0.000000000
 260        0.000028605
 261        0.000000000
 262        0.000000000
 263       -0.000032502
 264       -0.000000986
 Sym= B2u 
 Ene=       -11.609017
 Spin= Alpha
 Occup=       2.000000
   1       -0.282591790
   2       -0.000788653
   3       -0.011890698
   4       -0.000910624
   5        0.000426902
   6       -0.000257107
   7        0.000000000
   8        0.000611986
   9        0.000453805
  10        0.000000000
  11        0.000292263
  12        0.000355893
  13        0.000000000
  14        0.000224894
  15        0.000000000
  16        0.000000000
  17        0.000059587
  18        0.000026732
  19       -0.000142023
  20        0.000000000
  21        0.000000000
  22        0.000811935
  23       -0.000313840
  24        0.000000000
  25        0.000058502
  26       -0.000097827
  27        0.000000000
  28        0.000000000
  29       -0.000028149
  30       -0.000033513
  31       -0.564466174
  32       -0.001575902
  33       -0.023751832
  34       -0.001805600
  35        0.000000000
  36        0.000481575
  37        0.000000000
  38        0.000000000
  39        0.001513328
  40        0.000000000
  41        0.000000000
  42        0.000855616
  43        0.000000000
  44        0.000448842
  45        0.000000000
  46        0.000000000
  47       -0.000106116
  48        0.000000000
  49       -0.000283429
  50        0.000000000
  51        0.000000000
  52       -0.000256590
  53        0.000000000
  54        0.000000000
  55        0.000000000
  56        0.000003438
  57        0.000000000
  58        0.000000000
  59        0.000000000
  60        0.000065655
  61       -0.282591790
  62       -0.000788653
  63       -0.011890698
  64       -0.000910624
  65       -0.000426902
  66       -0.000257107
  67        0.000000000
  68       -0.000611986
  69        0.000453805
  70        0.000000000
  71       -0.000292263
  72        0.000355893
  73        0.000000000
  74        0.000224894
  75        0.000000000
  76        0.000000000
  77        0.000059587
  78       -0.000026732
  79       -0.000142023
  80        0.000000000
  81        0.000000000
  82        0.000811935
  83        0.000313840
  84        0.000000000
  85       -0.000058502
  86       -0.000097827
  87        0.000000000
  88        0.000000000
  89        0.000028149
  90       -0.000033513
  91        0.282591790
  92        0.000788653
  93        0.011890698
  94        0.000910624
  95        0.000426902
  96       -0.000257107
  97        0.000000000
  98        0.000611986
  99        0.000453805
 100        0.000000000
 101        0.000292263
 102        0.000355893
 103        0.000000000
 104       -0.000224894
 105        0.000000000
 106        0.000000000
 107       -0.000059587
 108       -0.000026732
 109        0.000142023
 110        0.000000000
 111        0.000000000
 112       -0.000811935
 113        0.000313840
 114        0.000000000
 115        0.000058502
 116       -0.000097827
 117        0.000000000
 118        0.000000000
 119       -0.000028149
 120       -0.000033513
 121        0.564466174
 122        0.001575902
 123        0.023751832
 124        0.001805600
 125        0.000000000
 126        0.000481575
 127        0.000000000
 128        0.000000000
 129        0.001513328
 130        0.000000000
 131        0.000000000
 132        0.000855616
 133        0.000000000
 134       -0.000448842
 135        0.000000000
 136        0.000000000
 137        0.000106116
 138        0.000000000
 139        0.000283429
 140        0.000000000
 141        0.000000000
 142        0.000256590
 143        0.000000000
 144        0.000000000
 145        0.000000000
 146        0.000003438
 147        0.000000000
 148        0.000000000
 149        0.000000000
 150        0.000065655
 151        0.282591790
 152        0.000788653
 153        0.011890698
 154        0.000910624
 155       -0.000426902
 156       -0.000257107
 157        0.000000000
 158       -0.000611986
 159        0.000453805
 160        0.000000000
 161       -0.000292263
 162        0.000355893
 163        0.000000000
 164       -0.000224894
 165        0.000000000
 166        0.000000000
 167       -0.000059587
 168        0.000026732
 169        0.000142023
 170        0.000000000
 171        0.000000000
 172       -0.000811935
 173       -0.000313840
 174        0.000000000
 175       -0.000058502
 176       -0.000097827
 177        0.000000000
 178        0.000000000
 179        0.000028149
 180       -0.000033513
 181       -0.000103146
 182       -0.001073667
 183       -0.000167748
 184       -0.000043137
 185       -0.000003873
 186        0.000000000
 187        0.000249461
 188        0.000420618
 189        0.000000000
 190        0.000016444
 191        0.000000000
 192        0.000000000
 193        0.000038555
 194       -0.000032465
 195       -0.000206070
 196       -0.002138088
 197       -0.000334428
 198        0.000000000
 199       -0.000078182
 200        0.000000000
 201        0.000000000
 202        0.000849907
 203        0.000000000
 204        0.000033094
 205        0.000000000
 206        0.000000000
 207        0.000017813
 208        0.000000000
 209       -0.000103146
 210       -0.001073667
 211       -0.000167748
 212        0.000043137
 213       -0.000003873
 214        0.000000000
 215       -0.000249461
 216        0.000420618
 217        0.000000000
 218        0.000016444
 219        0.000000000
 220        0.000000000
 221        0.000038555
 222        0.000032465
 223        0.000103146
 224        0.001073667
 225        0.000167748
 226       -0.000043137
 227       -0.000003873
 228        0.000000000
 229        0.000249461
 230        0.000420618
 231        0.000000000
 232       -0.000016444
 233        0.000000000
 234        0.000000000
 235       -0.000038555
 236        0.000032465
 237        0.000206070
 238        0.002138088
 239        0.000334428
 240        0.000000000
 241       -0.000078182
 242        0.000000000
 243        0.000000000
 244        0.000849907
 245        0.000000000
 246       -0.000033094
 247        0.000000000
 248        0.000000000
 249       -0.000017813
 250        0.000000000
 251        0.000103146
 252        0.001073667
 253        0.000167748
 254        0.000043137
 255       -0.000003873
 256        0.000000000
 257       -0.000249461
 258        0.000420618
 259        0.000000000
 260       -0.000016444
 261        0.000000000
 262        0.000000000
 263       -0.000038555
 264       -0.000032465
 Sym= B1g 
 Ene=       -11.605187
 Spin= Alpha
 Occup=       2.000000
   1       -0.489230109
   2       -0.000274328
   3       -0.020094115
   4       -0.001747288
   5        0.000303215
   6       -0.000050940
   7        0.000000000
   8        0.000511058
   9        0.000313385
  10        0.000000000
  11        0.000597226
  12        0.000385747
  13        0.000000000
  14        0.000507029
  15        0.000000000
  16        0.000000000
  17        0.000069942
  18        0.000022399
  19       -0.000386474
  20        0.000000000
  21        0.000000000
  22        0.000680303
  23        0.000838935
  24        0.000000000
  25        0.000012152
  26       -0.000045014
  27        0.000000000
  28        0.000000000
  29        0.000053331
  30       -0.000474503
  31        0.000000000
  32        0.000000000
  33        0.000000000
  34        0.000000000
  35       -0.000391664
  36        0.000000000
  37        0.000000000
  38        0.000031902
  39        0.000000000
  40        0.000000000
  41        0.000071047
  42        0.000000000
  43        0.000000000
  44        0.000000000
  45        0.000000000
  46        0.000000000
  47        0.000000000
  48       -0.000098629
  49        0.000000000
  50        0.000000000