
                                        *****************
                                        * O   R   C   A *
                                        *****************

                                            #,                                       
                                            ###                                      
                                            ####                                     
                                            #####                                    
                                            ######                                   
                                           ########,                                 
                                     ,,################,,,,,                         
                               ,,#################################,,                 
                          ,,##########################################,,             
                       ,#########################################, ''#####,          
                    ,#############################################,,   '####,        
                  ,##################################################,,,,####,       
                ,###########''''           ''''###############################       
              ,#####''   ,,,,##########,,,,          '''####'''          '####       
            ,##' ,,,,###########################,,,                        '##       
           ' ,,###''''                  '''############,,,                           
         ,,##''                                '''############,,,,        ,,,,,,###''
      ,#''                                            '''#######################'''  
     '                                                          ''''####''''         
             ,#######,   #######,   ,#######,      ##                                
            ,#'     '#,  ##    ##  ,#'     '#,    #''#        ######   ,####,        
            ##       ##  ##   ,#'  ##            #'  '#       #        #'  '#        
            ##       ##  #######   ##           ,######,      #####,   #    #        
            '#,     ,#'  ##    ##  '#,     ,#' ,#      #,         ##   #,  ,#        
             '#######'   ##     ##  '#######'  #'      '#     #####' # '####'        



                  #######################################################
                  #                        -***-                        #
                  #          Department of theory and spectroscopy      #
                  #    Directorship and core code : Frank Neese         #
                  #        Max Planck Institute fuer Kohlenforschung    #
                  #                Kaiser Wilhelm Platz 1               #
                  #                 D-45470 Muelheim/Ruhr               #
                  #                      Germany                        #
                  #                                                     #
                  #                  All rights reserved                #
                  #                        -***-                        #
                  #######################################################


                         Program Version 5.0.0 -  RELEASE  -
                                (SVN: $Rev: 19529$)
                ($Date: 2021-06-28 11:36:33 +0200 (Mo, 28 Jun 2021) $)


 With contributions from (in alphabetic order):
   Daniel Aravena         : Magnetic Suceptibility
   Michael Atanasov       : Ab Initio Ligand Field Theory (pilot matlab implementation)
   Alexander A. Auer      : GIAO ZORA, VPT2 properties, NMR spectrum
   Ute Becker             : Parallelization
   Giovanni Bistoni       : ED, misc. LED, open-shell LED, HFLD
   Martin Brehm           : Molecular dynamics
   Dmytro Bykov           : SCF Hessian
   Vijay G. Chilkuri      : MRCI spin determinant printing, contributions to CSF-ICE
   Dipayan Datta          : RHF DLPNO-CCSD density
   Achintya Kumar Dutta   : EOM-CC, STEOM-CC
   Dmitry Ganyushin       : Spin-Orbit,Spin-Spin,Magnetic field MRCI
   Miquel Garcia          : C-PCM Hessian, Gaussian charge scheme
   Yang Guo               : DLPNO-NEVPT2, F12-NEVPT2, CIM, IAO-localization
   Andreas Hansen         : Spin unrestricted coupled pair/coupled cluster methods
   Benjamin Helmich-Paris : MC-RPA, TRAH-SCF, COSX integrals
   Lee Huntington         : MR-EOM, pCC
   Robert Izsak           : Overlap fitted RIJCOSX, COSX-SCS-MP3, EOM
   Marcus Kettner         : VPT2
   Christian Kollmar      : KDIIS, OOCD, Brueckner-CCSD(T), CCSD density, CASPT2, CASPT2-K
   Simone Kossmann        : Meta GGA functionals, TD-DFT gradient, OOMP2, MP2 Hessian
   Martin Krupicka        : Initial AUTO-CI
   Lucas Lang             : DCDCAS
   Marvin Lechner         : AUTO-CI (C++ implementation), FIC-MRCC
   Dagmar Lenk            : GEPOL surface, SMD
   Dimitrios Liakos       : Extrapolation schemes; Compound Job, initial MDCI parallelization
   Dimitrios Manganas     : Further ROCIS development; embedding schemes
   Dimitrios Pantazis     : SARC Basis sets
   Anastasios Papadopoulos: AUTO-CI, single reference methods and gradients
   Taras Petrenko         : DFT Hessian,TD-DFT gradient, ASA, ECA, R-Raman, ABS, FL, XAS/XES, NRVS
   Peter Pinski           : DLPNO-MP2, DLPNO-MP2 Gradient
   Christoph Reimann      : Effective Core Potentials
   Marius Retegan         : Local ZFS, SOC
   Christoph Riplinger    : Optimizer, TS searches, QM/MM, DLPNO-CCSD(T), (RO)-DLPNO pert. Triples
   Tobias Risthaus        : Range-separated hybrids, TD-DFT gradient, RPA, STAB
   Michael Roemelt        : Original ROCIS implementation
   Masaaki Saitow         : Open-shell DLPNO-CCSD energy and density
   Barbara Sandhoefer     : DKH picture change effects
   Avijit Sen             : IP-ROCIS
   Kantharuban Sivalingam : CASSCF convergence, NEVPT2, FIC-MRCI
   Bernardo de Souza      : ESD, SOC TD-DFT
   Georgi Stoychev        : AutoAux, RI-MP2 NMR
   Willem Van den Heuvel  : Paramagnetic NMR
   Boris Wezisla          : Elementary symmetry handling
   Frank Wennmohs         : Technical directorship


 We gratefully acknowledge several colleagues who have allowed us to
 interface, adapt or use parts of their codes:
   Stefan Grimme, W. Hujo, H. Kruse, P. Pracht,  : VdW corrections, initial TS optimization,
                  C. Bannwarth, S. Ehlert          DFT functionals, gCP, sTDA/sTD-DF
   Ed Valeev, F. Pavosevic, A. Kumar             : LibInt (2-el integral package), F12 methods
   Garnet Chan, S. Sharma, J. Yang, R. Olivares  : DMRG
   Ulf Ekstrom                                   : XCFun DFT Library
   Mihaly Kallay                                 : mrcc  (arbitrary order and MRCC methods)
   Jiri Pittner, Ondrej Demel                    : Mk-CCSD
   Frank Weinhold                                : gennbo (NPA and NBO analysis)
   Christopher J. Cramer and Donald G. Truhlar   : smd solvation model
   Lars Goerigk                                  : TD-DFT with DH, B97 family of functionals
   V. Asgeirsson, H. Jonsson                     : NEB implementation
   FAccTs GmbH                                   : IRC, NEB, NEB-TS, DLPNO-Multilevel, CI-OPT
                                                   MM, QMMM, 2- and 3-layer-ONIOM, Crystal-QMMM,
                                                   LR-CPCM, SF, NACMEs, symmetry and pop. for TD-DFT,
                                                   nearIR, NL-DFT gradient (VV10), updates on ESD,
                                                   ML-optimized integration grids
   S Lehtola, MJT Oliveira, MAL Marques          : LibXC Library
   Liviu Ungur et al                             : ANISO software


 Your calculation uses the libint2 library for the computation of 2-el integrals
 For citations please refer to: http://libint.valeyev.net

 Your ORCA version has been built with support for libXC version: 5.1.0
 For citations please refer to: https://tddft.org/programs/libxc/

 This ORCA versions uses:
   CBLAS   interface :  Fast vector & matrix operations
   LAPACKE interface :  Fast linear algebra routines
   SCALAPACK package :  Parallel linear algebra routines
   Shared memory     :  Shared parallel matrices
   BLAS/LAPACK       :  OpenBLAS 0.3.15  USE64BITINT DYNAMIC_ARCH NO_AFFINITY SkylakeX SINGLE_THREADED
        Core in use  :  SkylakeX
   Copyright (c) 2011-2014, The OpenBLAS Project


================================================================================

----- Orbital basis set information -----
Your calculation utilizes the basis: cc-pVDZ 
       H, B-Ne : Obtained from the ccRepo (grant-hill.group.shef.ac.uk/ccrepo) Feb. 2017
                 T. H. Dunning, Jr., J. Chem. Phys. 90, 1007 (1989)
            He : Obtained from the ccRepo (grant-hill.group.shef.ac.uk/ccrepo) Feb. 2017
                 D. E. Woon, T. H. Dunning, Jr., J. Chem. Phys. 100, 2975 (1994)
  Li-Be, Na-Mg : Obtained from the ccRepo (grant-hill.group.shef.ac.uk/ccrepo) Feb. 2017
                 B. P. Prascher, D. E. Woon, K. A. Peterson, T. H. Dunning, Jr., A. K. Wilson, Theor. Chem. Acc. 128, 69 (2011)
         Al-Ar : Obtained from the ccRepo (grant-hill.group.shef.ac.uk/ccrepo) Feb. 2017
                 D. E. Woon, T. H. Dunning, Jr., J. Chem. Phys. 98, 1358 (1993)
            Ca : Obtained from the Peterson Research Group Website (tyr0.chem.wsu.edu/~kipeters) Feb. 2017
                 J. Koput, K. A. Peterson, J. Phys. Chem. 106, 9595 (2002)
         Sc-Zn : Obtained from the ccRepo (grant-hill.group.shef.ac.uk/ccrepo) Feb. 2017
                 N. B. Balabanov, K. A. Peterson, J. Chem. Phys. 123, 064107 (2005)
                 N. B. Balabanov, K. A. Peterson, J. Chem. Phys. 125, 074110 (2006)
         Ga-Kr : Obtained from the ccRepo (grant-hill.group.shef.ac.uk/ccrepo) Feb. 2017
                 A. K. Wilson, D. E. Woon, K. A. Peterson, T. H. Dunning, Jr., J. Chem. Phys. 110, 7667 (1999)

================================================================================
                                        WARNINGS
                       Please study these warnings very carefully!
================================================================================


INFO   : the flag for use of the SHARK integral package has been found!

================================================================================
                                       INPUT FILE
================================================================================
NAME = 2,7-dicl-dibenzene.inp
|  1> ! RKS B3LYP/G cc-pVDZ NoRI pal8            
|  2> 
|  3> *xyz 0 1
|  4>   C   -0.84533195991773      0.95631204799741      0.86695688758137
|  5>   C   0.46296917953950      0.89055132107898      0.41153738968092
|  6>   C   1.06498249109929      2.05041746604826     -0.04872626223504
|  7>   C   0.38682375533153      3.25825741761093     -0.05957630313133
|  8>   C   -0.92916629483352      3.32496446678289      0.39786117470048
|  9>   C   -1.53691904595740      2.15806885302784      0.86178357772044
| 10>   H   -1.33177779310003      0.05786162666320      1.22288286662819
| 11>   H   1.00911644617855     -0.04137764481499      0.41174217012473
| 12>   H   0.89340943637666      4.14652768979640     -0.40661874558071
| 13>   H   -2.56260459262502      2.18503471734340      1.20271069002731
| 14>   C   -1.66709331376272      4.62322731007777      0.38662794093699
| 15>   C   -2.42161858132883      5.01473379007752      1.49250102782185
| 16>   C   -1.61923201631221      5.46623475990715     -0.72389685760276
| 17>   C   -3.10577169358506      6.21908872396761      1.47479389475736
| 18>   H   -2.46369194088787      4.39499072034369      2.37581764658229
| 19>   C   -2.30901947987771      6.66904435935388     -0.72694800403690
| 20>   H   -1.05555752795261      5.17208444276276     -1.59838613456934
| 21>   C   -3.05941590604282      7.05751618377553      0.37275066068088
| 22>   H   -2.26865845182014      7.30948735218955     -1.59800079723894
| 23>   H   -3.60007805771479      7.99261925989212      0.37887337421372
| 24>   Cl  2.70997882629083      1.99495162290832     -0.61716762133114
| 25>   Cl  -4.03387825909787      6.68923511320967      2.87110846426962
| 26> **                         ****END OF INPUT****
================================================================================

                       ****************************
                       * Single Point Calculation *
                       ****************************

---------------------------------
CARTESIAN COORDINATES (ANGSTROEM)
---------------------------------
  C     -0.845332    0.956312    0.866957
  C      0.462969    0.890551    0.411537
  C      1.064982    2.050417   -0.048726
  C      0.386824    3.258257   -0.059576
  C     -0.929166    3.324964    0.397861
  C     -1.536919    2.158069    0.861784
  H     -1.331778    0.057862    1.222883
  H      1.009116   -0.041378    0.411742
  H      0.893409    4.146528   -0.406619
  H     -2.562605    2.185035    1.202711
  C     -1.667093    4.623227    0.386628
  C     -2.421619    5.014734    1.492501
  C     -1.619232    5.466235   -0.723897
  C     -3.105772    6.219089    1.474794
  H     -2.463692    4.394991    2.375818
  C     -2.309019    6.669044   -0.726948
  H     -1.055558    5.172084   -1.598386
  C     -3.059416    7.057516    0.372751
  H     -2.268658    7.309487   -1.598001
  H     -3.600078    7.992619    0.378873
  Cl     2.709979    1.994952   -0.617168
  Cl    -4.033878    6.689235    2.871108

----------------------------
CARTESIAN COORDINATES (A.U.)
----------------------------
  NO LB      ZA    FRAG     MASS         X           Y           Z
   0 C     6.0000    0    12.011   -1.597446    1.807168    1.638311
   1 C     6.0000    0    12.011    0.874885    1.682898    0.777693
   2 C     6.0000    0    12.011    2.012525    3.874727   -0.092079
   3 C     6.0000    0    12.011    0.730991    6.157214   -0.112583
   4 C     6.0000    0    12.011   -1.755870    6.283272    0.751849
   5 C     6.0000    0    12.011   -2.904356    4.078159    1.628535
   6 H     1.0000    0     1.008   -2.516695    0.109343    2.310914
   7 H     1.0000    0     1.008    1.906954   -0.078192    0.778080
   8 H     1.0000    0     1.008    1.688299    7.835802   -0.768398
   9 H     1.0000    0     1.008   -4.842621    4.129117    2.272794
  10 C     6.0000    0    12.011   -3.150350    8.736633    0.730621
  11 C     6.0000    0    12.011   -4.576196    9.476473    2.820418
  12 C     6.0000    0    12.011   -3.059905   10.329687   -1.367967
  13 C     6.0000    0    12.011   -5.869058   11.752374    2.786957
  14 H     1.0000    0     1.008   -4.655703    8.305329    4.489645
  15 C     6.0000    0    12.011   -4.363414   12.602667   -1.373733
  16 H     1.0000    0     1.008   -1.994715    9.773823   -3.020512
  17 C     6.0000    0    12.011   -5.781458   13.336773    0.704397
  18 H     1.0000    0     1.008   -4.287143   13.812929   -3.019784
  19 H     1.0000    0     1.008   -6.803162   15.103861    0.715967
  20 Cl   17.0000    0    35.453    5.121118    3.769912   -1.166278
  21 Cl   17.0000    0    35.453   -7.622925   12.640822    5.425609

--------------------------------
INTERNAL COORDINATES (ANGSTROEM)
--------------------------------
 C      0   0   0     0.000000000000     0.00000000     0.00000000
 C      1   0   0     1.386860938875     0.00000000     0.00000000
 C      2   1   0     1.385479025758   118.63952714     0.00000000
 C      3   2   1     1.385241618952   121.32071476     0.00000000
 C      4   3   2     1.394822099290   120.06766846   359.96103452
 C      1   2   3     1.386556482495   120.69038160     0.00000000
 H      1   2   3     1.081908503884   119.52502475   179.56072184
 H      2   1   3     1.080170577393   121.18603541   180.01212109
 H      4   3   2     1.079857206092   119.34652679   178.77523602
 H      6   1   2     1.081198082863   119.57822093   178.80183793
 C      5   4   3     1.493368300550   120.35248133   180.11475760
 C     11   5   4     1.394826508055   120.35463753   224.79175713
 C     11   5   4     1.395069027838   120.95497549    44.87155408
 C     12  11   5     1.385225552160   120.07080458   180.11861286
 H     12  11   5     1.079861050805   120.56554825     1.31974039
 C     13  11   5     1.386566618273   120.58913713   179.89988759
 H     13  11   5     1.081196019893   119.82373189     1.10118951
 C     14  12  11     1.385499460185   121.31703547   359.96109820
 H     16  13  11     1.081909981562   119.78316654   180.44560859
 H     18  14  12     1.080171658966   120.17331808   180.00336495
 Cl     3   2   1     1.741325639069   119.48917474   179.65393631
 Cl    14  12  11     1.741296586253   119.19196488   180.32217609

---------------------------
INTERNAL COORDINATES (A.U.)
---------------------------
 C      0   0   0     0.000000000000     0.00000000     0.00000000
 C      1   0   0     2.620787360307     0.00000000     0.00000000
 C      2   1   0     2.618175922975   118.63952714     0.00000000
 C      3   2   1     2.617727289129   121.32071476     0.00000000
 C      4   3   2     2.635831773199   120.06766846   359.96103452
 C      1   2   3     2.620212021129   120.69038160     0.00000000
 H      1   2   3     2.044510774301   119.52502475   179.56072184
 H      2   1   3     2.041226569191   121.18603541   180.01212109
 H      4   3   2     2.040634383256   119.34652679   178.77523602
 H      6   1   2     2.043168273132   119.57822093   178.80183793
 C      5   4   3     2.822057105118   120.35248133   180.11475760
 C     11   5   4     2.635840104558   120.35463753   224.79175713
 C     11   5   4     2.636298400530   120.95497549    44.87155408
 C     12  11   5     2.617696927292   120.07080458   180.11861286
 H     12  11   5     2.040641648710   120.56554825     1.31974039
 C     13  11   5     2.620231174973   120.58913713   179.89988759
 H     13  11   5     2.043164374684   119.82373189     1.10118951
 C     14  12  11     2.618214538445   121.31703547   359.96109820
 H     16  13  11     2.044513566708   119.78316654   180.44560859
 H     18  14  12     2.041228613070   120.17331808   180.00336495
 Cl     3   2   1     3.290628567816   119.48917474   179.65393631
 Cl    14  12  11     3.290573665951   119.19196488   180.32217609

---------------------
BASIS SET INFORMATION
---------------------
There are 3 groups of distinct atoms

 Group   1 Type C   : 17s4p1d contracted to 3s2p1d pattern {881/31/1}
 Group   2 Type H   : 4s1p contracted to 2s1p pattern {31/1}
 Group   3 Type Cl  : 34s15p1d contracted to 4s3p1d pattern {1111111/771/1}

Atom   0C    basis set group =>   1
Atom   1C    basis set group =>   1
Atom   2C    basis set group =>   1
Atom   3C    basis set group =>   1
Atom   4C    basis set group =>   1
Atom   5C    basis set group =>   1
Atom   6H    basis set group =>   2
Atom   7H    basis set group =>   2
Atom   8H    basis set group =>   2
Atom   9H    basis set group =>   2
Atom  10C    basis set group =>   1
Atom  11C    basis set group =>   1
Atom  12C    basis set group =>   1
Atom  13C    basis set group =>   1
Atom  14H    basis set group =>   2
Atom  15C    basis set group =>   1
Atom  16H    basis set group =>   2
Atom  17C    basis set group =>   1
Atom  18H    basis set group =>   2
Atom  19H    basis set group =>   2
Atom  20Cl   basis set group =>   3
Atom  21Cl   basis set group =>   3
--------------------------------------------------------------------------
WARNING: There was an error initializing an OpenFabrics device.

  Local host:   cnode13
  Local device: mlx5_0
--------------------------------------------------------------------------


           ************************************************************
           *        Program running with 8 parallel MPI-processes     *
           *              working on a common directory               *
           ************************************************************
------------------------------------------------------------------------------
                           ORCA GTO INTEGRAL CALCULATION
------------------------------------------------------------------------------
------------------------------------------------------------------------------
                   ___                                                        
                  /   \      - P O W E R E D   B Y -                         
                 /     \                                                     
                 |  |  |   _    _      __       _____    __    __             
                 |  |  |  | |  | |    /  \     |  _  \  |  |  /  |          
                  \  \/   | |  | |   /    \    | | | |  |  | /  /          
                 / \  \   | |__| |  /  /\  \   | |_| |  |  |/  /          
                |  |  |   |  __  | /  /__\  \  |    /   |      \           
                |  |  |   | |  | | |   __   |  |    \   |  |\   \          
                \     /   | |  | | |  |  |  |  | |\  \  |  | \   \       
                 \___/    |_|  |_| |__|  |__|  |_| \__\ |__|  \__/        
                                                                              
                      - O R C A' S   B I G   F R I E N D -                    
                                      &                                       
                       - I N T E G R A L  F E E D E R -                       
                                                                              
 v1 FN, 2020, v2 2021                                                         
------------------------------------------------------------------------------


Reading SHARK input file 2,7-dicl-dibenzene.SHARKINP.tmp ... ok
----------------------
SHARK INTEGRAL PACKAGE
----------------------

Number of atoms                             ...     22
Number of basis functions                   ...    244
Number of shells                            ...    112
Maximum angular momentum                    ...      2
Integral batch strategy                     ... SHARK/LIBINT Hybrid
RI-J (if used) integral strategy            ... SPLIT-RIJ (Revised 2003 algorithm where possible)
Printlevel                                  ...      1
Contraction scheme used                     ... SEGMENTED contraction
Coulomb Range Separation                    ... NOT USED
Exchange Range Separation                   ... NOT USED
Finite Nucleus Model                        ... NOT USED
Auxiliary Coulomb fitting basis             ... NOT available
Auxiliary J/K fitting basis                 ... NOT available
Auxiliary Correlation fitting basis         ... NOT available
Auxiliary 'external' fitting basis          ... NOT available
Integral threshold                          ...     1.000000e-10
Primitive cut-off                           ...     1.000000e-11
Primitive pair pre-selection threshold      ...     1.000000e-11

Calculating pre-screening integrals         ... done (  0.2 sec) Dimension = 112
Organizing shell pair data                  ... done (  0.0 sec)
Shell pair information
Total number of shell pairs                 ...      6328
Shell pairs after pre-screening             ...      5361
Total number of primitive shell pairs       ...     82956
Primitive shell pairs kept                  ...     31804
          la=0 lb=0:   1540 shell pairs
          la=1 lb=0:   1944 shell pairs
          la=1 lb=1:    641 shell pairs
          la=2 lb=0:    700 shell pairs
          la=2 lb=1:    450 shell pairs
          la=2 lb=2:     86 shell pairs

Calculating one electron integrals          ... done (  0.0 sec)
Calculating Nuclear repulsion               ... done (  0.0 sec) ENN=    944.819064205746 Eh

SHARK setup successfully completed in   0.3 seconds

Maximum memory used throughout the entire GTOINT-calculation: 24.4 MB
[cnode13:325173] 7 more processes have sent help message help-mpi-btl-openib.txt / error in device init
[cnode13:325173] Set MCA parameter "orte_base_help_aggregate" to 0 to see all help / error messages
--------------------------------------------------------------------------
WARNING: There was an error initializing an OpenFabrics device.

  Local host:   cnode13
  Local device: mlx5_0
--------------------------------------------------------------------------


           ************************************************************
           *        Program running with 8 parallel MPI-processes     *
           *              working on a common directory               *
           ************************************************************
-------------------------------------------------------------------------------
                                 ORCA SCF
-------------------------------------------------------------------------------

------------
SCF SETTINGS
------------
Hamiltonian:
 Density Functional     Method          .... DFT(GTOs)
 Exchange Functional    Exchange        .... B88
   X-Alpha parameter    XAlpha          ....  0.666667
   Becke's b parameter  XBeta           ....  0.004200
 Correlation Functional Correlation     .... LYP
 LDA part of GGA corr.  LDAOpt          .... VWN-3
 Gradients option       PostSCFGGA      .... off
 Hybrid DFT is turned on
   Fraction HF Exchange ScalHFX         ....  0.200000
   Scaling of DF-GGA-X  ScalDFX         ....  0.720000
   Scaling of DF-GGA-C  ScalDFC         ....  0.810000
   Scaling of DF-LDA-C  ScalLDAC        ....  1.000000
   Perturbative correction              ....  0.000000
   Density functional embedding theory  .... OFF
   NL short-range parameter             ....  4.800000


General Settings:
 Integral files         IntName         .... 2,7-dicl-dibenzene
 Hartree-Fock type      HFTyp           .... RHF
 Total Charge           Charge          ....    0
 Multiplicity           Mult            ....    1
 Number of Electrons    NEL             ....  114
 Basis Dimension        Dim             ....  244
 Nuclear Repulsion      ENuc            ....    944.8190642057 Eh

Convergence Acceleration:
 DIIS                   CNVDIIS         .... on
   Start iteration      DIISMaxIt       ....    12
   Startup error        DIISStart       ....  0.200000
   # of expansion vecs  DIISMaxEq       ....     5
   Bias factor          DIISBfac        ....   1.050
   Max. coefficient     DIISMaxC        ....  10.000
 Trust-Rad. Augm. Hess. CNVTRAH         .... auto
   Auto Start mean grad. ratio tolernc. ....  1.125000
   Auto Start start iteration           ....    20
   Auto Start num. interpolation iter.  ....    10
   Max. Number of Micro iterations      ....    16
   Max. Number of Macro iterations      .... Maxiter - #DIIS iter
   Number of Davidson start vectors     ....     2
   Converg. threshold I  (grad. norm)   ....   5.000e-05
   Converg. threshold II (energy diff.) ....   1.000e-06
   Grad. Scal. Fac. for Micro threshold ....   0.100
   Minimum threshold for Micro iter.    ....   0.010
   NR start threshold (gradient norm)   ....   0.001
   Initial trust radius                 ....   0.400
   Minimum AH scaling param. (alpha)    ....   1.000
   Maximum AH scaling param. (alpha)    .... 1000.000
   Orbital update algorithm             .... Taylor
   White noise on init. David. guess    .... on
   Maximum white noise                  ....   0.010
   Quad. conv. algorithm                .... NR
 SOSCF                  CNVSOSCF        .... on
   Start iteration      SOSCFMaxIt      ....   150
   Startup grad/error   SOSCFStart      ....  0.003300
 Level Shifting         CNVShift        .... on
   Level shift para.    LevelShift      ....    0.2500
   Turn off err/grad.   ShiftErr        ....    0.0010
 Zerner damping         CNVZerner       .... off
 Static damping         CNVDamp         .... on
   Fraction old density DampFac         ....    0.7000
   Max. Damping (<1)    DampMax         ....    0.9800
   Min. Damping (>=0)   DampMin         ....    0.0000
   Turn off err/grad.   DampErr         ....    0.1000
 Fernandez-Rico         CNVRico         .... off

SCF Procedure:
 Maximum # iterations   MaxIter         ....   125
 SCF integral mode      SCFMode         .... Direct
   Integral package                     .... SHARK and LIBINT hybrid scheme
 Reset frequency        DirectResetFreq ....    20
 Integral Threshold     Thresh          ....  1.000e-10 Eh
 Primitive CutOff       TCut            ....  1.000e-11 Eh

Convergence Tolerance:
 Convergence Check Mode ConvCheckMode   .... Total+1el-Energy
 Convergence forced     ConvForced      .... 0
 Energy Change          TolE            ....  1.000e-06 Eh
 1-El. energy change                    ....  1.000e-03 Eh
 Orbital Gradient       TolG            ....  5.000e-05
 Orbital Rotation angle TolX            ....  5.000e-05
 DIIS Error             TolErr          ....  1.000e-06


Diagonalization of the overlap matrix:
Smallest eigenvalue                        ... 2.956e-04
Time for diagonalization                   ...    0.006 sec
Threshold for overlap eigenvalues          ... 1.000e-08
Number of eigenvalues below threshold      ... 0
Time for construction of square roots      ...    0.007 sec
Total time needed                          ...    0.014 sec

Time for model grid setup =    0.101 sec

------------------------------
INITIAL GUESS: MODEL POTENTIAL
------------------------------
Loading Hartree-Fock densities                     ... done
Calculating cut-offs                               ... done
Initializing the effective Hamiltonian             ... done
Setting up the integral package (SHARK)            ... done
Starting the Coulomb interaction                   ... done (   0.1 sec)
Reading the grid                                   ... done
Mapping shells                                     ... done
Starting the XC term evaluation                    ... done (   0.1 sec)
  promolecular density results
     # of electrons  =    114.001871602
     EX              =   -119.172501538
     EC              =     -4.112672143
     EX+EC           =   -123.285173681
Transforming the Hamiltonian                       ... done (   0.0 sec)
Diagonalizing the Hamiltonian                      ... done (   0.0 sec)
Back transforming the eigenvectors                 ... done (   0.0 sec)
Now organizing SCF variables                       ... done
                      ------------------
                      INITIAL GUESS DONE (   0.2 sec)
                      ------------------
-------------------
DFT GRID GENERATION
-------------------

General Integration Accuracy     IntAcc      ... 4.388
Radial Grid Type                 RadialGrid  ... OptM3 with GC (2021)
Angular Grid (max. ang.)         AngularGrid ... 4 (Lebedev-302)
Angular grid pruning method      GridPruning ... 4 (adaptive)
Weight generation scheme         WeightScheme... Becke
Basis function cutoff            BFCut       ... 1.0000e-10
Integration weight cutoff        WCut        ... 1.0000e-14
Angular grids for H and He will be reduced by one unit
Partially contracted basis set               ... off
Rotationally invariant grid construction     ... off

Total number of grid points                  ...   112188
Total number of batches                      ...     1761
Average number of points per batch           ...       63
Average number of grid points per atom       ...     5099
Time for grid setup =    0.519 sec

--------------
SCF ITERATIONS
--------------
ITER       Energy         Delta-E        Max-DP      RMS-DP      [F,P]     Damp
               ***  Starting incremental Fock matrix formation  ***
  0  -1382.3208700114   0.000000000000 0.04211436  0.00180081  0.1198197 0.7000
[cnode13:325233] 7 more processes have sent help message help-mpi-btl-openib.txt / error in device init
[cnode13:325233] Set MCA parameter "orte_base_help_aggregate" to 0 to see all help / error messages
  1  -1382.4314591342  -0.110589122795 0.03110810  0.00132742  0.0623866 0.7000
                               ***Turning on DIIS***
  2  -1382.4793832148  -0.047924080640 0.05491507  0.00238998  0.0282734 0.0000
  3  -1382.5463446408  -0.066961426002 0.01953706  0.00082771  0.0390604 0.0000
  4  -1382.5652157743  -0.018871133461 0.00758793  0.00026167  0.0080631 0.0000
                      *** Initiating the SOSCF procedure ***
                           *** Shutting down DIIS ***
                      *** Re-Reading the Fockian *** 
                      *** Removing any level shift *** 
ITER      Energy       Delta-E        Grad      Rot      Max-DP    RMS-DP
  5  -1382.56628475  -0.0010689757  0.000877  0.000877  0.002230  0.000081
               *** Restarting incremental Fock matrix formation ***
  6  -1382.56635506  -0.0000703058  0.000370  0.001355  0.001664  0.000060
  7  -1382.56635067   0.0000043892  0.000654  0.001018  0.000944  0.000027
  8  -1382.56636350  -0.0000128349  0.000171  0.000611  0.000441  0.000017
  9  -1382.56636290   0.0000006002  0.000208  0.000351  0.000259  0.000009
 10  -1382.56636433  -0.0000014248  0.000025  0.000110  0.000110  0.000003
 11  -1382.56636429   0.0000000388  0.000042  0.000078  0.000060  0.000002
                  ***Gradient check signals convergence***
              ***Rediagonalizing the Fockian in SOSCF/NRSCF***

               *****************************************************
               *                     SUCCESS                       *
               *           SCF CONVERGED AFTER  12 CYCLES          *
               *****************************************************


----------------
TOTAL SCF ENERGY
----------------

Total Energy       :        -1382.56636435 Eh          -37621.54342 eV

Components:
Nuclear Repulsion  :          944.81906421 Eh           25709.83380 eV
Electronic Energy  :        -2327.38542856 Eh          -63331.37722 eV
One Electron Energy:        -3770.91224228 Eh         -102611.73879 eV
Two Electron Energy:         1443.52681372 Eh           39280.36158 eV

Virial components:
Potential Energy   :        -2760.54185982 Eh          -75118.16294 eV
Kinetic Energy     :         1377.97549547 Eh           37496.61952 eV
Virial Ratio       :            2.00333160


DFT components:
N(Alpha)           :       57.000013954369 electrons
N(Beta)            :       57.000013954369 electrons
N(Total)           :      114.000027908738 electrons
E(X)               :      -95.453279620165 Eh       
E(C)               :       -5.261042894165 Eh       
E(XC)              :     -100.714322514329 Eh       
DFET-embed. en.    :        0.000000000000 Eh       

---------------
SCF CONVERGENCE
---------------

  Last Energy change         ...   -6.4515e-08  Tolerance :   1.0000e-06
  Last MAX-Density change    ...    4.0792e-05  Tolerance :   1.0000e-05
  Last RMS-Density change    ...    7.6554e-07  Tolerance :   1.0000e-06
  Last Orbital Gradient      ...    7.2392e-06  Tolerance :   5.0000e-05
  Last Orbital Rotation      ...    1.3640e-05  Tolerance :   5.0000e-05

             **** THE GBW FILE WAS UPDATED (2,7-dicl-dibenzene.gbw) ****
             **** DENSITY 2,7-dicl-dibenzene.scfp WAS UPDATED ****
             **** ENERGY FILE WAS UPDATED (2,7-dicl-dibenzene.en.tmp) ****
             **** THE GBW FILE WAS UPDATED (2,7-dicl-dibenzene.gbw) ****
             **** DENSITY 2,7-dicl-dibenzene.scfp WAS UPDATED ****
----------------
ORBITAL ENERGIES
----------------

  NO   OCC          E(Eh)            E(eV) 
   0   2.0000    -101.547253     -2763.2412 
   1   2.0000    -101.547251     -2763.2412 
   2   2.0000     -10.254004      -279.0256 
   3   2.0000     -10.254000      -279.0255 
   4   2.0000     -10.216778      -278.0127 
   5   2.0000     -10.216546      -278.0064 
   6   2.0000     -10.206554      -277.7344 
   7   2.0000     -10.206552      -277.7344 
   8   2.0000     -10.206126      -277.7228 
   9   2.0000     -10.206125      -277.7228 
  10   2.0000     -10.205919      -277.7172 
  11   2.0000     -10.205918      -277.7171 
  12   2.0000     -10.202159      -277.6149 
  13   2.0000     -10.202154      -277.6147 
  14   2.0000      -9.465821      -257.5781 
  15   2.0000      -9.465816      -257.5779 
  16   2.0000      -7.228316      -196.6925 
  17   2.0000      -7.228310      -196.6923 
  18   2.0000      -7.218704      -196.4309 
  19   2.0000      -7.218703      -196.4309 
  20   2.0000      -7.218303      -196.4200 
  21   2.0000      -7.218302      -196.4200 
  22   2.0000      -0.908185       -24.7130 
  23   2.0000      -0.900285       -24.4980 
  24   2.0000      -0.859572       -23.3901 
  25   2.0000      -0.840493       -22.8710 
  26   2.0000      -0.792707       -21.5707 
  27   2.0000      -0.759533       -20.6679 
  28   2.0000      -0.743499       -20.2316 
  29   2.0000      -0.737600       -20.0711 
  30   2.0000      -0.649679       -17.6787 
  31   2.0000      -0.630493       -17.1566 
  32   2.0000      -0.606076       -16.4922 
  33   2.0000      -0.590578       -16.0704 
  34   2.0000      -0.540690       -14.7129 
  35   2.0000      -0.517397       -14.0791 
  36   2.0000      -0.494278       -13.4500 
  37   2.0000      -0.481796       -13.1103 
  38   2.0000      -0.470864       -12.8129 
  39   2.0000      -0.457538       -12.4503 
  40   2.0000      -0.441738       -12.0203 
  41   2.0000      -0.440905       -11.9976 
  42   2.0000      -0.436697       -11.8831 
  43   2.0000      -0.410164       -11.1611 
  44   2.0000      -0.402132       -10.9426 
  45   2.0000      -0.391205       -10.6452 
  46   2.0000      -0.377259       -10.2657 
  47   2.0000      -0.365225        -9.9383 
  48   2.0000      -0.361643        -9.8408 
  49   2.0000      -0.347132        -9.4459 
  50   2.0000      -0.335518        -9.1299 
  51   2.0000      -0.317840        -8.6489 
  52   2.0000      -0.314945        -8.5701 
  53   2.0000      -0.289400        -7.8750 
  54   2.0000      -0.261623        -7.1191 
  55   2.0000      -0.256872        -6.9898 
  56   2.0000      -0.245474        -6.6797 
  57   0.0000      -0.046238        -1.2582 
  58   0.0000      -0.023595        -0.6420 
  59   0.0000      -0.023166        -0.6304 
  60   0.0000       0.002905         0.0790 
  61   0.0000       0.029316         0.7977 
  62   0.0000       0.033540         0.9127 
  63   0.0000       0.073887         2.0106 
  64   0.0000       0.077794         2.1169 
  65   0.0000       0.099960         2.7200 
  66   0.0000       0.106638         2.9018 
  67   0.0000       0.118788         3.2324 
  68   0.0000       0.123745         3.3673 
  69   0.0000       0.127556         3.4710 
  70   0.0000       0.139570         3.7979 
  71   0.0000       0.148402         4.0382 
  72   0.0000       0.162507         4.4220 
  73   0.0000       0.226399         6.1606 
  74   0.0000       0.231046         6.2871 
  75   0.0000       0.243981         6.6391 
  76   0.0000       0.262917         7.1543 
  77   0.0000       0.284017         7.7285 
  78   0.0000       0.289240         7.8706 
  79   0.0000       0.293994         8.0000 
  80   0.0000       0.322236         8.7685 
  81   0.0000       0.332247         9.0409 
  82   0.0000       0.364011         9.9052 
  83   0.0000       0.369466        10.0537 
  84   0.0000       0.400673        10.9029 
  85   0.0000       0.404137        10.9971 
  86   0.0000       0.451580        12.2881 
  87   0.0000       0.452749        12.3199 
  88   0.0000       0.454416        12.3653 
  89   0.0000       0.458694        12.4817 
  90   0.0000       0.470287        12.7972 
  91   0.0000       0.478495        13.0205 
  92   0.0000       0.481945        13.1144 
  93   0.0000       0.485739        13.2176 
  94   0.0000       0.488221        13.2852 
  95   0.0000       0.493389        13.4258 
  96   0.0000       0.500482        13.6188 
  97   0.0000       0.504628        13.7316 
  98   0.0000       0.506277        13.7765 
  99   0.0000       0.510695        13.8967 
 100   0.0000       0.512102        13.9350 
 101   0.0000       0.513140        13.9633 
 102   0.0000       0.527299        14.3485 
 103   0.0000       0.538179        14.6446 
 104   0.0000       0.538551        14.6547 
 105   0.0000       0.544065        14.8048 
 106   0.0000       0.556380        15.1399 
 107   0.0000       0.558800        15.2057 
 108   0.0000       0.580260        15.7897 
 109   0.0000       0.589674        16.0459 
 110   0.0000       0.592852        16.1323 
 111   0.0000       0.604998        16.4628 
 112   0.0000       0.607843        16.5403 
 113   0.0000       0.617176        16.7942 
 114   0.0000       0.641426        17.4541 
 115   0.0000       0.642487        17.4830 
 116   0.0000       0.643510        17.5108 
 117   0.0000       0.651405        17.7256 
 118   0.0000       0.656608        17.8672 
 119   0.0000       0.671401        18.2698 
 120   0.0000       0.672770        18.3070 
 121   0.0000       0.674953        18.3664 
 122   0.0000       0.701081        19.0774 
 123   0.0000       0.712729        19.3943 
 124   0.0000       0.721081        19.6216 
 125   0.0000       0.726138        19.7592 
 126   0.0000       0.731910        19.9163 
 127   0.0000       0.737418        20.0662 
 128   0.0000       0.745921        20.2975 
 129   0.0000       0.776347        21.1255 
 130   0.0000       0.782339        21.2885 
 131   0.0000       0.804208        21.8836 
 132   0.0000       0.828392        22.5417 
 133   0.0000       0.833146        22.6711 
 134   0.0000       0.868993        23.6465 
 135   0.0000       0.875686        23.8286 
 136   0.0000       0.878427        23.9032 
 137   0.0000       0.895253        24.3611 
 138   0.0000       0.914909        24.8959 
 139   0.0000       0.916853        24.9488 
 140   0.0000       0.920457        25.0469 
 141   0.0000       0.934481        25.4285 
 142   0.0000       0.947152        25.7733 
 143   0.0000       0.951265        25.8852 
 144   0.0000       0.980291        26.6751 
 145   0.0000       0.982468        26.7343 
 146   0.0000       1.012786        27.5593 
 147   0.0000       1.014021        27.5929 
 148   0.0000       1.019328        27.7373 
 149   0.0000       1.025639        27.9090 
 150   0.0000       1.041297        28.3351 
 151   0.0000       1.048462        28.5301 
 152   0.0000       1.056886        28.7593 
 153   0.0000       1.066728        29.0271 
 154   0.0000       1.070806        29.1381 
 155   0.0000       1.071465        29.1561 
 156   0.0000       1.095451        29.8087 
 157   0.0000       1.110733        30.2246 
 158   0.0000       1.120060        30.4784 
 159   0.0000       1.184144        32.2222 
 160   0.0000       1.207737        32.8642 
 161   0.0000       1.212156        32.9844 
 162   0.0000       1.219724        33.1904 
 163   0.0000       1.236243        33.6399 
 164   0.0000       1.239474        33.7278 
 165   0.0000       1.291870        35.1536 
 166   0.0000       1.312356        35.7110 
 167   0.0000       1.344904        36.5967 
 168   0.0000       1.387347        37.7516 
 169   0.0000       1.394160        37.9370 
 170   0.0000       1.418859        38.6091 
 171   0.0000       1.457668        39.6652 
 172   0.0000       1.459280        39.7090 
 173   0.0000       1.485555        40.4240 
 174   0.0000       1.490234        40.5513 
 175   0.0000       1.507928        41.0328 
 176   0.0000       1.508054        41.0362 
 177   0.0000       1.514963        41.2242 
 178   0.0000       1.535959        41.7956 
 179   0.0000       1.538317        41.8597 
 180   0.0000       1.594253        43.3818 
 181   0.0000       1.602016        43.5931 
 182   0.0000       1.612370        43.8748 
 183   0.0000       1.629823        44.3498 
 184   0.0000       1.631282        44.3894 
 185   0.0000       1.639463        44.6121 
 186   0.0000       1.645791        44.7843 
 187   0.0000       1.650362        44.9086 
 188   0.0000       1.656402        45.0730 
 189   0.0000       1.671305        45.4785 
 190   0.0000       1.676256        45.6132 
 191   0.0000       1.691088        46.0169 
 192   0.0000       1.702027        46.3145 
 193   0.0000       1.719649        46.7940 
 194   0.0000       1.736178        47.2438 
 195   0.0000       1.758496        47.8511 
 196   0.0000       1.760995        47.9191 
 197   0.0000       1.774794        48.2946 
 198   0.0000       1.798120        48.9293 
 199   0.0000       1.799243        48.9599 
 200   0.0000       1.818835        49.4930 
 201   0.0000       1.827806        49.7371 
 202   0.0000       1.849231        50.3201 
 203   0.0000       1.859378        50.5962 
 204   0.0000       1.866067        50.7783 
 205   0.0000       1.869626        50.8751 
 206   0.0000       1.883905        51.2637 
 207   0.0000       1.884876        51.2901 
 208   0.0000       1.905063        51.8394 
 209   0.0000       1.911930        52.0263 
 210   0.0000       1.920718        52.2654 
 211   0.0000       1.938605        52.7521 
 212   0.0000       1.982034        53.9339 
 213   0.0000       2.003322        54.5132 
 214   0.0000       2.018245        54.9193 
 215   0.0000       2.019489        54.9531 
 216   0.0000       2.077470        56.5308 
 217   0.0000       2.104321        57.2615 
 218   0.0000       2.116074        57.5813 
 219   0.0000       2.151405        58.5427 
 220   0.0000       2.202916        59.9444 
 221   0.0000       2.206126        60.0317 
 222   0.0000       2.209417        60.1213 
 223   0.0000       2.234589        60.8062 
 224   0.0000       2.345980        63.8374 
 225   0.0000       2.355969        64.1092 
 226   0.0000       2.402458        65.3742 
 227   0.0000       2.410863        65.6029 
 228   0.0000       2.419610        65.8409 
 229   0.0000       2.439792        66.3901 
 230   0.0000       2.508348        68.2556 
 231   0.0000       2.534378        68.9639 
 232   0.0000       2.550956        69.4150 
 233   0.0000       2.660125        72.3857 
 234   0.0000       2.676530        72.8321 
 235   0.0000       2.686611        73.1064 
 236   0.0000       2.704486        73.5928 
 237   0.0000       2.760643        75.1209 
 238   0.0000       2.783293        75.7373 
 239   0.0000       2.792995        76.0012 
 240   0.0000       2.875318        78.2414 
 241   0.0000       2.920188        79.4624 
 242   0.0000       3.404661        92.6455 
 243   0.0000       3.525127        95.9236 

                    ********************************
                    * MULLIKEN POPULATION ANALYSIS *
                    ********************************

-----------------------
MULLIKEN ATOMIC CHARGES
-----------------------
   0 C :    0.054741
   1 C :    0.126254
   2 C :   -0.146678
   3 C :    0.134679
   4 C :    0.008225
   5 C :    0.035151
   6 H :   -0.023923
   7 H :   -0.027100
   8 H :   -0.035503
   9 H :   -0.039789
  10 C :    0.008088
  11 C :    0.134808
  12 C :    0.035124
  13 C :   -0.146704
  14 H :   -0.035531
  15 C :    0.054671
  16 H :   -0.039818
  17 C :    0.126346
  18 H :   -0.023935
  19 H :   -0.027093
  20 Cl:   -0.086014
  21 Cl:   -0.085998
Sum of atomic charges:    0.0000000

--------------------------------
MULLIKEN REDUCED ORBITAL CHARGES
--------------------------------
  0 C s       :     3.082187  s :     3.082187
      pz      :     0.952396  p :     2.794665
      px      :     0.940257
      py      :     0.902013
      dz2     :     0.004856  d :     0.068407
      dxz     :     0.010771
      dyz     :     0.009633
      dx2y2   :     0.020286
      dxy     :     0.022861
  1 C s       :     3.088351  s :     3.088351
      pz      :     0.974768  p :     2.720205
      px      :     0.897915
      py      :     0.847522
      dz2     :     0.007000  d :     0.065190
      dxz     :     0.009670
      dyz     :     0.008346
      dx2y2   :     0.016787
      dxy     :     0.023388
  2 C s       :     3.224643  s :     3.224643
      pz      :     0.993906  p :     2.819298
      px      :     0.755405
      py      :     1.069986
      dz2     :     0.009755  d :     0.102738
      dxz     :     0.016571
      dyz     :     0.016175
      dx2y2   :     0.032618
      dxy     :     0.027619
  3 C s       :     3.117131  s :     3.117131
      pz      :     0.975787  p :     2.684197
      px      :     0.892990
      py      :     0.815420
      dz2     :     0.004562  d :     0.063992
      dxz     :     0.010239
      dyz     :     0.009652
      dx2y2   :     0.017725
      dxy     :     0.021814
  4 C s       :     3.129940  s :     3.129940
      pz      :     0.969616  p :     2.775932
      px      :     0.927887
      py      :     0.878428
      dz2     :     0.008673  d :     0.085902
      dxz     :     0.012606
      dyz     :     0.012880
      dx2y2   :     0.025627
      dxy     :     0.026117
  5 C s       :     3.130543  s :     3.130543
      pz      :     0.977604  p :     2.767967
      px      :     0.832064
      py      :     0.958299
      dz2     :     0.004685  d :     0.066339
      dxz     :     0.006232
      dyz     :     0.013288
      dx2y2   :     0.024202
      dxy     :     0.017932
  6 H s       :     0.994831  s :     0.994831
      pz      :     0.007435  p :     0.029092
      px      :     0.007477
      py      :     0.014180
  7 H s       :     0.997573  s :     0.997573
      pz      :     0.006068  p :     0.029527
      px      :     0.008381
      py      :     0.015079
  8 H s       :     1.005851  s :     1.005851
      pz      :     0.007578  p :     0.029652
      px      :     0.007929
      py      :     0.014144
  9 H s       :     1.010716  s :     1.010716
      pz      :     0.007446  p :     0.029072
      px      :     0.017078
      py      :     0.004549
 10 C s       :     3.129924  s :     3.129924
      pz      :     0.949875  p :     2.776081
      px      :     0.942507
      py      :     0.883699
      dz2     :     0.020925  d :     0.085907
      dxz     :     0.015389
      dyz     :     0.021714
      dx2y2   :     0.013737
      dxy     :     0.014142
 11 C s       :     3.117066  s :     3.117066
      pz      :     0.865627  p :     2.684133
      px      :     0.955287
      py      :     0.863218
      dz2     :     0.014525  d :     0.063993
      dxz     :     0.008764
      dyz     :     0.017865
      dx2y2   :     0.012382
      dxy     :     0.010457
 12 C s       :     3.130496  s :     3.130496
      pz      :     0.886741  p :     2.768034
      px      :     0.937141
      py      :     0.944152
      dz2     :     0.013830  d :     0.066346
      dxz     :     0.011891
      dyz     :     0.018130
      dx2y2   :     0.011901
      dxy     :     0.010594
 13 C s       :     3.224668  s :     3.224668
      pz      :     0.837060  p :     2.819291
      px      :     0.942839
      py      :     1.039392
      dz2     :     0.024189  d :     0.102744
      dxz     :     0.020960
      dyz     :     0.025388
      dx2y2   :     0.016849
      dxy     :     0.015358
 14 H s       :     1.005880  s :     1.005880
      pz      :     0.014328  p :     0.029651
      px      :     0.005678
      py      :     0.009646
 15 C s       :     3.082240  s :     3.082240
      pz      :     0.895118  p :     2.794681
      px      :     0.966062
      py      :     0.933502
      dz2     :     0.014123  d :     0.068408
      dxz     :     0.009643
      dyz     :     0.021080
      dx2y2   :     0.012929
      dxy     :     0.010633
 16 H s       :     1.010747  s :     1.010747
      pz      :     0.013751  p :     0.029071
      px      :     0.009518
      py      :     0.005802
 17 C s       :     3.088308  s :     3.088308
      pz      :     0.924320  p :     2.720155
      px      :     0.936154
      py      :     0.859680
      dz2     :     0.019401  d :     0.065191
      dxz     :     0.012040
      dyz     :     0.016090
      dx2y2   :     0.007319
      dxy     :     0.010341
 18 H s       :     0.994843  s :     0.994843
      pz      :     0.013790  p :     0.029092
      px      :     0.005569
      py      :     0.009733
 19 H s       :     0.997566  s :     0.997566
      pz      :     0.004736  p :     0.029527
      px      :     0.009271
      py      :     0.015521
 20 Cls       :     5.919531  s :     5.919531
      pz      :     3.852991  p :    11.126748
      px      :     3.320009
      py      :     3.953748
      dz2     :     0.005553  d :     0.039735
      dxz     :     0.012751
      dyz     :     0.000800
      dx2y2   :     0.015069
      dxy     :     0.005563
 21 Cls       :     5.919529  s :     5.919529
      pz      :     3.494991  p :    11.126731
      px      :     3.733796
      py      :     3.897944
      dz2     :     0.010319  d :     0.039738
      dxz     :     0.014705
      dyz     :     0.007522
      dx2y2   :     0.004055
      dxy     :     0.003138


                     *******************************
                     * LOEWDIN POPULATION ANALYSIS *
                     *******************************

----------------------
LOEWDIN ATOMIC CHARGES
----------------------
   0 C :   -0.013330
   1 C :   -0.031648
   2 C :   -0.140089
   3 C :   -0.025238
   4 C :   -0.012928
   5 C :   -0.017919
   6 H :    0.031367
   7 H :    0.030165
   8 H :    0.028264
   9 H :    0.027392
  10 C :   -0.012932
  11 C :   -0.025236
  12 C :   -0.017922
  13 C :   -0.140115
  14 H :    0.028262
  15 C :   -0.013333
  16 H :    0.027387
  17 C :   -0.031643
  18 H :    0.031367
  19 H :    0.030165
  20 Cl:    0.123966
  21 Cl:    0.123997

-------------------------------
LOEWDIN REDUCED ORBITAL CHARGES
-------------------------------
  0 C s       :     2.807030  s :     2.807030
      pz      :     0.943451  p :     2.998902
      px      :     1.029712
      py      :     1.025740
      dz2     :     0.015478  d :     0.207398
      dxz     :     0.031034
      dyz     :     0.025459
      dx2y2   :     0.064183
      dxy     :     0.071243
  1 C s       :     2.809890  s :     2.809890
      pz      :     0.966593  p :     3.018975
      px      :     1.034790
      py      :     1.017593
      dz2     :     0.021569  d :     0.202783
      dxz     :     0.029502
      dyz     :     0.022685
      dx2y2   :     0.055695
      dxy     :     0.073332
  2 C s       :     2.853253  s :     2.853253
      pz      :     0.988410  p :     3.011028
      px      :     0.919021
      py      :     1.103597
      dz2     :     0.024609  d :     0.275807
      dxz     :     0.038760
      dyz     :     0.042358
      dx2y2   :     0.092423
      dxy     :     0.077658
  3 C s       :     2.809180  s :     2.809180
      pz      :     0.968827  p :     3.015396
      px      :     1.026923
      py      :     1.019646
      dz2     :     0.015688  d :     0.200661
      dxz     :     0.029050
      dyz     :     0.024978
      dx2y2   :     0.058361
      dxy     :     0.072583
  4 C s       :     2.796188  s :     2.796188
      pz      :     0.934666  p :     2.967295
      px      :     1.025612
      py      :     1.007017
      dz2     :     0.024319  d :     0.249445
      dxz     :     0.035699
      dyz     :     0.034279
      dx2y2   :     0.076451
      dxy     :     0.078698
  5 C s       :     2.806544  s :     2.806544
      pz      :     0.960682  p :     3.008561
      px      :     1.010404
      py      :     1.037474
      dz2     :     0.015062  d :     0.202815
      dxz     :     0.016671
      dyz     :     0.036641
      dx2y2   :     0.076190
      dxy     :     0.058250
  6 H s       :     0.886972  s :     0.886972
      pz      :     0.021023  p :     0.081661
      px      :     0.022287
      py      :     0.038351
  7 H s       :     0.886518  s :     0.886518
      pz      :     0.018014  p :     0.083317
      px      :     0.024307
      py      :     0.040996
  8 H s       :     0.887141  s :     0.887141
      pz      :     0.022113  p :     0.084595
      px      :     0.023273
      py      :     0.039208
  9 H s       :     0.889054  s :     0.889054
      pz      :     0.021742  p :     0.083554
      px      :     0.046220
      py      :     0.015592
 10 C s       :     2.796184  s :     2.796184
      pz      :     1.038884  p :     2.967302
      px      :     0.948247
      py      :     0.980171
      dz2     :     0.063472  d :     0.249446
      dxz     :     0.045309
      dyz     :     0.064264
      dx2y2   :     0.036615
      dxy     :     0.039786
 11 C s       :     2.809174  s :     2.809174
      pz      :     1.017063  p :     3.015396
      px      :     0.986372
      py      :     1.011961
      dz2     :     0.044553  d :     0.200666
      dxz     :     0.028286
      dyz     :     0.056169
      dx2y2   :     0.034698
      dxy     :     0.036959
 12 C s       :     2.806540  s :     2.806540
      pz      :     1.010217  p :     3.008566
      px      :     0.977282
      py      :     1.021067
      dz2     :     0.042482  d :     0.202816
      dxz     :     0.034492
      dyz     :     0.057431
      dx2y2   :     0.034550
      dxy     :     0.033861
 13 C s       :     2.853247  s :     2.853247
      pz      :     0.963973  p :     3.011054
      px      :     0.977107
      py      :     1.069974
      dz2     :     0.064063  d :     0.275814
      dxz     :     0.052964
      dyz     :     0.071804
      dx2y2   :     0.044559
      dxy     :     0.042425
 14 H s       :     0.887145  s :     0.887145
      pz      :     0.039589  p :     0.084593
      px      :     0.017323
      py      :     0.027680
 15 C s       :     2.807028  s :     2.807028
      pz      :     1.009340  p :     2.998906
      px      :     0.974526
      py      :     1.015040
      dz2     :     0.043259  d :     0.207398
      dxz     :     0.030156
      dyz     :     0.063115
      dx2y2   :     0.036528
      dxy     :     0.034340
 16 H s       :     0.889059  s :     0.889059
      pz      :     0.038028  p :     0.083554
      px      :     0.027074
      py      :     0.018451
 17 C s       :     2.809890  s :     2.809890
      pz      :     1.033065  p :     3.018967
      px      :     0.981779
      py      :     1.004122
      dz2     :     0.061000  d :     0.202786
      dxz     :     0.038555
      dyz     :     0.052738
      dx2y2   :     0.019916
      dxy     :     0.030577
 18 H s       :     0.886973  s :     0.886973
      pz      :     0.037212  p :     0.081660
      px      :     0.016995
      py      :     0.027452
 19 H s       :     0.886518  s :     0.886518
      pz      :     0.015322  p :     0.083317
      px      :     0.026080
      py      :     0.041915
 20 Cls       :     5.726103  s :     5.726103
      pz      :     3.836824  p :    11.103102
      px      :     3.346430
      py      :     3.919849
      dz2     :     0.006309  d :     0.046829
      dxz     :     0.014770
      dyz     :     0.000926
      dx2y2   :     0.018141
      dxy     :     0.006683
 21 Cls       :     5.726089  s :     5.726089
      pz      :     3.506006  p :    11.103080
      px      :     3.726365
      py      :     3.870710
      dz2     :     0.012170  d :     0.046834
      dxz     :     0.017305
      dyz     :     0.009001
      dx2y2   :     0.004715
      dxy     :     0.003644


                      *****************************
                      * MAYER POPULATION ANALYSIS *
                      *****************************

  NA   - Mulliken gross atomic population
  ZA   - Total nuclear charge
  QA   - Mulliken gross atomic charge
  VA   - Mayer's total valence
  BVA  - Mayer's bonded valence
  FA   - Mayer's free valence

  ATOM       NA         ZA         QA         VA         BVA        FA
  0 C      5.9453     6.0000     0.0547     4.0095     4.0095     0.0000
  1 C      5.8737     6.0000     0.1263     3.9484     3.9484    -0.0000
  2 C      6.1467     6.0000    -0.1467     4.0215     4.0215    -0.0000
  3 C      5.8653     6.0000     0.1347     3.8985     3.8985     0.0000
  4 C      5.9918     6.0000     0.0082     4.0058     4.0058     0.0000
  5 C      5.9648     6.0000     0.0352     3.9888     3.9888     0.0000
  6 H      1.0239     1.0000    -0.0239     0.9678     0.9678     0.0000
  7 H      1.0271     1.0000    -0.0271     0.9812     0.9812     0.0000
  8 H      1.0355     1.0000    -0.0355     0.9944     0.9944     0.0000
  9 H      1.0398     1.0000    -0.0398     0.9824     0.9824     0.0000
 10 C      5.9919     6.0000     0.0081     4.0060     4.0060    -0.0000
 11 C      5.8652     6.0000     0.1348     3.8985     3.8985     0.0000
 12 C      5.9649     6.0000     0.0351     3.9889     3.9889     0.0000
 13 C      6.1467     6.0000    -0.1467     4.0214     4.0214    -0.0000
 14 H      1.0355     1.0000    -0.0355     0.9944     0.9944    -0.0000
 15 C      5.9453     6.0000     0.0547     4.0096     4.0096     0.0000
 16 H      1.0398     1.0000    -0.0398     0.9824     0.9824    -0.0000
 17 C      5.8737     6.0000     0.1263     3.9484     3.9484     0.0000
 18 H      1.0239     1.0000    -0.0239     0.9678     0.9678    -0.0000
 19 H      1.0271     1.0000    -0.0271     0.9812     0.9812    -0.0000
 20 Cl    17.0860    17.0000    -0.0860     1.1274     1.1274     0.0000
 21 Cl    17.0860    17.0000    -0.0860     1.1274     1.1274     0.0000

  Mayer bond orders larger than 0.100000
B(  0-C ,  1-C ) :   1.4519 B(  0-C ,  5-C ) :   1.4591 B(  0-C ,  6-H ) :   0.9302 
B(  1-C ,  2-C ) :   1.4032 B(  1-C ,  7-H ) :   0.9329 B(  2-C ,  3-C ) :   1.3866 
B(  2-C , 20-Cl) :   1.0340 B(  3-C ,  4-C ) :   1.4271 B(  3-C ,  8-H ) :   0.9272 
B(  4-C ,  5-C ) :   1.4367 B(  4-C , 10-C ) :   0.9771 B(  5-C ,  9-H ) :   0.9329 
B( 10-C , 11-C ) :   1.4271 B( 10-C , 12-C ) :   1.4368 B( 11-C , 13-C ) :   1.3866 
B( 11-C , 14-H ) :   0.9272 B( 12-C , 15-C ) :   1.4591 B( 12-C , 16-H ) :   0.9329 
B( 13-C , 17-C ) :   1.4032 B( 13-C , 21-Cl) :   1.0340 B( 15-C , 17-C ) :   1.4519 
B( 15-C , 18-H ) :   0.9302 B( 17-C , 19-H ) :   0.9329 

-------
TIMINGS
-------

Total SCF time: 0 days 0 hours 0 min 28 sec 

Total time                  ....      28.644 sec
Sum of individual times     ....      28.368 sec  ( 99.0%)

Fock matrix formation       ....      27.435 sec  ( 95.8%)
  XC integration            ....       2.294 sec  (  8.4% of F)
    Basis function eval.    ....       0.985 sec  ( 42.9% of XC)
    Density eval.           ....       0.438 sec  ( 19.1% of XC)
    XC-Functional eval.     ....       0.160 sec  (  7.0% of XC)
    XC-Potential eval.      ....       0.432 sec  ( 18.8% of XC)
Diagonalization             ....       0.055 sec  (  0.2%)
Density matrix formation    ....       0.007 sec  (  0.0%)
Population analysis         ....       0.015 sec  (  0.1%)
Initial guess               ....       0.135 sec  (  0.5%)
Orbital Transformation      ....       0.000 sec  (  0.0%)
Orbital Orthonormalization  ....       0.000 sec  (  0.0%)
DIIS solution               ....       0.042 sec  (  0.1%)
SOSCF solution              ....       0.059 sec  (  0.2%)
Grid generation             ....       0.620 sec  (  2.2%)

Maximum memory used throughout the entire SCF-calculation: 245.0 MB

-------------------------   --------------------
FINAL SINGLE POINT ENERGY     -1382.566364351804
-------------------------   --------------------


                            ***************************************
                            *     ORCA property calculations      *
                            ***************************************

                                    ---------------------
                                    Active property flags
                                    ---------------------
   (+) Dipole Moment


------------------------------------------------------------------------------
                       ORCA ELECTRIC PROPERTIES CALCULATION
------------------------------------------------------------------------------

Dipole Moment Calculation                       ... on
Quadrupole Moment Calculation                   ... off
Polarizability Calculation                      ... off
GBWName                                         ... 2,7-dicl-dibenzene.gbw
Electron density file                           ... 2,7-dicl-dibenzene.scfp
The origin for moment calculation is the CENTER OF MASS  = (-2.079645,  7.725980  1.172565)

-------------
DIPOLE MOMENT
-------------
                                X             Y             Z
Electronic contribution:      3.32710       1.92467       3.84265
Nuclear contribution   :     -3.59384      -2.07894      -4.15061
                        -----------------------------------------
Total Dipole Moment    :     -0.26674      -0.15427      -0.30796
                        -----------------------------------------
Magnitude (a.u.)       :      0.43564
Magnitude (Debye)      :      1.10732



--------------------
Rotational spectrum 
--------------------
 
Rotational constants in cm-1:     0.042977     0.007687     0.006936 
Rotational constants in MHz :  1288.420402   230.438753   207.945622 

 Dipole components along the rotational axes: 
x,y,z [a.u.] :     0.000037     0.000044    -0.435644 
x,y,z [Debye]:     0.000093     0.000112    -1.107319 

 
--------------------------------------------------------------------------
WARNING: There was an error initializing an OpenFabrics device.

  Local host:   cnode13
  Local device: mlx5_0
--------------------------------------------------------------------------
[cnode13:325361] 7 more processes have sent help message help-mpi-btl-openib.txt / error in device init
[cnode13:325361] Set MCA parameter "orte_base_help_aggregate" to 0 to see all help / error messages

Timings for individual modules:

Sum of individual times         ...       29.706 sec (=   0.495 min)
GTO integral calculation        ...        0.688 sec (=   0.011 min)   2.3 %
SCF iterations                  ...       29.019 sec (=   0.484 min)  97.7 %
                             ****ORCA TERMINATED NORMALLY****
TOTAL RUN TIME: 0 days 0 hours 0 minutes 30 seconds 218 msec

Sender: Unischeduler System <lcz@mgt01>
Subject: Job 127773: <#!/bin/bash
#BSUB -J intel
#BSUB -o 2,7-dicl-dibenzene.out
#BSUB -n 8
#BSUB -q cqueue
#BSUB -R span[hosts=1]
export LD_LIBRARY_PATH=/apps/software/openmpi-4.1.1/lib:/apps/software/orca_5_0_0:$LD_LIBRARY_PATH
export PATH=/apps/software/openmpi-4.1.1/bin:/apps/software/orca_5_0_0:$PATH
/apps/software/orca_5_0_0/orca 2,7-dicl-dibenzene.inp >& 2,7-dicl-dibenzene.out> Done

Job <#!/bin/bash
#BSUB -J intel
#BSUB -o 2,7-dicl-dibenzene.out
#BSUB -n 8
#BSUB -q cqueue
#BSUB -R span[hosts=1]
export LD_LIBRARY_PATH=/apps/software/openmpi-4.1.1/lib:/apps/software/orca_5_0_0:$LD_LIBRARY_PATH
export PATH=/apps/software/openmpi-4.1.1/bin:/apps/software/orca_5_0_0:$PATH
/apps/software/orca_5_0_0/orca 2,7-dicl-dibenzene.inp >& 2,7-dicl-dibenzene.out> was submitted from host <mgt01> by user <lcz>.
Job was executed on host(s) <8*cnode13>, in queue <cqueue>, as user <lcz>.
</apps/users/lcz> was used as the home directory.
</apps/users/lcz/task2/section1/isomer1/B3LYP_cc-pVDZ/ORCA> was used as the working directory.
Started at 2022-05-04 12:32:56
Results reported at 2022-05-04 12:33:26

Your job looked like:

------------------------------------------------------------
# User input
#!/bin/bash
#BSUB -J intel
#BSUB -o 2,7-dicl-dibenzene.out
#BSUB -n 8
#BSUB -q cqueue
#BSUB -R span[hosts=1]
export LD_LIBRARY_PATH=/apps/software/openmpi-4.1.1/lib:/apps/software/orca_5_0_0:$LD_LIBRARY_PATH
export PATH=/apps/software/openmpi-4.1.1/bin:/apps/software/orca_5_0_0:$PATH
/apps/software/orca_5_0_0/orca 2,7-dicl-dibenzene.inp >& 2,7-dicl-dibenzene.out
------------------------------------------------------------

Successfully completed.

Resource usage summary:

    CPU time   :          177.52 sec.
    Max Memory :               999 MB
    Max Processes  :              13


The output (if any) follows:

