
                                        *****************
                                        * O   R   C   A *
                                        *****************

                                            #,                                       
                                            ###                                      
                                            ####                                     
                                            #####                                    
                                            ######                                   
                                           ########,                                 
                                     ,,################,,,,,                         
                               ,,#################################,,                 
                          ,,##########################################,,             
                       ,#########################################, ''#####,          
                    ,#############################################,,   '####,        
                  ,##################################################,,,,####,       
                ,###########''''           ''''###############################       
              ,#####''   ,,,,##########,,,,          '''####'''          '####       
            ,##' ,,,,###########################,,,                        '##       
           ' ,,###''''                  '''############,,,                           
         ,,##''                                '''############,,,,        ,,,,,,###''
      ,#''                                            '''#######################'''  
     '                                                          ''''####''''         
             ,#######,   #######,   ,#######,      ##                                
            ,#'     '#,  ##    ##  ,#'     '#,    #''#        ######   ,####,        
            ##       ##  ##   ,#'  ##            #'  '#       #        #'  '#        
            ##       ##  #######   ##           ,######,      #####,   #    #        
            '#,     ,#'  ##    ##  '#,     ,#' ,#      #,         ##   #,  ,#        
             '#######'   ##     ##  '#######'  #'      '#     #####' # '####'        



                  #######################################################
                  #                        -***-                        #
                  #          Department of theory and spectroscopy      #
                  #    Directorship and core code : Frank Neese         #
                  #        Max Planck Institute fuer Kohlenforschung    #
                  #                Kaiser Wilhelm Platz 1               #
                  #                 D-45470 Muelheim/Ruhr               #
                  #                      Germany                        #
                  #                                                     #
                  #                  All rights reserved                #
                  #                        -***-                        #
                  #######################################################


                         Program Version 5.0.0 -  RELEASE  -
                                (SVN: $Rev: 19529$)
                ($Date: 2021-06-28 11:36:33 +0200 (Mo, 28 Jun 2021) $)


 With contributions from (in alphabetic order):
   Daniel Aravena         : Magnetic Suceptibility
   Michael Atanasov       : Ab Initio Ligand Field Theory (pilot matlab implementation)
   Alexander A. Auer      : GIAO ZORA, VPT2 properties, NMR spectrum
   Ute Becker             : Parallelization
   Giovanni Bistoni       : ED, misc. LED, open-shell LED, HFLD
   Martin Brehm           : Molecular dynamics
   Dmytro Bykov           : SCF Hessian
   Vijay G. Chilkuri      : MRCI spin determinant printing, contributions to CSF-ICE
   Dipayan Datta          : RHF DLPNO-CCSD density
   Achintya Kumar Dutta   : EOM-CC, STEOM-CC
   Dmitry Ganyushin       : Spin-Orbit,Spin-Spin,Magnetic field MRCI
   Miquel Garcia          : C-PCM Hessian, Gaussian charge scheme
   Yang Guo               : DLPNO-NEVPT2, F12-NEVPT2, CIM, IAO-localization
   Andreas Hansen         : Spin unrestricted coupled pair/coupled cluster methods
   Benjamin Helmich-Paris : MC-RPA, TRAH-SCF, COSX integrals
   Lee Huntington         : MR-EOM, pCC
   Robert Izsak           : Overlap fitted RIJCOSX, COSX-SCS-MP3, EOM
   Marcus Kettner         : VPT2
   Christian Kollmar      : KDIIS, OOCD, Brueckner-CCSD(T), CCSD density, CASPT2, CASPT2-K
   Simone Kossmann        : Meta GGA functionals, TD-DFT gradient, OOMP2, MP2 Hessian
   Martin Krupicka        : Initial AUTO-CI
   Lucas Lang             : DCDCAS
   Marvin Lechner         : AUTO-CI (C++ implementation), FIC-MRCC
   Dagmar Lenk            : GEPOL surface, SMD
   Dimitrios Liakos       : Extrapolation schemes; Compound Job, initial MDCI parallelization
   Dimitrios Manganas     : Further ROCIS development; embedding schemes
   Dimitrios Pantazis     : SARC Basis sets
   Anastasios Papadopoulos: AUTO-CI, single reference methods and gradients
   Taras Petrenko         : DFT Hessian,TD-DFT gradient, ASA, ECA, R-Raman, ABS, FL, XAS/XES, NRVS
   Peter Pinski           : DLPNO-MP2, DLPNO-MP2 Gradient
   Christoph Reimann      : Effective Core Potentials
   Marius Retegan         : Local ZFS, SOC
   Christoph Riplinger    : Optimizer, TS searches, QM/MM, DLPNO-CCSD(T), (RO)-DLPNO pert. Triples
   Tobias Risthaus        : Range-separated hybrids, TD-DFT gradient, RPA, STAB
   Michael Roemelt        : Original ROCIS implementation
   Masaaki Saitow         : Open-shell DLPNO-CCSD energy and density
   Barbara Sandhoefer     : DKH picture change effects
   Avijit Sen             : IP-ROCIS
   Kantharuban Sivalingam : CASSCF convergence, NEVPT2, FIC-MRCI
   Bernardo de Souza      : ESD, SOC TD-DFT
   Georgi Stoychev        : AutoAux, RI-MP2 NMR
   Willem Van den Heuvel  : Paramagnetic NMR
   Boris Wezisla          : Elementary symmetry handling
   Frank Wennmohs         : Technical directorship


 We gratefully acknowledge several colleagues who have allowed us to
 interface, adapt or use parts of their codes:
   Stefan Grimme, W. Hujo, H. Kruse, P. Pracht,  : VdW corrections, initial TS optimization,
                  C. Bannwarth, S. Ehlert          DFT functionals, gCP, sTDA/sTD-DF
   Ed Valeev, F. Pavosevic, A. Kumar             : LibInt (2-el integral package), F12 methods
   Garnet Chan, S. Sharma, J. Yang, R. Olivares  : DMRG
   Ulf Ekstrom                                   : XCFun DFT Library
   Mihaly Kallay                                 : mrcc  (arbitrary order and MRCC methods)
   Jiri Pittner, Ondrej Demel                    : Mk-CCSD
   Frank Weinhold                                : gennbo (NPA and NBO analysis)
   Christopher J. Cramer and Donald G. Truhlar   : smd solvation model
   Lars Goerigk                                  : TD-DFT with DH, B97 family of functionals
   V. Asgeirsson, H. Jonsson                     : NEB implementation
   FAccTs GmbH                                   : IRC, NEB, NEB-TS, DLPNO-Multilevel, CI-OPT
                                                   MM, QMMM, 2- and 3-layer-ONIOM, Crystal-QMMM,
                                                   LR-CPCM, SF, NACMEs, symmetry and pop. for TD-DFT,
                                                   nearIR, NL-DFT gradient (VV10), updates on ESD,
                                                   ML-optimized integration grids
   S Lehtola, MJT Oliveira, MAL Marques          : LibXC Library
   Liviu Ungur et al                             : ANISO software


 Your calculation uses the libint2 library for the computation of 2-el integrals
 For citations please refer to: http://libint.valeyev.net

 Your ORCA version has been built with support for libXC version: 5.1.0
 For citations please refer to: https://tddft.org/programs/libxc/

 This ORCA versions uses:
   CBLAS   interface :  Fast vector & matrix operations
   LAPACKE interface :  Fast linear algebra routines
   SCALAPACK package :  Parallel linear algebra routines
   Shared memory     :  Shared parallel matrices
   BLAS/LAPACK       :  OpenBLAS 0.3.15  USE64BITINT DYNAMIC_ARCH NO_AFFINITY SkylakeX SINGLE_THREADED
        Core in use  :  SkylakeX
   Copyright (c) 2011-2014, The OpenBLAS Project


================================================================================

----- Orbital basis set information -----
Your calculation utilizes the basis: def2-TZVP
   F. Weigend and R. Ahlrichs, Phys. Chem. Chem. Phys. 7, 3297 (2005).

================================================================================
                                        WARNINGS
                       Please study these warnings very carefully!
================================================================================


INFO   : the flag for use of the SHARK integral package has been found!

================================================================================
                                       INPUT FILE
================================================================================
NAME = /scratch/FeH2O62+-B3LYP_580/FeH2O62+-B3LYP.inp
|  1> ! B3LYP/G def2-TZVP NoRI TightSCF 
|  2> 
|  3> %pal
|  4>     nprocs 16
|  5> end
|  6> 
|  7> %scf
|  8>     STABPerform true
|  9> end
| 10> 
| 11> *xyz 2 1 
| 12>  Fe                 6.20397196    1.03714637    0.17096759
| 13>  O                  8.02343961    0.99562593    0.15635557
| 14>  O                  6.24694430   -0.78162449    0.11972374
| 15>  O                  6.22607513    1.15774049   -1.64489818
| 16>  O                  4.38440248    1.01816527    0.20570458
| 17>  O                  6.16557932    2.85626904    0.21242489
| 18>  O                  6.16850601    1.06001114    1.99047834
| 19>  H                  4.06545864    1.78648828    0.68482314
| 20>  H                  4.08101507    0.21943896    0.64341723
| 21>  H                  6.97846238    3.18466572    0.60354733
| 22>  H                  5.41693185    3.14865831    0.73743487
| 23>  H                  6.90726982    0.55047930    2.33136739
| 24>  H                  5.34491271    0.67543823    2.29934360
| 25>  H                  8.36474659    1.75961228    0.62692374
| 26>  H                  8.32866067    0.19290442    0.58539903
| 27>  H                  7.07410906   -1.09285932    0.49459883
| 28>  H                  5.51267410   -1.13351772    0.62826915
| 29>  H                  6.97521418    0.66593956   -1.98916919
| 30>  H                  5.41263500    0.79176715   -1.99983292
| 31> *
| 32> 
| 33> 
| 34>                          ****END OF INPUT****
================================================================================

                       ****************************
                       * Single Point Calculation *
                       ****************************

---------------------------------
CARTESIAN COORDINATES (ANGSTROEM)
---------------------------------
  Fe     6.203972    1.037146    0.170968
  O      8.023440    0.995626    0.156356
  O      6.246944   -0.781624    0.119724
  O      6.226075    1.157740   -1.644898
  O      4.384402    1.018165    0.205705
  O      6.165579    2.856269    0.212425
  O      6.168506    1.060011    1.990478
  H      4.065459    1.786488    0.684823
  H      4.081015    0.219439    0.643417
  H      6.978462    3.184666    0.603547
  H      5.416932    3.148658    0.737435
  H      6.907270    0.550479    2.331367
  H      5.344913    0.675438    2.299344
  H      8.364747    1.759612    0.626924
  H      8.328661    0.192904    0.585399
  H      7.074109   -1.092859    0.494599
  H      5.512674   -1.133518    0.628269
  H      6.975214    0.665940   -1.989169
  H      5.412635    0.791767   -1.999833

----------------------------
CARTESIAN COORDINATES (A.U.)
----------------------------
  NO LB      ZA    FRAG     MASS         X           Y           Z
   0 Fe   26.0000    0    55.850   11.723808    1.959923    0.323082
   1 O     8.0000    0    15.999   15.162104    1.881460    0.295469
   2 O     8.0000    0    15.999   11.805014   -1.477056    0.226245
   3 O     8.0000    0    15.999   11.765577    2.187812   -3.108407
   4 O     8.0000    0    15.999    8.285320    1.924054    0.388725
   5 O     8.0000    0    15.999   11.651256    5.397566    0.401425
   6 O     8.0000    0    15.999   11.656787    2.003131    3.761459
   7 H     1.0000    0     1.008    7.682603    3.375974    1.294128
   8 H     1.0000    0     1.008    7.712001    0.414680    1.215882
   9 H     1.0000    0     1.008   13.187383    6.018146    1.140539
  10 H     1.0000    0     1.008   10.236518    5.950102    1.393550
  11 H     1.0000    0     1.008   13.052848    1.040255    4.405646
  12 H     1.0000    0     1.008   10.100421    1.276393    4.345130
  13 H     1.0000    0     1.008   15.807080    3.325185    1.184714
  14 H     1.0000    0     1.008   15.738888    0.364537    1.106244
  15 H     1.0000    0     1.008   13.368129   -2.065205    0.934656
  16 H     1.0000    0     1.008   10.417444   -2.142038    1.187257
  17 H     1.0000    0     1.008   13.181245    1.258443   -3.758985
  18 H     1.0000    0     1.008   10.228398    1.496223   -3.779137

--------------------------------
INTERNAL COORDINATES (ANGSTROEM)
--------------------------------
 Fe     0   0   0     0.000000000000     0.00000000     0.00000000
 O      1   0   0     1.819999996556     0.00000000     0.00000000
 O      1   2   0     1.819999998723    87.32742365     0.00000000
 O      1   2   3     1.819999996308    88.93195843   267.77894440
 O      1   2   3     1.820000009115   177.99262569    20.00473223
 O      1   2   3     1.819999997538    92.52607242   180.30750819
 O      1   2   3     1.820000000187    91.59269068    92.28819468
 H      5   1   4     0.960000007972   109.47122029   242.27991320
 H      5   1   4     0.960000001460   109.47122035   122.27991362
 H      6   1   2     0.960000006115   109.47122050   334.49762204
 H      6   1   2     0.959999999296   109.47122063   214.49762256
 H      7   1   2     0.960000003828   109.47122063   326.71556765
 H      7   1   2     0.959999997784   109.47122098   206.71556775
 H      2   1   3     0.960000000104   109.47122095   209.92412478
 H      2   1   3     0.960000004507   109.47122070   329.92412509
 H      3   1   2     0.959999996195   109.47122079    25.49205148
 H      3   1   2     0.960000003104   109.47122125   145.49205180
 H      4   1   2     0.959999999641   109.47122034    33.23261025
 H      4   1   2     0.960000000179   109.47122090   153.23260990

---------------------------
INTERNAL COORDINATES (A.U.)
---------------------------
 Fe     0   0   0     0.000000000000     0.00000000     0.00000000
 O      1   0   0     3.439301557228     0.00000000     0.00000000
 O      1   2   0     3.439301561324    87.32742365     0.00000000
 O      1   2   3     3.439301556759    88.93195843   267.77894440
 O      1   2   3     3.439301580962   177.99262569    20.00473223
 O      1   2   3     3.439301559084    92.52607242   180.30750819
 O      1   2   3     3.439301564091    91.59269068    92.28819468
 H      5   1   4     1.814137103629   109.47122029   242.27991320
 H      5   1   4     1.814137091323   109.47122035   122.27991362
 H      6   1   2     1.814137100121   109.47122050   334.49762204
 H      6   1   2     1.814137087234   109.47122063   214.49762256
 H      7   1   2     1.814137095798   109.47122063   326.71556765
 H      7   1   2     1.814137084377   109.47122098   206.71556775
 H      2   1   3     1.814137088761   109.47122095   209.92412478
 H      2   1   3     1.814137097081   109.47122070   329.92412509
 H      3   1   2     1.814137081373   109.47122079    25.49205148
 H      3   1   2     1.814137094430   109.47122125   145.49205180
 H      4   1   2     1.814137087885   109.47122034    33.23261025
 H      4   1   2     1.814137088903   109.47122090   153.23260990

---------------------
BASIS SET INFORMATION
---------------------
There are 3 groups of distinct atoms

 Group   1 Type Fe  : 17s11p7d1f contracted to 6s4p4d1f pattern {842111/6311/4111/1}
 Group   2 Type O   : 11s6p2d1f contracted to 5s3p2d1f pattern {62111/411/11/1}
 Group   3 Type H   : 5s1p contracted to 3s1p pattern {311/1}

Atom   0Fe   basis set group =>   1
Atom   1O    basis set group =>   2
Atom   2O    basis set group =>   2
Atom   3O    basis set group =>   2
Atom   4O    basis set group =>   2
Atom   5O    basis set group =>   2
Atom   6O    basis set group =>   2
Atom   7H    basis set group =>   3
Atom   8H    basis set group =>   3
Atom   9H    basis set group =>   3
Atom  10H    basis set group =>   3
Atom  11H    basis set group =>   3
Atom  12H    basis set group =>   3
Atom  13H    basis set group =>   3
Atom  14H    basis set group =>   3
Atom  15H    basis set group =>   3
Atom  16H    basis set group =>   3
Atom  17H    basis set group =>   3
Atom  18H    basis set group =>   3
--------------------------------------------------------------------------
WARNING: There was an error initializing an OpenFabrics device.

  Local host:   cnode03
  Local device: mlx5_0
--------------------------------------------------------------------------


           ************************************************************
           *        Program running with 16 parallel MPI-processes    *
           *              working on a common directory               *
           ************************************************************
------------------------------------------------------------------------------
                           ORCA GTO INTEGRAL CALCULATION
------------------------------------------------------------------------------
------------------------------------------------------------------------------
                   ___                                                        
                  /   \      - P O W E R E D   B Y -                         
                 /     \                                                     
                 |  |  |   _    _      __       _____    __    __             
                 |  |  |  | |  | |    /  \     |  _  \  |  |  /  |          
                  \  \/   | |  | |   /    \    | | | |  |  | /  /          
                 / \  \   | |__| |  /  /\  \   | |_| |  |  |/  /          
                |  |  |   |  __  | /  /__\  \  |    /   |      \           
                |  |  |   | |  | | |   __   |  |    \   |  |\   \          
                \     /   | |  | | |  |  |  |  | |\  \  |  | \   \       
                 \___/    |_|  |_| |__|  |__|  |_| \__\ |__|  \__/        
                                                                              
                      - O R C A' S   B I G   F R I E N D -                    
                                      &                                       
                       - I N T E G R A L  F E E D E R -                       
                                                                              
 v1 FN, 2020, v2 2021                                                         
------------------------------------------------------------------------------


Reading SHARK input file /scratch/FeH2O62+-B3LYP_580/FeH2O62+-B3LYP.SHARKINP.tmp ... ok
----------------------
SHARK INTEGRAL PACKAGE
----------------------

Number of atoms                             ...     19
Number of basis functions                   ...    303
Number of shells                            ...    129
Maximum angular momentum                    ...      3
Integral batch strategy                     ... SHARK/LIBINT Hybrid
RI-J (if used) integral strategy            ... SPLIT-RIJ (Revised 2003 algorithm where possible)
Printlevel                                  ...      1
Contraction scheme used                     ... SEGMENTED contraction
Coulomb Range Separation                    ... NOT USED
Exchange Range Separation                   ... NOT USED
Finite Nucleus Model                        ... NOT USED
Auxiliary Coulomb fitting basis             ... NOT available
Auxiliary J/K fitting basis                 ... NOT available
Auxiliary Correlation fitting basis         ... NOT available
Auxiliary 'external' fitting basis          ... NOT available
Integral threshold                          ...     2.500000e-11
Primitive cut-off                           ...     2.500000e-12
Primitive pair pre-selection threshold      ...     2.500000e-12

Calculating pre-screening integrals         ... done (  0.1 sec) Dimension = 129
Organizing shell pair data                  ... done (  0.1 sec)
Shell pair information
Total number of shell pairs                 ...      8385
Shell pairs after pre-screening             ...      7795
Total number of primitive shell pairs       ...     26333
Primitive shell pairs kept                  ...     17887
          la=0 lb=0:   2389 shell pairs
          la=1 lb=0:   2283 shell pairs
          la=1 lb=1:    580 shell pairs
          la=2 lb=0:   1054 shell pairs
          la=2 lb=1:    526 shell pairs
          la=2 lb=2:    133 shell pairs
          la=3 lb=0:    464 shell pairs
          la=3 lb=1:    232 shell pairs
          la=3 lb=2:    106 shell pairs
          la=3 lb=3:     28 shell pairs

Calculating one electron integrals          ... done (  0.0 sec)
Calculating Nuclear repulsion               ... done (  0.0 sec) ENN=    767.815501670606 Eh

SHARK setup successfully completed in   0.2 seconds

Maximum memory used throughout the entire GTOINT-calculation: 16.1 MB
[cnode03:192115] 15 more processes have sent help message help-mpi-btl-openib.txt / error in device init
[cnode03:192115] Set MCA parameter "orte_base_help_aggregate" to 0 to see all help / error messages
--------------------------------------------------------------------------
WARNING: There was an error initializing an OpenFabrics device.

  Local host:   cnode03
  Local device: mlx5_0
--------------------------------------------------------------------------


           ************************************************************
           *        Program running with 16 parallel MPI-processes    *
           *              working on a common directory               *
           ************************************************************
-------------------------------------------------------------------------------
                                 ORCA SCF
-------------------------------------------------------------------------------

------------
SCF SETTINGS
------------
Hamiltonian:
 Density Functional     Method          .... DFT(GTOs)
 Exchange Functional    Exchange        .... B88
   X-Alpha parameter    XAlpha          ....  0.666667
   Becke's b parameter  XBeta           ....  0.004200
 Correlation Functional Correlation     .... LYP
 LDA part of GGA corr.  LDAOpt          .... VWN-3
 Gradients option       PostSCFGGA      .... off
 Hybrid DFT is turned on
   Fraction HF Exchange ScalHFX         ....  0.200000
   Scaling of DF-GGA-X  ScalDFX         ....  0.720000
   Scaling of DF-GGA-C  ScalDFC         ....  0.810000
   Scaling of DF-LDA-C  ScalLDAC        ....  1.000000
   Perturbative correction              ....  0.000000
   Density functional embedding theory  .... OFF
   NL short-range parameter             ....  4.800000


General Settings:
 Integral files         IntName         .... /scratch/FeH2O62+-B3LYP_580/FeH2O62+-B3LYP
 Hartree-Fock type      HFTyp           .... RHF
 Total Charge           Charge          ....    2
 Multiplicity           Mult            ....    1
 Number of Electrons    NEL             ....   84
 Basis Dimension        Dim             ....  303
 Nuclear Repulsion      ENuc            ....    767.8155016706 Eh

Convergence Acceleration:
 DIIS                   CNVDIIS         .... on
   Start iteration      DIISMaxIt       ....    12
   Startup error        DIISStart       ....  0.200000
   # of expansion vecs  DIISMaxEq       ....     5
   Bias factor          DIISBfac        ....   1.050
   Max. coefficient     DIISMaxC        ....  10.000
 Trust-Rad. Augm. Hess. CNVTRAH         .... auto
   Auto Start mean grad. ratio tolernc. ....  1.125000
   Auto Start start iteration           ....    20
   Auto Start num. interpolation iter.  ....    10
   Max. Number of Micro iterations      ....    16
   Max. Number of Macro iterations      .... Maxiter - #DIIS iter
   Number of Davidson start vectors     ....     2
   Converg. threshold I  (grad. norm)   ....   1.000e-05
   Converg. threshold II (energy diff.) ....   1.000e-08
   Grad. Scal. Fac. for Micro threshold ....   0.100
   Minimum threshold for Micro iter.    ....   0.010
   NR start threshold (gradient norm)   ....   0.001
   Initial trust radius                 ....   0.400
   Minimum AH scaling param. (alpha)    ....   1.000
   Maximum AH scaling param. (alpha)    .... 1000.000
   Orbital update algorithm             .... Taylor
   White noise on init. David. guess    .... on
   Maximum white noise                  ....   0.010
   Quad. conv. algorithm                .... NR
 SOSCF                  CNVSOSCF        .... off
 Level Shifting         CNVShift        .... on
   Level shift para.    LevelShift      ....    0.2500
   Turn off err/grad.   ShiftErr        ....    0.0010
 Zerner damping         CNVZerner       .... off
 Static damping         CNVDamp         .... on
   Fraction old density DampFac         ....    0.7000
   Max. Damping (<1)    DampMax         ....    0.9800
   Min. Damping (>=0)   DampMin         ....    0.0000
   Turn off err/grad.   DampErr         ....    0.1000
 Fernandez-Rico         CNVRico         .... off

SCF Procedure:
 Maximum # iterations   MaxIter         ....   125
 SCF integral mode      SCFMode         .... Direct
   Integral package                     .... SHARK and LIBINT hybrid scheme
 Reset frequency        DirectResetFreq ....    20
 Integral Threshold     Thresh          ....  2.500e-11 Eh
 Primitive CutOff       TCut            ....  2.500e-12 Eh

Convergence Tolerance:
 Convergence Check Mode ConvCheckMode   .... Total+1el-Energy
 Convergence forced     ConvForced      .... 0
 Energy Change          TolE            ....  1.000e-08 Eh
 1-El. energy change                    ....  1.000e-05 Eh
 DIIS Error             TolErr          ....  5.000e-07


Diagonalization of the overlap matrix:
Smallest eigenvalue                        ... 1.285e-03
Time for diagonalization                   ...    0.009 sec
Threshold for overlap eigenvalues          ... 1.000e-08
Number of eigenvalues below threshold      ... 0
Time for construction of square roots      ...    0.008 sec
Total time needed                          ...    0.018 sec

Time for model grid setup =    0.061 sec

------------------------------
INITIAL GUESS: MODEL POTENTIAL
------------------------------
Loading Hartree-Fock densities                     ... done
Calculating cut-offs                               ... done
Initializing the effective Hamiltonian             ... done
Setting up the integral package (SHARK)            ... done
Starting the Coulomb interaction                   ... done (   0.0 sec)
Reading the grid                                   ... done
Mapping shells                                     ... done
Starting the XC term evaluation                    ... done (   0.0 sec)
  promolecular density results
     # of electrons  =     86.003809820
     EX              =   -107.556948993
     EC              =     -3.333705818
     EX+EC           =   -110.890654811
Transforming the Hamiltonian                       ... done (   0.0 sec)
Diagonalizing the Hamiltonian                      ... done (   0.0 sec)
Back transforming the eigenvectors                 ... done (   0.0 sec)
Now organizing SCF variables                       ... done
                      ------------------
                      INITIAL GUESS DONE (   0.1 sec)
                      ------------------
-------------------
DFT GRID GENERATION
-------------------

General Integration Accuracy     IntAcc      ... 4.388
Radial Grid Type                 RadialGrid  ... OptM3 with GC (2021)
Angular Grid (max. ang.)         AngularGrid ... 4 (Lebedev-302)
Angular grid pruning method      GridPruning ... 4 (adaptive)
Weight generation scheme         WeightScheme... Becke
Basis function cutoff            BFCut       ... 1.0000e-11
Integration weight cutoff        WCut        ... 1.0000e-14
Angular grids for H and He will be reduced by one unit
Partially contracted basis set               ... off
Rotationally invariant grid construction     ... off

Total number of grid points                  ...    85524
Total number of batches                      ...     1346
Average number of points per batch           ...       63
Average number of grid points per atom       ...     4501
Time for grid setup =    0.313 sec

--------------
SCF ITERATIONS
--------------
ITER       Energy         Delta-E        Max-DP      RMS-DP      [F,P]     Damp
               ***  Starting incremental Fock matrix formation  ***
  0  -1721.4184787048   0.000000000000 0.06396626  0.00154310  0.2981164 0.7000
  1  -1721.6521618720  -0.233683167193 0.03741599  0.00090091  0.1251910 0.7000
[cnode03:192231] 15 more processes have sent help message help-mpi-btl-openib.txt / error in device init
[cnode03:192231] Set MCA parameter "orte_base_help_aggregate" to 0 to see all help / error messages
                               ***Turning on DIIS***
  2  -1721.7276556982  -0.075493826240 0.04595842  0.00096383  0.0346775 0.0000
  3  -1721.8664780724  -0.138822374217 0.02143716  0.00066595  0.0677704 0.0000
  4  -1721.8915097358  -0.025031663371 0.00622946  0.00017773  0.0112090 0.0000
  5  -1721.8920415354  -0.000531799655 0.00485937  0.00009463  0.0139925 0.0000
  6  -1721.8922555547  -0.000214019255 0.00190780  0.00003097  0.0036239 0.0000
  7  -1721.8922874004  -0.000031845685 0.00207712  0.00003166  0.0007988 0.0000
  8  -1721.8922953272  -0.000007926798 0.00028590  0.00000655  0.0009153 0.0000
  9  -1721.8922970665  -0.000001739360 0.00013600  0.00000265  0.0002210 0.0000
 10  -1721.8922971904  -0.000000123909 0.00003561  0.00000079  0.0000512 0.0000
 11  -1721.8922972025  -0.000000012084 0.00001182  0.00000024  0.0000294 0.0000
 12  -1721.8922972030  -0.000000000427 0.00000529  0.00000010  0.0000159 0.0000
 13  -1721.8922972027   0.000000000230 0.00000297  0.00000006  0.0000064 0.0000
 14  -1721.8922972033  -0.000000000596 0.00000118  0.00000002  0.0000023 0.0000
 15  -1721.8922972024   0.000000000968 0.00000144  0.00000002  0.0000013 0.0000
                 **** Energy Check signals convergence ****

               *****************************************************
               *                     SUCCESS                       *
               *           SCF CONVERGED AFTER  16 CYCLES          *
               *****************************************************


------------------------------------------------------------------------------
                          SCF STABILITY ANALYSIS                              
------------------------------------------------------------------------------


---------------
TD-DFT XC SETUP
---------------

DFT calculation                         ... on
Name of the grid file                   ... /scratch/FeH2O62+-B3LYP_580/FeH2O62+-B3LYP.grid.tmp
Exchange functional (SCF)               ... B88
Exchange functional (TD-DFT)            ... B88
   X-Alpha parameter    XAlpha (SCF)    ...  0.666667
   X-Alpha parameter    XAlpha (TD-DFT) ...  0.666667
   Becke's b parameter  XBeta (SCF)     ...  0.004200
   Becke's b parameter  XBeta (TD-DFT)  ...  0.004200
Correlation functional (SCF)            ... LYP
Correlation functional (TD-DFT)         ... LYP
 LDA part of GGA corr.  LDAOpt (SCF)    ... VWN-3
 LDA part of GGA corr.  LDAOpt (TD-DFT) ... VWN-3
Hybrid DFT                              ... on
   Exchange mixing (SCF)                ...  0.200
   Exchange mixing (TD-DFT)             ...  0.200
   GGA exch. scaling(SCF)               ...  0.720
   GGA exch. scaling (TD-DFT)           ...  0.720
   GGA corr. scaling (SCF)              ...  0.810
   GGA corr. scaling (TD-DFT)           ...  0.810

Electron density on the grid   ... found on disk
Building xc-kernel on the grid ... done
                    *** TD-DFT CALCULATION INITIALIZED ***

                       ****Iteration    0****

   Memory handling for direct AO based CIS:
   Memory per vector needed      ...     2 MB
   Memory needed                 ...    12 MB
   Memory available              ...  1024 MB
   Number of vectors per batch   ...   486
   Number of batches             ...     1
   Time for densities:     0.004
   Time for XC-Integration:     0.540
   Using LibInt in JK Direct
   Time for K (Direct):     6.180
   Time for Sigma-Completion:     0.008
   Lowest Energy          :     0.098083183705
   Maximum Energy change  :     0.123141215385 (vector 2)
   Maximum residual norm  :     0.000571705965

                       ****Iteration    1****
   Time for densities:     0.002
   Time for XC-Integration:     0.293
   Using LibInt in JK Direct
   Time for K (Direct):     3.530
   Time for Sigma-Completion:     0.008
   Lowest Energy          :     0.096630262757
   Maximum Energy change  :     0.001617684679 (vector 1)
   Maximum residual norm  :     0.000248252468

                       ****Iteration    2****
   Time for densities:     0.002
   Time for XC-Integration:     0.291
   Using LibInt in JK Direct
   Time for K (Direct):     3.575
   Time for Sigma-Completion:     0.002
   Lowest Energy          :     0.043867443491
   Maximum Energy change  :     0.059303188772 (vector 1)
   Maximum residual norm  :     0.007126213053

                       ****Iteration    3****
   Time for densities:     0.002
   Time for XC-Integration:     0.297
   Using LibInt in JK Direct
   Time for K (Direct):     3.589
   Time for Sigma-Completion:     0.003
   Lowest Energy          :     0.036256328815
   Maximum Energy change  :     0.010206586008 (vector 2)
   Maximum residual norm  :     0.000281730612

                       ****Iteration    4****
   Time for densities:     0.002
   Time for XC-Integration:     0.296
   Using LibInt in JK Direct
   Time for K (Direct):     3.536
   Time for Sigma-Completion:     0.007
   Lowest Energy          :     0.035959317365
   Maximum Energy change  :     0.005083614162 (vector 2)
   Maximum residual norm  :     0.003766180657

                       ****Iteration    5****
   Time for densities:     0.002
   Time for XC-Integration:     0.306
   Using LibInt in JK Direct
   Time for K (Direct):     3.520
   Time for Sigma-Completion:     0.003
   Lowest Energy          :     0.034162160522
   Maximum Energy change  :     0.016981750293 (vector 2)
   Maximum residual norm  :     0.005615631639

                       ****Iteration    6****
   Time for densities:     0.002
   Time for XC-Integration:     0.311
   Using LibInt in JK Direct
   Time for K (Direct):     3.560
   Time for Sigma-Completion:     0.007
   Lowest Energy          :     0.030559065432
   Maximum Energy change  :     0.003603095090 (vector 0)
   Maximum residual norm  :     0.000113252891

                       ****Iteration    7****
   Time for densities:     0.002
   Time for XC-Integration:     0.305
   Using LibInt in JK Direct
   Time for K (Direct):     3.579
   Time for Sigma-Completion:     0.008
   Lowest Energy          :     0.030468850687
   Maximum Energy change  :     0.000090214744 (vector 0)

         *** CONVERGENCE OF ENERGIES REACHED ***

----------------------------- 
SCF STABILITY ANALYSIS RESULT 
----------------------------- 

RHF/RKS->UHF/UKS - triplet - external

   Root    Eigenvalue (au) 
     0       0.030469 
     1       0.037239 
     2       0.039530 

Stability Analysis indicates a stable HF/KS wave function.


Total time for performing the stability analysis:    33.863sec


----------------
TOTAL SCF ENERGY
----------------

Total Energy       :        -1721.89229720 Eh          -46855.07147 eV

Components:
Nuclear Repulsion  :          767.81550167 Eh           20893.32200 eV
Electronic Energy  :        -2489.70779887 Eh          -67748.39347 eV
One Electron Energy:        -3878.07912582 Eh         -105527.89795 eV
Two Electron Energy:         1388.37132695 Eh           37779.50448 eV

Virial components:
Potential Energy   :        -3441.68763624 Eh          -93653.08181 eV
Kinetic Energy     :         1719.79533903 Eh           46798.01034 eV
Virial Ratio       :            2.00121931


DFT components:
N(Alpha)           :       42.000359891667 electrons
N(Beta)            :       42.000359891667 electrons
N(Total)           :       84.000719783333 electrons
E(X)               :      -85.970605633687 Eh       
E(C)               :       -4.159849031177 Eh       
E(XC)              :      -90.130454664864 Eh       
DFET-embed. en.    :        0.000000000000 Eh       

---------------
SCF CONVERGENCE
---------------

  Last Energy change         ...   -1.3990e-09  Tolerance :   1.0000e-08
  Last MAX-Density change    ...    1.0053e-06  Tolerance :   1.0000e-07
  Last RMS-Density change    ...    1.0524e-08  Tolerance :   5.0000e-09
  Last DIIS Error            ...    6.3913e-07  Tolerance :   5.0000e-07

             **** THE GBW FILE WAS UPDATED (/scratch/FeH2O62+-B3LYP_580/FeH2O62+-B3LYP.gbw) ****
             **** DENSITY /scratch/FeH2O62+-B3LYP_580/FeH2O62+-B3LYP.scfp WAS UPDATED ****
             **** ENERGY FILE WAS UPDATED (/scratch/FeH2O62+-B3LYP_580/FeH2O62+-B3LYP.en.tmp) ****
             **** THE GBW FILE WAS UPDATED (/scratch/FeH2O62+-B3LYP_580/FeH2O62+-B3LYP.gbw) ****
             **** DENSITY /scratch/FeH2O62+-B3LYP_580/FeH2O62+-B3LYP.scfp WAS UPDATED ****
----------------
ORBITAL ENERGIES
----------------

  NO   OCC          E(Eh)            E(eV) 
   0   2.0000    -256.340498     -6975.3796 
   1   2.0000     -30.284942      -824.0952 
   2   2.0000     -26.147066      -711.4978 
   3   2.0000     -26.145449      -711.4538 
   4   2.0000     -26.143904      -711.4118 
   5   2.0000     -19.543221      -531.7981 
   6   2.0000     -19.542920      -531.7899 
   7   2.0000     -19.542647      -531.7825 
   8   2.0000     -19.541986      -531.7645 
   9   2.0000     -19.510963      -530.9203 
  10   2.0000     -19.480728      -530.0976 
  11   2.0000      -3.721286      -101.2613 
  12   2.0000      -2.500477       -68.0414 
  13   2.0000      -2.496723       -67.9393 
  14   2.0000      -2.493443       -67.8500 
  15   2.0000      -1.458062       -39.6759 
  16   2.0000      -1.436352       -39.0851 
  17   2.0000      -1.431804       -38.9614 
  18   2.0000      -1.429593       -38.9012 
  19   2.0000      -1.404725       -38.2245 
  20   2.0000      -1.373751       -37.3817 
  21   2.0000      -0.995081       -27.0775 
  22   2.0000      -0.968449       -26.3528 
  23   2.0000      -0.961280       -26.1578 
  24   2.0000      -0.946117       -25.7452 
  25   2.0000      -0.914596       -24.8874 
  26   2.0000      -0.902778       -24.5658 
  27   2.0000      -0.869222       -23.6527 
  28   2.0000      -0.845849       -23.0167 
  29   2.0000      -0.833436       -22.6790 
  30   2.0000      -0.817894       -22.2560 
  31   2.0000      -0.812784       -22.1170 
  32   2.0000      -0.783523       -21.3207 
  33   2.0000      -0.773776       -21.0555 
  34   2.0000      -0.743696       -20.2370 
  35   2.0000      -0.742193       -20.1961 
  36   2.0000      -0.728231       -19.8162 
  37   2.0000      -0.706686       -19.2299 
  38   2.0000      -0.681508       -18.5448 
  39   2.0000      -0.549496       -14.9525 
  40   2.0000      -0.535965       -14.5844 
  41   2.0000      -0.523659       -14.2495 
  42   0.0000      -0.383648       -10.4396 
  43   0.0000      -0.333703        -9.0805 
  44   0.0000      -0.315682        -8.5902 
  45   0.0000      -0.299664        -8.1543 
  46   0.0000      -0.297178        -8.0866 
  47   0.0000      -0.284185        -7.7331 
  48   0.0000      -0.275846        -7.5062 
  49   0.0000      -0.242542        -6.5999 
  50   0.0000      -0.226693        -6.1686 
  51   0.0000      -0.214931        -5.8486 
  52   0.0000      -0.195479        -5.3192 
  53   0.0000      -0.188675        -5.1341 
  54   0.0000      -0.178162        -4.8480 
  55   0.0000      -0.134982        -3.6730 
  56   0.0000      -0.102826        -2.7980 
  57   0.0000      -0.092549        -2.5184 
  58   0.0000      -0.081902        -2.2287 
  59   0.0000      -0.051470        -1.4006 
  60   0.0000      -0.042715        -1.1623 
  61   0.0000      -0.035961        -0.9786 
  62   0.0000       0.001675         0.0456 
  63   0.0000       0.004094         0.1114 
  64   0.0000       0.007231         0.1968 
  65   0.0000       0.025879         0.7042 
  66   0.0000       0.037525         1.0211 
  67   0.0000       0.051541         1.4025 
  68   0.0000       0.080249         2.1837 
  69   0.0000       0.081022         2.2047 
  70   0.0000       0.087614         2.3841 
  71   0.0000       0.096337         2.6215 
  72   0.0000       0.103937         2.8283 
  73   0.0000       0.116162         3.1609 
  74   0.0000       0.128724         3.5028 
  75   0.0000       0.135112         3.6766 
  76   0.0000       0.148279         4.0349 
  77   0.0000       0.170868         4.6496 
  78   0.0000       0.171801         4.6749 
  79   0.0000       0.178979         4.8703 
  80   0.0000       0.188771         5.1367 
  81   0.0000       0.215451         5.8627 
  82   0.0000       0.225803         6.1444 
  83   0.0000       0.238136         6.4800 
  84   0.0000       0.240951         6.5566 
  85   0.0000       0.267389         7.2760 
  86   0.0000       0.275227         7.4893 
  87   0.0000       0.287615         7.8264 
  88   0.0000       0.294380         8.0105 
  89   0.0000       0.316389         8.6094 
  90   0.0000       0.333690         9.0802 
  91   0.0000       0.345005         9.3881 
  92   0.0000       0.359317         9.7775 
  93   0.0000       0.372691        10.1414 
  94   0.0000       0.382152        10.3989 
  95   0.0000       0.430440        11.7129 
  96   0.0000       0.476797        12.9743 
  97   0.0000       0.504203        13.7201 
  98   0.0000       0.513198        13.9648 
  99   0.0000       0.523891        14.2558 
 100   0.0000       0.591926        16.1071 
 101   0.0000       0.629970        17.1424 
 102   0.0000       0.634604        17.2684 
 103   0.0000       0.673779        18.3345 
 104   0.0000       0.692001        18.8303 
 105   0.0000       0.843654        22.9570 
 106   0.0000       0.871364        23.7110 
 107   0.0000       0.894180        24.3319 
 108   0.0000       0.910374        24.7725 
 109   0.0000       0.929593        25.2955 
 110   0.0000       0.978920        26.6378 
 111   0.0000       0.981670        26.7126 
 112   0.0000       1.004570        27.3358 
 113   0.0000       1.029303        28.0088 
 114   0.0000       1.057530        28.7769 
 115   0.0000       1.061979        28.8979 
 116   0.0000       1.080404        29.3993 
 117   0.0000       1.123412        30.5696 
 118   0.0000       1.137243        30.9460 
 119   0.0000       1.142109        31.0784 
 120   0.0000       1.176098        32.0032 
 121   0.0000       1.184957        32.2443 
 122   0.0000       1.203057        32.7369 
 123   0.0000       1.209571        32.9141 
 124   0.0000       1.234202        33.5843 
 125   0.0000       1.252655        34.0865 
 126   0.0000       1.254160        34.1274 
 127   0.0000       1.279099        34.8060 
 128   0.0000       1.291477        35.1429 
 129   0.0000       1.309284        35.6274 
 130   0.0000       1.316056        35.8117 
 131   0.0000       1.366853        37.1940 
 132   0.0000       1.379964        37.5507 
 133   0.0000       1.398740        38.0617 
 134   0.0000       1.413930        38.4750 
 135   0.0000       1.425016        38.7767 
 136   0.0000       1.450254        39.4634 
 137   0.0000       1.458401        39.6851 
 138   0.0000       1.471120        40.0312 
 139   0.0000       1.480063        40.2746 
 140   0.0000       1.491345        40.5816 
 141   0.0000       1.506681        40.9989 
 142   0.0000       1.545687        42.0603 
 143   0.0000       1.641860        44.6773 
 144   0.0000       1.652018        44.9537 
 145   0.0000       1.658851        45.1396 
 146   0.0000       1.675609        45.5956 
 147   0.0000       1.694839        46.1189 
 148   0.0000       1.726156        46.9711 
 149   0.0000       1.738070        47.2953 
 150   0.0000       1.782364        48.5006 
 151   0.0000       1.801967        49.0340 
 152   0.0000       1.808963        49.2244 
 153   0.0000       1.824583        49.6494 
 154   0.0000       1.835630        49.9500 
 155   0.0000       1.851251        50.3751 
 156   0.0000       1.872865        50.9633 
 157   0.0000       1.877837        51.0985 
 158   0.0000       1.886527        51.3350 
 159   0.0000       1.913460        52.0679 
 160   0.0000       1.929680        52.5093 
 161   0.0000       1.946019        52.9539 
 162   0.0000       1.982518        53.9471 
 163   0.0000       1.997664        54.3592 
 164   0.0000       2.032344        55.3029 
 165   0.0000       2.037859        55.4530 
 166   0.0000       2.088224        56.8235 
 167   0.0000       2.109069        57.3907 
 168   0.0000       2.123663        57.7878 
 169   0.0000       2.154097        58.6160 
 170   0.0000       2.166094        58.9424 
 171   0.0000       2.191012        59.6205 
 172   0.0000       2.196354        59.7658 
 173   0.0000       2.203659        59.9646 
 174   0.0000       2.221192        60.4417 
 175   0.0000       2.236877        60.8685 
 176   0.0000       2.255325        61.3705 
 177   0.0000       2.260530        61.5121 
 178   0.0000       2.299390        62.5696 
 179   0.0000       2.302625        62.6576 
 180   0.0000       2.318465        63.0886 
 181   0.0000       2.373218        64.5785 
 182   0.0000       2.386893        64.9507 
 183   0.0000       2.436937        66.3124 
 184   0.0000       2.459164        66.9173 
 185   0.0000       2.467540        67.1452 
 186   0.0000       2.481999        67.5386 
 187   0.0000       2.498069        67.9759 
 188   0.0000       2.515341        68.4459 
 189   0.0000       2.562018        69.7160 
 190   0.0000       2.598673        70.7135 
 191   0.0000       2.629417        71.5501 
 192   0.0000       2.662817        72.4589 
 193   0.0000       2.710705        73.7620 
 194   0.0000       2.770744        75.3958 
 195   0.0000       2.777713        75.5854 
 196   0.0000       2.871809        78.1459 
 197   0.0000       2.974219        80.9326 
 198   0.0000       3.121506        84.9405 
 199   0.0000       3.189235        86.7835 
 200   0.0000       3.250335        88.4461 
 201   0.0000       3.266591        88.8884 
 202   0.0000       3.291442        89.5647 
 203   0.0000       3.321061        90.3707 
 204   0.0000       3.365033        91.5672 
 205   0.0000       3.379686        91.9659 
 206   0.0000       3.394834        92.3781 
 207   0.0000       3.403362        92.6102 
 208   0.0000       3.452636        93.9510 
 209   0.0000       3.564366        96.9913 
 210   0.0000       3.570731        97.1645 
 211   0.0000       3.581493        97.4574 
 212   0.0000       3.594105        97.8006 
 213   0.0000       3.608586        98.1946 
 214   0.0000       3.645291        99.1934 
 215   0.0000       3.663197        99.6807 
 216   0.0000       3.715085       101.0926 
 217   0.0000       3.729035       101.4722 
 218   0.0000       3.842289       104.5540 
 219   0.0000       3.847225       104.6883 
 220   0.0000       3.867370       105.2365 
 221   0.0000       3.893053       105.9354 
 222   0.0000       4.112082       111.8954 
 223   0.0000       4.122571       112.1809 
 224   0.0000       4.137858       112.5968 
 225   0.0000       4.699246       127.8730 
 226   0.0000       4.733508       128.8053 
 227   0.0000       4.762187       129.5857 
 228   0.0000       4.767547       129.7316 
 229   0.0000       4.794891       130.4756 
 230   0.0000       4.854084       132.0863 
 231   0.0000       4.890819       133.0859 
 232   0.0000       4.909032       133.5816 
 233   0.0000       4.914509       133.7306 
 234   0.0000       4.936093       134.3179 
 235   0.0000       4.962640       135.0403 
 236   0.0000       4.986234       135.6823 
 237   0.0000       5.003977       136.1651 
 238   0.0000       5.012501       136.3971 
 239   0.0000       5.029364       136.8559 
 240   0.0000       5.030533       136.8878 
 241   0.0000       5.036108       137.0395 
 242   0.0000       5.056887       137.6049 
 243   0.0000       5.068550       137.9223 
 244   0.0000       5.075574       138.1134 
 245   0.0000       5.089453       138.4910 
 246   0.0000       5.106428       138.9530 
 247   0.0000       5.113092       139.1343 
 248   0.0000       5.128656       139.5578 
 249   0.0000       5.134111       139.7063 
 250   0.0000       5.147491       140.0704 
 251   0.0000       5.151176       140.1706 
 252   0.0000       5.162835       140.4879 
 253   0.0000       5.174468       140.8044 
 254   0.0000       5.178871       140.9242 
 255   0.0000       5.576151       151.7348 
 256   0.0000       5.588806       152.0791 
 257   0.0000       5.601011       152.4112 
 258   0.0000       5.618589       152.8896 
 259   0.0000       5.633117       153.2849 
 260   0.0000       5.668307       154.2425 
 261   0.0000       5.851869       159.2375 
 262   0.0000       5.860438       159.4706 
 263   0.0000       5.869651       159.7213 
 264   0.0000       5.909723       160.8117 
 265   0.0000       5.983147       162.8097 
 266   0.0000       6.001695       163.3144 
 267   0.0000       6.027694       164.0219 
 268   0.0000       6.042711       164.4305 
 269   0.0000       6.089391       165.7007 
 270   0.0000       6.109710       166.2537 
 271   0.0000       6.115160       166.4020 
 272   0.0000       6.142444       167.1444 
 273   0.0000       6.220813       169.2769 
 274   0.0000       6.226007       169.4183 
 275   0.0000       6.254440       170.1920 
 276   0.0000       6.266610       170.5231 
 277   0.0000       6.268683       170.5795 
 278   0.0000       6.293871       171.2649 
 279   0.0000       6.328801       172.2154 
 280   0.0000       6.348601       172.7542 
 281   0.0000       6.361006       173.0918 
 282   0.0000       6.405872       174.3126 
 283   0.0000       6.427596       174.9038 
 284   0.0000       6.446802       175.4264 
 285   0.0000       6.540250       177.9692 
 286   0.0000       6.569515       178.7656 
 287   0.0000       6.599458       179.5804 
 288   0.0000       6.637673       180.6203 
 289   0.0000       6.664594       181.3528 
 290   0.0000       6.685154       181.9123 
 291   0.0000       6.701452       182.3558 
 292   0.0000       6.717793       182.8004 
 293   0.0000       6.732534       183.2016 
 294   0.0000       6.754152       183.7898 
 295   0.0000       6.784460       184.6145 
 296   0.0000       6.799389       185.0208 
 297   0.0000      42.991593      1169.8607 
 298   0.0000      43.134923      1173.7609 
 299   0.0000      43.179491      1174.9737 
 300   0.0000      43.225841      1176.2349 
 301   0.0000      43.376054      1180.3224 
 302   0.0000      43.484691      1183.2786 

                    ********************************
                    * MULLIKEN POPULATION ANALYSIS *
                    ********************************

-----------------------
MULLIKEN ATOMIC CHARGES
-----------------------
   0 Fe:    0.050825
   1 O :   -0.412169
   2 O :   -0.380193
   3 O :   -0.389854
   4 O :   -0.420303
   5 O :   -0.359110
   6 O :   -0.395572
   7 H :    0.367558
   8 H :    0.349825
   9 H :    0.354595
  10 H :    0.349445
  11 H :    0.364624
  12 H :    0.358311
  13 H :    0.373091
  14 H :    0.340738
  15 H :    0.344416
  16 H :    0.352598
  17 H :    0.375208
  18 H :    0.375966
Sum of atomic charges:    2.0000000

--------------------------------
MULLIKEN REDUCED ORBITAL CHARGES
--------------------------------
  0 Fes       :     6.440407  s :     6.440407
      pz      :     4.200046  p :    12.537157
      px      :     4.154684
      py      :     4.182426
      dz2     :     0.457574  d :     6.967998
      dxz     :     2.025373
      dyz     :     2.059681
      dx2y2   :     0.411340
      dxy     :     2.014030
      f0      :     0.001060  f :     0.003613
      f+1     :     0.000447
      f-1     :     0.000574
      f+2     :     0.000271
      f-2     :     0.000003
      f+3     :     0.000627
      f-3     :     0.000631
  1 O s       :     3.707407  s :     3.707407
      pz      :     1.733597  p :     4.677410
      px      :     1.666453
      py      :     1.277360
      dz2     :     0.001771  d :     0.025724
      dxz     :     0.006577
      dyz     :     0.008890
      dx2y2   :     0.002352
      dxy     :     0.006135
      f0      :     0.000326  f :     0.001628
      f+1     :     0.000090
      f-1     :     0.000015
      f+2     :     0.000344
      f-2     :     0.000294
      f+3     :     0.000290
      f-3     :     0.000270
  2 O s       :     3.692130  s :     3.692130
      pz      :     1.724480  p :     4.660789
      px      :     1.278573
      py      :     1.657736
      dz2     :     0.001981  d :     0.025638
      dxz     :     0.008590
      dyz     :     0.006530
      dx2y2   :     0.002243
      dxy     :     0.006293
      f0      :     0.000321  f :     0.001637
      f+1     :     0.000044
      f-1     :     0.000101
      f+2     :     0.000311
      f-2     :     0.000300
      f+3     :     0.000265
      f-3     :     0.000294
  3 O s       :     3.700619  s :     3.700619
      pz      :     1.617249  p :     4.663385
      px      :     1.299016
      py      :     1.747120
      dz2     :     0.002639  d :     0.024282
      dxz     :     0.005716
      dyz     :     0.006130
      dx2y2   :     0.001382
      dxy     :     0.008415
      f0      :     0.000266  f :     0.001568
      f+1     :     0.000201
      f-1     :     0.000125
      f+2     :     0.000148
      f-2     :     0.000292
      f+3     :     0.000069
      f-3     :     0.000466
  4 O s       :     3.712322  s :     3.712322
      pz      :     1.730110  p :     4.680464
      px      :     1.677749
      py      :     1.272604
      dz2     :     0.001893  d :     0.025895
      dxz     :     0.006347
      dyz     :     0.009236
      dx2y2   :     0.002496
      dxy     :     0.005923
      f0      :     0.000318  f :     0.001622
      f+1     :     0.000086
      f-1     :     0.000009
      f+2     :     0.000370
      f-2     :     0.000280
      f+3     :     0.000276
      f-3     :     0.000284
  5 O s       :     3.695289  s :     3.695289
      pz      :     1.706721  p :     4.637043
      px      :     1.271473
      py      :     1.658850
      dz2     :     0.002247  d :     0.025144
      dxz     :     0.009271
      dyz     :     0.005888
      dx2y2   :     0.002424
      dxy     :     0.005313
      f0      :     0.000323  f :     0.001634
      f+1     :     0.000038
      f-1     :     0.000103
      f+2     :     0.000358
      f-2     :     0.000273
      f+3     :     0.000270
      f-3     :     0.000268
  6 O s       :     3.677028  s :     3.677028
      pz      :     1.659470  p :     4.691766
      px      :     1.298113
      py      :     1.734184
      dz2     :     0.002845  d :     0.025143
      dxz     :     0.006145
      dyz     :     0.006304
      dx2y2   :     0.001405
      dxy     :     0.008444
      f0      :     0.000270  f :     0.001634
      f+1     :     0.000256
      f-1     :     0.000170
      f+2     :     0.000123
      f-2     :     0.000296
      f+3     :     0.000056
      f-3     :     0.000462
  7 H s       :     0.585094  s :     0.585094
      pz      :     0.015874  p :     0.047348
      px      :     0.015033
      py      :     0.016441
  8 H s       :     0.602004  s :     0.602004
      pz      :     0.015358  p :     0.048171
      px      :     0.015610
      py      :     0.017202
  9 H s       :     0.597300  s :     0.597300
      pz      :     0.015178  p :     0.048106
      px      :     0.017331
      py      :     0.015596
 10 H s       :     0.602570  s :     0.602570
      pz      :     0.016800  p :     0.047984
      px      :     0.016033
      py      :     0.015152
 11 H s       :     0.588304  s :     0.588304
      pz      :     0.014936  p :     0.047072
      px      :     0.016153
      py      :     0.015983
 12 H s       :     0.594228  s :     0.594228
      pz      :     0.014767  p :     0.047460
      px      :     0.018148
      py      :     0.014545
 13 H s       :     0.579544  s :     0.579544
      pz      :     0.015893  p :     0.047366
      px      :     0.015040
      py      :     0.016432
 14 H s       :     0.610877  s :     0.610877
      pz      :     0.015528  p :     0.048385
      px      :     0.015784
      py      :     0.017074
 15 H s       :     0.607172  s :     0.607172
      pz      :     0.015073  p :     0.048411
      px      :     0.017683
      py      :     0.015655
 16 H s       :     0.599437  s :     0.599437
      pz      :     0.016477  p :     0.047965
      px      :     0.015799
      py      :     0.015689
 17 H s       :     0.578318  s :     0.578318
      pz      :     0.013837  p :     0.046474
      px      :     0.016737
      py      :     0.015899
 18 H s       :     0.577437  s :     0.577437
      pz      :     0.013978  p :     0.046597
      px      :     0.017941
      py      :     0.014678


                     *******************************
                     * LOEWDIN POPULATION ANALYSIS *
                     *******************************

----------------------
LOEWDIN ATOMIC CHARGES
----------------------
   0 Fe:   -0.566392
   1 O :    0.034311
   2 O :    0.029877
   3 O :    0.033503
   4 O :    0.035047
   5 O :    0.039365
   6 O :    0.011626
   7 H :    0.203502
   8 H :    0.194228
   9 H :    0.200184
  10 H :    0.195844
  11 H :    0.197092
  12 H :    0.192702
  13 H :    0.207454
  14 H :    0.190656
  15 H :    0.192700
  16 H :    0.196497
  17 H :    0.205034
  18 H :    0.206769

-------------------------------
LOEWDIN REDUCED ORBITAL CHARGES
-------------------------------
  0 Fes       :     6.170863  s :     6.170863
      pz      :     4.218607  p :    12.634121
      px      :     4.203223
      py      :     4.212292
      dz2     :     0.756498  d :     7.755225
      dxz     :     2.091434
      dyz     :     2.140041
      dx2y2   :     0.732381
      dxy     :     2.034871
      f0      :     0.001878  f :     0.006183
      f+1     :     0.000753
      f-1     :     0.000975
      f+2     :     0.000399
      f-2     :     0.000004
      f+3     :     0.001087
      f-3     :     0.001086
  1 O s       :     3.318755  s :     3.318755
      pz      :     1.670531  p :     4.582535
      px      :     1.627986
      py      :     1.284018
      dz2     :     0.002067  d :     0.060665
      dxz     :     0.014165
      dyz     :     0.016633
      dx2y2   :     0.008591
      dxy     :     0.019210
      f0      :     0.000581  f :     0.003734
      f+1     :     0.000104
      f-1     :     0.000052
      f+2     :     0.000905
      f-2     :     0.000812
      f+3     :     0.000541
      f-3     :     0.000740
  2 O s       :     3.321862  s :     3.321862
      pz      :     1.673582  p :     4.582421
      px      :     1.283170
      py      :     1.625669
      dz2     :     0.002663  d :     0.062002
      dxz     :     0.015908
      dyz     :     0.014950
      dx2y2   :     0.008569
      dxy     :     0.019912
      f0      :     0.000570  f :     0.003838
      f+1     :     0.000091
      f-1     :     0.000138
      f+2     :     0.000892
      f-2     :     0.000832
      f+3     :     0.000745
      f-3     :     0.000571
  3 O s       :     3.320540  s :     3.320540
      pz      :     1.593732  p :     4.587895
      px      :     1.300358
      py      :     1.693806
      dz2     :     0.007750  d :     0.054500
      dxz     :     0.017824
      dyz     :     0.012180
      dx2y2   :     0.002462
      dxy     :     0.014284
      f0      :     0.000507  f :     0.003561
      f+1     :     0.000625
      f-1     :     0.000530
      f+2     :     0.000243
      f-2     :     0.000851
      f+3     :     0.000055
      f-3     :     0.000750
  4 O s       :     3.319478  s :     3.319478
      pz      :     1.661559  p :     4.580821
      px      :     1.635920
      py      :     1.283342
      dz2     :     0.002142  d :     0.060942
      dxz     :     0.013728
      dyz     :     0.017543
      dx2y2   :     0.008754
      dxy     :     0.018776
      f0      :     0.000571  f :     0.003712
      f+1     :     0.000103
      f-1     :     0.000063
      f+2     :     0.000933
      f-2     :     0.000778
      f+3     :     0.000498
      f-3     :     0.000766
  5 O s       :     3.320005  s :     3.320005
      pz      :     1.669290  p :     4.578802
      px      :     1.283999
      py      :     1.625513
      dz2     :     0.002450  d :     0.058102
      dxz     :     0.017185
      dyz     :     0.012168
      dx2y2   :     0.008666
      dxy     :     0.017632
      f0      :     0.000593  f :     0.003725
      f+1     :     0.000105
      f-1     :     0.000123
      f+2     :     0.000904
      f-2     :     0.000751
      f+3     :     0.000731
      f-3     :     0.000519
  6 O s       :     3.324944  s :     3.324944
      pz      :     1.631695  p :     4.597671
      px      :     1.293519
      py      :     1.672458
      dz2     :     0.008292  d :     0.061872
      dxz     :     0.020068
      dyz     :     0.014823
      dx2y2   :     0.003401
      dxy     :     0.015287
      f0      :     0.000499  f :     0.003887
      f+1     :     0.000815
      f-1     :     0.000662
      f+2     :     0.000221
      f-2     :     0.000808
      f+3     :     0.000061
      f-3     :     0.000820
  7 H s       :     0.639167  s :     0.639167
      pz      :     0.052650  p :     0.157331
      px      :     0.043471
      py      :     0.061210
  8 H s       :     0.647777  s :     0.647777
      pz      :     0.051388  p :     0.157995
      px      :     0.043440
      py      :     0.063168
  9 H s       :     0.643323  s :     0.643323
      pz      :     0.048252  p :     0.156493
      px      :     0.064370
      py      :     0.043870
 10 H s       :     0.647601  s :     0.647601
      pz      :     0.056236  p :     0.156555
      px      :     0.057898
      py      :     0.042420
 11 H s       :     0.644773  s :     0.644773
      pz      :     0.044312  p :     0.158134
      px      :     0.058466
      py      :     0.055356
 12 H s       :     0.648142  s :     0.648142
      pz      :     0.042831  p :     0.159156
      px      :     0.067886
      py      :     0.048439
 13 H s       :     0.635555  s :     0.635555
      pz      :     0.052261  p :     0.156991
      px      :     0.044077
      py      :     0.060653
 14 H s       :     0.651029  s :     0.651029
      pz      :     0.051348  p :     0.158314
      px      :     0.043216
      py      :     0.063750
 15 H s       :     0.649372  s :     0.649372
      pz      :     0.048204  p :     0.157929
      px      :     0.066578
      py      :     0.043147
 16 H s       :     0.646204  s :     0.646204
      pz      :     0.055549  p :     0.157299
      px      :     0.056886
      py      :     0.044864
 17 H s       :     0.638385  s :     0.638385
      pz      :     0.042240  p :     0.156581
      px      :     0.059725
      py      :     0.054616
 18 H s       :     0.636595  s :     0.636595
      pz      :     0.042714  p :     0.156636
      px      :     0.066251
      py      :     0.047671


                      *****************************
                      * MAYER POPULATION ANALYSIS *
                      *****************************

  NA   - Mulliken gross atomic population
  ZA   - Total nuclear charge
  QA   - Mulliken gross atomic charge
  VA   - Mayer's total valence
  BVA  - Mayer's bonded valence
  FA   - Mayer's free valence

  ATOM       NA         ZA         QA         VA         BVA        FA
  0 Fe    25.9492    26.0000     0.0508     3.3704     3.3704    -0.0000
  1 O      8.4122     8.0000    -0.4122     2.1729     2.1729    -0.0000
  2 O      8.3802     8.0000    -0.3802     2.1559     2.1559    -0.0000
  3 O      8.3899     8.0000    -0.3899     2.1926     2.1926    -0.0000
  4 O      8.4203     8.0000    -0.4203     2.1705     2.1705     0.0000
  5 O      8.3591     8.0000    -0.3591     2.1942     2.1942    -0.0000
  6 O      8.3956     8.0000    -0.3956     2.0662     2.0662     0.0000
  7 H      0.6324     1.0000     0.3676     0.8870     0.8870    -0.0000
  8 H      0.6502     1.0000     0.3498     0.9011     0.9011     0.0000
  9 H      0.6454     1.0000     0.3546     0.8967     0.8967    -0.0000
 10 H      0.6506     1.0000     0.3494     0.9003     0.9003    -0.0000
 11 H      0.6354     1.0000     0.3646     0.8903     0.8903     0.0000
 12 H      0.6417     1.0000     0.3583     0.8973     0.8973     0.0000
 13 H      0.6269     1.0000     0.3731     0.8826     0.8826     0.0000
 14 H      0.6593     1.0000     0.3407     0.9098     0.9098    -0.0000
 15 H      0.6556     1.0000     0.3444     0.9066     0.9066    -0.0000
 16 H      0.6474     1.0000     0.3526     0.8993     0.8993     0.0000
 17 H      0.6248     1.0000     0.3752     0.8783     0.8783    -0.0000
 18 H      0.6240     1.0000     0.3760     0.8786     0.8786    -0.0000

  Mayer bond orders larger than 0.100000
B(  0-Fe,  1-O ) :   0.5193 B(  0-Fe,  2-O ) :   0.5091 B(  0-Fe,  3-O ) :   0.5904 
B(  0-Fe,  4-O ) :   0.5064 B(  0-Fe,  5-O ) :   0.5683 B(  0-Fe,  6-O ) :   0.4811 
B(  1-O , 13-H ) :   0.8509 B(  1-O , 14-H ) :   0.8625 B(  2-O , 15-H ) :   0.8629 
B(  2-O , 16-H ) :   0.8615 B(  3-O , 17-H ) :   0.8494 B(  3-O , 18-H ) :   0.8507 
B(  4-O ,  7-H ) :   0.8509 B(  4-O ,  8-H ) :   0.8610 B(  5-O ,  9-H ) :   0.8626 
B(  5-O , 10-H ) :   0.8614 B(  6-O , 11-H ) :   0.8523 B(  6-O , 12-H ) :   0.8513 


-------
TIMINGS
-------

Total SCF time: 0 days 0 hours 0 min 59 sec 

Total time                  ....      59.231 sec
Sum of individual times     ....      58.908 sec  ( 99.5%)

Fock matrix formation       ....      24.084 sec  ( 40.7%)
  XC integration            ....       1.592 sec  (  6.6% of F)
    Basis function eval.    ....       0.523 sec  ( 32.9% of XC)
    Density eval.           ....       0.400 sec  ( 25.2% of XC)
    XC-Functional eval.     ....       0.087 sec  (  5.5% of XC)
    XC-Potential eval.      ....       0.397 sec  ( 24.9% of XC)
Diagonalization             ....       0.276 sec  (  0.5%)
Density matrix formation    ....       0.016 sec  (  0.0%)
Population analysis         ....       0.017 sec  (  0.0%)
Initial guess               ....       0.087 sec  (  0.1%)
Orbital Transformation      ....       0.000 sec  (  0.0%)
Orbital Orthonormalization  ....       0.000 sec  (  0.0%)
DIIS solution               ....       0.192 sec  (  0.3%)
Grid generation             ....       0.374 sec  (  0.6%)
SCF Stability Analysis      ....      33.863 sec  ( 57.2%)

Maximum memory used throughout the entire SCF-calculation: 244.1 MB

-------------------------   --------------------
FINAL SINGLE POINT ENERGY     -1721.892297203754
-------------------------   --------------------


                            ***************************************
                            *     ORCA property calculations      *
                            ***************************************

                                    ---------------------
                                    Active property flags
                                    ---------------------
   (+) Dipole Moment


------------------------------------------------------------------------------
                       ORCA ELECTRIC PROPERTIES CALCULATION
------------------------------------------------------------------------------

Dipole Moment Calculation                       ... on
Quadrupole Moment Calculation                   ... off
Polarizability Calculation                      ... off
GBWName                                         ... /scratch/FeH2O62+-B3LYP_580/FeH2O62+-B3LYP.gbw
Electron density file                           ... /scratch/FeH2O62+-B3LYP_580/FeH2O62+-B3LYP.scfp
The origin for moment calculation is the CENTER OF MASS  = (11.722337,  1.955572  0.367426)

-------------
DIPOLE MOMENT
-------------
                                X             Y             Z
Electronic contribution:      0.00674       0.45380      -1.01565
Nuclear contribution   :      0.01944      -1.57275       3.19046
                        -----------------------------------------
Total Dipole Moment    :      0.02618      -1.11895       2.17480
                        -----------------------------------------
Magnitude (a.u.)       :      2.44592
Magnitude (Debye)      :      6.21702



--------------------
Rotational spectrum 
--------------------
 
Rotational constants in cm-1:     0.067502     0.065853     0.064678 
Rotational constants in MHz :  2023.652591  1974.224213  1938.985718 

 Dipole components along the rotational axes: 
x,y,z [a.u.] :     0.316928     2.229409    -0.954878 
x,y,z [Debye]:     0.805566     5.666708    -2.427106 

 
--------------------------------------------------------------------------
WARNING: There was an error initializing an OpenFabrics device.

  Local host:   cnode03
  Local device: mlx5_0
--------------------------------------------------------------------------
[cnode03:192468] 15 more processes have sent help message help-mpi-btl-openib.txt / error in device init
[cnode03:192468] Set MCA parameter "orte_base_help_aggregate" to 0 to see all help / error messages

Timings for individual modules:

Sum of individual times         ...       60.585 sec (=   1.010 min)
GTO integral calculation        ...        0.778 sec (=   0.013 min)   1.3 %
SCF iterations                  ...       59.807 sec (=   0.997 min)  98.7 %
                             ****ORCA TERMINATED NORMALLY****
TOTAL RUN TIME: 0 days 0 hours 1 minutes 1 seconds 281 msec

Sender: Unischeduler System <lcz@mgt01>
Subject: Job 131996: <#!/bin/bash
#BSUB -J intel
#BSUB -o FeH2O62+-B3LYP.out
#BSUB -n 16
#BSUB -q cqueue
export LD_LIBRARY_PATH=/apps/software/openmpi-4.1.1/lib:/apps/software/orca_5_0_0:$LD_LIBRARY_PATH
export PATH=/apps/software/openmpi-4.1.1/bin:/apps/software/orca_5_0_0:$PATH
mkdir /scratch/FeH2O62+-B3LYP_580
scp $USER@mgt01:/apps/users/lcz/exe5/task2/anotherStabilityTest/ORCA/def2-TZVP/FeH2O62+-B3LYP.inp /scratch/FeH2O62+-B3LYP_580
/apps/software/orca_5_0_0/orca /scratch/FeH2O62+-B3LYP_580/FeH2O62+-B3LYP.inp >& FeH2O62+-B3LYP.out
scp /scratch/FeH2O62+-B3LYP_580/*.gbw $USER@mgt01:/apps/users/lcz/exe5/task2/anotherStabilityTest/ORCA/def2-TZVP
scp /scratch/FeH2O62+-B3LYP_580/*.xyz $USER@mgt01:/apps/users/lcz/exe5/task2/anotherStabilityTest/ORCA/def2-TZVP
scp /scratch/FeH2O62+-B3LYP_580/*.trj $USER@mgt01:/apps/users/lcz/exe5/task2/anotherStabilityTest/ORCA/def2-TZVP> Exited

Job <#!/bin/bash
#BSUB -J intel
#BSUB -o FeH2O62+-B3LYP.out
#BSUB -n 16
#BSUB -q cqueue
export LD_LIBRARY_PATH=/apps/software/openmpi-4.1.1/lib:/apps/software/orca_5_0_0:$LD_LIBRARY_PATH
export PATH=/apps/software/openmpi-4.1.1/bin:/apps/software/orca_5_0_0:$PATH
mkdir /scratch/FeH2O62+-B3LYP_580
scp $USER@mgt01:/apps/users/lcz/exe5/task2/anotherStabilityTest/ORCA/def2-TZVP/FeH2O62+-B3LYP.inp /scratch/FeH2O62+-B3LYP_580
/apps/software/orca_5_0_0/orca /scratch/FeH2O62+-B3LYP_580/FeH2O62+-B3LYP.inp >& FeH2O62+-B3LYP.out
scp /scratch/FeH2O62+-B3LYP_580/*.gbw $USER@mgt01:/apps/users/lcz/exe5/task2/anotherStabilityTest/ORCA/def2-TZVP
scp /scratch/FeH2O62+-B3LYP_580/*.xyz $USER@mgt01:/apps/users/lcz/exe5/task2/anotherStabilityTest/ORCA/def2-TZVP
scp /scratch/FeH2O62+-B3LYP_580/*.trj $USER@mgt01:/apps/users/lcz/exe5/task2/anotherStabilityTest/ORCA/def2-TZVP> was submitted from host <mgt01> by user <lcz>.
Job was executed on host(s) <16*cnode03>, in queue <cqueue>, as user <lcz>.
</apps/users/lcz> was used as the home directory.
</apps/users/lcz/exe5/task2/anotherStabilityTest/ORCA/def2-TZVP> was used as the working directory.
Started at 2022-05-14 12:02:43
Results reported at 2022-05-14 12:03:46

Your job looked like:

------------------------------------------------------------
# User input
#!/bin/bash
#BSUB -J intel
#BSUB -o FeH2O62+-B3LYP.out
#BSUB -n 16
#BSUB -q cqueue
export LD_LIBRARY_PATH=/apps/software/openmpi-4.1.1/lib:/apps/software/orca_5_0_0:$LD_LIBRARY_PATH
export PATH=/apps/software/openmpi-4.1.1/bin:/apps/software/orca_5_0_0:$PATH
mkdir /scratch/FeH2O62+-B3LYP_580
scp $USER@mgt01:/apps/users/lcz/exe5/task2/anotherStabilityTest/ORCA/def2-TZVP/FeH2O62+-B3LYP.inp /scratch/FeH2O62+-B3LYP_580
/apps/software/orca_5_0_0/orca /scratch/FeH2O62+-B3LYP_580/FeH2O62+-B3LYP.inp >& FeH2O62+-B3LYP.out
scp /scratch/FeH2O62+-B3LYP_580/*.gbw $USER@mgt01:/apps/users/lcz/exe5/task2/anotherStabilityTest/ORCA/def2-TZVP
scp /scratch/FeH2O62+-B3LYP_580/*.xyz $USER@mgt01:/apps/users/lcz/exe5/task2/anotherStabilityTest/ORCA/def2-TZVP
scp /scratch/FeH2O62+-B3LYP_580/*.trj $USER@mgt01:/apps/users/lcz/exe5/task2/anotherStabilityTest/ORCA/def2-TZVP
------------------------------------------------------------

Exited with exit code 1.

Resource usage summary:

    CPU time   :          885.38 sec.
    Max Memory :              2959 MB
    Max Processes  :              21


The output (if any) follows:

/scratch/FeH2O62+-B3LYP_580/*.xyz: No such file or directory
/scratch/FeH2O62+-B3LYP_580/*.trj: No such file or directory
