 Entering Gaussian System, Link 0=/apps/software/g16/g16
 Initial command:
 /apps/software/g16/l1.exe "/scratch/Gau-13044.inp" -scrdir="/scratch/"
 Entering Link 1 = /apps/software/g16/l1.exe PID=     13045.
  
 Copyright (c) 1988,1990,1992,1993,1995,1998,2003,2009,2016,
            Gaussian, Inc.  All Rights Reserved.
  
 This is part of the Gaussian(R) 16 program.  It is based on
 the Gaussian(R) 09 system (copyright 2009, Gaussian, Inc.),
 the Gaussian(R) 03 system (copyright 2003, Gaussian, Inc.),
 the Gaussian(R) 98 system (copyright 1998, Gaussian, Inc.),
 the Gaussian(R) 94 system (copyright 1995, Gaussian, Inc.),
 the Gaussian 92(TM) system (copyright 1992, Gaussian, Inc.),
 the Gaussian 90(TM) system (copyright 1990, Gaussian, Inc.),
 the Gaussian 88(TM) system (copyright 1988, Gaussian, Inc.),
 the Gaussian 86(TM) system (copyright 1986, Carnegie Mellon
 University), and the Gaussian 82(TM) system (copyright 1983,
 Carnegie Mellon University). Gaussian is a federally registered
 trademark of Gaussian, Inc.
  
 This software contains proprietary and confidential information,
 including trade secrets, belonging to Gaussian, Inc.
  
 This software is provided under written license and may be
 used, copied, transmitted, or stored only in accord with that
 written license.
  
 The following legend is applicable only to US Government
 contracts under FAR:
  
                    RESTRICTED RIGHTS LEGEND
  
 Use, reproduction and disclosure by the US Government is
 subject to restrictions as set forth in subparagraphs (a)
 and (c) of the Commercial Computer Software - Restricted
 Rights clause in FAR 52.227-19.
  
 Gaussian, Inc.
 340 Quinnipiac St., Bldg. 40, Wallingford CT 06492
  
  
 ---------------------------------------------------------------
 Warning -- This program may not be used in any manner that
 competes with the business of Gaussian, Inc. or will provide
 assistance to any competitor of Gaussian, Inc.  The licensee
 of this program is prohibited from giving any competitor of
 Gaussian, Inc. access to this program.  By using this program,
 the user acknowledges that Gaussian, Inc. is engaged in the
 business of creating and licensing software in the field of
 computational chemistry and represents and warrants to the
 licensee that it is not a competitor of Gaussian, Inc. and that
 it will not use this program in any manner prohibited above.
 ---------------------------------------------------------------
  

 Cite this work as:
 Gaussian 16, Revision A.03,
 M. J. Frisch, G. W. Trucks, H. B. Schlegel, G. E. Scuseria, 
 M. A. Robb, J. R. Cheeseman, G. Scalmani, V. Barone, 
 G. A. Petersson, H. Nakatsuji, X. Li, M. Caricato, A. V. Marenich, 
 J. Bloino, B. G. Janesko, R. Gomperts, B. Mennucci, H. P. Hratchian, 
 J. V. Ortiz, A. F. Izmaylov, J. L. Sonnenberg, D. Williams-Young, 
 F. Ding, F. Lipparini, F. Egidi, J. Goings, B. Peng, A. Petrone, 
 T. Henderson, D. Ranasinghe, V. G. Zakrzewski, J. Gao, N. Rega, 
 G. Zheng, W. Liang, M. Hada, M. Ehara, K. Toyota, R. Fukuda, 
 J. Hasegawa, M. Ishida, T. Nakajima, Y. Honda, O. Kitao, H. Nakai, 
 T. Vreven, K. Throssell, J. A. Montgomery, Jr., J. E. Peralta, 
 F. Ogliaro, M. J. Bearpark, J. J. Heyd, E. N. Brothers, K. N. Kudin, 
 V. N. Staroverov, T. A. Keith, R. Kobayashi, J. Normand, 
 K. Raghavachari, A. P. Rendell, J. C. Burant, S. S. Iyengar, 
 J. Tomasi, M. Cossi, J. M. Millam, M. Klene, C. Adamo, R. Cammi, 
 J. W. Ochterski, R. L. Martin, K. Morokuma, O. Farkas, 
 J. B. Foresman, and D. J. Fox, Gaussian, Inc., Wallingford CT, 2016.
 
 ******************************************
 Gaussian 16:  ES64L-G16RevA.03 25-Dec-2016
                 4-May-2022 
 ******************************************
 %nproc=8
 Will use up to    8 processors via shared memory.
 %mem=20GB
 %chk=38-dicl-dibenzene.chk
 --------------
 #p RHF/cc-pVDZ
 --------------
 1/38=1,172=1/1;
 2/12=2,17=6,18=5,40=1/2;
 3/5=16,11=1,25=1,30=1,116=1/1,2,3;
 4//1;
 5/5=2,38=5/2;
 6/7=2,8=2,9=2,10=2,28=1/1;
 99/5=1,9=1/99;
 Leave Link    1 at Wed May  4 13:01:06 2022, MaxMem=  2684354560 cpu:               0.1 elap:               0.0
 (Enter /apps/software/g16/l101.exe)
 ---------------------------------
 3,8-dicl-dibenzene SP RHF cc-pVDZ
 ---------------------------------
 Symbolic Z-matrix:
 Charge =  0 Multiplicity = 1
 C                    -2.5816    0.85828   0.0008 
 C                    -1.19423   0.86536   0.00098 
 C                    -0.48185   2.06241   0.00027 
 C                    -1.19416   3.2595   -0.00063 
 C                    -2.58153   3.26666  -0.00082 
 C                    -3.26679   2.06249   0.00011 
 H                    -3.1277   -0.07395   0.00131 
 H                    -0.65978  -0.07536   0.00163 
 H                    -0.65966   4.20019  -0.00124 
 H                    -3.12758   4.19892  -0.00156 
 C                     1.01726   2.06237   0.00078 
 C                     1.72979   2.06155  -1.19628 
 C                     1.7294    2.06316   1.19791 
 C                     3.11713   2.0615   -1.20322 
 H                     1.19531   2.06093  -2.13698 
 C                     3.11678   2.06312   1.20519 
 H                     1.19469   2.0638    2.13849 
 C                     3.80213   2.06229   0.00112 
 H                     3.66351   2.06086  -2.13529 
 H                     3.66288   2.06373   2.13744 
 Cl                   -5.00747   2.06254  -0.00044 
 Cl                    5.54285   2.06225   0.00137 
 
 ITRead=  0  0  0  0  0  0  0  0  0  0  0  0  0  0  0  0  0  0  0  0
 ITRead=  0  0
 MicOpt= -1 -1 -1 -1 -1 -1 -1 -1 -1 -1 -1 -1 -1 -1 -1 -1 -1 -1 -1 -1
 MicOpt= -1 -1
 NAtoms=     22 NQM=       22 NQMF=       0 NMMI=      0 NMMIF=      0
                NMic=       0 NMicF=      0.
                    Isotopes and Nuclear Properties:
 (Nuclear quadrupole moments (NQMom) in fm**2, nuclear magnetic moments (NMagM)
  in nuclear magnetons)

  Atom         1           2           3           4           5           6           7           8           9          10
 IAtWgt=          12          12          12          12          12          12           1           1           1           1
 AtmWgt=  12.0000000  12.0000000  12.0000000  12.0000000  12.0000000  12.0000000   1.0078250   1.0078250   1.0078250   1.0078250
 NucSpn=           0           0           0           0           0           0           1           1           1           1
 AtZEff=  -0.0000000  -0.0000000  -0.0000000  -0.0000000  -0.0000000  -0.0000000  -0.0000000  -0.0000000  -0.0000000  -0.0000000
 NQMom=    0.0000000   0.0000000   0.0000000   0.0000000   0.0000000   0.0000000   0.0000000   0.0000000   0.0000000   0.0000000
 NMagM=    0.0000000   0.0000000   0.0000000   0.0000000   0.0000000   0.0000000   2.7928460   2.7928460   2.7928460   2.7928460
 AtZNuc=   6.0000000   6.0000000   6.0000000   6.0000000   6.0000000   6.0000000   1.0000000   1.0000000   1.0000000   1.0000000

  Atom        11          12          13          14          15          16          17          18          19          20
 IAtWgt=          12          12          12          12           1          12           1          12           1           1
 AtmWgt=  12.0000000  12.0000000  12.0000000  12.0000000   1.0078250  12.0000000   1.0078250  12.0000000   1.0078250   1.0078250
 NucSpn=           0           0           0           0           1           0           1           0           1           1
 AtZEff=  -0.0000000  -0.0000000  -0.0000000  -0.0000000  -0.0000000  -0.0000000  -0.0000000  -0.0000000  -0.0000000  -0.0000000
 NQMom=    0.0000000   0.0000000   0.0000000   0.0000000   0.0000000   0.0000000   0.0000000   0.0000000   0.0000000   0.0000000
 NMagM=    0.0000000   0.0000000   0.0000000   0.0000000   2.7928460   0.0000000   2.7928460   0.0000000   2.7928460   2.7928460
 AtZNuc=   6.0000000   6.0000000   6.0000000   6.0000000   1.0000000   6.0000000   1.0000000   6.0000000   1.0000000   1.0000000

  Atom        21          22
 IAtWgt=          35          35
 AtmWgt=  34.9688527  34.9688527
 NucSpn=           3           3
 AtZEff=  -0.0000000  -0.0000000
 NQMom=   -8.1650000  -8.1650000
 NMagM=    0.8218740   0.8218740
 AtZNuc=  17.0000000  17.0000000
 Leave Link  101 at Wed May  4 13:01:06 2022, MaxMem=  2684354560 cpu:               0.6 elap:               0.1
 (Enter /apps/software/g16/l202.exe)
                          Input orientation:                          
 ---------------------------------------------------------------------
 Center     Atomic      Atomic             Coordinates (Angstroms)
 Number     Number       Type             X           Y           Z
 ---------------------------------------------------------------------
      1          6           0       -2.581601    0.858283    0.000802
      2          6           0       -1.194231    0.865363    0.000981
      3          6           0       -0.481848    2.062412    0.000270
      4          6           0       -1.194164    3.259501   -0.000628
      5          6           0       -2.581534    3.266657   -0.000817
      6          6           0       -3.266785    2.062489    0.000110
      7          1           0       -3.127702   -0.073954    0.001307
      8          1           0       -0.659775   -0.075357    0.001630
      9          1           0       -0.659656    4.200191   -0.001243
     10          1           0       -3.127583    4.198924   -0.001565
     11          6           0        1.017257    2.062371    0.000782
     12          6           0        1.729794    2.061546   -1.196277
     13          6           0        1.729396    2.063156    1.197914
     14          6           0        3.117125    2.061502   -1.203218
     15          1           0        1.195309    2.060928   -2.136977
     16          6           0        3.116784    2.063122    1.205193
     17          1           0        1.194686    2.063803    2.138491
     18          6           0        3.802130    2.062293    0.001122
     19          1           0        3.663511    2.060860   -2.135287
     20          1           0        3.662877    2.063734    2.137437
     21         17           0       -5.007471    2.062537   -0.000438
     22         17           0        5.542849    2.062245    0.001369
 ---------------------------------------------------------------------
                    Distance matrix (angstroms):
                    1          2          3          4          5
     1  C    0.000000
     2  C    1.387388   0.000000
     3  C    2.420514   1.392988   0.000000
     4  C    2.773234   2.394138   1.392988   0.000000
     5  C    2.408374   2.773234   2.420514   1.387388   0.000000
     6  C    1.385493   2.393448   2.784937   2.393448   1.385493
     7  H    1.080413   2.149564   3.400677   3.853634   3.384965
     8  H    2.136609   1.081942   2.145161   3.377404   3.855155
     9  H    3.855155   3.377404   2.145161   1.081942   2.136609
    10  H    3.384965   3.853634   3.400677   2.149564   1.080413
    11  C    3.794944   2.514658   1.499105   2.514658   3.794944
    12  C    4.633462   3.378491   2.514575   3.378492   4.633462
    13  C    4.633518   3.378602   2.514747   3.378602   4.633518
    14  C    5.947510   4.633426   3.794864   4.633426   5.947511
    15  H    4.503499   3.422008   2.716741   3.422009   4.503500
    16  C    5.947586   4.633530   3.794996   4.633530   5.947586
    17  H    4.503703   3.422300   2.717123   3.422299   4.503702
    18  C    6.496281   5.137730   4.283979   5.137730   6.496281
    19  H    6.708986   5.439716   4.663112   5.439717   6.708987
    20  H    6.709085   5.439856   4.663285   5.439855   6.709084
    21  Cl   2.708335   3.996753   4.525623   3.996753   2.708335
    22  Cl   8.213173   6.842570   6.024697   6.842570   8.213173
                    6          7          8          9         10
     6  C    0.000000
     7  H    2.140966   0.000000
     8  H    3.371482   2.467927   0.000000
     9  H    3.371482   4.935542   4.275549   0.000000
    10  H    2.140966   4.272879   4.935542   2.467927   0.000000
    11  C    4.284042   4.663107   2.717042   2.717042   4.663107
    12  C    5.137816   5.439654   3.422190   3.422190   5.439655
    13  C    5.137758   5.439716   3.422349   3.422348   5.439715
    14  C    6.496331   6.708869   4.503644   4.503644   6.708870
    15  H    4.947467   5.274316   3.546646   3.546647   5.274317
    16  C    6.496320   6.708952   4.503783   4.503782   6.708952
    17  H    4.947464   5.274524   3.547000   3.546999   5.274523
    18  C    7.068915   7.251630   4.947540   4.947540   7.251630
    19  H    7.251823   7.432567   5.274529   5.274530   7.432567
    20  H    7.251784   7.432679   5.274723   5.274722   7.432679
    21  Cl   1.740686   2.845721   4.844900   4.844900   2.845721
    22  Cl   8.809634   8.929827   6.560632   6.560632   8.929827
                   11         12         13         14         15
    11  C    0.000000
    12  C    1.393076   0.000000
    13  C    1.392935   2.394192   0.000000
    14  C    2.420550   1.387348   2.773307   0.000000
    15  H    2.145161   1.081938   3.377388   2.136652   0.000000
    16  C    2.420459   2.773230   1.387407   2.408411   3.855148
    17  H    2.145061   3.377429   1.081943   3.855230   4.275469
    18  C    2.784874   2.393396   2.393437   1.385521   3.371496
    19  H    3.400803   2.149652   3.853705   1.080413   2.468203
    20  H    3.400677   3.853630   2.149663   3.384940   4.935535
    21  Cl   6.024728   6.842571   6.842619   8.213145   6.560434
    22  Cl   4.525592   3.996716   3.996767   2.708351   4.844959
                   16         17         18         19         20
    16  C    0.000000
    17  H    2.136705   0.000000
    18  C    1.385455   3.371515   0.000000
    19  H    3.384926   4.935615   2.140903   0.000000
    20  H    1.080415   2.468191   2.140849   4.272725   0.000000
    21  Cl   8.213225   6.560623   8.809602   8.929923   8.930030
    22  Cl   2.708318   4.844979   1.740719   2.845560   2.845538
                   21         22
    21  Cl   0.000000
    22  Cl  10.550320   0.000000
 This structure is nearly, but not quite of a higher symmetry.
 Consider Symm=Loose if the higher symmetry is desired.
 Stoichiometry    C12H8Cl2
 Framework group  C1[X(C12H8Cl2)]
 Deg. of freedom    60
 Full point group                 C1      NOp   1
 Largest Abelian subgroup         C1      NOp   1
 Largest concise Abelian subgroup C1      NOp   1
                         Standard orientation:                         
 ---------------------------------------------------------------------
 Center     Atomic      Atomic             Coordinates (Angstroms)
 Number     Number       Type             X           Y           Z
 ---------------------------------------------------------------------
      1          6           0        2.730812   -0.022491    1.452760
      2          6           0        1.349615   -0.011465    1.322312
      3          6           0        0.746550   -0.005826    0.066646
      4          6           0        1.562496   -0.011510   -1.062343
      5          6           0        2.944960   -0.022535   -0.946075
      6          6           0        3.520366   -0.028168    0.314268
      7          1           0        3.191814   -0.026765    2.429874
      8          1           0        0.733622   -0.007147    2.211768
      9          1           0        1.113794   -0.007226   -2.046846
     10          1           0        3.571749   -0.026843   -1.826081
     11          6           0       -0.746572    0.005775   -0.066648
     12          6           0       -1.446629    1.208552   -0.129164
     13          6           0       -1.465504   -1.185565   -0.130806
     14          6           0       -2.828364    1.226701   -0.252514
     15          1           0       -0.906707    2.144903   -0.080981
     16          6           0       -2.847410   -1.181634   -0.254171
     17          1           0       -0.940500   -2.130432   -0.083921
     18          6           0       -3.520327    0.027935   -0.314265
     19          1           0       -3.365065    2.163155   -0.300443
     20          1           0       -3.398825   -2.109435   -0.303380
     21         17           0        5.254105   -0.041683    0.469042
     22         17           0       -5.254096    0.041753   -0.469041
 ---------------------------------------------------------------------
 Rotational constants (GHZ):           2.8843971           0.1749147           0.1749146
 Leave Link  202 at Wed May  4 13:01:06 2022, MaxMem=  2684354560 cpu:               0.1 elap:               0.0
 (Enter /apps/software/g16/l301.exe)
 Standard basis: CC-pVDZ (5D, 7F)
 Ernie: Thresh=  0.10000D-02 Tol=  0.10000D-05 Strict=F.
 Ernie:  44 primitive shells out of 404 were deleted.
 There are   258 symmetry adapted cartesian basis functions of A   symmetry.
 There are   244 symmetry adapted basis functions of A   symmetry.
   244 basis functions,   594 primitive gaussians,   258 cartesian basis functions
    57 alpha electrons       57 beta electrons
       nuclear repulsion energy       927.5445036572 Hartrees.
 IExCor=    0 DFT=F Ex=HF Corr=None ExCW=0 ScaHFX=  1.000000
 ScaDFX=  1.000000  1.000000  1.000000  1.000000 ScalE2=  1.000000  1.000000
 IRadAn=      5 IRanWt=     -1 IRanGd=            0 ICorTp=0 IEmpDi=  4
 NAtoms=   22 NActive=   22 NUniq=   22 SFac= 1.00D+00 NAtFMM=   60 NAOKFM=F Big=F
 Integral buffers will be    131072 words long.
 Raffenetti 1 integral format.
 Two-electron integral symmetry is turned on.
 Leave Link  301 at Wed May  4 13:01:06 2022, MaxMem=  2684354560 cpu:               0.4 elap:               0.1
 (Enter /apps/software/g16/l302.exe)
 NPDir=0 NMtPBC=     1 NCelOv=     1 NCel=       1 NClECP=     1 NCelD=      1
         NCelK=      1 NCelE2=     1 NClLst=     1 CellRange=     0.0.
 One-electron integrals computed using PRISM.
 One-electron integral symmetry used in STVInt
 NBasis=   244 RedAO= T EigKep=  2.80D-04  NBF=   244
 NBsUse=   244 1.00D-06 EigRej= -1.00D+00 NBFU=   244
 Leave Link  302 at Wed May  4 13:01:07 2022, MaxMem=  2684354560 cpu:               1.0 elap:               0.1
 (Enter /apps/software/g16/l303.exe)
 DipDrv:  MaxL=1.
 Leave Link  303 at Wed May  4 13:01:07 2022, MaxMem=  2684354560 cpu:               0.3 elap:               0.1
 (Enter /apps/software/g16/l401.exe)
 ExpMin= 1.22D-01 ExpMax= 1.28D+05 ExpMxC= 1.24D+03 IAcc=3 IRadAn=         5 AccDes= 0.00D+00
 Harris functional with IExCor=  205 and IRadAn=       5 diagonalized for initial guess.
 HarFok:  IExCor=  205 AccDes= 0.00D+00 IRadAn=         5 IDoV= 1 UseB2=F ITyADJ=14
 ICtDFT=  3500011 ScaDFX=  1.000000  1.000000  1.000000  1.000000
 FoFCou: FMM=F IPFlag=           0 FMFlag=      100000 FMFlg1=           0
         NFxFlg=           0 DoJE=T BraDBF=F KetDBF=T FulRan=T
         wScrn=  0.000000 ICntrl=       500 IOpCl=  0 I1Cent=   200000004 NGrid=           0
         NMat0=    1 NMatS0=      1 NMatT0=    0 NMatD0=    1 NMtDS0=    0 NMtDT0=    0
 Petite list used in FoFCou.
 Harris En= -1377.80574380875    
 JPrj=0 DoOrth=F DoCkMO=F.
 Leave Link  401 at Wed May  4 13:01:07 2022, MaxMem=  2684354560 cpu:               4.4 elap:               0.6
 (Enter /apps/software/g16/l502.exe)
 Integral symmetry usage will be decided dynamically.
 Closed shell SCF:
 Using DIIS extrapolation, IDIIS=  1040.
 NGot=  2684354560 LenX=  2684216654 LenY=  2684149649
 Requested convergence on RMS density matrix=1.00D-08 within 128 cycles.
 Requested convergence on MAX density matrix=1.00D-06.
 Requested convergence on             energy=1.00D-06.
 No special actions if energy rises.
 Fock matrices will be formed incrementally for  20 cycles.
 Integral accuracy reduced to 1.0D-05 until final iterations.

 Cycle   1  Pass 0  IDiag  1:
 FoFJK:  IHMeth= 1 ICntrl=       0 DoSepK=F KAlg= 0 I1Cent=           0 FoldK=F
 IRaf= 880000000 NMat=       1 IRICut=       1 DoRegI=T DoRafI=F ISym2E= 0 IDoP0=0 IntGTp=1.
 FoFCou: FMM=F IPFlag=           0 FMFlag=      100000 FMFlg1=           0
         NFxFlg=           0 DoJE=F BraDBF=F KetDBF=F FulRan=T
         wScrn=  0.000000 ICntrl=         0 IOpCl=  0 I1Cent=           0 NGrid=           0
         NMat0=    1 NMatS0=      1 NMatT0=    0 NMatD0=    1 NMtDS0=    0 NMtDT0=    0
 Symmetry not used in FoFCou.
 E= -1377.59133377360    
 DIIS: error= 6.71D-02 at cycle   1 NSaved=   1.
 NSaved= 1 IEnMin= 1 EnMin= -1377.59133377360     IErMin= 1 ErrMin= 6.71D-02
 ErrMax= 6.71D-02  0.00D+00 EMaxC= 1.00D-01 BMatC= 6.16D-01 BMatP= 6.16D-01
 IDIUse=3 WtCom= 3.29D-01 WtEn= 6.71D-01
 Coeff-Com:  0.100D+01
 Coeff-En:   0.100D+01
 Coeff:      0.100D+01
 Gap=     0.656 Goal=   None    Shift=    0.000
 GapD=    0.656 DampG=2.000 DampE=0.500 DampFc=1.0000 IDamp=-1.
 RMSDP=5.66D-03 MaxDP=8.71D-02              OVMax= 1.67D-01

 Cycle   2  Pass 0  IDiag  1:
 RMSU=  5.48D-03    CP:  9.43D-01
 E= -1378.02630707345     Delta-E=       -0.434973299850 Rises=F Damp=F
 DIIS: error= 1.99D-02 at cycle   2 NSaved=   2.
 NSaved= 2 IEnMin= 2 EnMin= -1378.02630707345     IErMin= 2 ErrMin= 1.99D-02
 ErrMax= 1.99D-02  0.00D+00 EMaxC= 1.00D-01 BMatC= 9.26D-02 BMatP= 6.16D-01
 IDIUse=3 WtCom= 8.01D-01 WtEn= 1.99D-01
 Coeff-Com:  0.226D+00 0.774D+00
 Coeff-En:   0.000D+00 0.100D+01
 Coeff:      0.181D+00 0.819D+00
 Gap=     0.567 Goal=   None    Shift=    0.000
 RMSDP=1.78D-03 MaxDP=3.52D-02 DE=-4.35D-01 OVMax= 6.54D-02

 Cycle   3  Pass 0  IDiag  1:
 RMSU=  1.57D-03    CP:  9.47D-01  8.48D-01
 E= -1378.11953953855     Delta-E=       -0.093232465102 Rises=F Damp=F
 DIIS: error= 5.53D-03 at cycle   3 NSaved=   3.
 NSaved= 3 IEnMin= 3 EnMin= -1378.11953953855     IErMin= 3 ErrMin= 5.53D-03
 ErrMax= 5.53D-03  0.00D+00 EMaxC= 1.00D-01 BMatC= 6.36D-03 BMatP= 9.26D-02
 IDIUse=3 WtCom= 9.45D-01 WtEn= 5.53D-02
 Coeff-Com: -0.243D-01 0.160D+00 0.864D+00
 Coeff-En:   0.000D+00 0.000D+00 0.100D+01
 Coeff:     -0.230D-01 0.151D+00 0.872D+00
 Gap=     0.445 Goal=   None    Shift=    0.000
 RMSDP=4.50D-04 MaxDP=1.11D-02 DE=-9.32D-02 OVMax= 2.95D-02

 Cycle   4  Pass 0  IDiag  1:
 RMSU=  2.84D-04    CP:  9.44D-01  9.07D-01  9.27D-01
 E= -1378.12687245543     Delta-E=       -0.007332916875 Rises=F Damp=F
 DIIS: error= 2.49D-03 at cycle   4 NSaved=   4.
 NSaved= 4 IEnMin= 4 EnMin= -1378.12687245543     IErMin= 4 ErrMin= 2.49D-03
 ErrMax= 2.49D-03  0.00D+00 EMaxC= 1.00D-01 BMatC= 5.08D-04 BMatP= 6.36D-03
 IDIUse=3 WtCom= 9.75D-01 WtEn= 2.49D-02
 Coeff-Com: -0.130D-01 0.275D-01 0.279D+00 0.706D+00
 Coeff-En:   0.000D+00 0.000D+00 0.000D+00 0.100D+01
 Coeff:     -0.127D-01 0.268D-01 0.272D+00 0.713D+00
 Gap=     0.441 Goal=   None    Shift=    0.000
 RMSDP=1.30D-04 MaxDP=2.34D-03 DE=-7.33D-03 OVMax= 7.81D-03

 Cycle   5  Pass 0  IDiag  1:
 RMSU=  9.33D-05    CP:  9.44D-01  9.09D-01  9.76D-01  8.39D-01
 E= -1378.12746471498     Delta-E=       -0.000592259550 Rises=F Damp=F
 DIIS: error= 5.42D-04 at cycle   5 NSaved=   5.
 NSaved= 5 IEnMin= 5 EnMin= -1378.12746471498     IErMin= 5 ErrMin= 5.42D-04
 ErrMax= 5.42D-04  0.00D+00 EMaxC= 1.00D-01 BMatC= 5.70D-05 BMatP= 5.08D-04
 IDIUse=3 WtCom= 9.95D-01 WtEn= 5.42D-03
 Coeff-Com:  0.900D-03-0.208D-01-0.715D-01 0.168D+00 0.924D+00
 Coeff-En:   0.000D+00 0.000D+00 0.000D+00 0.000D+00 0.100D+01
 Coeff:      0.895D-03-0.207D-01-0.711D-01 0.167D+00 0.924D+00
 Gap=     0.441 Goal=   None    Shift=    0.000
 RMSDP=6.00D-05 MaxDP=1.43D-03 DE=-5.92D-04 OVMax= 4.61D-03

 Cycle   6  Pass 0  IDiag  1:
 RMSU=  2.91D-05    CP:  9.44D-01  9.11D-01  9.88D-01  1.00D+00  1.04D+00
 E= -1378.12757431497     Delta-E=       -0.000109599994 Rises=F Damp=F
 DIIS: error= 2.66D-04 at cycle   6 NSaved=   6.
 NSaved= 6 IEnMin= 6 EnMin= -1378.12757431497     IErMin= 6 ErrMin= 2.66D-04
 ErrMax= 2.66D-04  0.00D+00 EMaxC= 1.00D-01 BMatC= 5.20D-06 BMatP= 5.70D-05
 IDIUse=3 WtCom= 9.97D-01 WtEn= 2.66D-03
 Coeff-Com:  0.104D-02-0.444D-02-0.246D-01-0.601D-01 0.520D-01 0.104D+01
 Coeff-En:   0.000D+00 0.000D+00 0.000D+00 0.000D+00 0.000D+00 0.100D+01
 Coeff:      0.104D-02-0.442D-02-0.245D-01-0.599D-01 0.519D-01 0.104D+01
 Gap=     0.441 Goal=   None    Shift=    0.000
 RMSDP=2.05D-05 MaxDP=5.27D-04 DE=-1.10D-04 OVMax= 1.42D-03

 Cycle   7  Pass 0  IDiag  1:
 RMSU=  9.26D-06    CP:  9.44D-01  9.11D-01  9.93D-01  1.03D+00  1.15D+00
                    CP:  1.35D+00
 E= -1378.12759029846     Delta-E=       -0.000015983491 Rises=F Damp=F
 DIIS: error= 1.39D-04 at cycle   7 NSaved=   7.
 NSaved= 7 IEnMin= 7 EnMin= -1378.12759029846     IErMin= 7 ErrMin= 1.39D-04
 ErrMax= 1.39D-04  0.00D+00 EMaxC= 1.00D-01 BMatC= 9.14D-07 BMatP= 5.20D-06
 IDIUse=3 WtCom= 9.99D-01 WtEn= 1.39D-03
 Coeff-Com: -0.253D-03 0.244D-02 0.122D-01-0.360D-02-0.745D-01-0.325D+00
 Coeff-Com:  0.139D+01
 Coeff-En:   0.000D+00 0.000D+00 0.000D+00 0.000D+00 0.000D+00 0.000D+00
 Coeff-En:   0.100D+01
 Coeff:     -0.252D-03 0.244D-02 0.122D-01-0.360D-02-0.744D-01-0.325D+00
 Coeff:      0.139D+01
 Gap=     0.441 Goal=   None    Shift=    0.000
 RMSDP=1.23D-05 MaxDP=4.58D-04 DE=-1.60D-05 OVMax= 1.13D-03

 Cycle   8  Pass 0  IDiag  1:
 RMSU=  4.68D-06    CP:  9.44D-01  9.11D-01  9.94D-01  1.04D+00  1.19D+00
                    CP:  1.60D+00  1.76D+00
 E= -1378.12759583165     Delta-E=       -0.000005533183 Rises=F Damp=F
 DIIS: error= 6.37D-05 at cycle   8 NSaved=   8.
 NSaved= 8 IEnMin= 8 EnMin= -1378.12759583165     IErMin= 8 ErrMin= 6.37D-05
 ErrMax= 6.37D-05  0.00D+00 EMaxC= 1.00D-01 BMatC= 3.09D-07 BMatP= 9.14D-07
 IDIUse=1 WtCom= 1.00D+00 WtEn= 0.00D+00
 Coeff-Com: -0.272D-03 0.123D-02 0.749D-02 0.195D-01-0.680D-02-0.392D+00
 Coeff-Com:  0.205D+00 0.117D+01
 Coeff:     -0.272D-03 0.123D-02 0.749D-02 0.195D-01-0.680D-02-0.392D+00
 Coeff:      0.205D+00 0.117D+01
 Gap=     0.441 Goal=   None    Shift=    0.000
 RMSDP=7.27D-06 MaxDP=1.98D-04 DE=-5.53D-06 OVMax= 6.51D-04

 Initial convergence to 1.0D-05 achieved.  Increase integral accuracy.
 Cycle   9  Pass 1  IDiag  1:
 E= -1378.12759262080     Delta-E=        0.000003210843 Rises=F Damp=F
 DIIS: error= 1.74D-04 at cycle   1 NSaved=   1.
 NSaved= 1 IEnMin= 1 EnMin= -1378.12759262080     IErMin= 1 ErrMin= 1.74D-04
 ErrMax= 1.74D-04  0.00D+00 EMaxC= 1.00D-01 BMatC= 9.17D-07 BMatP= 9.17D-07
 IDIUse=3 WtCom= 9.98D-01 WtEn= 1.74D-03
 Coeff-Com:  0.100D+01
 Coeff-En:   0.100D+01
 Coeff:      0.100D+01
 Gap=     0.441 Goal=   None    Shift=    0.000
 RMSDP=7.27D-06 MaxDP=1.98D-04 DE= 3.21D-06 OVMax= 1.57D-04

 Cycle  10  Pass 1  IDiag  1:
 RMSU=  7.22D-05    CP:  1.00D+00
 E= -1378.12759336349     Delta-E=       -0.000000742682 Rises=F Damp=F
 DIIS: error= 1.35D-05 at cycle   2 NSaved=   2.
 NSaved= 2 IEnMin= 2 EnMin= -1378.12759336349     IErMin= 2 ErrMin= 1.35D-05
 ErrMax= 1.35D-05  0.00D+00 EMaxC= 1.00D-01 BMatC= 1.01D-08 BMatP= 9.17D-07
 IDIUse=1 WtCom= 1.00D+00 WtEn= 0.00D+00
 Coeff-Com: -0.387D-01 0.104D+01
 Coeff:     -0.387D-01 0.104D+01
 Gap=     0.441 Goal=   None    Shift=    0.000
 RMSDP=3.71D-06 MaxDP=9.49D-05 DE=-7.43D-07 OVMax= 6.77D-05

 Cycle  11  Pass 1  IDiag  1:
 RMSU=  1.12D-06    CP:  1.00D+00  1.05D+00
 E= -1378.12759339841     Delta-E=       -0.000000034920 Rises=F Damp=F
 DIIS: error= 7.26D-06 at cycle   3 NSaved=   3.
 NSaved= 3 IEnMin= 3 EnMin= -1378.12759339841     IErMin= 3 ErrMin= 7.26D-06
 ErrMax= 7.26D-06  0.00D+00 EMaxC= 1.00D-01 BMatC= 4.00D-09 BMatP= 1.01D-08
 IDIUse=1 WtCom= 1.00D+00 WtEn= 0.00D+00
 Coeff-Com: -0.111D-01 0.104D+00 0.907D+00
 Coeff:     -0.111D-01 0.104D+00 0.907D+00
 Gap=     0.441 Goal=   None    Shift=    0.000
 RMSDP=4.11D-07 MaxDP=1.43D-05 DE=-3.49D-08 OVMax= 3.24D-05

 Cycle  12  Pass 1  IDiag  1:
 RMSU=  3.55D-07    CP:  1.00D+00  1.05D+00  1.17D+00
 E= -1378.12759341062     Delta-E=       -0.000000012212 Rises=F Damp=F
 DIIS: error= 5.74D-06 at cycle   4 NSaved=   4.
 NSaved= 4 IEnMin= 4 EnMin= -1378.12759341062     IErMin= 4 ErrMin= 5.74D-06
 ErrMax= 5.74D-06  0.00D+00 EMaxC= 1.00D-01 BMatC= 1.49D-09 BMatP= 4.00D-09
 IDIUse=1 WtCom= 1.00D+00 WtEn= 0.00D+00
 Coeff-Com:  0.217D-01-0.586D+00-0.116D+00 0.168D+01
 Coeff:      0.217D-01-0.586D+00-0.116D+00 0.168D+01
 Gap=     0.441 Goal=   None    Shift=    0.000
 RMSDP=6.56D-07 MaxDP=2.09D-05 DE=-1.22D-08 OVMax= 6.65D-05

 Cycle  13  Pass 1  IDiag  1:
 RMSU=  2.94D-07    CP:  1.00D+00  1.05D+00  1.50D+00  2.27D+00
 E= -1378.12759342067     Delta-E=       -0.000000010052 Rises=F Damp=F
 DIIS: error= 5.16D-07 at cycle   5 NSaved=   5.
 NSaved= 5 IEnMin= 5 EnMin= -1378.12759342067     IErMin= 5 ErrMin= 5.16D-07
 ErrMax= 5.16D-07  0.00D+00 EMaxC= 1.00D-01 BMatC= 6.64D-11 BMatP= 1.49D-09
 IDIUse=1 WtCom= 1.00D+00 WtEn= 0.00D+00
 Coeff-Com:  0.484D-03 0.106D-02-0.558D-01-0.469D-01 0.110D+01
 Coeff:      0.484D-03 0.106D-02-0.558D-01-0.469D-01 0.110D+01
 Gap=     0.441 Goal=   None    Shift=    0.000
 RMSDP=1.34D-07 MaxDP=4.25D-06 DE=-1.01D-08 OVMax= 1.25D-05

 Cycle  14  Pass 1  IDiag  1:
 RMSU=  6.33D-08    CP:  1.00D+00  1.05D+00  1.51D+00  2.54D+00  1.18D+00
 E= -1378.12759342102     Delta-E=       -0.000000000353 Rises=F Damp=F
 DIIS: error= 6.50D-07 at cycle   6 NSaved=   6.
 NSaved= 6 IEnMin= 6 EnMin= -1378.12759342102     IErMin= 5 ErrMin= 5.16D-07
 ErrMax= 6.50D-07  0.00D+00 EMaxC= 1.00D-01 BMatC= 2.98D-11 BMatP= 6.64D-11
 IDIUse=1 WtCom= 1.00D+00 WtEn= 0.00D+00
 Coeff-Com: -0.287D-02 0.829D-01 0.248D-02-0.281D+00 0.458D+00 0.741D+00
 Coeff:     -0.287D-02 0.829D-01 0.248D-02-0.281D+00 0.458D+00 0.741D+00
 Gap=     0.441 Goal=   None    Shift=    0.000
 RMSDP=4.22D-08 MaxDP=1.12D-06 DE=-3.53D-10 OVMax= 3.80D-06

 Cycle  15  Pass 1  IDiag  1:
 RMSU=  2.68D-08    CP:  1.00D+00  1.05D+00  1.52D+00  2.60D+00  1.25D+00
                    CP:  1.08D+00
 E= -1378.12759342108     Delta-E=       -0.000000000060 Rises=F Damp=F
 DIIS: error= 8.32D-08 at cycle   7 NSaved=   7.
 NSaved= 7 IEnMin= 7 EnMin= -1378.12759342108     IErMin= 7 ErrMin= 8.32D-08
 ErrMax= 8.32D-08  0.00D+00 EMaxC= 1.00D-01 BMatC= 2.04D-12 BMatP= 2.98D-11
 IDIUse=1 WtCom= 1.00D+00 WtEn= 0.00D+00
 Coeff-Com:  0.129D-03-0.721D-02 0.228D-01 0.127D-01-0.243D+00-0.139D+00
 Coeff-Com:  0.135D+01
 Coeff:      0.129D-03-0.721D-02 0.228D-01 0.127D-01-0.243D+00-0.139D+00
 Coeff:      0.135D+01
 Gap=     0.441 Goal=   None    Shift=    0.000
 RMSDP=2.35D-08 MaxDP=6.20D-07 DE=-6.00D-11 OVMax= 1.88D-06

 Cycle  16  Pass 1  IDiag  1:
 RMSU=  7.07D-09    CP:  1.00D+00  1.05D+00  1.52D+00  2.62D+00  1.26D+00
                    CP:  1.32D+00  1.43D+00
 E= -1378.12759342109     Delta-E=       -0.000000000006 Rises=F Damp=F
 DIIS: error= 1.65D-08 at cycle   8 NSaved=   8.
 NSaved= 8 IEnMin= 8 EnMin= -1378.12759342109     IErMin= 8 ErrMin= 1.65D-08
 ErrMax= 1.65D-08  0.00D+00 EMaxC= 1.00D-01 BMatC= 1.13D-13 BMatP= 2.04D-12
 IDIUse=1 WtCom= 1.00D+00 WtEn= 0.00D+00
 Coeff-Com:  0.179D-03-0.570D-02 0.613D-02 0.163D-01-0.574D-01-0.661D-01
 Coeff-Com:  0.229D+00 0.877D+00
 Coeff:      0.179D-03-0.570D-02 0.613D-02 0.163D-01-0.574D-01-0.661D-01
 Coeff:      0.229D+00 0.877D+00
 Gap=     0.441 Goal=   None    Shift=    0.000
 RMSDP=3.43D-09 MaxDP=6.73D-08 DE=-6.37D-12 OVMax= 1.39D-07

 SCF Done:  E(RHF) =  -1378.12759342     A.U. after   16 cycles
            NFock= 16  Conv=0.34D-08     -V/T= 2.0000
 KE= 1.378108094508D+03 PE=-5.112354005213D+03 EE= 1.428573813626D+03
 Leave Link  502 at Wed May  4 13:01:20 2022, MaxMem=  2684354560 cpu:             101.3 elap:              12.7
 (Enter /apps/software/g16/l601.exe)
 Copying SCF densities to generalized density rwf, IOpCl= 0 IROHF=0.

 **********************************************************************

            Population analysis using the SCF density.

 **********************************************************************

 Orbital symmetries:
       Occupied  (A) (A) (A) (A) (A) (A) (A) (A) (A) (A) (A) (A)
                 (A) (A) (A) (A) (A) (A) (A) (A) (A) (A) (A) (A)
                 (A) (A) (A) (A) (A) (A) (A) (A) (A) (A) (A) (A)
                 (A) (A) (A) (A) (A) (A) (A) (A) (A) (A) (A) (A)
                 (A) (A) (A) (A) (A) (A) (A) (A) (A)
       Virtual   (A) (A) (A) (A) (A) (A) (A) (A) (A) (A) (A) (A)
                 (A) (A) (A) (A) (A) (A) (A) (A) (A) (A) (A) (A)
                 (A) (A) (A) (A) (A) (A) (A) (A) (A) (A) (A) (A)
                 (A) (A) (A) (A) (A) (A) (A) (A) (A) (A) (A) (A)
                 (A) (A) (A) (A) (A) (A) (A) (A) (A) (A) (A) (A)
                 (A) (A) (A) (A) (A) (A) (A) (A) (A) (A) (A) (A)
                 (A) (A) (A) (A) (A) (A) (A) (A) (A) (A) (A) (A)
                 (A) (A) (A) (A) (A) (A) (A) (A) (A) (A) (A) (A)
                 (A) (A) (A) (A) (A) (A) (A) (A) (A) (A) (A) (A)
                 (A) (A) (A) (A) (A) (A) (A) (A) (A) (A) (A) (A)
                 (A) (A) (A) (A) (A) (A) (A) (A) (A) (A) (A) (A)
                 (A) (A) (A) (A) (A) (A) (A) (A) (A) (A) (A) (A)
                 (A) (A) (A) (A) (A) (A) (A) (A) (A) (A) (A) (A)
                 (A) (A) (A) (A) (A) (A) (A) (A) (A) (A) (A) (A)
                 (A) (A) (A) (A) (A) (A) (A) (A) (A) (A) (A) (A)
                 (A) (A) (A) (A) (A) (A) (A)
 The electronic state is 1-A.
 Alpha  occ. eigenvalues -- -104.83671-104.83670 -11.30943 -11.30943 -11.26377
 Alpha  occ. eigenvalues --  -11.26311 -11.25893 -11.25893 -11.25887 -11.25887
 Alpha  occ. eigenvalues --  -11.25723 -11.25722 -11.25714 -11.25712 -10.56373
 Alpha  occ. eigenvalues --  -10.56373  -8.03137  -8.03137  -8.02794  -8.02793
 Alpha  occ. eigenvalues --   -8.02784  -8.02784  -1.20661  -1.19576  -1.14503
 Alpha  occ. eigenvalues --   -1.11535  -1.04034  -1.04034  -1.03674  -0.97461
 Alpha  occ. eigenvalues --   -0.85583  -0.85582  -0.84610  -0.80188  -0.72905
 Alpha  occ. eigenvalues --   -0.67417  -0.66145  -0.66145  -0.65237  -0.63922
 Alpha  occ. eigenvalues --   -0.60741  -0.60741  -0.58748  -0.54977  -0.54976
 Alpha  occ. eigenvalues --   -0.54025  -0.52150  -0.52149  -0.49953  -0.47030
 Alpha  occ. eigenvalues --   -0.47030  -0.45641  -0.45641  -0.36154  -0.35377
 Alpha  occ. eigenvalues --   -0.33924  -0.33924
 Alpha virt. eigenvalues --    0.10151   0.11762   0.11762   0.13224   0.17300
 Alpha virt. eigenvalues --    0.17361   0.21211   0.21212   0.22298   0.23990
 Alpha virt. eigenvalues --    0.24612   0.24639   0.26280   0.26280   0.32976
 Alpha virt. eigenvalues --    0.32977   0.37272   0.38071   0.42985   0.43448
 Alpha virt. eigenvalues --    0.43450   0.44891   0.47193   0.47756   0.47756
 Alpha virt. eigenvalues --    0.58241   0.58242   0.59632   0.61866   0.62243
 Alpha virt. eigenvalues --    0.63423   0.63425   0.66778   0.66778   0.67260
 Alpha virt. eigenvalues --    0.68749   0.69144   0.69620   0.70299   0.71175
 Alpha virt. eigenvalues --    0.71175   0.71344   0.72020   0.72972   0.73193
 Alpha virt. eigenvalues --    0.73193   0.73481   0.73506   0.76761   0.76961
 Alpha virt. eigenvalues --    0.76962   0.78039   0.78040   0.80540   0.80541
 Alpha virt. eigenvalues --    0.85334   0.86598   0.86598   0.88235   0.88235
 Alpha virt. eigenvalues --    0.88368   0.89063   0.89771   0.89773   0.90542
 Alpha virt. eigenvalues --    0.94579   0.95116   0.95116   0.96636   0.97547
 Alpha virt. eigenvalues --    0.98224   0.98298   0.99708   0.99709   1.05021
 Alpha virt. eigenvalues --    1.07022   1.07630   1.10618   1.11907   1.13021
 Alpha virt. eigenvalues --    1.13021   1.14875   1.14878   1.14939   1.15174
 Alpha virt. eigenvalues --    1.17803   1.17804   1.20962   1.22356   1.22357
 Alpha virt. eigenvalues --    1.22504   1.23013   1.25086   1.27806   1.29309
 Alpha virt. eigenvalues --    1.29957   1.30478   1.33291   1.34977   1.34978
 Alpha virt. eigenvalues --    1.36989   1.40024   1.43395   1.46259   1.46261
 Alpha virt. eigenvalues --    1.47962   1.47962   1.50521   1.50522   1.58218
 Alpha virt. eigenvalues --    1.58788   1.58788   1.62001   1.68111   1.69627
 Alpha virt. eigenvalues --    1.73550   1.74694   1.74695   1.75526   1.79789
 Alpha virt. eigenvalues --    1.79790   1.81717   1.82464   1.82767   1.82767
 Alpha virt. eigenvalues --    1.87022   1.89868   1.90397   1.90398   1.90970
 Alpha virt. eigenvalues --    1.92538   1.93956   1.94829   1.97009   1.97286
 Alpha virt. eigenvalues --    1.98241   1.98241   2.01844   2.02476   2.02477
 Alpha virt. eigenvalues --    2.02807   2.06228   2.06238   2.07713   2.12758
 Alpha virt. eigenvalues --    2.13741   2.13890   2.13890   2.14741   2.19093
 Alpha virt. eigenvalues --    2.19094   2.22755   2.24872   2.25806   2.26085
 Alpha virt. eigenvalues --    2.26085   2.26377   2.32669   2.32672   2.38893
 Alpha virt. eigenvalues --    2.39829   2.41642   2.44479   2.45405   2.45405
 Alpha virt. eigenvalues --    2.55615   2.56662   2.67651   2.67654   2.72356
 Alpha virt. eigenvalues --    2.75386   2.78560   2.78560   2.83763   2.83768
 Alpha virt. eigenvalues --    2.94396   2.98606   2.99455   3.00634   3.02907
 Alpha virt. eigenvalues --    3.04416   3.04418   3.08734   3.27227   3.27233
 Alpha virt. eigenvalues --    3.73907   3.88756
          Condensed to atoms (all electrons):
               1          2          3          4          5          6
     1  C    4.661519   0.562153  -0.052547  -0.040984  -0.021127   0.478147
     2  C    0.562153   4.659877   0.547804  -0.034271  -0.040984  -0.044482
     3  C   -0.052547   0.547804   4.976838   0.547804  -0.052547  -0.050729
     4  C   -0.040984  -0.034271   0.547804   4.659877   0.562153  -0.044482
     5  C   -0.021127  -0.040984  -0.052547   0.562153   4.661519   0.478147
     6  C    0.478147  -0.044482  -0.050729  -0.044482   0.478147   5.151337
     7  H    0.424153  -0.030060   0.006451  -0.000637   0.006869  -0.041654
     8  H   -0.033696   0.422088  -0.033190   0.007422  -0.000591   0.006911
     9  H   -0.000591   0.007422  -0.033190   0.422088  -0.033696   0.006911
    10  H    0.006869  -0.000637   0.006451  -0.030060   0.424153  -0.041654
    11  C    0.002649  -0.079493   0.399468  -0.079493   0.002649   0.000233
    12  C   -0.000069  -0.003964  -0.079506  -0.003964  -0.000069  -0.000014
    13  C   -0.000070  -0.003962  -0.079464  -0.003962  -0.000070  -0.000014
    14  C    0.000009  -0.000070   0.002649  -0.000070   0.000009  -0.000001
    15  H   -0.000126   0.000786  -0.006982   0.000786  -0.000126  -0.000027
    16  C    0.000009  -0.000069   0.002648  -0.000069   0.000009  -0.000001
    17  H   -0.000126   0.000787  -0.006982   0.000787  -0.000126  -0.000027
    18  C   -0.000001  -0.000014   0.000233  -0.000014  -0.000001   0.000000
    19  H   -0.000000  -0.000000  -0.000229  -0.000000  -0.000000   0.000000
    20  H   -0.000000  -0.000000  -0.000228  -0.000000  -0.000000   0.000000
    21  Cl  -0.085050   0.004070  -0.000327   0.004070  -0.085050   0.298028
    22  Cl   0.000000  -0.000000   0.000006  -0.000000   0.000000  -0.000000
               7          8          9         10         11         12
     1  C    0.424153  -0.033696  -0.000591   0.006869   0.002649  -0.000069
     2  C   -0.030060   0.422088   0.007422  -0.000637  -0.079493  -0.003964
     3  C    0.006451  -0.033190  -0.033190   0.006451   0.399468  -0.079506
     4  C   -0.000637   0.007422   0.422088  -0.030060  -0.079493  -0.003964
     5  C    0.006869  -0.000591  -0.033696   0.424153   0.002649  -0.000069
     6  C   -0.041654   0.006911   0.006911  -0.041654   0.000233  -0.000014
     7  H    0.607594  -0.009262   0.000038  -0.000134  -0.000228  -0.000000
     8  H   -0.009262   0.621874  -0.000160   0.000038  -0.006982   0.000787
     9  H    0.000038  -0.000160   0.621874  -0.009262  -0.006982   0.000787
    10  H   -0.000134   0.000038  -0.009262   0.607594  -0.000228  -0.000000
    11  C   -0.000228  -0.006982  -0.006982  -0.000228   4.976862   0.547780
    12  C   -0.000000   0.000787   0.000787  -0.000000   0.547780   4.659882
    13  C   -0.000000   0.000786   0.000786  -0.000000   0.547854  -0.034275
    14  C   -0.000000  -0.000126  -0.000126  -0.000000  -0.052543   0.562154
    15  H    0.000002   0.000152   0.000152   0.000002  -0.033179   0.422088
    16  C   -0.000000  -0.000126  -0.000126  -0.000000  -0.052552  -0.040984
    17  H    0.000002   0.000152   0.000152   0.000002  -0.033181   0.007422
    18  C    0.000000  -0.000027  -0.000027   0.000000  -0.050730  -0.044487
    19  H    0.000000   0.000002   0.000002   0.000000   0.006448  -0.030072
    20  H    0.000000   0.000002   0.000002   0.000000   0.006449  -0.000637
    21  Cl  -0.002920  -0.000116  -0.000116  -0.002920   0.000006  -0.000000
    22  Cl  -0.000000  -0.000000  -0.000000  -0.000000  -0.000327   0.004071
              13         14         15         16         17         18
     1  C   -0.000070   0.000009  -0.000126   0.000009  -0.000126  -0.000001
     2  C   -0.003962  -0.000070   0.000786  -0.000069   0.000787  -0.000014
     3  C   -0.079464   0.002649  -0.006982   0.002648  -0.006982   0.000233
     4  C   -0.003962  -0.000070   0.000786  -0.000069   0.000787  -0.000014
     5  C   -0.000070   0.000009  -0.000126   0.000009  -0.000126  -0.000001
     6  C   -0.000014  -0.000001  -0.000027  -0.000001  -0.000027   0.000000
     7  H   -0.000000  -0.000000   0.000002  -0.000000   0.000002   0.000000
     8  H    0.000786  -0.000126   0.000152  -0.000126   0.000152  -0.000027
     9  H    0.000786  -0.000126   0.000152  -0.000126   0.000152  -0.000027
    10  H   -0.000000  -0.000000   0.000002  -0.000000   0.000002   0.000000
    11  C    0.547854  -0.052543  -0.033179  -0.052552  -0.033181  -0.050730
    12  C   -0.034275   0.562154   0.422088  -0.040984   0.007422  -0.044487
    13  C    4.659865  -0.040976   0.007423   0.562085   0.422091  -0.044477
    14  C   -0.040976   4.661501  -0.033706  -0.021133  -0.000591   0.478149
    15  H    0.007423  -0.033706   0.621864  -0.000591  -0.000160   0.006909
    16  C    0.562085  -0.021133  -0.000591   4.661518  -0.033708   0.478205
    17  H    0.422091  -0.000591  -0.000160  -0.033708   0.621869   0.006909
    18  C   -0.044477   0.478149   0.006909   0.478205   0.006909   5.151310
    19  H   -0.000637   0.424154  -0.009257   0.006871   0.000038  -0.041642
    20  H   -0.030075   0.006871   0.000038   0.424154  -0.009257  -0.041642
    21  Cl  -0.000000   0.000000  -0.000000   0.000000  -0.000000  -0.000000
    22  Cl   0.004070  -0.085039  -0.000116  -0.085052  -0.000116   0.298022
              19         20         21         22
     1  C   -0.000000  -0.000000  -0.085050   0.000000
     2  C   -0.000000  -0.000000   0.004070  -0.000000
     3  C   -0.000229  -0.000228  -0.000327   0.000006
     4  C   -0.000000  -0.000000   0.004070  -0.000000
     5  C   -0.000000  -0.000000  -0.085050   0.000000
     6  C    0.000000   0.000000   0.298028  -0.000000
     7  H    0.000000   0.000000  -0.002920  -0.000000
     8  H    0.000002   0.000002  -0.000116  -0.000000
     9  H    0.000002   0.000002  -0.000116  -0.000000
    10  H    0.000000   0.000000  -0.002920  -0.000000
    11  C    0.006448   0.006449   0.000006  -0.000327
    12  C   -0.030072  -0.000637  -0.000000   0.004071
    13  C   -0.000637  -0.030075  -0.000000   0.004070
    14  C    0.424154   0.006871   0.000000  -0.085039
    15  H   -0.009257   0.000038  -0.000000  -0.000116
    16  C    0.006871   0.424154   0.000000  -0.085052
    17  H    0.000038  -0.009257  -0.000000  -0.000116
    18  C   -0.041642  -0.041642  -0.000000   0.298022
    19  H    0.607585  -0.000134  -0.000000  -0.002919
    20  H   -0.000134   0.607588  -0.000000  -0.002921
    21  Cl  -0.000000  -0.000000  16.970773   0.000000
    22  Cl  -0.002919  -0.002921   0.000000  16.970784
 Mulliken charges:
               1
     1  C    0.098881
     2  C    0.033018
     3  C   -0.094430
     4  C    0.033018
     5  C    0.098881
     6  C   -0.196630
     7  H    0.039790
     8  H    0.024065
     9  H    0.024065
    10  H    0.039790
    11  C   -0.094480
    12  C    0.033073
    13  C    0.033019
    14  C    0.098886
    15  H    0.024070
    16  C    0.098915
    17  H    0.024066
    18  C   -0.196675
    19  H    0.039792
    20  H    0.039793
    21  Cl  -0.100448
    22  Cl  -0.100461
 Sum of Mulliken charges =  -0.00000
 Mulliken charges with hydrogens summed into heavy atoms:
               1
     1  C    0.138671
     2  C    0.057084
     3  C   -0.094430
     4  C    0.057084
     5  C    0.138671
     6  C   -0.196630
    11  C   -0.094480
    12  C    0.057143
    13  C    0.057085
    14  C    0.138678
    16  C    0.138708
    18  C   -0.196675
    21  Cl  -0.100448
    22  Cl  -0.100461
 Electronic spatial extent (au):  <R**2>=           5592.9843
 Charge=             -0.0000 electrons
 Dipole moment (field-independent basis, Debye):
    X=              0.0002    Y=              0.0001    Z=              0.0000  Tot=              0.0002
 Quadrupole moment (field-independent basis, Debye-Ang):
   XX=           -114.0050   YY=            -91.8067   ZZ=            -91.9816
   XY=              0.1769   XZ=             -1.9819   YZ=              0.0158
 Traceless Quadrupole moment (field-independent basis, Debye-Ang):
   XX=            -14.7406   YY=              7.4577   ZZ=              7.2828
   XY=              0.1769   XZ=             -1.9819   YZ=              0.0158
 Octapole moment (field-independent basis, Debye-Ang**2):
  XXX=              0.5149  YYY=              0.5167  ZZZ=              5.7760  XYY=            -21.7332
  XXY=             -0.3409  XXZ=             -3.8354  XZZ=             21.2234  YZZ=             -0.1721
  YYZ=             -1.9402  XYZ=             -0.0144
 Hexadecapole moment (field-independent basis, Debye-Ang**3):
 XXXX=          -7126.9436 YYYY=           -325.5603 ZZZZ=           -375.0982 XXXY=             29.1545
 XXXZ=           -327.6549 YYYX=             24.8633 YYYZ=              2.2183 ZZZX=           -279.9344
 ZZZY=              2.1769 XXYY=          -1152.4818 XXZZ=          -1164.8207 YYZZ=           -139.1772
 XXYZ=              1.1545 YYXZ=            -91.1859 ZZXY=              8.1497
 N-N= 9.275445036572D+02 E-N=-5.112354005045D+03  KE= 1.378108094508D+03
 No NMR shielding tensors so no spin-rotation constants.
 Leave Link  601 at Wed May  4 13:01:20 2022, MaxMem=  2684354560 cpu:               0.8 elap:               0.1
 (Enter /apps/software/g16/l9999.exe)
 1\1\GINC-CNODE12\SP\RHF\CC-pVDZ\C12H8Cl2\LCZ\04-May-2022\0\\#p RHF/cc-
 pVDZ\\3,8-dicl-dibenzene SP RHF cc-pVDZ\\0,1\C,0,-2.5816008418,0.85828
 3184,0.0008015685\C,0,-1.1942307521,0.8653626942,0.0009805434\C,0,-0.4
 818482166,2.0624118955,0.0002696943\C,0,-1.1941642345,3.2595005578,-0.
 0006284677\C,0,-2.5815339267,3.2666569157,-0.0008169716\C,0,-3.2667850
 308,2.0624891666,0.0001104888\H,0,-3.1277021325,-0.0739539917,0.001306
 8031\H,0,-0.6597752577,-0.0753574606,0.0016302582\H,0,-0.6596564649,4.
 2001910355,-0.0012431726\H,0,-3.1275834138,4.1989242727,-0.0015647805\
 C,0,1.0172566181,2.0623705989,0.0007816441\C,0,1.7297944005,2.06154569
 39,-1.1962774011\C,0,1.7293959808,2.0631559259,1.1979140145\C,0,3.1171
 25426,2.0615024087,-1.2032177964\H,0,1.1953094309,2.0609278449,-2.1369
 770743\C,0,3.1167839126,2.0631222706,1.2051929893\H,0,1.1946858394,2.0
 638033807,2.138491302\C,0,3.8021303247,2.062293378,0.0011222984\H,0,3.
 6635114239,2.0608602856,-2.1352874129\H,0,3.662876597,2.0637340867,2.1
 374365962\Cl,0,-5.0074713331,2.0625371637,-0.0004379395\Cl,0,5.5428489
 004,2.0622451127,0.0013688058\\Version=ES64L-G16RevA.03\State=1-A\HF=-
 1378.1275934\RMSD=3.430e-09\Dipole=-0.0000693,0.,-0.0000232\Quadrupole
 =-11.0918336,5.5461574,5.5456762,0.0004607,-0.0024043,0.0000035\PG=C01
  [X(C12H8Cl2)]\\@


 THERE'S A SUCKER BORN EVERY MINUTE

              -- PHINEAS TAYLOR (P.T.) BARNUM
 Job cpu time:       0 days  0 hours  1 minutes 49.3 seconds.
 Elapsed time:       0 days  0 hours  0 minutes 13.9 seconds.
 File lengths (MBytes):  RWF=     38 Int=      0 D2E=      0 Chk=      5 Scr=      1
 Normal termination of Gaussian 16 at Wed May  4 13:01:20 2022.

Sender: Unischeduler System <lcz@mgt01>
Subject: Job 127791: <#!/bin/bash
#BSUB -J intel
#BSUB -o 3,8-dicl-dibenzene.out
#BSUB -n 8
#BSUB -q cqueue
#BSUB -R span[hosts=1]
export g16root=/apps/software
source /apps/software/g16/bsd/g16.profile
export GAUSS_SCRDIR=/scratch
/apps/software/g16/g16 < 3,8-dicl-dibenzene.inp > 3,8-dicl-dibenzene.out> Done

Job <#!/bin/bash
#BSUB -J intel
#BSUB -o 3,8-dicl-dibenzene.out
#BSUB -n 8
#BSUB -q cqueue
#BSUB -R span[hosts=1]
export g16root=/apps/software
source /apps/software/g16/bsd/g16.profile
export GAUSS_SCRDIR=/scratch
/apps/software/g16/g16 < 3,8-dicl-dibenzene.inp > 3,8-dicl-dibenzene.out> was submitted from host <mgt01> by user <lcz>.
Job was executed on host(s) <8*cnode12>, in queue <cqueue>, as user <lcz>.
</apps/users/lcz> was used as the home directory.
</apps/users/lcz/task2/section1/isomer2/RHF_cc-pVDZ/Gaussian> was used as the working directory.
Started at 2022-05-04 13:01:06
Results reported at 2022-05-04 13:01:20

Your job looked like:

------------------------------------------------------------
# User input
#!/bin/bash
#BSUB -J intel
#BSUB -o 3,8-dicl-dibenzene.out
#BSUB -n 8
#BSUB -q cqueue
#BSUB -R span[hosts=1]
export g16root=/apps/software
source /apps/software/g16/bsd/g16.profile
export GAUSS_SCRDIR=/scratch
/apps/software/g16/g16 < 3,8-dicl-dibenzene.inp > 3,8-dicl-dibenzene.out
------------------------------------------------------------

Successfully completed.

Resource usage summary:

    CPU time   :           84.97 sec.
    Max Memory :               366 MB
    Max Processes  :               5


The output (if any) follows:

