
                                        *****************
                                        * O   R   C   A *
                                        *****************

                                            #,                                       
                                            ###                                      
                                            ####                                     
                                            #####                                    
                                            ######                                   
                                           ########,                                 
                                     ,,################,,,,,                         
                               ,,#################################,,                 
                          ,,##########################################,,             
                       ,#########################################, ''#####,          
                    ,#############################################,,   '####,        
                  ,##################################################,,,,####,       
                ,###########''''           ''''###############################       
              ,#####''   ,,,,##########,,,,          '''####'''          '####       
            ,##' ,,,,###########################,,,                        '##       
           ' ,,###''''                  '''############,,,                           
         ,,##''                                '''############,,,,        ,,,,,,###''
      ,#''                                            '''#######################'''  
     '                                                          ''''####''''         
             ,#######,   #######,   ,#######,      ##                                
            ,#'     '#,  ##    ##  ,#'     '#,    #''#        ######   ,####,        
            ##       ##  ##   ,#'  ##            #'  '#       #        #'  '#        
            ##       ##  #######   ##           ,######,      #####,   #    #        
            '#,     ,#'  ##    ##  '#,     ,#' ,#      #,         ##   #,  ,#        
             '#######'   ##     ##  '#######'  #'      '#     #####' # '####'        



                  #######################################################
                  #                        -***-                        #
                  #          Department of theory and spectroscopy      #
                  #    Directorship and core code : Frank Neese         #
                  #        Max Planck Institute fuer Kohlenforschung    #
                  #                Kaiser Wilhelm Platz 1               #
                  #                 D-45470 Muelheim/Ruhr               #
                  #                      Germany                        #
                  #                                                     #
                  #                  All rights reserved                #
                  #                        -***-                        #
                  #######################################################


                         Program Version 5.0.0 -  RELEASE  -
                                (SVN: $Rev: 19529$)
                ($Date: 2021-06-28 11:36:33 +0200 (Mo, 28 Jun 2021) $)


 With contributions from (in alphabetic order):
   Daniel Aravena         : Magnetic Suceptibility
   Michael Atanasov       : Ab Initio Ligand Field Theory (pilot matlab implementation)
   Alexander A. Auer      : GIAO ZORA, VPT2 properties, NMR spectrum
   Ute Becker             : Parallelization
   Giovanni Bistoni       : ED, misc. LED, open-shell LED, HFLD
   Martin Brehm           : Molecular dynamics
   Dmytro Bykov           : SCF Hessian
   Vijay G. Chilkuri      : MRCI spin determinant printing, contributions to CSF-ICE
   Dipayan Datta          : RHF DLPNO-CCSD density
   Achintya Kumar Dutta   : EOM-CC, STEOM-CC
   Dmitry Ganyushin       : Spin-Orbit,Spin-Spin,Magnetic field MRCI
   Miquel Garcia          : C-PCM Hessian, Gaussian charge scheme
   Yang Guo               : DLPNO-NEVPT2, F12-NEVPT2, CIM, IAO-localization
   Andreas Hansen         : Spin unrestricted coupled pair/coupled cluster methods
   Benjamin Helmich-Paris : MC-RPA, TRAH-SCF, COSX integrals
   Lee Huntington         : MR-EOM, pCC
   Robert Izsak           : Overlap fitted RIJCOSX, COSX-SCS-MP3, EOM
   Marcus Kettner         : VPT2
   Christian Kollmar      : KDIIS, OOCD, Brueckner-CCSD(T), CCSD density, CASPT2, CASPT2-K
   Simone Kossmann        : Meta GGA functionals, TD-DFT gradient, OOMP2, MP2 Hessian
   Martin Krupicka        : Initial AUTO-CI
   Lucas Lang             : DCDCAS
   Marvin Lechner         : AUTO-CI (C++ implementation), FIC-MRCC
   Dagmar Lenk            : GEPOL surface, SMD
   Dimitrios Liakos       : Extrapolation schemes; Compound Job, initial MDCI parallelization
   Dimitrios Manganas     : Further ROCIS development; embedding schemes
   Dimitrios Pantazis     : SARC Basis sets
   Anastasios Papadopoulos: AUTO-CI, single reference methods and gradients
   Taras Petrenko         : DFT Hessian,TD-DFT gradient, ASA, ECA, R-Raman, ABS, FL, XAS/XES, NRVS
   Peter Pinski           : DLPNO-MP2, DLPNO-MP2 Gradient
   Christoph Reimann      : Effective Core Potentials
   Marius Retegan         : Local ZFS, SOC
   Christoph Riplinger    : Optimizer, TS searches, QM/MM, DLPNO-CCSD(T), (RO)-DLPNO pert. Triples
   Tobias Risthaus        : Range-separated hybrids, TD-DFT gradient, RPA, STAB
   Michael Roemelt        : Original ROCIS implementation
   Masaaki Saitow         : Open-shell DLPNO-CCSD energy and density
   Barbara Sandhoefer     : DKH picture change effects
   Avijit Sen             : IP-ROCIS
   Kantharuban Sivalingam : CASSCF convergence, NEVPT2, FIC-MRCI
   Bernardo de Souza      : ESD, SOC TD-DFT
   Georgi Stoychev        : AutoAux, RI-MP2 NMR
   Willem Van den Heuvel  : Paramagnetic NMR
   Boris Wezisla          : Elementary symmetry handling
   Frank Wennmohs         : Technical directorship


 We gratefully acknowledge several colleagues who have allowed us to
 interface, adapt or use parts of their codes:
   Stefan Grimme, W. Hujo, H. Kruse, P. Pracht,  : VdW corrections, initial TS optimization,
                  C. Bannwarth, S. Ehlert          DFT functionals, gCP, sTDA/sTD-DF
   Ed Valeev, F. Pavosevic, A. Kumar             : LibInt (2-el integral package), F12 methods
   Garnet Chan, S. Sharma, J. Yang, R. Olivares  : DMRG
   Ulf Ekstrom                                   : XCFun DFT Library
   Mihaly Kallay                                 : mrcc  (arbitrary order and MRCC methods)
   Jiri Pittner, Ondrej Demel                    : Mk-CCSD
   Frank Weinhold                                : gennbo (NPA and NBO analysis)
   Christopher J. Cramer and Donald G. Truhlar   : smd solvation model
   Lars Goerigk                                  : TD-DFT with DH, B97 family of functionals
   V. Asgeirsson, H. Jonsson                     : NEB implementation
   FAccTs GmbH                                   : IRC, NEB, NEB-TS, DLPNO-Multilevel, CI-OPT
                                                   MM, QMMM, 2- and 3-layer-ONIOM, Crystal-QMMM,
                                                   LR-CPCM, SF, NACMEs, symmetry and pop. for TD-DFT,
                                                   nearIR, NL-DFT gradient (VV10), updates on ESD,
                                                   ML-optimized integration grids
   S Lehtola, MJT Oliveira, MAL Marques          : LibXC Library
   Liviu Ungur et al                             : ANISO software


 Your calculation uses the libint2 library for the computation of 2-el integrals
 For citations please refer to: http://libint.valeyev.net

 Your ORCA version has been built with support for libXC version: 5.1.0
 For citations please refer to: https://tddft.org/programs/libxc/

 This ORCA versions uses:
   CBLAS   interface :  Fast vector & matrix operations
   LAPACKE interface :  Fast linear algebra routines
   SCALAPACK package :  Parallel linear algebra routines
   Shared memory     :  Shared parallel matrices
   BLAS/LAPACK       :  OpenBLAS 0.3.15  USE64BITINT DYNAMIC_ARCH NO_AFFINITY SkylakeX SINGLE_THREADED
        Core in use  :  SkylakeX
   Copyright (c) 2011-2014, The OpenBLAS Project


================================================================================

----- Orbital basis set information -----
Your calculation utilizes the basis: cc-pVTZ 
       H, B-Ne : Obtained from the ccRepo (grant-hill.group.shef.ac.uk/ccrepo) Feb. 2017
                 T. H. Dunning, Jr., J. Chem. Phys. 90, 1007 (1989)
            He : Obtained from the ccRepo (grant-hill.group.shef.ac.uk/ccrepo) Feb. 2017
                 D. E. Woon, T. H. Dunning, Jr., J. Chem. Phys. 100, 2975 (1994)
  Li-Be, Na-Mg : Obtained from the ccRepo (grant-hill.group.shef.ac.uk/ccrepo) Feb. 2017
                 B. P. Prascher, D. E. Woon, K. A. Peterson, T. H. Dunning, Jr., A. K. Wilson, Theor. Chem. Acc. 128, 69 (2011)
         Al-Ar : Obtained from the ccRepo (grant-hill.group.shef.ac.uk/ccrepo) Feb. 2017
                 D. E. Woon, T. H. Dunning, Jr., J. Chem. Phys. 98, 1358 (1993)
            Ca : Obtained from the Peterson Research Group Website (tyr0.chem.wsu.edu/~kipeters) Feb. 2017
                 J. Koput, K. A. Peterson, J. Phys. Chem. 106, 9595 (2002)
         Sc-Zn : Obtained from the ccRepo (grant-hill.group.shef.ac.uk/ccrepo) Feb. 2017
                 N. B. Balabanov, K. A. Peterson, J. Chem. Phys. 123, 064107 (2005)
                 N. B. Balabanov, K. A. Peterson, J. Chem. Phys. 125, 074110 (2006)
         Ga-Kr : Obtained from the ccRepo (grant-hill.group.shef.ac.uk/ccrepo) Feb. 2017
                 A. K. Wilson, D. E. Woon, K. A. Peterson, T. H. Dunning, Jr., J. Chem. Phys. 110, 7667 (1999)
             Y : Obtained from the ccRepo (grant-hill.group.shef.ac.uk/ccrepo) Feb. 2017
                 K. A. Peterson, D. Figgen, M. Dolg, H. Stoll, J. Chem. Phys. 126, 124101 (2007)
        Ag, Au : Obtained from the Peterson Research Group Website (tyr0.chem.wsu.edu/~kipeters) Feb. 2017
                 K. A. Peterson, C. Puzzarini, Theor. Chem. Acc. 114, 283 (2005)

----- AuxJK basis set information -----
Your calculation utilizes the auxiliary basis: cc-pVTZ/JK 
  H, B-F, Al-Cl, Ga-Br : Obtained from the TURBOMOLE 7.0 basis set library

================================================================================
                                        WARNINGS
                       Please study these warnings very carefully!
================================================================================

NOTE: TrafoStep RI is set, but the respective /C basis is not set.
       ===>  Using /JK basis instead!

INFO   : the flag for use of the SHARK integral package has been found!

================================================================================
                                       INPUT FILE
================================================================================
NAME = ben-cas66-ccpvtz.inp
|  1> ! cc-pvtz RIJK cc-pvtz/jk UseSym pal8
|  2> ! MOread
|  3> 
|  4> %moinp  "ben-rhf.gbw"
|  5> 
|  6> %scf
|  7>     rotate {18,16,90} {23,29,90} end
|  8> end
|  9> 
| 10> %casscf
| 11>     nel     6
| 12>     norb    6
| 13>     irrep   0
| 14>     mult    1
| 15>     nroots  1
| 16> end
| 17> 
| 18> *xyz 0 1
| 19>  C   1.21105763915345      0.69916522296351     -0.00000002423937
| 20>  C   0.00000000882288      1.39827374718112     -0.00000003476372
| 21>  C   -1.21105761456966      0.69916520818333      0.00000001202970
| 22>  C   -1.21105765944965     -0.69916521253772     -0.00000002028759
| 23>  C   -0.00000002924690     -1.39827375425198     -0.00000006510495
| 24>  C   1.21105759634142     -0.69916519566758     -0.00000001139166
| 25>  H   2.15727867932261      1.24550656935944      0.00000002108822
| 26>  H   -0.00000003268748      2.49090825711365     -0.00000007876766
| 27>  H   -2.15727859099377      1.24550663211660      0.00000011262075
| 28>  H   -2.15727863065228     -1.24550666379260      0.00000002492918
| 29>  H   -0.00000001076256     -2.49090826242235     -0.00000006787266
| 30>  H   2.15727864472193     -1.24550654824542      0.00000013175977
| 31> *
| 32> 
| 33> 
| 34>                          ****END OF INPUT****
================================================================================

------------------------------------------------------------------------------
                            SYMMETRY HANDLING SETUP
------------------------------------------------------------------------------

------------------
SYMMETRY DETECTION
------------------
The point group will now be determined using a tolerance of 1.0000e-04.
Splitting atom subsets according to nuclear charge, mass and basis set.
Splitting atom subsets according to distance from the molecule's center.
Identifying relative distance patterns of the atoms.
Splitting atom subsets according to atoms' relative distance patterns.
Bring atoms of each subset into input order.
The molecule is planar.
The molecule has a center of inversion.
Analyzing the first atom subset for its symmetry.
The atoms in the selected subset form a 4-gon with alternating side lengths.
Testing point group D2h.
Success!
This point group has been found:    D2h
Largest non-degenerate subgroup:    D2h


Symmetry-perfected Cartesians (point group D2h):

Atom          Symmetry-perfected Cartesians (x, y, z; au)
  0       2.288567248142    1.321230768959    0.000000000000
  1       0.000000000000    2.642354449105   -0.000000000000
  2      -2.288567248142    1.321230768959   -0.000000000000
  3      -2.288567248142   -1.321230768959    0.000000000000
  4       0.000000000000   -2.642354449105   -0.000000000000
  5       2.288567248142   -1.321230768959   -0.000000000000
  6       4.076665817398    2.353666378376    0.000000000000
  7      -0.000000000000    4.707134435684    0.000000000000
  8      -4.076665817398    2.353666378376   -0.000000000000
  9      -4.076665817398   -2.353666378376    0.000000000000
 10       0.000000000000   -4.707134435684    0.000000000000
 11       4.076665817398   -2.353666378376   -0.000000000000


-----------------------------------------------
SYMMETRY-PERFECTED CARTESIAN COORDINATES (A.U.)
-----------------------------------------------
Warning (ORCA_SYM): Coordinates were not cleaned so far!

------------------
SYMMETRY REDUCTION
------------------
ORCA supports only abelian point groups.
It is now checked, if the determined point group is supported:
Point Group ( D2h   ) is          ... supported

(Re)building abelian point group:
Creating Character Table          ... done
Making direct product table       ... done
Constructing symmetry operations  ... done
Creating atom transfer table      ... done
Creating asymmetric unit          ... done

----------------------
ASYMMETRIC UNIT IN D2h
----------------------
  #  AT     MASS              COORDS (A.U.)             BAS
   0 C   12.0110   2.28856725   1.32123077   0.00000000   0
   1 C   12.0110   0.00000000   2.64235445  -0.00000000   0
   6 H    1.0080   4.07666582   2.35366638   0.00000000   0
   7 H    1.0080  -0.00000000   4.70713444   0.00000000   0

----------------------
SYMMETRY ADAPTED BASIS
----------------------
The coefficients for the symmetry adapted linear combinations (SALCS)
of basis functions will now be computed:
Number of basis functions         ...   264
Preparing memory                  ... done
Constructing Gamma(red)           ... done
Reducing Gamma(red)               ... done
Constructing SALCs                ... done
Checking SALC integrity           ... nothing suspicious
Normalizing SALCs                 ... done

Storing the symmetry object:
Symmetry file                     ... ben-cas66-ccpvtz.sym.tmp
Writing symmetry information      ... done

                       ****************************
                       * Single Point Calculation *
                       ****************************

---------------------------------
CARTESIAN COORDINATES (ANGSTROEM)
---------------------------------
  C      1.211058    0.699165    0.000000
  C      0.000000    1.398274   -0.000000
  C     -1.211058    0.699165   -0.000000
  C     -1.211058   -0.699165    0.000000
  C      0.000000   -1.398274   -0.000000
  C      1.211058   -0.699165   -0.000000
  H      2.157279    1.245507    0.000000
  H     -0.000000    2.490908    0.000000
  H     -2.157279    1.245507   -0.000000
  H     -2.157279   -1.245507    0.000000
  H      0.000000   -2.490908    0.000000
  H      2.157279   -1.245507   -0.000000

----------------------------
CARTESIAN COORDINATES (A.U.)
----------------------------
  NO LB      ZA    FRAG     MASS         X           Y           Z
   0 C     6.0000    0    12.011    2.288567    1.321231    0.000000
   1 C     6.0000    0    12.011    0.000000    2.642354   -0.000000
   2 C     6.0000    0    12.011   -2.288567    1.321231   -0.000000
   3 C     6.0000    0    12.011   -2.288567   -1.321231    0.000000
   4 C     6.0000    0    12.011    0.000000   -2.642354   -0.000000
   5 C     6.0000    0    12.011    2.288567   -1.321231   -0.000000
   6 H     1.0000    0     1.008    4.076666    2.353666    0.000000
   7 H     1.0000    0     1.008   -0.000000    4.707134    0.000000
   8 H     1.0000    0     1.008   -4.076666    2.353666   -0.000000
   9 H     1.0000    0     1.008   -4.076666   -2.353666    0.000000
  10 H     1.0000    0     1.008    0.000000   -4.707134    0.000000
  11 H     1.0000    0     1.008    4.076666   -2.353666   -0.000000

--------------------------------
INTERNAL COORDINATES (ANGSTROEM)
--------------------------------
 C      0   0   0     0.000000000000     0.00000000     0.00000000
 C      1   0   0     1.398360937890     0.00000000     0.00000000
 C      2   1   0     1.398360939270   120.00680694     0.00000000
 C      3   2   1     1.398330420721   119.99659870     0.00000000
 C      4   3   2     1.398360946526   119.99659498     0.00000000
 C      1   2   3     1.398330418631   119.99659444     0.00000000
 H      1   2   3     1.092622132139   120.00157028   180.00000498
 H      2   1   3     1.092634509933   119.99659838   180.00000000
 H      3   2   1     1.092622115706   120.00156442   179.99999344
 H      4   3   2     1.092622124846   120.00184193   180.00000000
 H      5   4   3     1.092634508170   119.99659779   179.99999915
 H      6   1   2     1.092622142341   120.00183184   180.00000819

---------------------------
INTERNAL COORDINATES (A.U.)
---------------------------
 C      0   0   0     0.000000000000     0.00000000     0.00000000
 C      1   0   0     2.642519208985     0.00000000     0.00000000
 C      2   1   0     2.642519211594   120.00680694     0.00000000
 C      3   2   1     2.642461539894   119.99659870     0.00000000
 C      4   3   2     2.642519225306   119.99659498     0.00000000
 C      1   2   3     2.642461535944   119.99659444     0.00000000
 H      1   2   3     2.064756597604   120.00157028   180.00000498
 H      2   1   3     2.064779988244   119.99659838   180.00000000
 H      3   2   1     2.064756566550   120.00156442   179.99999344
 H      4   3   2     2.064756583822   120.00184193   180.00000000
 H      5   4   3     2.064779984914   119.99659779   179.99999915
 H      6   1   2     2.064756616884   120.00183184   180.00000819

---------------------
BASIS SET INFORMATION
---------------------
There are 2 groups of distinct atoms

 Group   1 Type C   : 18s5p2d1f contracted to 4s3p2d1f pattern {8811/311/11/1}
 Group   2 Type H   : 5s2p1d contracted to 3s2p1d pattern {311/11/1}

Atom   0C    basis set group =>   1
Atom   1C    basis set group =>   1
Atom   2C    basis set group =>   1
Atom   3C    basis set group =>   1
Atom   4C    basis set group =>   1
Atom   5C    basis set group =>   1
Atom   6H    basis set group =>   2
Atom   7H    basis set group =>   2
Atom   8H    basis set group =>   2
Atom   9H    basis set group =>   2
Atom  10H    basis set group =>   2
Atom  11H    basis set group =>   2
---------------------------------
AUXILIARY/C BASIS SET INFORMATION
---------------------------------
There are 2 groups of distinct atoms

 Group   1 Type C   : 10s7p5d2f1g contracted to 10s7p5d2f1g pattern {1111111111/1111111/11111/11/1}
 Group   2 Type H   : 4s3p2d1f contracted to 4s3p2d1f pattern {1111/111/11/1}

Atom   0C    basis set group =>   1
Atom   1C    basis set group =>   1
Atom   2C    basis set group =>   1
Atom   3C    basis set group =>   1
Atom   4C    basis set group =>   1
Atom   5C    basis set group =>   1
Atom   6H    basis set group =>   2
Atom   7H    basis set group =>   2
Atom   8H    basis set group =>   2
Atom   9H    basis set group =>   2
Atom  10H    basis set group =>   2
Atom  11H    basis set group =>   2
----------------------------------
AUXILIARY/JK BASIS SET INFORMATION
----------------------------------
There are 2 groups of distinct atoms

 Group   1 Type C   : 10s7p5d2f1g contracted to 10s7p5d2f1g pattern {1111111111/1111111/11111/11/1}
 Group   2 Type H   : 4s3p2d1f contracted to 4s3p2d1f pattern {1111/111/11/1}

Atom   0C    basis set group =>   1
Atom   1C    basis set group =>   1
Atom   2C    basis set group =>   1
Atom   3C    basis set group =>   1
Atom   4C    basis set group =>   1
Atom   5C    basis set group =>   1
Atom   6H    basis set group =>   2
Atom   7H    basis set group =>   2
Atom   8H    basis set group =>   2
Atom   9H    basis set group =>   2
Atom  10H    basis set group =>   2
Atom  11H    basis set group =>   2
--------------------------------------------------------------------------
WARNING: There was an error initializing an OpenFabrics device.

  Local host:   cnode02
  Local device: mlx5_0
--------------------------------------------------------------------------


           ************************************************************
           *        Program running with 8 parallel MPI-processes     *
           *              working on a common directory               *
           ************************************************************
------------------------------------------------------------------------------
                           ORCA GTO INTEGRAL CALCULATION
                           -- RI-GTO INTEGRALS CHOSEN --
------------------------------------------------------------------------------
------------------------------------------------------------------------------
                   ___                                                        
                  /   \      - P O W E R E D   B Y -                         
                 /     \                                                     
                 |  |  |   _    _      __       _____    __    __             
                 |  |  |  | |  | |    /  \     |  _  \  |  |  /  |          
                  \  \/   | |  | |   /    \    | | | |  |  | /  /          
                 / \  \   | |__| |  /  /\  \   | |_| |  |  |/  /          
                |  |  |   |  __  | /  /__\  \  |    /   |      \           
                |  |  |   | |  | | |   __   |  |    \   |  |\   \          
                \     /   | |  | | |  |  |  |  | |\  \  |  | \   \       
                 \___/    |_|  |_| |__|  |__|  |_| \__\ |__|  \__/        
                                                                              
                      - O R C A' S   B I G   F R I E N D -                    
                                      &                                       
                       - I N T E G R A L  F E E D E R -                       
                                                                              
 v1 FN, 2020, v2 2021                                                         
------------------------------------------------------------------------------


Reading SHARK input file ben-cas66-ccpvtz.SHARKINP.tmp ... ok
----------------------
SHARK INTEGRAL PACKAGE
----------------------

Number of atoms                             ...     12
Number of basis functions                   ...    264
Number of shells                            ...     96
Maximum angular momentum                    ...      3
Integral batch strategy                     ... SHARK/LIBINT Hybrid
RI-J (if used) integral strategy            ... SPLIT-RIJ (Revised 2003 algorithm where possible)
Printlevel                                  ...      1
Contraction scheme used                     ... SEGMENTED contraction
Coulomb Range Separation                    ... NOT USED
Exchange Range Separation                   ... NOT USED
Finite Nucleus Model                        ... NOT USED
Auxiliary Coulomb fitting basis             ... NOT available
Auxiliary J/K fitting basis                 ... AVAILABLE
   # of basis functions in Aux-JK           ...    654
   # of shells in Aux-JK                    ...    210
   Maximum angular momentum in Aux-JK       ...      4
Auxiliary Correlation fitting basis         ... AVAILABLE
   # of basis functions in Aux-C            ...    654
   # of shells in Aux-C                     ...    210
   Maximum angular momentum in Aux-C        ...      4
Auxiliary 'external' fitting basis          ... NOT available
Integral threshold                          ...     1.000000e-10
Primitive cut-off                           ...     1.000000e-11
Primitive pair pre-selection threshold      ...     1.000000e-11

Calculating pre-screening integrals         ... done (  0.1 sec) Dimension = 96
Organizing shell pair data                  ... done (  0.0 sec)
Shell pair information
Total number of shell pairs                 ...      4656
Shell pairs after pre-screening             ...      4539
Total number of primitive shell pairs       ...     21282
Primitive shell pairs kept                  ...     15405
          la=0 lb=0:    888 shell pairs
          la=1 lb=0:   1230 shell pairs
          la=1 lb=1:    450 shell pairs
          la=2 lb=0:    732 shell pairs
          la=2 lb=1:    516 shell pairs
          la=2 lb=2:    162 shell pairs
          la=3 lb=0:    252 shell pairs
          la=3 lb=1:    180 shell pairs
          la=3 lb=2:    108 shell pairs
          la=3 lb=3:     21 shell pairs

Calculating one electron integrals          ... done (  0.0 sec)
Calculating RI/JK V-Matrix + Cholesky decomp... done (  0.0 sec)
Calculating RI/C V-Matrix + Cholesky decomp.... done (  0.0 sec)
Calculating Nuclear repulsion               ... done (  0.0 sec) ENN=    202.815091592298 Eh

SHARK setup successfully completed in   0.2 seconds

Maximum memory used throughout the entire GTOINT-calculation: 17.7 MB
[cnode02:164785] 7 more processes have sent help message help-mpi-btl-openib.txt / error in device init
[cnode02:164785] Set MCA parameter "orte_base_help_aggregate" to 0 to see all help / error messages
--------------------------------------------------------------------------
WARNING: There was an error initializing an OpenFabrics device.

  Local host:   cnode02
  Local device: mlx5_0
--------------------------------------------------------------------------


           ************************************************************
           *        Program running with 8 parallel MPI-processes     *
           *              working on a common directory               *
           ************************************************************
-------------------------------------------------------------------------------
                                 ORCA SCF
-------------------------------------------------------------------------------

------------
SCF SETTINGS
------------
Hamiltonian:
 Ab initio Hamiltonian  Method          .... Hartree-Fock(GTOs)
 RI-approximation to the Coulomb term is turned on
   Number of AuxJK basis functions      .... 654
   RI-JK (J+K treated both via RI)      .... on


General Settings:
 Integral files         IntName         .... ben-cas66-ccpvtz
 Hartree-Fock type      HFTyp           .... CASSCF
 Total Charge           Charge          ....    0
 Multiplicity           Mult            ....    1
 Number of Electrons    NEL             ....   42
 Basis Dimension        Dim             ....  264
 Nuclear Repulsion      ENuc            ....    202.8150915923 Eh

 Symmetry handling      UseSym         .... ON
 Point group                           .... D2h
 Used point group                      .... D2h
 Number of irreps                      .... 8
   Irrep   Ag has   50 symmetry adapted basis functions (ofs=   0)
   Irrep  B1g has   40 symmetry adapted basis functions (ofs=  50)
   Irrep  B2g has   18 symmetry adapted basis functions (ofs=  90)
   Irrep  B3g has   24 symmetry adapted basis functions (ofs= 108)
   Irrep   Au has   18 symmetry adapted basis functions (ofs= 132)
   Irrep  B1u has   24 symmetry adapted basis functions (ofs= 150)
   Irrep  B2u has   50 symmetry adapted basis functions (ofs= 174)
   Irrep  B3u has   40 symmetry adapted basis functions (ofs= 224)


Diagonalization of the overlap matrix:
Smallest eigenvalue                        ... 3.862e-05
Time for diagonalization                   ...    0.007 sec
Threshold for overlap eigenvalues          ... 1.000e-08
Number of eigenvalues below threshold      ... 0
Time for construction of square roots      ...    0.007 sec
Producing symmetrization matrix            ... done (   0.004 sec)
Total time needed                          ...    0.020 sec

---------------------
INITIAL GUESS: MOREAD
---------------------
Guess MOs are being read from file: ben-rhf.gbw
Input Geometry matches current geometry (good)
Input basis set matches current basis set (good)
Warning: Geometry matches/Basis set matches and symmetry is to be used
         We proceed in good trust that the input orbitals and irreps are correct
MOs were renormalized
Gram-Schmidt orthogonalization of all MOs with pivot on actives
-----------------
ORBITAL ROTATIONS
-----------------
  Rotation  18(0)   16(0) cos(t)= 0.000000  sin(t)= 1.000000
  Orbital Energies were swapped
  IRREP designations were swapped
  Rotation  23(0)   29(0) cos(t)= 0.000000  sin(t)= 1.000000
  Orbital Energies were swapped
  IRREP designations were swapped
Irrep occupations for operator 0
    Ag -    6
   B1g -    3
   B2g -    1
   B3g -    1
    Au -    0
   B1u -    1
   B2u -    5
   B3u -    4
                      ------------------
                      INITIAL GUESS DONE (   0.1 sec)
                      ------------------


 ... the calculation is a CASSCF calculation -I'm leaving here GOOD LUCK!!!

[cnode02:164845] 7 more processes have sent help message help-mpi-btl-openib.txt / error in device init
[cnode02:164845] Set MCA parameter "orte_base_help_aggregate" to 0 to see all help / error messages
--------------------------------------------------------------------------
WARNING: There was an error initializing an OpenFabrics device.

  Local host:   cnode02
  Local device: mlx5_0
--------------------------------------------------------------------------


           ************************************************************
           *        Program running with 8 parallel MPI-processes     *
           *              working on a common directory               *
           ************************************************************
-------------------------------------------------------------------------------
                              ORCA-CASSCF
-------------------------------------------------------------------------------

Symmetry handling      UseSym     ... ON
Point group                       ... D2h
Used point group                  ... D2h
Number of irreps                  ... 8
   Irrep   Ag has   50 SALCs (ofs=   0) #(closed)=   6 #(active)=   0
   Irrep  B1g has   40 SALCs (ofs=  50) #(closed)=   3 #(active)=   0
   Irrep  B2g has   18 SALCs (ofs=  90) #(closed)=   0 #(active)=   1
   Irrep  B3g has   24 SALCs (ofs= 108) #(closed)=   0 #(active)=   2
   Irrep   Au has   18 SALCs (ofs= 132) #(closed)=   0 #(active)=   1
   Irrep  B1u has   24 SALCs (ofs= 150) #(closed)=   0 #(active)=   2
   Irrep  B2u has   50 SALCs (ofs= 174) #(closed)=   5 #(active)=   0
   Irrep  B3u has   40 SALCs (ofs= 224) #(closed)=   4 #(active)=   0
 Symmetries of active orbitals:
   MO =   18  IRREP= 5 (B1u)
   MO =   19  IRREP= 2 (B2g)
   MO =   20  IRREP= 3 (B3g)
   MO =   21  IRREP= 4 (Au)
   MO =   22  IRREP= 5 (B1u)
   MO =   23  IRREP= 3 (B3g)

Setting up the integral package       ... done
Setting up the integral package (RI)  ... done
Building the CAS space                ... done (42 configurations for Mult=1 Irrep=0)

SYSTEM-SPECIFIC SETTINGS:
Number of active electrons          ...    6
Number of active orbitals           ...    6
Total number of electrons           ...   42
Total number of orbitals            ...  264
Total number aux. functions         ...  654

Determined orbital ranges:
   Internal       0 -   17 (  18 orbitals)
   Active        18 -   23 (   6 orbitals)
   External      24 -  263 ( 240 orbitals)
Number of rotation parameters      ...    866

CI-STEP:
CI strategy                         ... General CI
Number of symmetry/multplity blocks ...    1
BLOCK  1 WEIGHT=   1.0000
  Multiplicity                      ...    1
  Irrep                             ...    0 (Ag)
  #(Configurations)                 ...   42
  #(CSFs)                           ...   52
  #(Roots)                          ...    1
    ROOT=0 WEIGHT=    1.000000

  PrintLevel                        ...    1
  N(GuessMat)                       ...       512
  MaxDim(CI)                        ...        10
  MaxIter(CI)                       ...        64
  Energy Tolerance CI               ...  1.00e-08
  Residual Tolerance CI             ...  1.00e-08
  Shift(CI)                         ...  1.00e-04

INTEGRAL-TRANSFORMATION-STEP:
  Algorithm                         ... RI-MO

ORBITAL-IMPROVEMENT-STEP:
  Algorithm                         ... SuperCI(PT)
  Default Parametrization           ... CAYLEY
  Act-Act rotations                 ... depends on algorithm used

  Note: SuperCI(PT) will ignore FreezeIE, FreezeAct and FreezeGrad. In general Default settings are encouraged.
        In conjunction with ShiftUp, ShiftDn or GradScaling the performance of SuperCI(PT) is less optimal.  

  MaxRot                            ... 2.00e-01 
  Max. no of vectors (DIIS)         ... 15
  DThresh (cut-off) metric          ... 1.00e-06
  Switch step at gradient           ...  3.00e-02 
  Switch step at iteration          ...        50   
  Switch step to                    ... SuperCI(PT)    

SCF-SETTINGS:
  Incremental                       ... off
  RIJCOSX approximation             ... off
  RI-JK approximation               ... on
  AO integral handling              ... DIRECT
  Integral Neglect Thresh           ...  1.00e-10
  Primitive cutoff TCut             ...  1.00e-11
  Energy convergence tolerance      ...  1.00e-07
  Orbital gradient convergence      ...  1.00e-03
  Max. number of iterations         ...        75  


FINAL ORBITALS:
  Active   Orbitals                 ... natural 
  Internal Orbitals                 ... canonical 
  External Orbitals                 ... canonical 

------------------
CAS-SCF ITERATIONS
------------------


MACRO-ITERATION   1: 
   --- Inactive Energy E0 = -224.41244647 Eh
CI-ITERATION   0: 
  -230.824021508   0.000000000000 (    0.00)
   CI-PROBLEM SOLVED
   DENSITIES MADE

                 <<<<<<<<<<<<<<<<<<INITIAL CI STATE CHECK>>>>>>>>>>>>>>>>>>

BLOCK  1 MULT= 1 NROOTS= 1  IRREP=Ag 
ROOT   0:  E=    -230.8240215077 Eh
      0.92469 [     0]: 222000
      0.02311 [     5]: 211110
      0.01442 [     3]: 220020
      0.01442 [     7]: 202200
      0.00673 [    16]: 121011
      0.00672 [    19]: 112101

                 <<<<<<<<<<<<<<<<<<INITIAL CI STATE CHECK>>>>>>>>>>>>>>>>>>

   E(CAS)=  -230.824021508 Eh DE=    0.000000e+00
   --- Energy gap subspaces: Ext-Act = -0.153   Act-Int = -0.003
   N(occ)=  1.97944 1.93315 1.93314 0.06805 0.06806 0.01817
   ||g|| =     8.431937e-02 Max(G)=    3.904381e-02 Rot=44,22
   --- Orbital Update [SuperCI(PT)]
   --- Canonicalize Internal Space
   --- Canonicalize External Space
   --- SX_PT (Skipped TA=0 IT=0): ||X|| =      0.569927982 Max(X)(54,23) =     -0.449373446 
   --- SFit(Active Orbitals)

MACRO-ITERATION   2: 
   --- Inactive Energy E0 = -224.42481941 Eh
CI-ITERATION   0: 
  -230.843112032   0.000000000000 (    0.00)
   CI-PROBLEM SOLVED
   DENSITIES MADE
   E(CAS)=  -230.843112032 Eh DE=   -1.909052e-02
   --- Energy gap subspaces: Ext-Act = -0.178   Act-Int = -0.000
   N(occ)=  1.96533 1.90548 1.90547 0.09602 0.09603 0.03165
   ||g|| =     6.458758e-02 Max(G)=   -2.322661e-02 Rot=54,23
   --- Orbital Update [SuperCI(PT)]
   --- Canonicalize Internal Space
   --- Canonicalize External Space
   --- SX_PT (Skipped TA=0 IT=0): ||X|| =      0.278803823 Max(X)(54,23) =      0.260165545 
   --- SFit(Active Orbitals)

MACRO-ITERATION   3: 
[cnode02:164905] 7 more processes have sent help message help-mpi-btl-openib.txt / error in device init
[cnode02:164905] Set MCA parameter "orte_base_help_aggregate" to 0 to see all help / error messages
   --- Inactive Energy E0 = -224.40432061 Eh
CI-ITERATION   0: 
  -230.849307190   0.000000000000 (    0.00)
   CI-PROBLEM SOLVED
   DENSITIES MADE
   E(CAS)=  -230.849307190 Eh DE=   -6.195158e-03
   --- Energy gap subspaces: Ext-Act = -0.241   Act-Int = -0.001
   N(occ)=  1.96081 1.90188 1.90187 0.09947 0.09948 0.03649
   ||g|| =     2.560959e-02 Max(G)=    1.130490e-02 Rot=38,20
   --- Orbital Update [SuperCI(PT)]
   --- Canonicalize Internal Space
   --- Canonicalize External Space
   --- SX_PT (Skipped TA=0 IT=0): ||X|| =      0.026000317 Max(X)(54,23) =      0.024648291 
   --- SFit(Active Orbitals)

MACRO-ITERATION   4: 
   --- Inactive Energy E0 = -224.39827956 Eh
CI-ITERATION   0: 
  -230.849459242   0.000000000000 (    0.00)
   CI-PROBLEM SOLVED
   DENSITIES MADE
   E(CAS)=  -230.849459242 Eh DE=   -1.520523e-04
   --- Energy gap subspaces: Ext-Act = -0.251   Act-Int = -0.002
   N(occ)=  1.96075 1.90145 1.90144 0.09993 0.09994 0.03649
   ||g|| =     9.462786e-03 Max(G)=    2.360837e-03 Rot=36,18
   --- Orbital Update [SuperCI(PT)]
   --- Canonicalize Internal Space
   --- Canonicalize External Space
   --- SX_PT (Skipped TA=0 IT=0): ||X|| =      0.003418471 Max(X)(43,21) =      0.001414426 
   --- SFit(Active Orbitals)

MACRO-ITERATION   5: 
   --- Inactive Energy E0 = -224.39235899 Eh
CI-ITERATION   0: 
  -230.849472032   0.000000000000 (    0.00)
   CI-PROBLEM SOLVED
   DENSITIES MADE
   E(CAS)=  -230.849472032 Eh DE=   -1.279012e-05
   --- Energy gap subspaces: Ext-Act = -0.251   Act-Int = -0.002
   N(occ)=  1.96072 1.90148 1.90147 0.09991 0.09992 0.03651
   ||g|| =     3.887344e-03 Max(G)=    1.573011e-03 Rot=36,18
   --- Orbital Update [SuperCI(PT)]
   --- Canonicalize Internal Space
   --- Canonicalize External Space
   --- SX_PT (Skipped TA=0 IT=0): ||X|| =      0.001747889 Max(X)(54,23) =     -0.001386547 
   --- SFit(Active Orbitals)

MACRO-ITERATION   6: 
   --- Inactive Energy E0 = -224.39271510 Eh
CI-ITERATION   0: 
  -230.849473765   0.000000000000 (    0.00)
   CI-PROBLEM SOLVED
   DENSITIES MADE
   E(CAS)=  -230.849473765 Eh DE=   -1.732575e-06
   --- Energy gap subspaces: Ext-Act = -0.251   Act-Int = -0.002
   N(occ)=  1.96068 1.90144 1.90143 0.09995 0.09996 0.03655
   ||g|| =     1.267697e-03 Max(G)=   -3.053040e-04 Rot=48,15
   --- Orbital Update [SuperCI(PT)]
   --- Canonicalize Internal Space
   --- Canonicalize External Space
   --- SX_PT (Skipped TA=0 IT=0): ||X|| =      0.000425695 Max(X)(54,23) =      0.000308452 
   --- SFit(Active Orbitals)

MACRO-ITERATION   7: 
   --- Inactive Energy E0 = -224.39195451 Eh
CI-ITERATION   0: 
  -230.849473936   0.000000000000 (    0.00)
   CI-PROBLEM SOLVED
   DENSITIES MADE
   E(CAS)=  -230.849473936 Eh DE=   -1.707823e-07
   --- Energy gap subspaces: Ext-Act = -0.251   Act-Int = -0.002
   N(occ)=  1.96067 1.90142 1.90141 0.09996 0.09997 0.03656
   ||g|| =     7.169140e-05 Max(G)=    2.240397e-05 Rot=38,20
                     ---- THE CAS-SCF GRADIENT HAS CONVERGED ----
                            --- FINALIZING ORBITALS ---
                    ---- DOING ONE FINAL ITERATION FOR PRINTING ----
   --- Forming Natural Orbitals
   --- Canonicalize Internal Space
   --- Canonicalize External Space

MACRO-ITERATION   8: 
   --- Inactive Energy E0 = -224.39195451 Eh
   --- All densities will be recomputed
CI-ITERATION   0: 
  -230.849473939   0.000000000000 (    0.00)
   CI-PROBLEM SOLVED
   DENSITIES MADE
   E(CAS)=  -230.849473939 Eh DE=   -3.190451e-09
   --- Energy gap subspaces: Ext-Act = -0.276   Act-Int = -0.002
   N(occ)=  0.09997 1.90142 0.03656 0.09996 1.96067 1.90141
   ||g|| =     5.866277e-05 Max(G)=   -2.236471e-05 Rot=38,23
--------------
CASSCF RESULTS
--------------

Final CASSCF energy       : -230.849473939 Eh   -6281.7335 eV

----------------
ORBITAL ENERGIES
----------------

  NO   OCC          E(Eh)            E(eV)    Irrep 
   0   2.0000     -11.226111      -305.4780    1-Ag
   1   2.0000     -11.225555      -305.4629    1-B3u
   2   2.0000     -11.225555      -305.4629    1-B2u
   3   2.0000     -11.224354      -305.4302    2-Ag
   4   2.0000     -11.224353      -305.4302    1-B1g
   5   2.0000     -11.223762      -305.4141    2-B2u
   6   2.0000      -1.140000       -31.0210    3-Ag
   7   2.0000      -1.004874       -27.3440    2-B3u
   8   2.0000      -1.004847       -27.3433    3-B2u
   9   2.0000      -0.814528       -22.1644    2-B1g
  10   2.0000      -0.814526       -22.1644    4-Ag
  11   2.0000      -0.698876       -19.0174    5-Ag
  12   2.0000      -0.634728       -17.2718    4-B2u
  13   2.0000      -0.609380       -16.5821    3-B3u
  14   2.0000      -0.578710       -15.7475    4-B3u
  15   2.0000      -0.578670       -15.7464    5-B2u
  16   2.0000      -0.486277       -13.2323    3-B1g
  17   2.0000      -0.486253       -13.2316    6-Ag
  18   0.1000       0.166114         4.5202    1-B1u
  19   1.9014      -0.321397        -8.7457    1-B2g
  20   0.0366       0.422413        11.4944    1-B3g
  21   0.1000       0.166117         4.5203    1-Au
  22   1.9607      -0.488236       -13.2856    2-B1u
  23   1.9014      -0.321377        -8.7451    2-B3g
  24   0.0000       0.146675         3.9912    7-Ag
  25   0.0000       0.171369         4.6632    5-B3u
  26   0.0000       0.171373         4.6633    6-B2u
  27   0.0000       0.202625         5.5137    4-B1g
  28   0.0000       0.202627         5.5138    8-Ag
  29   0.0000       0.222334         6.0500    7-B2u
  30   0.0000       0.360450         9.8083    9-Ag
  31   0.0000       0.360455         9.8085    5-B1g
  32   0.0000       0.396111        10.7787    6-B3u
  33   0.0000       0.419241        11.4081    7-B3u
  34   0.0000       0.419248        11.4083    8-B2u
  35   0.0000       0.419620        11.4184   10-Ag
  36   0.0000       0.432170        11.7600    3-B1u
  37   0.0000       0.474937        12.9237    2-B2g
  38   0.0000       0.474944        12.9239    3-B3g
  39   0.0000       0.508716        13.8429   11-Ag
  40   0.0000       0.527093        14.3429    9-B2u
  41   0.0000       0.527100        14.3431    8-B3u
  42   0.0000       0.534477        14.5439    2-Au
  43   0.0000       0.534483        14.5440    4-B1u
  44   0.0000       0.551077        14.9956   10-B2u
  45   0.0000       0.583355        15.8739    4-B3g
  46   0.0000       0.589165        16.0320   12-Ag
  47   0.0000       0.589181        16.0324    6-B1g
  48   0.0000       0.594946        16.1893    9-B3u
  49   0.0000       0.594947        16.1893   11-B2u
  50   0.0000       0.625692        17.0259    5-B1u
  51   0.0000       0.642948        17.4955    7-B1g
  52   0.0000       0.643598        17.5132    8-B1g
  53   0.0000       0.643599        17.5132   13-Ag
  54   0.0000       0.643859        17.5203   14-Ag
  55   0.0000       0.702694        19.1213   12-B2u
  56   0.0000       0.727803        19.8045   15-Ag
  57   0.0000       0.727826        19.8052    9-B1g
  58   0.0000       0.752589        20.4790   13-B2u
  59   0.0000       0.752601        20.4793   10-B3u
  60   0.0000       0.845102        22.9964    3-B2g
  61   0.0000       0.859699        23.3936    4-B2g
  62   0.0000       0.859726        23.3943    5-B3g
  63   0.0000       0.902859        24.5680   11-B3u
  64   0.0000       0.902873        24.5684   14-B2u
  65   0.0000       0.953144        25.9364   10-B1g
  66   0.0000       0.956739        26.0342    3-Au
  67   0.0000       0.956757        26.0347    6-B1u
  68   0.0000       0.998760        27.1777   15-B2u
  69   0.0000       1.005311        27.3559   16-Ag
  70   0.0000       1.028099        27.9760   11-B1g
  71   0.0000       1.028112        27.9764   17-Ag
  72   0.0000       1.087651        29.5965   12-B3u
  73   0.0000       1.120802        30.4986    7-B1u
  74   0.0000       1.129922        30.7467   16-B2u
  75   0.0000       1.203506        32.7491    6-B3g
  76   0.0000       1.211514        32.9670    8-B1u
  77   0.0000       1.211540        32.9677    4-Au
  78   0.0000       1.232084        33.5267   18-Ag
  79   0.0000       1.232101        33.5272   12-B1g
  80   0.0000       1.291312        35.1384    5-B2g
  81   0.0000       1.291344        35.1393    7-B3g
  82   0.0000       1.310972        35.6734   17-B2u
  83   0.0000       1.310975        35.6734   13-B3u
  84   0.0000       1.316928        35.8354   19-Ag
  85   0.0000       1.379226        37.5306   14-B3u
  86   0.0000       1.379239        37.5310   18-B2u
  87   0.0000       1.476619        40.1808   15-B3u
  88   0.0000       1.491091        40.5746   13-B1g
  89   0.0000       1.506088        40.9827   16-B3u
  90   0.0000       1.506142        40.9842   19-B2u
  91   0.0000       1.508660        41.0527    8-B3g
  92   0.0000       1.508668        41.0529    6-B2g
  93   0.0000       1.509166        41.0665   20-Ag
  94   0.0000       1.509175        41.0667   14-B1g
  95   0.0000       1.587952        43.2104    5-Au
  96   0.0000       1.587994        43.2115    9-B1u
  97   0.0000       1.613073        43.8939   20-B2u
  98   0.0000       1.614058        43.9207   21-Ag
  99   0.0000       1.614070        43.9211   15-B1g
 100   0.0000       1.634478        44.4764   21-B2u
 101   0.0000       1.634545        44.4782   17-B3u
 102   0.0000       1.722145        46.8619   22-Ag
 103   0.0000       1.722154        46.8622   16-B1g
 104   0.0000       1.727800        47.0158   23-Ag
 105   0.0000       1.757379        47.8207    9-B3g
 106   0.0000       1.810236        49.2590    6-Au
 107   0.0000       1.893167        51.5157   22-B2u
 108   0.0000       2.085770        56.7567   17-B1g
 109   0.0000       2.185200        59.4623   18-B1g
 110   0.0000       2.185233        59.4632   24-Ag
 111   0.0000       2.225593        60.5615   23-B2u
 112   0.0000       2.293350        62.4052   24-B2u
 113   0.0000       2.293366        62.4057   18-B3u
 114   0.0000       2.337318        63.6017   10-B1u
 115   0.0000       2.384268        64.8792   25-Ag
 116   0.0000       2.447079        66.5884   10-B3g
 117   0.0000       2.447084        66.5885    7-B2g
 118   0.0000       2.470199        67.2175   19-B3u
 119   0.0000       2.470656        67.2300   20-B3u
 120   0.0000       2.470722        67.2318   25-B2u
 121   0.0000       2.538628        69.0796   11-B1u
 122   0.0000       2.538632        69.0797    7-Au
 123   0.0000       2.608627        70.9843    8-B2g
 124   0.0000       2.668642        72.6174   26-Ag
 125   0.0000       2.745742        74.7154   19-B1g
 126   0.0000       2.745777        74.7164   27-Ag
 127   0.0000       2.779873        75.6442   21-B3u
 128   0.0000       2.779906        75.6451   26-B2u
 129   0.0000       2.798330        76.1464   12-B1u
 130   0.0000       2.843038        77.3630   11-B3g
 131   0.0000       2.905437        79.0610   20-B1g
 132   0.0000       2.905524        79.0633   28-Ag
 133   0.0000       2.936837        79.9154   22-B3u
 134   0.0000       2.954568        80.3979   13-B1u
 135   0.0000       2.954593        80.3986    8-Au
 136   0.0000       2.996697        81.5443   14-B1u
 137   0.0000       3.006731        81.8173   12-B3g
 138   0.0000       3.006737        81.8175    9-B2g
 139   0.0000       3.033975        82.5586   23-B3u
 140   0.0000       3.034002        82.5594   27-B2u
 141   0.0000       3.066482        83.4432   10-B2g
 142   0.0000       3.066514        83.4441   13-B3g
 143   0.0000       3.090390        84.0938   29-Ag
 144   0.0000       3.103136        84.4406   28-B2u
 145   0.0000       3.161440        86.0272   30-Ag
 146   0.0000       3.161480        86.0283   21-B1g
 147   0.0000       3.233160        87.9788   15-B1u
 148   0.0000       3.238841        88.1333   11-B2g
 149   0.0000       3.238864        88.1340   14-B3g
 150   0.0000       3.299168        89.7749   31-Ag
 151   0.0000       3.299181        89.7753   22-B1g
 152   0.0000       3.323766        90.4443   29-B2u
 153   0.0000       3.323797        90.4451   24-B3u
 154   0.0000       3.347730        91.0964   32-Ag
 155   0.0000       3.377278        91.9004    9-Au
 156   0.0000       3.377328        91.9018   16-B1u
 157   0.0000       3.379909        91.9720   25-B3u
 158   0.0000       3.387590        92.1810   26-B3u
 159   0.0000       3.387593        92.1811   30-B2u
 160   0.0000       3.405507        92.6686   33-Ag
 161   0.0000       3.405535        92.6693   23-B1g
 162   0.0000       3.412678        92.8637   34-Ag
 163   0.0000       3.451942        93.9321   31-B2u
 164   0.0000       3.454455        94.0005   10-Au
 165   0.0000       3.454486        94.0014   17-B1u
 166   0.0000       3.465709        94.3067   12-B2g
 167   0.0000       3.508960        95.4837   24-B1g
 168   0.0000       3.614506        98.3557   18-B1u
 169   0.0000       3.614540        98.3566   11-Au
 170   0.0000       3.626690        98.6873   15-B3g
 171   0.0000       3.657014        99.5124   27-B3u
 172   0.0000       3.657066        99.5138   32-B2u
 173   0.0000       3.661914        99.6458   12-Au
 174   0.0000       3.694604       100.5353   25-B1g
 175   0.0000       3.694635       100.5361   35-Ag
 176   0.0000       3.708115       100.9029   33-B2u
 177   0.0000       3.708136       100.9035   28-B3u
 178   0.0000       3.719983       101.2259   16-B3g
 179   0.0000       3.719993       101.2262   13-B2g
 180   0.0000       3.766386       102.4886   34-B2u
 181   0.0000       3.905060       106.2621   36-Ag
 182   0.0000       3.905100       106.2632   26-B1g
 183   0.0000       3.909218       106.3752   14-B2g
 184   0.0000       3.917544       106.6018   17-B3g
 185   0.0000       4.044262       110.0500   37-Ag
 186   0.0000       4.058936       110.4493   13-Au
 187   0.0000       4.088637       111.2575   15-B2g
 188   0.0000       4.088654       111.2579   18-B3g
 189   0.0000       4.107474       111.7700   35-B2u
 190   0.0000       4.107491       111.7705   29-B3u
 191   0.0000       4.116879       112.0260   19-B1u
 192   0.0000       4.118171       112.0611   38-Ag
 193   0.0000       4.118202       112.0620   27-B1g
 194   0.0000       4.124182       112.2247   30-B3u
 195   0.0000       4.128086       112.3309   28-B1g
 196   0.0000       4.166519       113.3768   20-B1u
 197   0.0000       4.166531       113.3771   14-Au
 198   0.0000       4.169969       113.4706   36-B2u
 199   0.0000       4.204222       114.4027   16-B2g
 200   0.0000       4.204241       114.4032   19-B3g
 201   0.0000       4.320373       117.5633   31-B3u
 202   0.0000       4.320409       117.5643   37-B2u
 203   0.0000       4.355109       118.5085   38-B2u
 204   0.0000       4.416901       120.1900   21-B1u
 205   0.0000       4.417000       120.1927   15-Au
 206   0.0000       4.418739       120.2400   29-B1g
 207   0.0000       4.448756       121.0568   39-Ag
 208   0.0000       4.448797       121.0579   30-B1g
 209   0.0000       4.479725       121.8995   40-Ag
 210   0.0000       4.491124       122.2097   32-B3u
 211   0.0000       4.497644       122.3871   20-B3g
 212   0.0000       4.535924       123.4288   31-B1g
 213   0.0000       4.535929       123.4289   41-Ag
 214   0.0000       4.554056       123.9222   39-B2u
 215   0.0000       4.662628       126.8766   21-B3g
 216   0.0000       4.662631       126.8766   17-B2g
 217   0.0000       4.663697       126.9057   40-B2u
 218   0.0000       4.663743       126.9069   33-B3u
 219   0.0000       4.665798       126.9628   16-Au
 220   0.0000       4.665866       126.9647   22-B1u
 221   0.0000       4.675803       127.2351   42-Ag
 222   0.0000       4.675819       127.2355   32-B1g
 223   0.0000       4.864686       132.3748   43-Ag
 224   0.0000       4.871203       132.5522   33-B1g
 225   0.0000       4.871293       132.5546   44-Ag
 226   0.0000       4.977564       135.4464   23-B1u
 227   0.0000       5.046128       137.3121   34-B3u
 228   0.0000       5.046167       137.3132   41-B2u
 229   0.0000       5.056180       137.5856   22-B3g
 230   0.0000       5.087725       138.4440   35-B3u
 231   0.0000       5.087732       138.4442   42-B2u
 232   0.0000       5.095686       138.6607   18-B2g
 233   0.0000       5.095726       138.6618   23-B3g
 234   0.0000       5.159640       140.4010   17-Au
 235   0.0000       5.234837       142.4472   36-B3u
 236   0.0000       5.294836       144.0798   45-Ag
 237   0.0000       5.341584       145.3519   34-B1g
 238   0.0000       5.349764       145.5745   24-B1u
 239   0.0000       5.349795       145.5753   18-Au
 240   0.0000       5.353358       145.6723   43-B2u
 241   0.0000       5.394396       146.7890   35-B1g
 242   0.0000       5.394489       146.7915   46-Ag
 243   0.0000       5.511176       149.9667   37-B3u
 244   0.0000       5.511259       149.9690   44-B2u
 245   0.0000       5.728559       155.8820   45-B2u
 246   0.0000       5.728635       155.8841   38-B3u
 247   0.0000       5.782361       157.3460   24-B3g
 248   0.0000       6.028644       164.0478   47-Ag
 249   0.0000       6.028885       164.0543   36-B1g
 250   0.0000       6.067908       165.1162   46-B2u
 251   0.0000       6.258423       170.3003   37-B1g
 252   0.0000       6.258469       170.3016   48-Ag
 253   0.0000       6.356268       172.9629   38-B1g
 254   0.0000       6.483335       176.4205   47-B2u
 255   0.0000       6.483417       176.4227   39-B3u
 256   0.0000       6.836205       186.0226   48-B2u
 257   0.0000       7.293808       198.4746   39-B1g
 258   0.0000       9.312620       253.4093   49-Ag
 259   0.0000      12.877477       350.4140   40-B3u
 260   0.0000      12.877570       350.4165   49-B2u
 261   0.0000      13.444286       365.8376   50-Ag
 262   0.0000      13.444575       365.8455   40-B1g
 263   0.0000      16.057713       436.9526   50-B2u


---------------------------------------------
CAS-SCF STATES FOR BLOCK  1 MULT= 1 IRREP= Ag NROOTS= 1
---------------------------------------------

ROOT   0:  E=    -230.8494739389 Eh
      0.88573 [    34]: 020022
      0.03147 [    22]: 110121
      0.02159 [     3]: 220020
      0.02159 [    41]: 000222
      0.01285 [    16]: 121011
      0.01285 [    36]: 011112


--------------
DENSITY MATRIX
--------------

                  0          1          2          3          4          5    
      0       0.099971   0.000000   0.000000   0.000000   0.000000   0.000000
      1       0.000000   1.901421   0.000000   0.000000   0.000000   0.000000
      2       0.000000   0.000000   0.036562   0.000000   0.000000  -0.000000
      3       0.000000   0.000000   0.000000   0.099962   0.000000   0.000000
      4       0.000000   0.000000   0.000000   0.000000   1.960672   0.000000
      5       0.000000   0.000000  -0.000000   0.000000   0.000000   1.901412
Trace of the electron density:  6.000000

-----------------
ENERGY COMPONENTS
-----------------

One electron energy          :   -712.380688807 Eh      -19384.8640 eV
Two electron energy          :    278.716123276 Eh        7584.2513 eV
Nuclear repulsion energy     :    202.815091592 Eh        5518.8792 eV
                               ----------------
                                 -230.849473939

Kinetic energy               :    230.509773819 Eh        6272.4898 eV
Potential energy             :   -461.359247758 Eh      -12554.2234 eV
Virial ratio                 :     -2.001473691 
                               ----------------
                                 -230.849473939

Core energy                  :   -224.391954508 Eh    -6106.0155 eV


----------------------------
LOEWDIN ORBITAL-COMPOSITIONS
----------------------------

                      0         1         2         3         4         5   
                 -11.22611 -11.22555 -11.22555 -11.22435 -11.22435 -11.22376
                   2.00000   2.00000   2.00000   2.00000   2.00000   2.00000
                  --------  --------  --------  --------  --------  --------
 0 C  s              16.1      23.9       8.0       8.0      24.1      16.2
 0 C  px              0.1       0.0       0.1       0.1       0.0       0.0
 0 C  py              0.0       0.1       0.2       0.1       0.1       0.0
 0 C  dz2             0.1       0.0       0.0       0.0       0.0       0.1
 0 C  dx2y2           0.0       0.2       0.2       0.2       0.1       0.0
 0 C  dxy             0.1       0.0       0.2       0.1       0.0       0.1
 1 C  s              16.1       0.0      31.9      32.1       0.0      16.2
 1 C  px              0.0       0.4       0.0       0.0       0.3       0.0
 1 C  py              0.1       0.0       0.0       0.0       0.0       0.0
 1 C  dz2             0.1       0.0       0.1       0.1       0.0       0.1
 1 C  dx2y2           0.1       0.0       0.0       0.0       0.0       0.1
 1 C  dxy             0.0       0.5       0.0       0.0       0.3       0.0
 2 C  s              16.1      23.9       8.0       8.0      24.1      16.2
 2 C  px              0.1       0.0       0.1       0.1       0.0       0.0
 2 C  py              0.0       0.1       0.2       0.1       0.1       0.0
 2 C  dz2             0.1       0.0       0.0       0.0       0.0       0.1
 2 C  dx2y2           0.0       0.2       0.2       0.2       0.1       0.0
 2 C  dxy             0.1       0.0       0.2       0.1       0.0       0.1
 3 C  s              16.1      23.9       8.0       8.0      24.1      16.2
 3 C  px              0.1       0.0       0.1       0.1       0.0       0.0
 3 C  py              0.0       0.1       0.2       0.1       0.1       0.0
 3 C  dz2             0.1       0.0       0.0       0.0       0.0       0.1
 3 C  dx2y2           0.0       0.2       0.2       0.2       0.1       0.0
 3 C  dxy             0.1       0.0       0.2       0.1       0.0       0.1
 4 C  s              16.1       0.0      31.9      32.1       0.0      16.2
 4 C  px              0.0       0.4       0.0       0.0       0.3       0.0
 4 C  py              0.1       0.0       0.0       0.0       0.0       0.0
 4 C  dz2             0.1       0.0       0.1       0.1       0.0       0.1
 4 C  dx2y2           0.1       0.0       0.0       0.0       0.0       0.1
 4 C  dxy             0.0       0.5       0.0       0.0       0.3       0.0
 5 C  s              16.1      23.9       8.0       8.0      24.1      16.2
 5 C  px              0.1       0.0       0.1       0.1       0.0       0.0
 5 C  py              0.0       0.1       0.2       0.1       0.1       0.0
 5 C  dz2             0.1       0.0       0.0       0.0       0.0       0.1
 5 C  dx2y2           0.0       0.2       0.2       0.2       0.1       0.0
 5 C  dxy             0.1       0.0       0.2       0.1       0.0       0.1
 6 H  px              0.1       0.1       0.0       0.0       0.1       0.1
 7 H  s               0.1       0.0       0.1       0.1       0.0       0.0
 7 H  py              0.1       0.0       0.2       0.2       0.0       0.1
 8 H  px              0.1       0.1       0.0       0.0       0.1       0.1
 9 H  px              0.1       0.1       0.0       0.0       0.1       0.1
10 H  s               0.1       0.0       0.1       0.1       0.0       0.0
10 H  py              0.1       0.0       0.2       0.2       0.0       0.1
11 H  px              0.1       0.1       0.0       0.0       0.1       0.1

                      6         7         8         9        10        11   
                  -1.14000  -1.00487  -1.00485  -0.81453  -0.81453  -0.69888
                   2.00000   2.00000   2.00000   2.00000   2.00000   2.00000
                  --------  --------  --------  --------  --------  --------
 0 C  s              11.0      12.4       4.1       6.2       2.1       0.4
 0 C  px              2.1       0.5       1.8       0.2       5.3       7.7
 0 C  py              0.7       1.8       4.7       5.3       5.9       2.6
 0 C  dz2             0.5       0.2       0.1       0.0       0.0       0.0
 0 C  dx2y2           0.0       0.7       0.8       0.2       0.2       0.1
 0 C  dxy             0.0       0.0       0.7       0.0       0.2       0.2
 0 C  f-3             0.1       0.1       0.0       0.0       0.0       0.0
 1 C  s              11.0       0.0      16.5       0.0       8.3       0.4
 1 C  px              0.0       8.5       0.0      14.1       0.0       0.0
 1 C  py              2.9       0.0       0.2       0.0       2.6      10.3
 1 C  dz2             0.5       0.0       0.3       0.0       0.0       0.0
 1 C  dx2y2           0.0       0.0       0.3       0.0       0.1       0.3
 1 C  dxy             0.0       1.9       0.0       0.6       0.0       0.0
 1 C  f-3             0.1       0.0       0.1       0.0       0.0       0.0
 2 C  s              11.0      12.4       4.1       6.2       2.1       0.4
 2 C  px              2.1       0.5       1.8       0.2       5.3       7.7
 2 C  py              0.7       1.8       4.7       5.3       5.9       2.6
 2 C  dz2             0.5       0.2       0.1       0.0       0.0       0.0
 2 C  dx2y2           0.0       0.7       0.8       0.2       0.2       0.1
 2 C  dxy             0.0       0.0       0.7       0.0       0.2       0.2
 2 C  f-3             0.1       0.1       0.0       0.0       0.0       0.0
 3 C  s              11.0      12.4       4.1       6.2       2.1       0.4
 3 C  px              2.1       0.5       1.8       0.2       5.3       7.7
 3 C  py              0.7       1.8       4.7       5.3       5.9       2.6
 3 C  dz2             0.5       0.2       0.1       0.0       0.0       0.0
 3 C  dx2y2           0.0       0.7       0.8       0.2       0.2       0.1
 3 C  dxy             0.0       0.0       0.7       0.0       0.2       0.2
 3 C  f-3             0.1       0.1       0.0       0.0       0.0       0.0
 4 C  s              11.0       0.0      16.5       0.0       8.3       0.4
 4 C  px              0.0       8.5       0.0      14.1       0.0       0.0
 4 C  py              2.9       0.0       0.2       0.0       2.6      10.3
 4 C  dz2             0.5       0.0       0.3       0.0       0.0       0.0
 4 C  dx2y2           0.0       0.0       0.3       0.0       0.1       0.3
 4 C  dxy             0.0       1.9       0.0       0.6       0.0       0.0
 4 C  f-3             0.1       0.0       0.1       0.0       0.0       0.0
 5 C  s              11.0      12.4       4.1       6.2       2.1       0.4
 5 C  px              2.1       0.5       1.8       0.2       5.3       7.7
 5 C  py              0.7       1.8       4.7       5.3       5.9       2.6
 5 C  dz2             0.5       0.2       0.1       0.0       0.0       0.0
 5 C  dx2y2           0.0       0.7       0.8       0.2       0.2       0.1
 5 C  dxy             0.0       0.0       0.7       0.0       0.2       0.2
 5 C  f-3             0.1       0.1       0.0       0.0       0.0       0.0
 6 H  s               1.8       3.2       1.1       4.5       1.5       5.4
 6 H  px              0.3       0.5       0.3       0.8       0.0       0.2
 6 H  py              0.1       0.3       0.0       0.0       0.5       0.1
 7 H  s               1.8       0.0       4.2       0.0       6.0       5.4
 7 H  px              0.0       0.1       0.0       0.4       0.0       0.0
 7 H  py              0.4       0.0       1.1       0.0       0.9       0.2
 7 H  dxy             0.0       0.0       0.0       0.1       0.0       0.0
 8 H  s               1.8       3.2       1.1       4.5       1.5       5.4
 8 H  px              0.3       0.5       0.3       0.8       0.0       0.2
 8 H  py              0.1       0.3       0.0       0.0       0.5       0.1
 9 H  s               1.8       3.2       1.1       4.5       1.5       5.4
 9 H  px              0.3       0.5       0.3       0.8       0.0       0.2
 9 H  py              0.1       0.3       0.0       0.0       0.5       0.1
10 H  s               1.8       0.0       4.2       0.0       6.0       5.4
10 H  px              0.0       0.1       0.0       0.4       0.0       0.0
10 H  py              0.4       0.0       1.1       0.0       0.9       0.2
10 H  dxy             0.0       0.0       0.0       0.1       0.0       0.0
11 H  s               1.8       3.2       1.1       4.5       1.5       5.4
11 H  px              0.3       0.5       0.3       0.8       0.0       0.2
11 H  py              0.1       0.3       0.0       0.0       0.5       0.1

                     12        13        14        15        16        17   
                  -0.63473  -0.60938  -0.57871  -0.57867  -0.48628  -0.48625
                   2.00000   2.00000   2.00000   2.00000   2.00000   2.00000
                  --------  --------  --------  --------  --------  --------
 0 C  s               2.3       0.0       0.3       0.1       0.1       0.0
 0 C  px              3.4       3.9       9.1       5.3       9.1       0.1
 0 C  py              1.1      11.6       5.3       0.4       0.1       9.8
 0 C  dz2             0.0       0.0       0.1       0.0       0.1       0.0
 0 C  dx2y2           0.7       0.1       0.8       0.7       0.4       1.2
 0 C  dxy             2.0       0.0       0.0       0.8       3.1       0.4
 0 C  f+3             0.0       0.1       0.1       0.4       0.0       0.0
 1 C  s               2.3       0.0       0.0       0.3       0.0       0.1
 1 C  px              0.0      15.5       1.3       0.0      10.4       0.0
 1 C  py              4.5       0.0       0.0      18.7       0.0       8.9
 1 C  dz2             0.0       0.0       0.0       0.1       0.0       0.1
 1 C  dx2y2           2.6       0.0       0.0       0.5       0.0       4.4
 1 C  dxy             0.0       0.2       1.8       0.0       0.6       0.0
 1 C  f+3             0.0       0.1       0.5       0.0       0.1       0.0
 2 C  s               2.3       0.0       0.3       0.1       0.1       0.0
 2 C  px              3.4       3.9       9.1       5.3       9.1       0.1
 2 C  py              1.1      11.6       5.3       0.4       0.1       9.8
 2 C  dz2             0.0       0.0       0.1       0.0       0.1       0.0
 2 C  dx2y2           0.7       0.1       0.8       0.7       0.4       1.2
 2 C  dxy             2.0       0.0       0.0       0.8       3.1       0.4
 2 C  f+3             0.0       0.1       0.1       0.4       0.0       0.0
 3 C  s               2.3       0.0       0.3       0.1       0.1       0.0
 3 C  px              3.4       3.9       9.1       5.3       9.1       0.1
 3 C  py              1.1      11.6       5.3       0.4       0.1       9.8
 3 C  dz2             0.0       0.0       0.1       0.0       0.1       0.0
 3 C  dx2y2           0.7       0.1       0.8       0.7       0.4       1.2
 3 C  dxy             2.0       0.0       0.0       0.8       3.1       0.4
 3 C  f+3             0.0       0.1       0.1       0.4       0.0       0.0
 4 C  s               2.3       0.0       0.0       0.3       0.0       0.1
 4 C  px              0.0      15.5       1.3       0.0      10.4       0.0
 4 C  py              4.5       0.0       0.0      18.7       0.0       8.9
 4 C  dz2             0.0       0.0       0.0       0.1       0.0       0.1
 4 C  dx2y2           2.6       0.0       0.0       0.5       0.0       4.4
 4 C  dxy             0.0       0.2       1.8       0.0       0.6       0.0
 4 C  f+3             0.0       0.1       0.5       0.0       0.1       0.0
 5 C  s               2.3       0.0       0.3       0.1       0.1       0.0
 5 C  px              3.4       3.9       9.1       5.3       9.1       0.1
 5 C  py              1.1      11.6       5.3       0.4       0.1       9.8
 5 C  dz2             0.0       0.0       0.1       0.0       0.1       0.0
 5 C  dx2y2           0.7       0.1       0.8       0.7       0.4       1.2
 5 C  dxy             2.0       0.0       0.0       0.8       3.1       0.4
 5 C  f+3             0.0       0.1       0.1       0.4       0.0       0.0
 6 H  s               6.8       0.0       7.3       2.4       6.1       2.0
 6 H  px              0.2       0.2       0.1       0.0       0.1       0.1
 6 H  py              0.1       0.5       0.0       0.0       0.1       0.3
 6 H  dx2y2           0.0       0.1       0.0       0.0       0.0       0.1
 7 H  s               6.8       0.0       0.0       9.7       0.0       8.2
 7 H  px              0.0       0.7       0.0       0.0       0.4       0.0
 7 H  py              0.3       0.0       0.0       0.1       0.0       0.1
 7 H  dxy             0.0       0.2       0.0       0.0       0.1       0.0
 8 H  s               6.8       0.0       7.3       2.4       6.1       2.0
 8 H  px              0.2       0.2       0.1       0.0       0.1       0.1
 8 H  py              0.1       0.5       0.0       0.0       0.1       0.3
 8 H  dx2y2           0.0       0.1       0.0       0.0       0.0       0.1
 9 H  s               6.8       0.0       7.3       2.4       6.1       2.0
 9 H  px              0.2       0.2       0.1       0.0       0.1       0.1
 9 H  py              0.1       0.5       0.0       0.0       0.1       0.3
 9 H  dx2y2           0.0       0.1       0.0       0.0       0.0       0.1
10 H  s               6.8       0.0       0.0       9.7       0.0       8.2
10 H  px              0.0       0.7       0.0       0.0       0.4       0.0
10 H  py              0.3       0.0       0.0       0.1       0.0       0.1
10 H  dxy             0.0       0.2       0.0       0.0       0.1       0.0
11 H  s               6.8       0.0       7.3       2.4       6.1       2.0
11 H  px              0.2       0.2       0.1       0.0       0.1       0.1
11 H  py              0.1       0.5       0.0       0.0       0.1       0.3
11 H  dx2y2           0.0       0.1       0.0       0.0       0.0       0.1

                     18        19        20        21        22        23   
                   0.16611  -0.32140   0.42241   0.16612  -0.48824  -0.32138
                   0.09997   1.90142   0.03656   0.09996   1.96067   1.90141
                  --------  --------  --------  --------  --------  --------
 0 C  pz              6.0      20.2      13.0      17.9      15.2       6.7
 0 C  dxz             2.0       0.1       1.0       0.0       0.5       1.0
 0 C  dyz             2.3       1.0       0.3       2.0       0.2       2.0
 0 C  f0              0.1       0.0       0.9       0.4       0.1       0.0
 0 C  f+2             0.3       0.1       0.1       0.2       0.0       0.2
 0 C  f-2             0.2       0.0       0.2       0.0       0.0       0.1
 1 C  pz             23.8       0.0      13.0       0.0      15.2      27.0
 1 C  dxz             0.0       4.0       0.0       5.4       0.0       0.0
 1 C  dyz             0.9       0.0       1.3       0.0       0.7       0.1
 1 C  f0              0.5       0.0       0.9       0.0       0.1       0.0
 1 C  f+2             0.0       0.0       0.2       0.0       0.0       0.1
 1 C  f-2             0.0       0.4       0.0       0.6       0.0       0.0
 2 C  pz              6.0      20.2      13.0      17.9      15.2       6.7
 2 C  dxz             2.0       0.1       1.0       0.0       0.5       1.0
 2 C  dyz             2.3       1.0       0.3       2.0       0.2       2.0
 2 C  f0              0.1       0.0       0.9       0.4       0.1       0.0
 2 C  f+2             0.3       0.1       0.1       0.2       0.0       0.2
 2 C  f-2             0.2       0.0       0.2       0.0       0.0       0.1
 3 C  pz              6.0      20.2      13.0      17.9      15.2       6.7
 3 C  dxz             2.0       0.1       1.0       0.0       0.5       1.0
 3 C  dyz             2.3       1.0       0.3       2.0       0.2       2.0
 3 C  f0              0.1       0.0       0.9       0.4       0.1       0.0
 3 C  f+2             0.3       0.1       0.1       0.2       0.0       0.2
 3 C  f-2             0.2       0.0       0.2       0.0       0.0       0.1
 4 C  pz             23.8       0.0      13.0       0.0      15.2      27.0
 4 C  dxz             0.0       4.0       0.0       5.4       0.0       0.0
 4 C  dyz             0.9       0.0       1.3       0.0       0.7       0.1
 4 C  f0              0.5       0.0       0.9       0.0       0.1       0.0
 4 C  f+2             0.0       0.0       0.2       0.0       0.0       0.1
 4 C  f-2             0.0       0.4       0.0       0.6       0.0       0.0
 5 C  pz              6.0      20.2      13.0      17.9      15.2       6.7
 5 C  dxz             2.0       0.1       1.0       0.0       0.5       1.0
 5 C  dyz             2.3       1.0       0.3       2.0       0.2       2.0
 5 C  f0              0.1       0.0       0.9       0.4       0.1       0.0
 5 C  f+2             0.3       0.1       0.1       0.2       0.0       0.2
 5 C  f-2             0.2       0.0       0.2       0.0       0.0       0.1
 6 H  pz              0.4       1.1       0.9       1.3       0.5       0.4
 6 H  dxz             0.1       0.1       0.2       0.3       0.1       0.1
 7 H  pz              1.7       0.0       0.9       0.0       0.5       1.5
 7 H  dyz             0.5       0.0       0.3       0.0       0.1       0.3
 8 H  pz              0.4       1.1       0.9       1.3       0.5       0.4
 8 H  dxz             0.1       0.1       0.2       0.3       0.1       0.1
 9 H  pz              0.4       1.1       0.9       1.3       0.5       0.4
 9 H  dxz             0.1       0.1       0.2       0.3       0.1       0.1
10 H  pz              1.7       0.0       0.9       0.0       0.5       1.5
10 H  dyz             0.5       0.0       0.3       0.0       0.1       0.3
11 H  pz              0.4       1.1       0.9       1.3       0.5       0.4
11 H  dxz             0.1       0.1       0.2       0.3       0.1       0.1

                     24        25        26        27        28        29   
                   0.14668   0.17137   0.17137   0.20263   0.20263   0.22233
                   0.00000   0.00000   0.00000   0.00000   0.00000   0.00000
                  --------  --------  --------  --------  --------  --------
 0 C  s               0.7       0.9       0.3       1.0       0.3       0.4
 0 C  px              0.8       1.9       0.5       0.6       0.6       0.2
 0 C  py              0.3       0.5       0.3       0.6       0.3       0.1
 0 C  dz2             0.0       0.0       0.0       0.4       0.1       0.2
 0 C  dx2y2           0.3       0.0       0.1       0.2       0.0       0.1
 0 C  dxy             1.0       0.2       0.0       0.1       0.2       0.2
 1 C  s               0.7       0.0       1.1       0.0       1.3       0.4
 1 C  px              0.0       0.1       0.0       0.8       0.0       0.0
 1 C  py              1.1       0.0       3.2       0.0       1.3       0.3
 1 C  dz2             0.0       0.0       0.0       0.0       0.5       0.2
 1 C  dx2y2           1.3       0.0       0.2       0.0       0.4       0.2
 1 C  dxy             0.0       0.1       0.0       0.2       0.0       0.0
 1 C  f+3             0.0       0.1       0.0       0.0       0.0       0.0
 2 C  s               0.7       0.9       0.3       1.0       0.3       0.4
 2 C  px              0.8       1.9       0.5       0.6       0.6       0.2
 2 C  py              0.3       0.5       0.3       0.6       0.3       0.1
 2 C  dz2             0.0       0.0       0.0       0.4       0.1       0.2
 2 C  dx2y2           0.3       0.0       0.1       0.2       0.0       0.1
 2 C  dxy             1.0       0.2       0.0       0.1       0.2       0.2
 3 C  s               0.7       0.9       0.3       1.0       0.3       0.4
 3 C  px              0.8       1.9       0.5       0.6       0.6       0.2
 3 C  py              0.3       0.5       0.3       0.6       0.3       0.1
 3 C  dz2             0.0       0.0       0.0       0.4       0.1       0.2
 3 C  dx2y2           0.3       0.0       0.1       0.2       0.0       0.1
 3 C  dxy             1.0       0.2       0.0       0.1       0.2       0.2
 4 C  s               0.7       0.0       1.1       0.0       1.3       0.4
 4 C  px              0.0       0.1       0.0       0.8       0.0       0.0
 4 C  py              1.1       0.0       3.2       0.0       1.3       0.3
 4 C  dz2             0.0       0.0       0.0       0.0       0.5       0.2
 4 C  dx2y2           1.3       0.0       0.2       0.0       0.4       0.2
 4 C  dxy             0.0       0.1       0.0       0.2       0.0       0.0
 4 C  f+3             0.0       0.1       0.0       0.0       0.0       0.0
 5 C  s               0.7       0.9       0.3       1.0       0.3       0.4
 5 C  px              0.8       1.9       0.5       0.6       0.6       0.2
 5 C  py              0.3       0.5       0.3       0.6       0.3       0.1
 5 C  dz2             0.0       0.0       0.0       0.4       0.1       0.2
 5 C  dx2y2           0.3       0.0       0.1       0.2       0.0       0.1
 5 C  dxy             1.0       0.2       0.0       0.1       0.2       0.2
 6 H  s              11.1      18.1       6.0      17.7       5.9      13.2
 6 H  px              1.8       2.6       0.5       1.8       1.6       1.8
 6 H  py              0.6       0.5       0.6       1.6       0.0       0.6
 7 H  s              11.1       0.0      24.2       0.0      23.5      13.2
 7 H  px              0.0       0.1       0.0       0.8       0.0       0.0
 7 H  py              2.5       0.0       4.2       0.0       4.3       2.4
 8 H  s              11.1      18.1       6.0      17.7       5.9      13.2
 8 H  px              1.8       2.6       0.5       1.8       1.6       1.8
 8 H  py              0.6       0.5       0.6       1.6       0.0       0.6
 9 H  s              11.1      18.1       6.0      17.7       5.9      13.2
 9 H  px              1.8       2.6       0.5       1.8       1.6       1.8
 9 H  py              0.6       0.5       0.6       1.6       0.0       0.6
10 H  s              11.1       0.0      24.2       0.0      23.5      13.2
10 H  px              0.0       0.1       0.0       0.8       0.0       0.0
10 H  py              2.5       0.0       4.2       0.0       4.3       2.4
11 H  s              11.1      18.1       6.0      17.7       5.9      13.2
11 H  px              1.8       2.6       0.5       1.8       1.6       1.8
11 H  py              0.6       0.5       0.6       1.6       0.0       0.6

                     30        31        32        33        34        35   
                   0.36045   0.36046   0.39611   0.41924   0.41925   0.41962
                   0.00000   0.00000   0.00000   0.00000   0.00000   0.00000
                  --------  --------  --------  --------  --------  --------
 0 C  s               0.5       1.6       0.0       0.9       0.3       2.1
[...]
MULLIKEN REDUCED ORBITAL CHARGES
--------------------------------
  0 C s       :     3.242279  s :     3.242279
      pz      :     0.958435  p :     2.803714
      px      :     0.950605
      py      :     0.894674
      dz2     :     0.005556  d :     0.086860
      dxz     :     0.010157
      dyz     :     0.017914
      dx2y2   :     0.022334
      dxy     :     0.030899
      f0      :     0.001384  f :     0.009455
      f+1     :     0.000838
      f-1     :     0.000815
      f+2     :     0.000909
      f-2     :     0.000516
      f+3     :     0.002488
      f-3     :     0.002506
  1 C s       :     3.242261  s :     3.242261
      pz      :     0.958439  p :     2.803717
      px      :     0.866695
      py      :     0.978583
      dz2     :     0.005555  d :     0.086859
      dxz     :     0.021793
      dyz     :     0.006278
      dx2y2   :     0.035185
      dxy     :     0.018048
      f0      :     0.001384  f :     0.009455
      f+1     :     0.000803
      f-1     :     0.000849
      f+2     :     0.000320
      f-2     :     0.001105
      f+3     :     0.002488
      f-3     :     0.002506
  2 C s       :     3.242279  s :     3.242279
      pz      :     0.958435  p :     2.803714
      px      :     0.950605
      py      :     0.894674
      dz2     :     0.005556  d :     0.086860
      dxz     :     0.010157
      dyz     :     0.017914
      dx2y2   :     0.022334
      dxy     :     0.030899
      f0      :     0.001384  f :     0.009455
      f+1     :     0.000838
      f-1     :     0.000815
      f+2     :     0.000909
      f-2     :     0.000516
      f+3     :     0.002488
      f-3     :     0.002506
  3 C s       :     3.242279  s :     3.242279
      pz      :     0.958435  p :     2.803714
      px      :     0.950605
      py      :     0.894674
      dz2     :     0.005556  d :     0.086860
      dxz     :     0.010157
      dyz     :     0.017914
      dx2y2   :     0.022334
      dxy     :     0.030899
      f0      :     0.001384  f :     0.009455
      f+1     :     0.000838
      f-1     :     0.000815
      f+2     :     0.000909
      f-2     :     0.000516
      f+3     :     0.002488
      f-3     :     0.002506
  4 C s       :     3.242261  s :     3.242261
      pz      :     0.958439  p :     2.803717
      px      :     0.866695
      py      :     0.978583
      dz2     :     0.005555  d :     0.086859
      dxz     :     0.021793
      dyz     :     0.006278
      dx2y2   :     0.035185
      dxy     :     0.018048
      f0      :     0.001384  f :     0.009455
      f+1     :     0.000803
      f-1     :     0.000849
      f+2     :     0.000320
      f-2     :     0.001105
      f+3     :     0.002488
      f-3     :     0.002506
  5 C s       :     3.242279  s :     3.242279
      pz      :     0.958435  p :     2.803714
      px      :     0.950605
      py      :     0.894674
      dz2     :     0.005556  d :     0.086860
      dxz     :     0.010157
      dyz     :     0.017914
      dx2y2   :     0.022334
      dxy     :     0.030899
      f0      :     0.001384  f :     0.009455
      f+1     :     0.000838
      f-1     :     0.000815
      f+2     :     0.000909
      f-2     :     0.000516
      f+3     :     0.002488
      f-3     :     0.002506
  6 H s       :     0.829797  s :     0.829797
      pz      :     0.010095  p :     0.025706
      px      :     0.008134
      py      :     0.007477
      dz2     :     0.000168  d :     0.002184
      dxz     :     0.000435
      dyz     :     0.000154
      dx2y2   :     0.000826
      dxy     :     0.000602
  7 H s       :     0.829824  s :     0.829824
      pz      :     0.010095  p :     0.025708
      px      :     0.007149
      py      :     0.008464
      dz2     :     0.000168  d :     0.002184
      dxz     :     0.000013
      dyz     :     0.000576
      dx2y2   :     0.000490
      dxy     :     0.000938
  8 H s       :     0.829797  s :     0.829797
      pz      :     0.010095  p :     0.025706
      px      :     0.008134
      py      :     0.007477
      dz2     :     0.000168  d :     0.002184
      dxz     :     0.000435
      dyz     :     0.000154
      dx2y2   :     0.000826
      dxy     :     0.000602
  9 H s       :     0.829797  s :     0.829797
      pz      :     0.010095  p :     0.025706
      px      :     0.008134
      py      :     0.007477
      dz2     :     0.000168  d :     0.002184
      dxz     :     0.000435
      dyz     :     0.000154
      dx2y2   :     0.000826
      dxy     :     0.000602
 10 H s       :     0.829824  s :     0.829824
      pz      :     0.010095  p :     0.025708
      px      :     0.007149
      py      :     0.008464
      dz2     :     0.000168  d :     0.002184
      dxz     :     0.000013
      dyz     :     0.000576
      dx2y2   :     0.000490
      dxy     :     0.000938
 11 H s       :     0.829797  s :     0.829797
      pz      :     0.010095  p :     0.025706
      px      :     0.008134
      py      :     0.007477
      dz2     :     0.000168  d :     0.002184
      dxz     :     0.000435
      dyz     :     0.000154
      dx2y2   :     0.000826
      dxy     :     0.000602


                     *******************************
                     * LOEWDIN POPULATION ANALYSIS *
                     *******************************

----------------------
LOEWDIN ATOMIC CHARGES
----------------------
   0 C :    0.025853
   1 C :    0.025856
   2 C :    0.025853
   3 C :    0.025853
   4 C :    0.025856
   5 C :    0.025853
   6 H :   -0.025854
   7 H :   -0.025855
   8 H :   -0.025854
   9 H :   -0.025854
  10 H :   -0.025855
  11 H :   -0.025854

-------------------------------
LOEWDIN REDUCED ORBITAL CHARGES
-------------------------------
  0 C s       :     2.703333  s :     2.703333
      pz      :     0.839588  p :     2.816763
      px      :     0.978141
      py      :     0.999034
      dz2     :     0.027259  d :     0.411536
      dxz     :     0.033223
      dyz     :     0.065001
      dx2y2   :     0.129727
      dxy     :     0.156326
      f0      :     0.002831  f :     0.042515
      f+1     :     0.003003
      f-1     :     0.003267
      f+2     :     0.006279
      f-2     :     0.003424
      f+3     :     0.015011
      f-3     :     0.008700
  1 C s       :     2.703337  s :     2.703337
      pz      :     0.839599  p :     2.816762
      px      :     1.009472
      py      :     0.967691
      dz2     :     0.027259  d :     0.411533
      dxz     :     0.080893
      dyz     :     0.017330
      dx2y2   :     0.169614
      dxy     :     0.116437
      f0      :     0.002831  f :     0.042512
      f+1     :     0.003399
      f-1     :     0.002871
      f+2     :     0.001999
      f-2     :     0.007704
      f+3     :     0.015010
      f-3     :     0.008699
  2 C s       :     2.703333  s :     2.703333
      pz      :     0.839588  p :     2.816763
      px      :     0.978141
      py      :     0.999034
      dz2     :     0.027259  d :     0.411536
      dxz     :     0.033223
      dyz     :     0.065001
      dx2y2   :     0.129727
      dxy     :     0.156326
      f0      :     0.002831  f :     0.042515
      f+1     :     0.003003
      f-1     :     0.003267
      f+2     :     0.006279
      f-2     :     0.003424
      f+3     :     0.015011
      f-3     :     0.008700
  3 C s       :     2.703333  s :     2.703333
      pz      :     0.839588  p :     2.816763
      px      :     0.978141
      py      :     0.999034
      dz2     :     0.027259  d :     0.411536
      dxz     :     0.033223
      dyz     :     0.065001
      dx2y2   :     0.129727
      dxy     :     0.156326
      f0      :     0.002831  f :     0.042515
      f+1     :     0.003003
      f-1     :     0.003267
      f+2     :     0.006279
      f-2     :     0.003424
      f+3     :     0.015011
      f-3     :     0.008700
  4 C s       :     2.703337  s :     2.703337
      pz      :     0.839599  p :     2.816762
      px      :     1.009472
      py      :     0.967691
      dz2     :     0.027259  d :     0.411533
      dxz     :     0.080893
      dyz     :     0.017330
      dx2y2   :     0.169614
      dxy     :     0.116437
      f0      :     0.002831  f :     0.042512
      f+1     :     0.003399
      f-1     :     0.002871
      f+2     :     0.001999
      f-2     :     0.007704
      f+3     :     0.015010
      f-3     :     0.008699
  5 C s       :     2.703333  s :     2.703333
      pz      :     0.839588  p :     2.816763
      px      :     0.978141
      py      :     0.999034
      dz2     :     0.027259  d :     0.411536
      dxz     :     0.033223
      dyz     :     0.065001
      dx2y2   :     0.129727
      dxy     :     0.156326
      f0      :     0.002831  f :     0.042515
      f+1     :     0.003003
      f-1     :     0.003267
      f+2     :     0.006279
      f-2     :     0.003424
      f+3     :     0.015011
      f-3     :     0.008700
  6 H s       :     0.848419  s :     0.848419
      pz      :     0.041528  p :     0.150684
      px      :     0.065730
      py      :     0.043426
      dz2     :     0.002324  d :     0.026750
      dxz     :     0.006074
      dyz     :     0.002049
      dx2y2   :     0.008380
      dxy     :     0.007924
  7 H s       :     0.848421  s :     0.848421
      pz      :     0.041528  p :     0.150684
      px      :     0.032270
      py      :     0.076886
      dz2     :     0.002324  d :     0.026750
      dxz     :     0.000035
      dyz     :     0.008088
      dx2y2   :     0.007696
      dxy     :     0.008608
  8 H s       :     0.848419  s :     0.848419
      pz      :     0.041528  p :     0.150684
      px      :     0.065730
      py      :     0.043426
      dz2     :     0.002324  d :     0.026750
      dxz     :     0.006074
      dyz     :     0.002049
      dx2y2   :     0.008380
      dxy     :     0.007924
  9 H s       :     0.848419  s :     0.848419
      pz      :     0.041528  p :     0.150684
      px      :     0.065730
      py      :     0.043426
      dz2     :     0.002324  d :     0.026750
      dxz     :     0.006074
      dyz     :     0.002049
      dx2y2   :     0.008380
      dxy     :     0.007924
 10 H s       :     0.848421  s :     0.848421
      pz      :     0.041528  p :     0.150684
      px      :     0.032270
      py      :     0.076886
      dz2     :     0.002324  d :     0.026750
      dxz     :     0.000035
      dyz     :     0.008088
      dx2y2   :     0.007696
      dxy     :     0.008608
 11 H s       :     0.848419  s :     0.848419
      pz      :     0.041528  p :     0.150684
      px      :     0.065730
      py      :     0.043426
      dz2     :     0.002324  d :     0.026750
      dxz     :     0.006074
      dyz     :     0.002049
      dx2y2   :     0.008380
      dxy     :     0.007924


                      *****************************
                      * MAYER POPULATION ANALYSIS *
                      *****************************

  NA   - Mulliken gross atomic population
  ZA   - Total nuclear charge
  QA   - Mulliken gross atomic charge
  VA   - Mayer's total valence
  BVA  - Mayer's bonded valence
  FA   - Mayer's free valence

  ATOM       NA         ZA         QA         VA         BVA        FA
  0 C      6.1423     6.0000    -0.1423     3.8143     3.6653     0.1491
  1 C      6.1423     6.0000    -0.1423     3.8143     3.6653     0.1491
  2 C      6.1423     6.0000    -0.1423     3.8143     3.6653     0.1491
  3 C      6.1423     6.0000    -0.1423     3.8143     3.6653     0.1491
  4 C      6.1423     6.0000    -0.1423     3.8143     3.6653     0.1491
  5 C      6.1423     6.0000    -0.1423     3.8143     3.6653     0.1491
  6 H      0.8577     1.0000     0.1423     0.9811     0.9795     0.0016
  7 H      0.8577     1.0000     0.1423     0.9811     0.9795     0.0016
  8 H      0.8577     1.0000     0.1423     0.9811     0.9795     0.0016
  9 H      0.8577     1.0000     0.1423     0.9811     0.9795     0.0016
 10 H      0.8577     1.0000     0.1423     0.9811     0.9795     0.0016
 11 H      0.8577     1.0000     0.1423     0.9811     0.9795     0.0016

  Mayer bond orders larger than 0.100000
B(  0-C ,  1-C ) :   1.3199 B(  0-C ,  5-C ) :   1.3199 B(  0-C ,  6-H ) :   0.9821 
B(  1-C ,  2-C ) :   1.3199 B(  1-C ,  7-H ) :   0.9821 B(  2-C ,  3-C ) :   1.3199 
B(  2-C ,  8-H ) :   0.9821 B(  3-C ,  4-C ) :   1.3199 B(  3-C ,  9-H ) :   0.9821 
B(  4-C ,  5-C ) :   1.3199 B(  4-C , 10-H ) :   0.9821 B(  5-C , 11-H ) :   0.9821 



-------------------------------------------------------------
 Forming the transition density       ... done in 0.001201 sec
-------------------------------------------------------------



==========================================
CASSCF UV, CD spectra and dipole moments
==========================================
-------------------
ABSORPTION SPECTRUM
-------------------

Center of mass           = (  0.0000,  0.0000, -0.0000)
Nuclear contribution to the dipole moment =     0.000000,    0.000000,    0.000000 au

Calculating the Dipole integrals                  ... done
Transforming integrals                            ... done
Calculating the Linear Momentum integrals         ... done
Transforming integrals                            ... done
Calculating the Angular Momentum integrals        ... done
Transforming integrals                            ... done

------------------------------------------------------------------------------
                                 DIPOLE MOMENTS
------------------------------------------------------------------------------
  Root  Block           TX        TY        TZ           |T|
                      (Debye)   (Debye)   (Debye)      (Debye)
------------------------------------------------------------------------------
    0    0            0.00000   0.00000  -0.00000      0.00000

--------------
CASSCF TIMINGS
--------------

Total time                       ...        6.4 sec
Sum of individual times          ...        5.6 sec ( 86.9%)

Calculation of AO operators
   F(Core) operator              ...        1.9 sec ( 30.4%)
   G(Act) operator               ...        2.0 sec ( 31.9%)
   J(AO) operators               ...        0.0 sec (  0.0%)
Calculation of MO transformed quantities
   J(MO) operators               ...        1.2 sec ( 19.2%)
   (pq|rs) integrals             ...        0.0 sec (  0.0%)
   AO->MO one electron integrals ...        0.0 sec (  0.4%)
Configuration interaction steps
   CI-setup phase                ...        0.0 sec (  0.0%)
   CI-solution phase             ...        0.1 sec (  2.2%)
   Generation of densities       ...        0.0 sec (  0.1%)
Orbital improvement steps
   Orbital gradient              ...        0.0 sec (  0.5%)
   O(1) converger                ...        0.1 sec (  2.2%)
Properties                       ...        0.0 sec (  0.0%)
   SOC integral calculation      ...        0.0 sec (  0.0%)
   SSC RMEs (incl. integrals)    ...        0.0 sec (  0.0%)
   SOC RMEs                      ...        0.0 sec (  0.0%)

Maximum memory used throughout the entire CASSCF-calculation: 162.8 MB

-------------------------   --------------------
FINAL SINGLE POINT ENERGY      -230.849473938907
-------------------------   --------------------


                            ***************************************
                            *     ORCA property calculations      *
                            ***************************************

                                    ---------------------
                                    Active property flags
                                    ---------------------
   (+) Dipole Moment


------------------------------------------------------------------------------
                       ORCA ELECTRIC PROPERTIES CALCULATION
------------------------------------------------------------------------------

Dipole Moment Calculation                       ... on
Quadrupole Moment Calculation                   ... off
Polarizability Calculation                      ... off
GBWName                                         ... ben-cas66-ccpvtz.gbw
Electron density file                           ... ben-cas66-ccpvtz.scfp
The origin for moment calculation is the CENTER OF MASS  = ( 0.000000, -0.000000 -0.000000)

-------------
DIPOLE MOMENT
-------------
                                X             Y             Z
Electronic contribution:      0.00000       0.00000      -0.00000
Nuclear contribution   :      0.00000       0.00000       0.00000
                        -----------------------------------------
Total Dipole Moment    :      0.00000       0.00000      -0.00000
                        -----------------------------------------
Magnitude (a.u.)       :      0.00000
Magnitude (Debye)      :      0.00000



--------------------
Rotational spectrum 
--------------------
 
Rotational constants in cm-1:     0.188954     0.188927     0.094470 
Rotational constants in MHz :  5664.683605  5663.875242  2832.139697 

 Dipole components along the rotational axes: 
x,y,z [a.u.] :     0.000000     0.000000    -0.000000 
x,y,z [Debye]:     0.000000     0.000000    -0.000000 

 
--------------------------------------------------------------------------
WARNING: There was an error initializing an OpenFabrics device.

  Local host:   cnode02
  Local device: mlx5_0
--------------------------------------------------------------------------
[cnode02:164989] 7 more processes have sent help message help-mpi-btl-openib.txt / error in device init
[cnode02:164989] Set MCA parameter "orte_base_help_aggregate" to 0 to see all help / error messages

Timings for individual modules:

Sum of individual times         ...       11.155 sec (=   0.186 min)
GTO integral calculation        ...        0.621 sec (=   0.010 min)   5.6 %
SCF iterations                  ...        0.596 sec (=   0.010 min)   5.3 %
CASSCF iterations               ...        9.938 sec (=   0.166 min)  89.1 %
                             ****ORCA TERMINATED NORMALLY****
TOTAL RUN TIME: 0 days 0 hours 0 minutes 11 seconds 758 msec

Sender: Unischeduler System <lcz@mgt01>
Subject: Job 123772: <#!/bin/bash
#BSUB -J intel
#BSUB -o ben-cas66-ccpvtz.out
#BSUB -n 8
#BSUB -q cqueue
#BSUB -R span[hosts=1]
export LD_LIBRARY_PATH=/apps/software/openmpi-4.1.1/lib:/apps/software/orca_5_0_0:$LD_LIBRARY_PATH
export PATH=/apps/software/openmpi-4.1.1/bin:/apps/software/orca_5_0_0:$PATH
/apps/software/orca_5_0_0/orca ben-cas66-ccpvtz.inp >& ben-cas66-ccpvtz.out> Done

Job <#!/bin/bash
#BSUB -J intel
#BSUB -o ben-cas66-ccpvtz.out
#BSUB -n 8
#BSUB -q cqueue
#BSUB -R span[hosts=1]
export LD_LIBRARY_PATH=/apps/software/openmpi-4.1.1/lib:/apps/software/orca_5_0_0:$LD_LIBRARY_PATH
export PATH=/apps/software/openmpi-4.1.1/bin:/apps/software/orca_5_0_0:$PATH
/apps/software/orca_5_0_0/orca ben-cas66-ccpvtz.inp >& ben-cas66-ccpvtz.out> was submitted from host <mgt01> by user <lcz>.
Job was executed on host(s) <8*cnode02>, in queue <cqueue>, as user <lcz>.
</apps/users/lcz> was used as the home directory.
</apps/users/lcz/exe9/task4/orca/benzene> was used as the working directory.
Started at 2022-04-24 16:56:24
Results reported at 2022-04-24 16:56:36

Your job looked like:

------------------------------------------------------------
# User input
#!/bin/bash
#BSUB -J intel
#BSUB -o ben-cas66-ccpvtz.out
#BSUB -n 8
#BSUB -q cqueue
#BSUB -R span[hosts=1]
export LD_LIBRARY_PATH=/apps/software/openmpi-4.1.1/lib:/apps/software/orca_5_0_0:$LD_LIBRARY_PATH
export PATH=/apps/software/openmpi-4.1.1/bin:/apps/software/orca_5_0_0:$PATH
/apps/software/orca_5_0_0/orca ben-cas66-ccpvtz.inp >& ben-cas66-ccpvtz.out
------------------------------------------------------------

Successfully completed.

Resource usage summary:

    CPU time   :           50.57 sec.
    Max Memory :              2030 MB
    Max Processes  :              13


The output (if any) follows:

