 Entering Gaussian System, Link 0=/apps/software/g16/g16
 Initial command:
 /apps/software/g16/l1.exe "/scratch/Gau-397002.inp" -scrdir="/scratch/"
 Entering Link 1 = /apps/software/g16/l1.exe PID=    397003.
  
 Copyright (c) 1988,1990,1992,1993,1995,1998,2003,2009,2016,
            Gaussian, Inc.  All Rights Reserved.
  
 This is part of the Gaussian(R) 16 program.  It is based on
 the Gaussian(R) 09 system (copyright 2009, Gaussian, Inc.),
 the Gaussian(R) 03 system (copyright 2003, Gaussian, Inc.),
 the Gaussian(R) 98 system (copyright 1998, Gaussian, Inc.),
 the Gaussian(R) 94 system (copyright 1995, Gaussian, Inc.),
 the Gaussian 92(TM) system (copyright 1992, Gaussian, Inc.),
 the Gaussian 90(TM) system (copyright 1990, Gaussian, Inc.),
 the Gaussian 88(TM) system (copyright 1988, Gaussian, Inc.),
 the Gaussian 86(TM) system (copyright 1986, Carnegie Mellon
 University), and the Gaussian 82(TM) system (copyright 1983,
 Carnegie Mellon University). Gaussian is a federally registered
 trademark of Gaussian, Inc.
  
 This software contains proprietary and confidential information,
 including trade secrets, belonging to Gaussian, Inc.
  
 This software is provided under written license and may be
 used, copied, transmitted, or stored only in accord with that
 written license.
  
 The following legend is applicable only to US Government
 contracts under FAR:
  
                    RESTRICTED RIGHTS LEGEND
  
 Use, reproduction and disclosure by the US Government is
 subject to restrictions as set forth in subparagraphs (a)
 and (c) of the Commercial Computer Software - Restricted
 Rights clause in FAR 52.227-19.
  
 Gaussian, Inc.
 340 Quinnipiac St., Bldg. 40, Wallingford CT 06492
  
  
 ---------------------------------------------------------------
 Warning -- This program may not be used in any manner that
 competes with the business of Gaussian, Inc. or will provide
 assistance to any competitor of Gaussian, Inc.  The licensee
 of this program is prohibited from giving any competitor of
 Gaussian, Inc. access to this program.  By using this program,
 the user acknowledges that Gaussian, Inc. is engaged in the
 business of creating and licensing software in the field of
 computational chemistry and represents and warrants to the
 licensee that it is not a competitor of Gaussian, Inc. and that
 it will not use this program in any manner prohibited above.
 ---------------------------------------------------------------
  

 Cite this work as:
 Gaussian 16, Revision A.03,
 M. J. Frisch, G. W. Trucks, H. B. Schlegel, G. E. Scuseria, 
 M. A. Robb, J. R. Cheeseman, G. Scalmani, V. Barone, 
 G. A. Petersson, H. Nakatsuji, X. Li, M. Caricato, A. V. Marenich, 
 J. Bloino, B. G. Janesko, R. Gomperts, B. Mennucci, H. P. Hratchian, 
 J. V. Ortiz, A. F. Izmaylov, J. L. Sonnenberg, D. Williams-Young, 
 F. Ding, F. Lipparini, F. Egidi, J. Goings, B. Peng, A. Petrone, 
 T. Henderson, D. Ranasinghe, V. G. Zakrzewski, J. Gao, N. Rega, 
 G. Zheng, W. Liang, M. Hada, M. Ehara, K. Toyota, R. Fukuda, 
 J. Hasegawa, M. Ishida, T. Nakajima, Y. Honda, O. Kitao, H. Nakai, 
 T. Vreven, K. Throssell, J. A. Montgomery, Jr., J. E. Peralta, 
 F. Ogliaro, M. J. Bearpark, J. J. Heyd, E. N. Brothers, K. N. Kudin, 
 V. N. Staroverov, T. A. Keith, R. Kobayashi, J. Normand, 
 K. Raghavachari, A. P. Rendell, J. C. Burant, S. S. Iyengar, 
 J. Tomasi, M. Cossi, J. M. Millam, M. Klene, C. Adamo, R. Cammi, 
 J. W. Ochterski, R. L. Martin, K. Morokuma, O. Farkas, 
 J. B. Foresman, and D. J. Fox, Gaussian, Inc., Wallingford CT, 2016.
 
 ******************************************
 Gaussian 16:  ES64L-G16RevA.03 25-Dec-2016
                 4-May-2022 
 ******************************************
 %nproc=8
 Will use up to    8 processors via shared memory.
 %mem=20GB
 %chk=27-dicl-dibenzene.chk
 ---------------
 #p BLYP/cc-pVDZ
 ---------------
 1/38=1,172=1/1;
 2/12=2,17=6,18=5,40=1/2;
 3/5=16,11=2,25=1,30=1,74=402/1,2,3;
 4//1;
 5/5=2,38=5/2;
 6/7=2,8=2,9=2,10=2,28=1/1;
 99/5=1,9=1/99;
 Leave Link    1 at Wed May  4 12:32:18 2022, MaxMem=  2684354560 cpu:               0.1 elap:               0.0
 (Enter /apps/software/g16/l101.exe)
 --------------------------------------
 2,7-dicl-dibenzene SP RKS BLYP cc-pVDZ
 --------------------------------------
 Symbolic Z-matrix:
 Charge =  0 Multiplicity = 1
 C                    -0.84533   0.95631   0.86696 
 C                     0.46297   0.89055   0.41154 
 C                     1.06498   2.05042  -0.04873 
 C                     0.38682   3.25826  -0.05958 
 C                    -0.92917   3.32496   0.39786 
 C                    -1.53692   2.15807   0.86178 
 H                    -1.33178   0.05786   1.22288 
 H                     1.00912  -0.04138   0.41174 
 H                     0.89341   4.14653  -0.40662 
 H                    -2.5626    2.18503   1.20271 
 C                    -1.66709   4.62323   0.38663 
 C                    -2.42162   5.01473   1.4925 
 C                    -1.61923   5.46623  -0.7239 
 C                    -3.10577   6.21909   1.47479 
 H                    -2.46369   4.39499   2.37582 
 C                    -2.30902   6.66904  -0.72695 
 H                    -1.05556   5.17208  -1.59839 
 C                    -3.05942   7.05752   0.37275 
 H                    -2.26866   7.30949  -1.598 
 H                    -3.60008   7.99262   0.37887 
 Cl                    2.70998   1.99495  -0.61717 
 Cl                   -4.03388   6.68924   2.87111 
 
 ITRead=  0  0  0  0  0  0  0  0  0  0  0  0  0  0  0  0  0  0  0  0
 ITRead=  0  0
 MicOpt= -1 -1 -1 -1 -1 -1 -1 -1 -1 -1 -1 -1 -1 -1 -1 -1 -1 -1 -1 -1
 MicOpt= -1 -1
 NAtoms=     22 NQM=       22 NQMF=       0 NMMI=      0 NMMIF=      0
                NMic=       0 NMicF=      0.
                    Isotopes and Nuclear Properties:
 (Nuclear quadrupole moments (NQMom) in fm**2, nuclear magnetic moments (NMagM)
  in nuclear magnetons)

  Atom         1           2           3           4           5           6           7           8           9          10
 IAtWgt=          12          12          12          12          12          12           1           1           1           1
 AtmWgt=  12.0000000  12.0000000  12.0000000  12.0000000  12.0000000  12.0000000   1.0078250   1.0078250   1.0078250   1.0078250
 NucSpn=           0           0           0           0           0           0           1           1           1           1
 AtZEff=  -0.0000000  -0.0000000  -0.0000000  -0.0000000  -0.0000000  -0.0000000  -0.0000000  -0.0000000  -0.0000000  -0.0000000
 NQMom=    0.0000000   0.0000000   0.0000000   0.0000000   0.0000000   0.0000000   0.0000000   0.0000000   0.0000000   0.0000000
 NMagM=    0.0000000   0.0000000   0.0000000   0.0000000   0.0000000   0.0000000   2.7928460   2.7928460   2.7928460   2.7928460
 AtZNuc=   6.0000000   6.0000000   6.0000000   6.0000000   6.0000000   6.0000000   1.0000000   1.0000000   1.0000000   1.0000000

  Atom        11          12          13          14          15          16          17          18          19          20
 IAtWgt=          12          12          12          12           1          12           1          12           1           1
 AtmWgt=  12.0000000  12.0000000  12.0000000  12.0000000   1.0078250  12.0000000   1.0078250  12.0000000   1.0078250   1.0078250
 NucSpn=           0           0           0           0           1           0           1           0           1           1
 AtZEff=  -0.0000000  -0.0000000  -0.0000000  -0.0000000  -0.0000000  -0.0000000  -0.0000000  -0.0000000  -0.0000000  -0.0000000
 NQMom=    0.0000000   0.0000000   0.0000000   0.0000000   0.0000000   0.0000000   0.0000000   0.0000000   0.0000000   0.0000000
 NMagM=    0.0000000   0.0000000   0.0000000   0.0000000   2.7928460   0.0000000   2.7928460   0.0000000   2.7928460   2.7928460
 AtZNuc=   6.0000000   6.0000000   6.0000000   6.0000000   1.0000000   6.0000000   1.0000000   6.0000000   1.0000000   1.0000000

  Atom        21          22
 IAtWgt=          35          35
 AtmWgt=  34.9688527  34.9688527
 NucSpn=           3           3
 AtZEff=  -0.0000000  -0.0000000
 NQMom=   -8.1650000  -8.1650000
 NMagM=    0.8218740   0.8218740
 AtZNuc=  17.0000000  17.0000000
 Leave Link  101 at Wed May  4 12:32:18 2022, MaxMem=  2684354560 cpu:               0.6 elap:               0.1
 (Enter /apps/software/g16/l202.exe)
                          Input orientation:                          
 ---------------------------------------------------------------------
 Center     Atomic      Atomic             Coordinates (Angstroms)
 Number     Number       Type             X           Y           Z
 ---------------------------------------------------------------------
      1          6           0       -0.845332    0.956312    0.866957
      2          6           0        0.462969    0.890551    0.411537
      3          6           0        1.064982    2.050417   -0.048726
      4          6           0        0.386824    3.258257   -0.059576
      5          6           0       -0.929166    3.324964    0.397861
      6          6           0       -1.536919    2.158069    0.861784
      7          1           0       -1.331778    0.057862    1.222883
      8          1           0        1.009116   -0.041378    0.411742
      9          1           0        0.893409    4.146528   -0.406619
     10          1           0       -2.562605    2.185035    1.202711
     11          6           0       -1.667093    4.623227    0.386628
     12          6           0       -2.421619    5.014734    1.492501
     13          6           0       -1.619232    5.466235   -0.723897
     14          6           0       -3.105772    6.219089    1.474794
     15          1           0       -2.463692    4.394991    2.375818
     16          6           0       -2.309019    6.669044   -0.726948
     17          1           0       -1.055558    5.172084   -1.598386
     18          6           0       -3.059416    7.057516    0.372751
     19          1           0       -2.268658    7.309487   -1.598001
     20          1           0       -3.600078    7.992619    0.378873
     21         17           0        2.709979    1.994952   -0.617168
     22         17           0       -4.033878    6.689235    2.871108
 ---------------------------------------------------------------------
                    Distance matrix (angstroms):
                    1          2          3          4          5
     1  C    0.000000
     2  C    1.386861   0.000000
     3  C    2.384291   1.385479   0.000000
     4  C    2.770492   2.415322   1.385242   0.000000
     5  C    2.416111   2.804389   2.408431   1.394822   0.000000
     6  C    1.386556   2.410161   2.758715   2.400022   1.395074
     7  H    1.081909   2.138404   3.366263   3.852379   3.393629
     8  H    2.154434   1.080171   2.142606   3.390720   3.884507
     9  H    3.850025   3.384677   2.133355   1.079857   2.154979
    10  H    2.138110   3.384633   3.839740   3.382943   2.148335
    11  C    3.788440   4.297750   3.777979   2.506156   1.493368
    12  C    4.398497   5.147641   4.828969   3.658073   2.506186
    13  C    4.844496   5.153800   4.396438   3.056263   2.513876
    14  C    5.759850   6.500749   6.090495   4.828979   3.778009
    15  H    4.089042   4.970396   4.881289   3.917748   2.722506
    16  C    6.108864   6.509305   5.759825   4.398457   3.788411
    17  H    4.888236   4.967619   4.079576   2.848005   2.722651
    18  C    6.509309   7.102123   6.500719   5.147605   4.297736
    19  H    6.961660   7.259668   6.416481   5.082401   4.653399
    20  H    7.572085   8.182224   7.566729   6.204982   5.377837
    21  Cl   3.990192   2.706841   1.741326   2.702573   4.005321
    22  Cl   6.859290   7.739242   7.486150   6.316892   5.203317
                    6          7          8          9         10
     6  C    0.000000
     7  H    2.140875   0.000000
     8  H    3.394466   2.479432   0.000000
     9  H    3.386637   4.931929   4.268683   0.000000
    10  H    1.081198   2.457683   4.282492   4.287357   0.000000
    11  C    2.513906   4.653421   5.377850   2.722620   2.722630
    12  C    3.056310   5.082423   6.205018   3.917888   2.847991
    13  C    3.669485   5.755266   6.207390   2.855811   3.920209
    14  C    4.396472   6.416481   7.566758   4.881462   4.079541
    15  H    2.855701   4.628302   5.966519   4.367358   2.503971
    16  C    4.844492   6.961651   7.572081   4.089163   4.888173
    17  H    3.920259   5.847318   5.956818   2.504106   4.363462
    18  C    5.153808   7.259657   8.182223   4.970523   4.967568
    19  H    5.755267   7.837168   8.295667   4.628432   5.847256
    20  H    6.207399   8.295657   9.262336   5.966645   5.956769
    21  Cl   4.500005   4.844987   2.845738   2.823745   5.581059
    22  Cl   5.550104   7.348000   8.762501   6.441042   5.023546
                   11         12         13         14         15
    11  C    0.000000
    12  C    1.394827   0.000000
    13  C    1.395069   2.400020   0.000000
    14  C    2.408459   1.385226   2.758773   0.000000
    15  H    2.154887   1.079861   3.386577   2.133411   0.000000
    16  C    2.416089   2.770447   1.386567   2.384312   3.849987
    17  H    2.148372   3.382967   1.081196   3.839796   4.287308
    18  C    2.804375   2.415282   2.410175   1.385499   3.384702
    19  H    3.393615   3.852336   2.140886   3.366273   4.931892
    20  H    3.884494   3.390684   3.394477   2.142613   4.268734
    21  Cl   5.203287   6.316888   5.550069   7.486160   6.440886
    22  Cl   4.005334   2.702572   4.500034   1.741297   2.823890
                   16         17         18         19         20
    16  C    0.000000
    17  H    2.138097   0.000000
    18  C    1.386846   3.384624   0.000000
    19  H    1.081910   2.457663   2.138375   0.000000
    20  H    2.154420   4.282471   1.080172   2.479391   0.000000
    21  Cl   6.859267   5.023567   7.739213   7.348003   8.762473
    22  Cl   3.990182   5.581086   2.706843   4.844961   2.845739
                   21         22
    21  Cl   0.000000
    22  Cl   8.926588   0.000000
 Stoichiometry    C12H8Cl2
 Framework group  C1[X(C12H8Cl2)]
 Deg. of freedom    60
 Full point group                 C1      NOp   1
 Largest Abelian subgroup         C1      NOp   1
 Largest concise Abelian subgroup C1      NOp   1
                         Standard orientation:                         
 ---------------------------------------------------------------------
 Center     Atomic      Atomic             Coordinates (Angstroms)
 Number     Number       Type             X           Y           Z
 ---------------------------------------------------------------------
      1          6           0        2.244851    2.071295    0.751392
      2          6           0        3.304207    1.300888    0.295737
      3          6           0        3.045185    0.017738   -0.158120
      4          6           0        1.759769   -0.498571   -0.162997
      5          6           0        0.693974    0.275570    0.295604
      6          6           0        0.952908    1.567889    0.752876
      7          1           0        2.431824    3.072719    1.115696
      8          1           0        4.313802    1.684902    0.291253
      9          1           0        1.591308   -1.495485   -0.542306
     10          1           0        0.143223    2.177007    1.130202
     11          6           0       -0.693966   -0.275587    0.295567
     12          6           0       -1.759785    0.498546   -0.163005
     13          6           0       -0.952881   -1.567887    0.752886
     14          6           0       -3.045206   -0.017708   -0.158130
     15          1           0       -1.591168    1.495446   -0.542292
     16          6           0       -2.244844   -2.071272    0.751396
     17          1           0       -0.143236   -2.177042    1.130233
     18          6           0       -3.304192   -1.300884    0.295735
     19          1           0       -2.431844   -3.072681    1.115730
     20          1           0       -4.313786   -1.684904    0.291264
     21         17           0        4.357579   -0.965630   -0.743634
     22         17           0       -4.357593    0.965627   -0.743627
 ---------------------------------------------------------------------
 Rotational constants (GHZ):           1.2933316           0.2325301           0.2096841
 Leave Link  202 at Wed May  4 12:32:18 2022, MaxMem=  2684354560 cpu:               0.1 elap:               0.0
 (Enter /apps/software/g16/l301.exe)
 Standard basis: CC-pVDZ (5D, 7F)
 Ernie: Thresh=  0.10000D-02 Tol=  0.10000D-05 Strict=F.
 Ernie:  44 primitive shells out of 404 were deleted.
 There are   258 symmetry adapted cartesian basis functions of A   symmetry.
 There are   244 symmetry adapted basis functions of A   symmetry.
   244 basis functions,   594 primitive gaussians,   258 cartesian basis functions
    57 alpha electrons       57 beta electrons
       nuclear repulsion energy       944.8190688836 Hartrees.
 IExCor=  402 DFT=T Ex=B Corr=LYP ExCW=0 ScaHFX=  0.000000
 ScaDFX=  1.000000  1.000000  1.000000  1.000000 ScalE2=  1.000000  1.000000
 IRadAn=      5 IRanWt=     -1 IRanGd=            0 ICorTp=0 IEmpDi=  4
 NAtoms=   22 NActive=   22 NUniq=   22 SFac= 1.00D+00 NAtFMM=   60 NAOKFM=F Big=F
 Integral buffers will be    131072 words long.
 Raffenetti 2 integral format.
 Two-electron integral symmetry is turned on.
 Leave Link  301 at Wed May  4 12:32:19 2022, MaxMem=  2684354560 cpu:               0.4 elap:               0.1
 (Enter /apps/software/g16/l302.exe)
 NPDir=0 NMtPBC=     1 NCelOv=     1 NCel=       1 NClECP=     1 NCelD=      1
         NCelK=      1 NCelE2=     1 NClLst=     1 CellRange=     0.0.
 One-electron integrals computed using PRISM.
 One-electron integral symmetry used in STVInt
 NBasis=   244 RedAO= T EigKep=  2.96D-04  NBF=   244
 NBsUse=   244 1.00D-06 EigRej= -1.00D+00 NBFU=   244
 Precomputing XC quadrature grid using
 IXCGrd= 4 IRadAn=           5 IRanWt=          -1 IRanGd=           0 AccXCQ= 0.00D+00.
 Generated NRdTot=       0 NPtTot=           0 NUsed=           0 NTot=          32
 NSgBfM=   256   256   256   256   256 MxSgAt=    22 MxSgA2=    22.
 Leave Link  302 at Wed May  4 12:32:19 2022, MaxMem=  2684354560 cpu:               1.5 elap:               0.2
 (Enter /apps/software/g16/l303.exe)
 DipDrv:  MaxL=1.
 Leave Link  303 at Wed May  4 12:32:19 2022, MaxMem=  2684354560 cpu:               0.3 elap:               0.1
 (Enter /apps/software/g16/l401.exe)
 ExpMin= 1.22D-01 ExpMax= 1.28D+05 ExpMxC= 1.24D+03 IAcc=3 IRadAn=         5 AccDes= 0.00D+00
 Harris functional with IExCor=  402 and IRadAn=       5 diagonalized for initial guess.
 HarFok:  IExCor=  402 AccDes= 0.00D+00 IRadAn=         5 IDoV= 1 UseB2=F ITyADJ=14
 ICtDFT=  3500011 ScaDFX=  1.000000  1.000000  1.000000  1.000000
 FoFCou: FMM=F IPFlag=           0 FMFlag=      100000 FMFlg1=           0
         NFxFlg=           0 DoJE=T BraDBF=F KetDBF=T FulRan=T
         wScrn=  0.000000 ICntrl=       500 IOpCl=  0 I1Cent=   200000004 NGrid=           0
         NMat0=    1 NMatS0=      1 NMatT0=    0 NMatD0=    1 NMtDS0=    0 NMtDT0=    0
 Petite list used in FoFCou.
 Harris En= -1382.42024530643    
 JPrj=0 DoOrth=F DoCkMO=F.
 Leave Link  401 at Wed May  4 12:32:20 2022, MaxMem=  2684354560 cpu:               6.3 elap:               0.8
 (Enter /apps/software/g16/l502.exe)
 Integral symmetry usage will be decided dynamically.
 Closed shell SCF:
 Using DIIS extrapolation, IDIIS=  1040.
 NGot=  2684354560 LenX=  2684216654 LenY=  2684149649
 Requested convergence on RMS density matrix=1.00D-08 within 128 cycles.
 Requested convergence on MAX density matrix=1.00D-06.
 Requested convergence on             energy=1.00D-06.
 No special actions if energy rises.
 Fock matrices will be formed incrementally for  20 cycles.
 Integral accuracy reduced to 1.0D-05 until final iterations.

 Cycle   1  Pass 0  IDiag  1:
 FoFJK:  IHMeth= 1 ICntrl=     500 DoSepK=F KAlg= 0 I1Cent=           0 FoldK=F
 IRaf= 890000000 NMat=       1 IRICut=       1 DoRegI=T DoRafI=F ISym2E= 0 IDoP0=0 IntGTp=1.
 FoFCou: FMM=F IPFlag=           0 FMFlag=      100000 FMFlg1=           0
         NFxFlg=           0 DoJE=T BraDBF=F KetDBF=F FulRan=T
         wScrn=  0.000000 ICntrl=       500 IOpCl=  0 I1Cent=           0 NGrid=           0
         NMat0=    1 NMatS0=      1 NMatT0=    0 NMatD0=    1 NMtDS0=    0 NMtDT0=    0
 Symmetry not used in FoFCou.
 E= -1382.00659545067    
 DIIS: error= 3.26D-02 at cycle   1 NSaved=   1.
 NSaved= 1 IEnMin= 1 EnMin= -1382.00659545067     IErMin= 1 ErrMin= 3.26D-02
 ErrMax= 3.26D-02  0.00D+00 EMaxC= 1.00D-01 BMatC= 2.53D-01 BMatP= 2.53D-01
 IDIUse=3 WtCom= 6.74D-01 WtEn= 3.26D-01
 Coeff-Com:  0.100D+01
 Coeff-En:   0.100D+01
 Coeff:      0.100D+01
 Gap=     0.320 Goal=   None    Shift=    0.000
 GapD=    0.320 DampG=1.000 DampE=0.500 DampFc=0.5000 IDamp=-1.
 Damping current iteration by 5.00D-01
 RMSDP=7.23D-03 MaxDP=1.33D-01              OVMax= 2.62D-01

 Cycle   2  Pass 0  IDiag  1:
 RMSU=  3.57D-03    CP:  9.78D-01
 E= -1382.06948181771     Delta-E=       -0.062886367040 Rises=F Damp=T
 DIIS: error= 7.38D-03 at cycle   2 NSaved=   2.
 NSaved= 2 IEnMin= 2 EnMin= -1382.06948181771     IErMin= 2 ErrMin= 7.38D-03
 ErrMax= 7.38D-03  0.00D+00 EMaxC= 1.00D-01 BMatC= 3.75D-02 BMatP= 2.53D-01
 IDIUse=3 WtCom= 9.26D-01 WtEn= 7.38D-02
 Coeff-Com:  0.249D+00 0.751D+00
 Coeff-En:   0.406D+00 0.594D+00
 Coeff:      0.260D+00 0.740D+00
 Gap=     0.230 Goal=   None    Shift=    0.000
 RMSDP=2.20D-03 MaxDP=4.55D-02 DE=-6.29D-02 OVMax= 2.69D-01

 Cycle   3  Pass 0  IDiag  1:
 RMSU=  1.67D-03    CP:  9.73D-01  6.01D-01
 E= -1382.29643230042     Delta-E=       -0.226950482716 Rises=F Damp=F
 DIIS: error= 8.58D-03 at cycle   3 NSaved=   3.
 NSaved= 3 IEnMin= 3 EnMin= -1382.29643230042     IErMin= 2 ErrMin= 7.38D-03
 ErrMax= 8.58D-03  0.00D+00 EMaxC= 1.00D-01 BMatC= 1.69D-02 BMatP= 3.75D-02
 IDIUse=3 WtCom= 9.14D-01 WtEn= 8.58D-02
 Coeff-Com:  0.121D+00 0.440D+00 0.439D+00
 Coeff-En:   0.000D+00 0.000D+00 0.100D+01
 Coeff:      0.111D+00 0.402D+00 0.487D+00
 Gap=     0.149 Goal=   None    Shift=    0.000
 RMSDP=1.09D-03 MaxDP=3.12D-02 DE=-2.27D-01 OVMax= 8.12D-02

 Cycle   4  Pass 0  IDiag  1:
 RMSU=  8.54D-04    CP:  9.76D-01  6.52D-01  6.11D-01
 E= -1382.30449582168     Delta-E=       -0.008063521258 Rises=F Damp=F
 DIIS: error= 6.46D-03 at cycle   4 NSaved=   4.
 NSaved= 4 IEnMin= 4 EnMin= -1382.30449582168     IErMin= 4 ErrMin= 6.46D-03
 ErrMax= 6.46D-03  0.00D+00 EMaxC= 1.00D-01 BMatC= 1.11D-02 BMatP= 1.69D-02
 IDIUse=3 WtCom= 9.35D-01 WtEn= 6.46D-02
 Coeff-Com:  0.331D-01 0.159D+00 0.404D+00 0.403D+00
 Coeff-En:   0.000D+00 0.000D+00 0.411D+00 0.589D+00
 Coeff:      0.310D-01 0.149D+00 0.405D+00 0.415D+00
 Gap=     0.147 Goal=   None    Shift=    0.000
 RMSDP=5.16D-04 MaxDP=1.34D-02 DE=-8.06D-03 OVMax= 3.99D-02

 Cycle   5  Pass 0  IDiag  1:
 RMSU=  2.06D-04    CP:  9.75D-01  6.49D-01  7.33D-01  5.00D-01
 E= -1382.31680710427     Delta-E=       -0.012311282585 Rises=F Damp=F
 DIIS: error= 1.27D-03 at cycle   5 NSaved=   5.
 NSaved= 5 IEnMin= 5 EnMin= -1382.31680710427     IErMin= 5 ErrMin= 1.27D-03
 ErrMax= 1.27D-03  0.00D+00 EMaxC= 1.00D-01 BMatC= 2.85D-04 BMatP= 1.11D-02
 IDIUse=3 WtCom= 9.87D-01 WtEn= 1.27D-02
 Coeff-Com:  0.706D-02 0.428D-01 0.173D+00 0.223D+00 0.554D+00
 Coeff-En:   0.000D+00 0.000D+00 0.000D+00 0.000D+00 0.100D+01
 Coeff:      0.697D-02 0.423D-01 0.171D+00 0.220D+00 0.560D+00
 Gap=     0.147 Goal=   None    Shift=    0.000
 RMSDP=1.37D-04 MaxDP=3.01D-03 DE=-1.23D-02 OVMax= 1.03D-02

 Cycle   6  Pass 0  IDiag  1:
 RMSU=  1.07D-04    CP:  9.75D-01  6.51D-01  7.35D-01  5.24D-01  6.04D-01
 E= -1382.31694449772     Delta-E=       -0.000137393452 Rises=F Damp=F
 DIIS: error= 1.00D-03 at cycle   6 NSaved=   6.
 NSaved= 6 IEnMin= 6 EnMin= -1382.31694449772     IErMin= 6 ErrMin= 1.00D-03
 ErrMax= 1.00D-03  0.00D+00 EMaxC= 1.00D-01 BMatC= 1.68D-04 BMatP= 2.85D-04
 IDIUse=3 WtCom= 9.90D-01 WtEn= 1.00D-02
 Coeff-Com:  0.888D-04 0.822D-02 0.692D-01 0.107D+00 0.446D+00 0.369D+00
 Coeff-En:   0.000D+00 0.000D+00 0.000D+00 0.000D+00 0.399D+00 0.601D+00
 Coeff:      0.879D-04 0.814D-02 0.685D-01 0.106D+00 0.445D+00 0.372D+00
 Gap=     0.146 Goal=   None    Shift=    0.000
 RMSDP=6.74D-05 MaxDP=1.52D-03 DE=-1.37D-04 OVMax= 5.39D-03

 Cycle   7  Pass 0  IDiag  1:
 RMSU=  2.90D-05    CP:  9.75D-01  6.49D-01  7.39D-01  5.28D-01  6.77D-01
                    CP:  4.55D-01
 E= -1382.31714711233     Delta-E=       -0.000202614614 Rises=F Damp=F
 DIIS: error= 9.79D-05 at cycle   7 NSaved=   7.
 NSaved= 7 IEnMin= 7 EnMin= -1382.31714711233     IErMin= 7 ErrMin= 9.79D-05
 ErrMax= 9.79D-05  0.00D+00 EMaxC= 1.00D-01 BMatC= 4.23D-06 BMatP= 1.68D-04
 IDIUse=1 WtCom= 1.00D+00 WtEn= 0.00D+00
 Coeff-Com: -0.504D-03 0.134D-02 0.243D-01 0.411D-01 0.205D+00 0.208D+00
 Coeff-Com:  0.521D+00
 Coeff:     -0.504D-03 0.134D-02 0.243D-01 0.411D-01 0.205D+00 0.208D+00
 Coeff:      0.521D+00
 Gap=     0.146 Goal=   None    Shift=    0.000
 RMSDP=1.25D-05 MaxDP=4.60D-04 DE=-2.03D-04 OVMax= 5.86D-04

 Cycle   8  Pass 0  IDiag  1:
 RMSU=  4.62D-06    CP:  9.75D-01  6.50D-01  7.38D-01  5.28D-01  6.93D-01
                    CP:  4.71D-01  6.31D-01
 E= -1382.31715280741     Delta-E=       -0.000005695074 Rises=F Damp=F
 DIIS: error= 2.76D-05 at cycle   8 NSaved=   8.
 NSaved= 8 IEnMin= 8 EnMin= -1382.31715280741     IErMin= 8 ErrMin= 2.76D-05
 ErrMax= 2.76D-05  0.00D+00 EMaxC= 1.00D-01 BMatC= 1.99D-07 BMatP= 4.23D-06
 IDIUse=1 WtCom= 1.00D+00 WtEn= 0.00D+00
 Coeff-Com: -0.205D-03 0.858D-04 0.764D-02 0.135D-01 0.731D-01 0.805D-01
 Coeff-Com:  0.256D+00 0.569D+00
 Coeff:     -0.205D-03 0.858D-04 0.764D-02 0.135D-01 0.731D-01 0.805D-01
 Coeff:      0.256D+00 0.569D+00
 Gap=     0.146 Goal=   None    Shift=    0.000
 RMSDP=2.66D-06 MaxDP=9.12D-05 DE=-5.70D-06 OVMax= 1.40D-04

 Initial convergence to 1.0D-05 achieved.  Increase integral accuracy.
 Cycle   9  Pass 1  IDiag  1:
 E= -1382.31710524387     Delta-E=        0.000047563541 Rises=F Damp=F
 DIIS: error= 1.35D-04 at cycle   1 NSaved=   1.
 NSaved= 1 IEnMin= 1 EnMin= -1382.31710524387     IErMin= 1 ErrMin= 1.35D-04
 ErrMax= 1.35D-04  0.00D+00 EMaxC= 1.00D-01 BMatC= 1.14D-06 BMatP= 1.14D-06
 IDIUse=3 WtCom= 9.99D-01 WtEn= 1.35D-03
 Coeff-Com:  0.100D+01
 Coeff-En:   0.100D+01
 Coeff:      0.100D+01
 Gap=     0.146 Goal=   None    Shift=    0.000
 RMSDP=2.66D-06 MaxDP=9.12D-05 DE= 4.76D-05 OVMax= 2.34D-04

 Cycle  10  Pass 1  IDiag  1:
 RMSU=  1.14D-04    CP:  1.00D+00
 E= -1382.31710622165     Delta-E=       -0.000000977788 Rises=F Damp=F
 DIIS: error= 2.20D-05 at cycle   2 NSaved=   2.
 NSaved= 2 IEnMin= 2 EnMin= -1382.31710622165     IErMin= 2 ErrMin= 2.20D-05
 ErrMax= 2.20D-05  0.00D+00 EMaxC= 1.00D-01 BMatC= 1.92D-07 BMatP= 1.14D-06
 IDIUse=1 WtCom= 1.00D+00 WtEn= 0.00D+00
 Coeff-Com:  0.191D+00 0.809D+00
 Coeff:      0.191D+00 0.809D+00
 Gap=     0.146 Goal=   None    Shift=    0.000
 RMSDP=4.55D-06 MaxDP=1.40D-04 DE=-9.78D-07 OVMax= 2.94D-04

 Cycle  11  Pass 1  IDiag  1:
 RMSU=  4.55D-06    CP:  1.00D+00  9.99D-01
 E= -1382.31710599502     Delta-E=        0.000000226634 Rises=F Damp=F
 DIIS: error= 3.29D-05 at cycle   3 NSaved=   3.
 NSaved= 3 IEnMin= 2 EnMin= -1382.31710622165     IErMin= 2 ErrMin= 2.20D-05
 ErrMax= 3.29D-05  0.00D+00 EMaxC= 1.00D-01 BMatC= 3.97D-07 BMatP= 1.92D-07
 IDIUse=1 WtCom= 1.00D+00 WtEn= 0.00D+00
 Coeff-Com:  0.423D-02 0.589D+00 0.407D+00
 Coeff:      0.423D-02 0.589D+00 0.407D+00
 Gap=     0.146 Goal=   None    Shift=    0.000
 RMSDP=2.79D-06 MaxDP=8.49D-05 DE= 2.27D-07 OVMax= 1.99D-04

 Cycle  12  Pass 1  IDiag  1:
 RMSU=  5.95D-07    CP:  1.00D+00  1.00D+00  4.02D-01
 E= -1382.31710641735     Delta-E=       -0.000000422328 Rises=F Damp=F
 DIIS: error= 6.01D-06 at cycle   4 NSaved=   4.
 NSaved= 4 IEnMin= 4 EnMin= -1382.31710641735     IErMin= 4 ErrMin= 6.01D-06
 ErrMax= 6.01D-06  0.00D+00 EMaxC= 1.00D-01 BMatC= 8.37D-09 BMatP= 1.92D-07
 IDIUse=1 WtCom= 1.00D+00 WtEn= 0.00D+00
 Coeff-Com:  0.413D-03 0.400D+00 0.283D+00 0.317D+00
 Coeff:      0.413D-03 0.400D+00 0.283D+00 0.317D+00
 Gap=     0.146 Goal=   None    Shift=    0.000
 RMSDP=4.53D-07 MaxDP=1.41D-05 DE=-4.22D-07 OVMax= 2.97D-05

 Cycle  13  Pass 1  IDiag  1:
 RMSU=  1.46D-07    CP:  1.00D+00  1.00D+00  4.16D-01  2.89D-01
 E= -1382.31710642640     Delta-E=       -0.000000009051 Rises=F Damp=F
 DIIS: error= 8.35D-07 at cycle   5 NSaved=   5.
 NSaved= 5 IEnMin= 5 EnMin= -1382.31710642640     IErMin= 5 ErrMin= 8.35D-07
 ErrMax= 8.35D-07  0.00D+00 EMaxC= 1.00D-01 BMatC= 2.55D-10 BMatP= 8.37D-09
 IDIUse=1 WtCom= 1.00D+00 WtEn= 0.00D+00
 Coeff-Com: -0.137D-04 0.213D+00 0.152D+00 0.203D+00 0.431D+00
 Coeff:     -0.137D-04 0.213D+00 0.152D+00 0.203D+00 0.431D+00
 Gap=     0.146 Goal=   None    Shift=    0.000
 RMSDP=9.47D-08 MaxDP=2.52D-06 DE=-9.05D-09 OVMax= 5.62D-06

 Cycle  14  Pass 1  IDiag  1:
 RMSU=  3.64D-08    CP:  1.00D+00  1.00D+00  4.12D-01  3.25D-01  4.38D-01
 E= -1382.31710642667     Delta-E=       -0.000000000267 Rises=F Damp=F
 DIIS: error= 2.78D-07 at cycle   6 NSaved=   6.
 NSaved= 6 IEnMin= 6 EnMin= -1382.31710642667     IErMin= 6 ErrMin= 2.78D-07
 ErrMax= 2.78D-07  0.00D+00 EMaxC= 1.00D-01 BMatC= 1.25D-11 BMatP= 2.55D-10
 IDIUse=1 WtCom= 1.00D+00 WtEn= 0.00D+00
 Coeff-Com: -0.174D-04 0.134D+00 0.960D-01 0.130D+00 0.299D+00 0.341D+00
 Coeff:     -0.174D-04 0.134D+00 0.960D-01 0.130D+00 0.299D+00 0.341D+00
 Gap=     0.146 Goal=   None    Shift=    0.000
 RMSDP=2.22D-08 MaxDP=5.38D-07 DE=-2.67D-10 OVMax= 1.63D-06

 Cycle  15  Pass 1  IDiag  1:
 RMSU=  1.33D-08    CP:  1.00D+00  1.00D+00  4.12D-01  3.27D-01  4.49D-01
                    CP:  5.23D-01
 E= -1382.31710642668     Delta-E=       -0.000000000019 Rises=F Damp=F
 DIIS: error= 8.21D-08 at cycle   7 NSaved=   7.
 NSaved= 7 IEnMin= 7 EnMin= -1382.31710642668     IErMin= 7 ErrMin= 8.21D-08
 ErrMax= 8.21D-08  0.00D+00 EMaxC= 1.00D-01 BMatC= 1.27D-12 BMatP= 1.25D-11
 IDIUse=1 WtCom= 1.00D+00 WtEn= 0.00D+00
 Coeff-Com: -0.107D-04 0.560D-01 0.401D-01 0.547D-01 0.133D+00 0.242D+00
 Coeff-Com:  0.474D+00
 Coeff:     -0.107D-04 0.560D-01 0.401D-01 0.547D-01 0.133D+00 0.242D+00
 Coeff:      0.474D+00
 Gap=     0.146 Goal=   None    Shift=    0.000
 RMSDP=6.41D-09 MaxDP=1.44D-07 DE=-1.91D-11 OVMax= 4.69D-07

 SCF Done:  E(RB-LYP) =  -1382.31710643     A.U. after   15 cycles
            NFock= 15  Conv=0.64D-08     -V/T= 2.0032
 KE= 1.377877340744D+03 PE=-5.148941369290D+03 EE= 1.443927853236D+03
 Leave Link  502 at Wed May  4 12:32:37 2022, MaxMem=  2684354560 cpu:             140.0 elap:              17.6
 (Enter /apps/software/g16/l601.exe)
 Copying SCF densities to generalized density rwf, IOpCl= 0 IROHF=0.

 **********************************************************************

            Population analysis using the SCF density.

 **********************************************************************

 Orbital symmetries:
       Occupied  (A) (A) (A) (A) (A) (A) (A) (A) (A) (A) (A) (A)
                 (A) (A) (A) (A) (A) (A) (A) (A) (A) (A) (A) (A)
                 (A) (A) (A) (A) (A) (A) (A) (A) (A) (A) (A) (A)
                 (A) (A) (A) (A) (A) (A) (A) (A) (A) (A) (A) (A)
                 (A) (A) (A) (A) (A) (A) (A) (A) (A)
       Virtual   (A) (A) (A) (A) (A) (A) (A) (A) (A) (A) (A) (A)
                 (A) (A) (A) (A) (A) (A) (A) (A) (A) (A) (A) (A)
                 (A) (A) (A) (A) (A) (A) (A) (A) (A) (A) (A) (A)
                 (A) (A) (A) (A) (A) (A) (A) (A) (A) (A) (A) (A)
                 (A) (A) (A) (A) (A) (A) (A) (A) (A) (A) (A) (A)
                 (A) (A) (A) (A) (A) (A) (A) (A) (A) (A) (A) (A)
                 (A) (A) (A) (A) (A) (A) (A) (A) (A) (A) (A) (A)
                 (A) (A) (A) (A) (A) (A) (A) (A) (A) (A) (A) (A)
                 (A) (A) (A) (A) (A) (A) (A) (A) (A) (A) (A) (A)
                 (A) (A) (A) (A) (A) (A) (A) (A) (A) (A) (A) (A)
                 (A) (A) (A) (A) (A) (A) (A) (A) (A) (A) (A) (A)
                 (A) (A) (A) (A) (A) (A) (A) (A) (A) (A) (A) (A)
                 (A) (A) (A) (A) (A) (A) (A) (A) (A) (A) (A) (A)
                 (A) (A) (A) (A) (A) (A) (A) (A) (A) (A) (A) (A)
                 (A) (A) (A) (A) (A) (A) (A) (A) (A) (A) (A) (A)
                 (A) (A) (A) (A) (A) (A) (A)
 The electronic state is 1-A.
 Alpha  occ. eigenvalues -- -100.74680-100.74679  -9.98386  -9.98386  -9.94784
 Alpha  occ. eigenvalues --   -9.94773  -9.93849  -9.93849  -9.93797  -9.93797
 Alpha  occ. eigenvalues --   -9.93784  -9.93784  -9.93398  -9.93398  -9.17733
 Alpha  occ. eigenvalues --   -9.17732  -7.01032  -7.01031  -6.99933  -6.99932
 Alpha  occ. eigenvalues --   -6.99871  -6.99871  -0.81707  -0.81048  -0.77261
 Alpha  occ. eigenvalues --   -0.75437  -0.70804  -0.67719  -0.66246  -0.65666
 Alpha  occ. eigenvalues --   -0.57628  -0.55898  -0.53623  -0.52221  -0.47856
 Alpha  occ. eigenvalues --   -0.45598  -0.43311  -0.42241  -0.41130  -0.40101
 Alpha  occ. eigenvalues --   -0.38682  -0.38444  -0.38234  -0.35697  -0.34966
 Alpha  occ. eigenvalues --   -0.33750  -0.32549  -0.31457  -0.30972  -0.29805
 Alpha  occ. eigenvalues --   -0.28733  -0.26714  -0.26458  -0.24943  -0.22395
 Alpha  occ. eigenvalues --   -0.21805  -0.20958
 Alpha virt. eigenvalues --   -0.06311  -0.04257  -0.04235  -0.01881   0.00394
 Alpha virt. eigenvalues --    0.00855   0.05337   0.05559   0.08015   0.08602
 Alpha virt. eigenvalues --    0.09049   0.10218   0.10311   0.11391   0.11874
 Alpha virt. eigenvalues --    0.13933   0.19900   0.20726   0.21862   0.23714
 Alpha virt. eigenvalues --    0.25634   0.25939   0.26520   0.29304   0.30328
 Alpha virt. eigenvalues --    0.33648   0.33730   0.36818   0.36876   0.41613
 Alpha virt. eigenvalues --    0.41665   0.41787   0.42273   0.43300   0.44115
 Alpha virt. eigenvalues --    0.44492   0.44927   0.45061   0.45492   0.46026
 Alpha virt. eigenvalues --    0.46579   0.46641   0.47240   0.47597   0.48027
 Alpha virt. eigenvalues --    0.48740   0.49674   0.49903   0.50491   0.51698
 Alpha virt. eigenvalues --    0.51954   0.53989   0.54830   0.55188   0.56173
 Alpha virt. eigenvalues --    0.56644   0.57770   0.59973   0.60243   0.60379
 Alpha virt. eigenvalues --    0.60778   0.61312   0.62628   0.63205   0.63329
 Alpha virt. eigenvalues --    0.66335   0.66541   0.67726   0.67983   0.68680
 Alpha virt. eigenvalues --    0.69845   0.70347   0.73425   0.74182   0.76298
 Alpha virt. eigenvalues --    0.78484   0.78735   0.82673   0.83357   0.83487
 Alpha virt. eigenvalues --    0.85339   0.87335   0.87563   0.87567   0.88830
 Alpha virt. eigenvalues --    0.90574   0.90861   0.93709   0.93951   0.96900
 Alpha virt. eigenvalues --    0.97015   0.97629   0.98223   0.99703   1.00463
 Alpha virt. eigenvalues --    1.01465   1.02165   1.02517   1.02885   1.05239
 Alpha virt. eigenvalues --    1.06624   1.07323   1.13963   1.16352   1.16516
 Alpha virt. eigenvalues --    1.17182   1.19026   1.19430   1.24752   1.26753
 Alpha virt. eigenvalues --    1.29872   1.34392   1.34769   1.37102   1.40875
 Alpha virt. eigenvalues --    1.41051   1.43622   1.44041   1.45762   1.45802
 Alpha virt. eigenvalues --    1.46455   1.48629   1.48891   1.54321   1.54682
 Alpha virt. eigenvalues --    1.56093   1.57386   1.57919   1.58764   1.59188
 Alpha virt. eigenvalues --    1.59877   1.60303   1.61979   1.62405   1.63830
 Alpha virt. eigenvalues --    1.64836   1.66928   1.68684   1.70449   1.70679
 Alpha virt. eigenvalues --    1.71929   1.74219   1.74347   1.76004   1.76977
 Alpha virt. eigenvalues --    1.79437   1.80272   1.80870   1.81710   1.82619
 Alpha virt. eigenvalues --    1.82778   1.84979   1.85715   1.86525   1.88161
 Alpha virt. eigenvalues --    1.92584   1.94621   1.96052   1.96195   2.01848
 Alpha virt. eigenvalues --    2.04330   2.05545   2.09392   2.14409   2.14752
 Alpha virt. eigenvalues --    2.15042   2.17429   2.27985   2.29186   2.33451
 Alpha virt. eigenvalues --    2.34048   2.35147   2.37253   2.44329   2.47036
 Alpha virt. eigenvalues --    2.48666   2.59489   2.61456   2.61967   2.64454
 Alpha virt. eigenvalues --    2.69049   2.71472   2.72289   2.80344   2.84812
 Alpha virt. eigenvalues --    3.32876   3.44868
          Condensed to atoms (all electrons):
               1          2          3          4          5          6
     1  C    4.778534   0.426803   0.062768  -0.105581   0.066853   0.419452
     2  C    0.426803   4.787024   0.385553   0.043157  -0.101986   0.041388
     3  C    0.062768   0.385553   5.193441   0.340504   0.073748  -0.106918
     4  C   -0.105581   0.043157   0.340504   4.932920   0.398016   0.009692
     5  C    0.066853  -0.101986   0.073748   0.398016   5.111622   0.415569
     6  C    0.419452   0.041388  -0.106918   0.009692   0.415569   4.893294
     7  H    0.367930  -0.054365   0.012045   0.001185   0.010749  -0.048277
     8  H   -0.056526   0.378756  -0.062093   0.015222  -0.001002   0.013412
     9  H   -0.001896   0.015505  -0.066397   0.376807  -0.051489   0.016780
    10  H   -0.059529   0.013443  -0.000882   0.016620  -0.050171   0.376569
    11  C    0.010790  -0.000045   0.012338  -0.091417   0.290266  -0.085164
    12  C    0.000311   0.000021  -0.000330   0.004912  -0.091406  -0.009845
    13  C   -0.000280   0.000024   0.000347  -0.009847  -0.085172   0.004946
    14  C   -0.000020   0.000001   0.000008  -0.000330   0.012343   0.000347
    15  H    0.000118  -0.000044  -0.000071   0.000379  -0.025468   0.005525
    16  C    0.000004   0.000001  -0.000020   0.000311   0.010787  -0.000280
    17  H   -0.000054  -0.000042   0.000134   0.005677  -0.025607   0.000271
    18  C    0.000001  -0.000000   0.000001   0.000021  -0.000046   0.000025
    19  H   -0.000000   0.000000  -0.000001   0.000003  -0.000516   0.000004
    20  H    0.000000  -0.000000   0.000000   0.000000   0.000025   0.000001
    21  Cl   0.007986  -0.082810   0.281941  -0.081965   0.007900   0.000074
    22  Cl  -0.000000   0.000000  -0.000000   0.000001  -0.000195  -0.000023
               7          8          9         10         11         12
     1  C    0.367930  -0.056526  -0.001896  -0.059529   0.010790   0.000311
     2  C   -0.054365   0.378756   0.015505   0.013443  -0.000045   0.000021
     3  C    0.012045  -0.062093  -0.066397  -0.000882   0.012338  -0.000330
     4  C    0.001185   0.015222   0.376807   0.016620  -0.091417   0.004912
     5  C    0.010749  -0.001002  -0.051489  -0.050171   0.290266  -0.091406
     6  C   -0.048277   0.013412   0.016780   0.376569  -0.085164  -0.009845
     7  H    0.803873  -0.019534   0.000096  -0.019331  -0.000516   0.000003
     8  H   -0.019534   0.797215  -0.000291  -0.000278   0.000025   0.000000
     9  H    0.000096  -0.000291   0.802798  -0.000212  -0.025458   0.000379
    10  H   -0.019331  -0.000278  -0.000212   0.812746  -0.025611   0.005678
    11  C   -0.000516   0.000025  -0.025458  -0.025611   5.111586   0.398065
    12  C    0.000003   0.000000   0.000379   0.005678   0.398065   4.932920
    13  C    0.000004   0.000001   0.005522   0.000271   0.415541   0.009696
    14  C   -0.000001   0.000000  -0.000070   0.000135   0.073751   0.340439
    15  H    0.000041  -0.000001   0.000018   0.001789  -0.051458   0.376805
    16  C   -0.000000   0.000000   0.000118  -0.000054   0.066850  -0.105583
    17  H    0.000001  -0.000001   0.001789  -0.000006  -0.050183   0.016618
    18  C    0.000000  -0.000000  -0.000044  -0.000042  -0.101981   0.043172
    19  H    0.000000  -0.000000   0.000041   0.000001   0.010749   0.001185
    20  H   -0.000000  -0.000000  -0.000001  -0.000001  -0.001003   0.015223
    21  Cl  -0.000268  -0.005859  -0.005607   0.000027  -0.000195   0.000001
    22  Cl   0.000000  -0.000000   0.000001   0.000011   0.007899  -0.081976
              13         14         15         16         17         18
     1  C   -0.000280  -0.000020   0.000118   0.000004  -0.000054   0.000001
     2  C    0.000024   0.000001  -0.000044   0.000001  -0.000042  -0.000000
     3  C    0.000347   0.000008  -0.000071  -0.000020   0.000134   0.000001
     4  C   -0.009847  -0.000330   0.000379   0.000311   0.005677   0.000021
     5  C   -0.085172   0.012343  -0.025468   0.010787  -0.025607  -0.000046
     6  C    0.004946   0.000347   0.005525  -0.000280   0.000271   0.000025
     7  H    0.000004  -0.000001   0.000041  -0.000000   0.000001   0.000000
     8  H    0.000001   0.000000  -0.000001   0.000000  -0.000001  -0.000000
     9  H    0.005522  -0.000070   0.000018   0.000118   0.001789  -0.000044
    10  H    0.000271   0.000135   0.001789  -0.000054  -0.000006  -0.000042
    11  C    0.415541   0.073751  -0.051458   0.066850  -0.050183  -0.101981
    12  C    0.009696   0.340439   0.376805  -0.105583   0.016618   0.043172
    13  C    4.893334  -0.106929   0.016785   0.419456   0.376572   0.041387
    14  C   -0.106929   5.193521  -0.066431   0.062770  -0.000882   0.385542
    15  H    0.016785  -0.066431   0.802811  -0.001896  -0.000212   0.015503
    16  C    0.419456   0.062770  -0.001896   4.778512  -0.059518   0.426820
    17  H    0.376572  -0.000882  -0.000212  -0.059518   0.812742   0.013443
    18  C    0.041387   0.385542   0.015503   0.426820   0.013443   4.787007
    19  H   -0.048282   0.012045   0.000096   0.367926  -0.019331  -0.054359
    20  H    0.013413  -0.062098  -0.000291  -0.056524  -0.000278   0.378755
    21  Cl  -0.000023  -0.000000   0.000001  -0.000000   0.000011   0.000000
    22  Cl   0.000074   0.281957  -0.005608   0.007987   0.000027  -0.082810
              19         20         21         22
     1  C   -0.000000   0.000000   0.007986  -0.000000
     2  C    0.000000  -0.000000  -0.082810   0.000000
     3  C   -0.000001   0.000000   0.281941  -0.000000
     4  C    0.000003   0.000000  -0.081965   0.000001
     5  C   -0.000516   0.000025   0.007900  -0.000195
     6  C    0.000004   0.000001   0.000074  -0.000023
     7  H    0.000000  -0.000000  -0.000268   0.000000
     8  H   -0.000000  -0.000000  -0.005859  -0.000000
     9  H    0.000041  -0.000001  -0.005607   0.000001
    10  H    0.000001  -0.000001   0.000027   0.000011
    11  C    0.010749  -0.001003  -0.000195   0.007899
    12  C    0.001185   0.015223   0.000001  -0.081976
    13  C   -0.048282   0.013413  -0.000023   0.000074
    14  C    0.012045  -0.062098  -0.000000   0.281957
    15  H    0.000096  -0.000291   0.000001  -0.005608
    16  C    0.367926  -0.056524  -0.000000   0.007987
    17  H   -0.019331  -0.000278   0.000011   0.000027
    18  C   -0.054359   0.378755   0.000000  -0.082810
    19  H    0.803879  -0.019536   0.000000  -0.000268
    20  H   -0.019536   0.797222  -0.000000  -0.005858
    21  Cl   0.000000  -0.000000  16.962435   0.000000
    22  Cl  -0.000268  -0.005858   0.000000  16.962415
 Mulliken charges:
               1
     1  C    0.082335
     2  C    0.147614
     3  C   -0.126117
     4  C    0.143711
     5  C    0.035182
     6  C    0.053159
     7  H   -0.053634
     8  H   -0.059045
     9  H   -0.068390
    10  H   -0.071171
    11  C    0.035172
    12  C    0.143711
    13  C    0.053161
    14  C   -0.126098
    15  H   -0.068392
    16  C    0.082331
    17  H   -0.071171
    18  C    0.147605
    19  H   -0.053636
    20  H   -0.059048
    21  Cl  -0.083647
    22  Cl  -0.083632
 Sum of Mulliken charges =  -0.00000
 Mulliken charges with hydrogens summed into heavy atoms:
               1
     1  C    0.028701
     2  C    0.088569
     3  C   -0.126117
     4  C    0.075321
     5  C    0.035182
     6  C   -0.018012
    11  C    0.035172
    12  C    0.075319
    13  C   -0.018009
    14  C   -0.126098
    16  C    0.028695
    18  C    0.088557
    21  Cl  -0.083647
    22  Cl  -0.083632
 Electronic spatial extent (au):  <R**2>=           4754.7235
 Charge=             -0.0000 electrons
 Dipole moment (field-independent basis, Debye):
    X=             -0.0001    Y=              0.0001    Z=              1.0228  Tot=              1.0228
 Quadrupole moment (field-independent basis, Debye-Ang):
   XX=            -99.3994   YY=            -86.6263   ZZ=            -96.3836
   XY=              7.4443   XZ=              0.0002   YZ=             -0.0000
 Traceless Quadrupole moment (field-independent basis, Debye-Ang):
   XX=             -5.2630   YY=              7.5101   ZZ=             -2.2471
   XY=              7.4443   XZ=              0.0002   YZ=             -0.0000
 Octapole moment (field-independent basis, Debye-Ang**2):
  XXX=             -0.0049  YYY=              0.0005  ZZZ=            -10.5725  XYY=              0.0008
  XXY=              0.0020  XXZ=              7.5655  XZZ=             -0.0005  YZZ=             -0.0002
  YYZ=              6.5222  XYZ=              6.7586
 Hexadecapole moment (field-independent basis, Debye-Ang**3):
 XXXX=          -5087.7832 YYYY=           -896.2698 ZZZZ=           -303.8350 XXXY=             70.6891
 XXXZ=              0.0055 YYYX=             -8.5550 YYYZ=              0.0001 ZZZX=              0.0004
 ZZZY=             -0.0004 XXYY=           -939.2834 XXZZ=           -910.9609 YYZZ=           -201.6531
 XXYZ=             -0.0004 YYXZ=             -0.0001 ZZXY=            -19.0763
 N-N= 9.448190688836D+02 E-N=-5.148941387681D+03  KE= 1.377877340744D+03
 No NMR shielding tensors so no spin-rotation constants.
 Leave Link  601 at Wed May  4 12:32:37 2022, MaxMem=  2684354560 cpu:               0.8 elap:               0.1
 (Enter /apps/software/g16/l9999.exe)
 1\1\GINC-CNODE03\SP\RBLYP\CC-pVDZ\C12H8Cl2\ROOT\04-May-2022\0\\#p BLYP
 /cc-pVDZ\\2,7-dicl-dibenzene SP RKS BLYP cc-pVDZ\\0,1\C,0,-0.845331959
 9,0.956312048,0.8669568876\C,0,0.4629691795,0.8905513211,0.4115373897\
 C,0,1.0649824911,2.050417466,-0.0487262622\C,0,0.3868237553,3.25825741
 76,-0.0595763031\C,0,-0.9291662948,3.3249644668,0.3978611747\C,0,-1.53
 6919046,2.158068853,0.8617835777\H,0,-1.3317777931,0.0578616267,1.2228
 828666\H,0,1.0091164462,-0.0413776448,0.4117421701\H,0,0.8934094364,4.
 1465276898,-0.4066187456\H,0,-2.5626045926,2.1850347173,1.20271069\C,0
 ,-1.6670933138,4.6232273101,0.3866279409\C,0,-2.4216185813,5.014733790
 1,1.4925010278\C,0,-1.6192320163,5.4662347599,-0.7238968576\C,0,-3.105
 7716936,6.219088724,1.4747938948\H,0,-2.4636919409,4.3949907203,2.3758
 176466\C,0,-2.3090194799,6.6690443594,-0.726948004\H,0,-1.055557528,5.
 1720844428,-1.5983861346\C,0,-3.059415906,7.0575161838,0.3727506607\H,
 0,-2.2686584518,7.3094873522,-1.5980007972\H,0,-3.6000780577,7.9926192
 599,0.3788733742\Cl,0,2.7099788263,1.9949516229,-0.6171676213\Cl,0,-4.
 0338782591,6.6892351132,2.8711084643\\Version=ES64L-G16RevA.03\State=1
 -A\HF=-1382.3171064\RMSD=6.413e-09\Dipole=-0.2463767,-0.1424816,-0.284
 454\Quadrupole=-4.594728,5.1053607,-0.5106327,1.9050142,1.5776112,-5.0
 433175\PG=C01 [X(C12H8Cl2)]\\@


 THE POLHOLDE ROLLS WITHOUT SLIPPING ON THE HERPOLHOLDE LYING IN
 THE INVARIABLE PLANE.
 H.GOLDSTEIN, "CLASSICAL MECHANICS", PG 161
 Job cpu time:       0 days  0 hours  2 minutes 30.4 seconds.
 Elapsed time:       0 days  0 hours  0 minutes 19.0 seconds.
 File lengths (MBytes):  RWF=     38 Int=      0 D2E=      0 Chk=      5 Scr=      1
 Normal termination of Gaussian 16 at Wed May  4 12:32:37 2022.

Sender: Unischeduler System <lcz@mgt01>
Subject: Job 127778: <#!/bin/bash
#BSUB -J intel
#BSUB -o 2,7-dicl-dibenzene.out
#BSUB -n 8
#BSUB -q cqueue
#BSUB -R span[hosts=1]
export g16root=/apps/software
source /apps/software/g16/bsd/g16.profile
export GAUSS_SCRDIR=/scratch
/apps/software/g16/g16 < 2,7-dicl-dibenzene.inp > 2,7-dicl-dibenzene.out> Done

Job <#!/bin/bash
#BSUB -J intel
#BSUB -o 2,7-dicl-dibenzene.out
#BSUB -n 8
#BSUB -q cqueue
#BSUB -R span[hosts=1]
export g16root=/apps/software
source /apps/software/g16/bsd/g16.profile
export GAUSS_SCRDIR=/scratch
/apps/software/g16/g16 < 2,7-dicl-dibenzene.inp > 2,7-dicl-dibenzene.out> was submitted from host <mgt01> by user <lcz>.
Job was executed on host(s) <8*cnode03>, in queue <cqueue>, as user <lcz>.
</apps/users/lcz> was used as the home directory.
</apps/users/lcz/task2/section1/isomer1/BLYP_cc-pVDZ/Gaussian> was used as the working directory.
Started at 2022-05-04 12:32:18
Results reported at 2022-05-04 12:32:37

Your job looked like:

------------------------------------------------------------
# User input
#!/bin/bash
#BSUB -J intel
#BSUB -o 2,7-dicl-dibenzene.out
#BSUB -n 8
#BSUB -q cqueue
#BSUB -R span[hosts=1]
export g16root=/apps/software
source /apps/software/g16/bsd/g16.profile
export GAUSS_SCRDIR=/scratch
/apps/software/g16/g16 < 2,7-dicl-dibenzene.inp > 2,7-dicl-dibenzene.out
------------------------------------------------------------

Successfully completed.

Resource usage summary:

    CPU time   :          119.95 sec.
    Max Memory :               386 MB
    Max Processes  :               5


The output (if any) follows:

