 Entering Gaussian System, Link 0=/apps/software/g16/g16
 Initial command:
 /apps/software/g16/l1.exe "/scratch/Gau-42560.inp" -scrdir="/scratch/"
 Entering Link 1 = /apps/software/g16/l1.exe PID=     42561.
  
 Copyright (c) 1988,1990,1992,1993,1995,1998,2003,2009,2016,
            Gaussian, Inc.  All Rights Reserved.
  
 This is part of the Gaussian(R) 16 program.  It is based on
 the Gaussian(R) 09 system (copyright 2009, Gaussian, Inc.),
 the Gaussian(R) 03 system (copyright 2003, Gaussian, Inc.),
 the Gaussian(R) 98 system (copyright 1998, Gaussian, Inc.),
 the Gaussian(R) 94 system (copyright 1995, Gaussian, Inc.),
 the Gaussian 92(TM) system (copyright 1992, Gaussian, Inc.),
 the Gaussian 90(TM) system (copyright 1990, Gaussian, Inc.),
 the Gaussian 88(TM) system (copyright 1988, Gaussian, Inc.),
 the Gaussian 86(TM) system (copyright 1986, Carnegie Mellon
 University), and the Gaussian 82(TM) system (copyright 1983,
 Carnegie Mellon University). Gaussian is a federally registered
 trademark of Gaussian, Inc.
  
 This software contains proprietary and confidential information,
 including trade secrets, belonging to Gaussian, Inc.
  
 This software is provided under written license and may be
 used, copied, transmitted, or stored only in accord with that
 written license.
  
 The following legend is applicable only to US Government
 contracts under FAR:
  
                    RESTRICTED RIGHTS LEGEND
  
 Use, reproduction and disclosure by the US Government is
 subject to restrictions as set forth in subparagraphs (a)
 and (c) of the Commercial Computer Software - Restricted
 Rights clause in FAR 52.227-19.
  
 Gaussian, Inc.
 340 Quinnipiac St., Bldg. 40, Wallingford CT 06492
  
  
 ---------------------------------------------------------------
 Warning -- This program may not be used in any manner that
 competes with the business of Gaussian, Inc. or will provide
 assistance to any competitor of Gaussian, Inc.  The licensee
 of this program is prohibited from giving any competitor of
 Gaussian, Inc. access to this program.  By using this program,
 the user acknowledges that Gaussian, Inc. is engaged in the
 business of creating and licensing software in the field of
 computational chemistry and represents and warrants to the
 licensee that it is not a competitor of Gaussian, Inc. and that
 it will not use this program in any manner prohibited above.
 ---------------------------------------------------------------
  

 Cite this work as:
 Gaussian 16, Revision A.03,
 M. J. Frisch, G. W. Trucks, H. B. Schlegel, G. E. Scuseria, 
 M. A. Robb, J. R. Cheeseman, G. Scalmani, V. Barone, 
 G. A. Petersson, H. Nakatsuji, X. Li, M. Caricato, A. V. Marenich, 
 J. Bloino, B. G. Janesko, R. Gomperts, B. Mennucci, H. P. Hratchian, 
 J. V. Ortiz, A. F. Izmaylov, J. L. Sonnenberg, D. Williams-Young, 
 F. Ding, F. Lipparini, F. Egidi, J. Goings, B. Peng, A. Petrone, 
 T. Henderson, D. Ranasinghe, V. G. Zakrzewski, J. Gao, N. Rega, 
 G. Zheng, W. Liang, M. Hada, M. Ehara, K. Toyota, R. Fukuda, 
 J. Hasegawa, M. Ishida, T. Nakajima, Y. Honda, O. Kitao, H. Nakai, 
 T. Vreven, K. Throssell, J. A. Montgomery, Jr., J. E. Peralta, 
 F. Ogliaro, M. J. Bearpark, J. J. Heyd, E. N. Brothers, K. N. Kudin, 
 V. N. Staroverov, T. A. Keith, R. Kobayashi, J. Normand, 
 K. Raghavachari, A. P. Rendell, J. C. Burant, S. S. Iyengar, 
 J. Tomasi, M. Cossi, J. M. Millam, M. Klene, C. Adamo, R. Cammi, 
 J. W. Ochterski, R. L. Martin, K. Morokuma, O. Farkas, 
 J. B. Foresman, and D. J. Fox, Gaussian, Inc., Wallingford CT, 2016.
 
 ******************************************
 Gaussian 16:  ES64L-G16RevA.03 25-Dec-2016
                15-May-2022 
 ******************************************
 %chk=C7H14-ROHF.chk
 -----------------------
 # ROHF def2SVP Pop=NOAB
 -----------------------
 1/38=1,172=1/1;
 2/12=2,17=6,18=5,40=1/2;
 3/5=43,7=101,11=2,25=1,30=1,116=101/1,2,3;
 4//1;
 5/5=2,38=5/2;
 6/7=2,8=2,9=2,10=2,22=-1,28=1,31=2/1;
 99/5=1,9=1/99;
 ----------------------
 C7H14 two-free radical
 ----------------------
 Symbolic Z-matrix:
 Charge =  0 Multiplicity = 3
 C                    -3.69379   1.34595  -0.08015 
 C                    -2.19348   1.37379  -0.05681 
 H                    -4.22551   1.18009  -1.01033 
 H                    -4.2552    1.22405   0.8393 
 C                    -1.55442  -0.0234   -0.0161 
 H                    -1.82493   1.90571  -0.93985 
 H                    -1.85281   1.94402   0.81336 
 C                    -0.02706   0.0145    0.00732 
 H                    -1.91991  -0.55921   0.86661 
 H                    -1.89349  -0.59825  -0.88472 
 H                     0.33475   0.55175  -0.87732 
 H                     0.30505   0.5945    0.87434 
 C                     0.6093   -1.37451   0.04492 
 H                     0.2627   -1.95137  -0.81905 
 H                     0.25928  -1.91206   0.9332 
 C                     2.14782  -1.36476   0.03756 
 H                     2.49315  -2.3998   -0.05756 
 H                     2.49834  -0.83976  -0.85609 
 C                     2.77154  -0.75203   1.25876 
 H                     3.14006   0.26629   1.25721 
 H                     2.68775  -1.25126   2.2181 
 
                          Input orientation:                          
 ---------------------------------------------------------------------
 Center     Atomic      Atomic             Coordinates (Angstroms)
 Number     Number       Type             X           Y           Z
 ---------------------------------------------------------------------
      1          6           0       -3.693788    1.345950   -0.080153
      2          6           0       -2.193484    1.373788   -0.056812
      3          1           0       -4.225508    1.180088   -1.010334
      4          1           0       -4.255204    1.224048    0.839301
      5          6           0       -1.554416   -0.023401   -0.016100
      6          1           0       -1.824927    1.905707   -0.939850
      7          1           0       -1.852812    1.944021    0.813355
      8          6           0       -0.027056    0.014500    0.007320
      9          1           0       -1.919913   -0.559214    0.866609
     10          1           0       -1.893486   -0.598246   -0.884715
     11          1           0        0.334747    0.551752   -0.877315
     12          1           0        0.305045    0.594496    0.874340
     13          6           0        0.609304   -1.374514    0.044919
     14          1           0        0.262703   -1.951369   -0.819054
     15          1           0        0.259278   -1.912060    0.933203
     16          6           0        2.147820   -1.364759    0.037560
     17          1           0        2.493149   -2.399801   -0.057561
     18          1           0        2.498336   -0.839762   -0.856087
     19          6           0        2.771544   -0.752033    1.258758
     20          1           0        3.140055    0.266294    1.257206
     21          1           0        2.687753   -1.251260    2.218099
 ---------------------------------------------------------------------
                    Distance matrix (angstroms):
                    1          2          3          4          5
     1  C    0.000000
     2  C    1.500744   0.000000
     3  H    1.084192   2.252964   0.000000
     4  H    1.084179   2.253027   1.850396   0.000000
     5  C    2.540893   1.536946   3.093803   3.095496   0.000000
     6  H    2.131912   1.094773   2.508840   3.088087   2.155910
     7  H    2.131956   1.094721   3.088547   2.508091   2.155872
     8  C    3.901965   2.558356   4.474507   4.475761   1.528010
     9  H    2.769953   2.159640   3.444395   2.938427   1.095381
    10  H    2.769171   2.159708   2.935401   3.445388   1.095403
    11  H    4.182740   2.782251   4.605261   4.946352   2.154398
    12  H    4.179283   2.777947   4.941743   4.603633   2.152272
    13  C    5.092462   3.926720   5.569107   5.571984   2.551649
    14  H    5.203086   4.203634   5.476007   5.765839   2.768342
    15  H    5.221901   4.218171   5.783772   5.497685   2.785264
    16  C    6.440977   5.133758   6.942164   6.952944   3.938105
    17  H    7.232520   6.017018   7.672270   7.712128   4.693802
    18  H    6.612247   5.248983   7.022369   7.262503   4.218628
    19  C    6.927823   5.558898   7.605301   7.311363   4.568380
    20  H    7.046673   5.603555   7.760688   7.468721   4.872709
    21  H    7.263025   5.991041   8.007959   7.498859   4.949271
                    6          7          8          9         10
     6  H    0.000000
     7  H    1.753845   0.000000
     8  C    2.775993   2.775991   0.000000
     9  H    3.057475   2.504700   2.156486   0.000000
    10  H    2.505498   3.057486   2.157486   1.751958   0.000000
    11  H    2.549764   3.095512   1.096412   3.059250   2.507503
    12  H    3.089877   2.545837   1.094719   2.506301   3.057850
    13  C    4.201797   4.202997   1.528309   2.781515   2.780426
    14  H    4.387462   4.723794   2.152091   3.089234   2.546449
    15  H    4.735777   4.398255   2.156590   2.565833   3.108911
    16  C    5.237747   5.249280   2.575530   4.228791   4.215482
    17  H    6.161300   6.206018   3.490629   4.870007   4.813767
    18  H    5.122033   5.428533   2.802292   4.750507   4.398551
    19  C    5.746739   5.371383   3.160037   4.711765   5.136208
    20  H    5.671488   5.285877   3.414119   5.141722   5.538212
    21  H    6.348493   5.727116   3.722886   4.851396   5.571502
                   11         12         13         14         15
    11  H    0.000000
    12  H    1.752428   0.000000
    13  C    2.153230   2.158127   0.000000
    14  H    2.504835   3.057909   1.095145   0.000000
    15  H    3.058438   2.507665   1.095684   1.752701   0.000000
    16  C    2.792355   2.816860   1.538565   2.152107   2.160626
    17  H    3.747314   3.823879   2.147228   2.399136   2.491924
    18  H    2.572524   3.140382   2.160142   2.497018   3.060190
    19  C    3.492942   2.836289   2.556593   3.471310   2.786239
    20  H    3.536583   2.879511   3.250629   4.184261   3.626166
    21  H    4.285916   3.299970   3.009627   3.949091   2.825793
                   16         17         18         19         20
    16  C    0.000000
    17  H    1.095268   0.000000
    18  H    1.094115   1.752539   0.000000
    19  C    1.501929   2.127284   2.134223   0.000000
    20  H    2.265480   3.042230   2.470055   1.082956   0.000000
    21  H    2.249258   2.556491   3.107383   1.084704   1.852259
                   21
    21  H    0.000000
 Stoichiometry    C7H14(3)
 Framework group  C1[X(C7H14)]
 Deg. of freedom    57
 Full point group                 C1      NOp   1
 Largest Abelian subgroup         C1      NOp   1
 Largest concise Abelian subgroup C1      NOp   1
                         Standard orientation:                         
 ---------------------------------------------------------------------
 Center     Atomic      Atomic             Coordinates (Angstroms)
 Number     Number       Type             X           Y           Z
 ---------------------------------------------------------------------
      1          6           0       -3.718495    0.068095    0.172328
      2          6           0       -2.362236    0.532389   -0.271773
      3          1           0       -4.243919   -0.701737   -0.381531
      4          1           0       -4.073806    0.287740    1.172805
      5          6           0       -1.218777   -0.387295    0.185266
      6          1           0       -2.341708    0.606280   -1.363857
      7          1           0       -2.178886    1.541548    0.110841
      8          6           0        0.158086    0.092884   -0.271342
      9          1           0       -1.235006   -0.463614    1.277864
     10          1           0       -1.398649   -1.398898   -0.194488
     11          1           0        0.170157    0.168299   -1.365091
     12          1           0        0.329379    1.105804    0.106893
     13          6           0        1.295459   -0.822620    0.180281
     14          1           0        1.110077   -1.835581   -0.192395
     15          1           0        1.294641   -0.892999    1.273701
     16          6           0        2.690127   -0.377905   -0.293335
     17          1           0        3.406152   -1.161102   -0.022187
     18          1           0        2.695775   -0.320271   -1.385917
     19          6           0        3.154723    0.929205    0.282341
     20          1           0        3.083446    1.853119   -0.278101
     21          1           0        3.389026    1.002893    1.338871
 ---------------------------------------------------------------------
 Rotational constants (GHZ):           8.4387997           0.8612935           0.8259875
 Standard basis: def2SVP (5D, 7F)
 There are   175 symmetry adapted cartesian basis functions of A   symmetry.
 There are   168 symmetry adapted basis functions of A   symmetry.
   168 basis functions,   273 primitive gaussians,   175 cartesian basis functions
    29 alpha electrons       27 beta electrons
       nuclear repulsion energy       291.4653772056 Hartrees.
 NAtoms=   21 NActive=   21 NUniq=   21 SFac= 1.00D+00 NAtFMM=   60 NAOKFM=F Big=F
 Integral buffers will be    131072 words long.
 Raffenetti 2 integral format.
 Two-electron integral symmetry is turned on.
 One-electron integrals computed using PRISM.
   1 Symmetry operations used in ECPInt.
 ECPInt:  NShTT=    3570 NPrTT=   12068 LenC2=    3478 LenP2D=    9490.
 LDataN:  DoStor=T MaxTD1= 4 Len=   56
 NBasis=   168 RedAO= T EigKep=  1.23D-03  NBF=   168
 NBsUse=   168 1.00D-06 EigRej= -1.00D+00 NBFU=   168
 ExpMin= 1.22D-01 ExpMax= 1.24D+03 ExpMxC= 1.86D+02 IAcc=3 IRadAn=         5 AccDes= 0.00D+00
 Harris functional with IExCor=  205 and IRadAn=       5 diagonalized for initial guess.
 HarFok:  IExCor=  205 AccDes= 0.00D+00 IRadAn=         5 IDoV= 1 UseB2=F ITyADJ=14
 ICtDFT=  3500011 ScaDFX=  1.000000  1.000000  1.000000  1.000000
 FoFCou: FMM=F IPFlag=           0 FMFlag=      100000 FMFlg1=           0
         NFxFlg=           0 DoJE=T BraDBF=F KetDBF=T FulRan=T
         wScrn=  0.000000 ICntrl=       500 IOpCl=  0 I1Cent=   200000004 NGrid=           0
         NMat0=    1 NMatS0=      1 NMatT0=    0 NMatD0=    1 NMtDS0=    0 NMtDT0=    0
 Petite list used in FoFCou.
 Requested convergence on RMS density matrix=1.00D-08 within 128 cycles.
 Requested convergence on MAX density matrix=1.00D-06.
 Requested convergence on             energy=1.00D-06.
 No special actions if energy rises.
 Integral accuracy reduced to 1.0D-05 until final iterations.
 Initial convergence to 1.0D-05 achieved.  Increase integral accuracy.
 SCF Done:  E(ROHF) =  -272.936270510     A.U. after   15 cycles
            NFock= 15  Conv=0.48D-08     -V/T= 2.0055
 <Sx>= 0.0000 <Sy>= 0.0000 <Sz>= 1.0000 <S**2>= 2.0000 S= 1.0000
 <L.S>=  0.00000000000    
 Annihilation of the first spin contaminant:
 S**2 before annihilation     2.0000,   after     2.0000

 **********************************************************************

            Population analysis using the SCF density.

 **********************************************************************

 Orbital symmetries:
       Occupied  (A) (A) (A) (A) (A) (A) (A) (A) (A) (A) (A) (A)
                 (A) (A) (A) (A) (A) (A) (A) (A) (A) (A) (A) (A)
                 (A) (A) (A) (A) (A)
       Virtual   (A) (A) (A) (A) (A) (A) (A) (A) (A) (A) (A) (A)
                 (A) (A) (A) (A) (A) (A) (A) (A) (A) (A) (A) (A)
                 (A) (A) (A) (A) (A) (A) (A) (A) (A) (A) (A) (A)
                 (A) (A) (A) (A) (A) (A) (A) (A) (A) (A) (A) (A)
                 (A) (A) (A) (A) (A) (A) (A) (A) (A) (A) (A) (A)
                 (A) (A) (A) (A) (A) (A) (A) (A) (A) (A) (A) (A)
                 (A) (A) (A) (A) (A) (A) (A) (A) (A) (A) (A) (A)
                 (A) (A) (A) (A) (A) (A) (A) (A) (A) (A) (A) (A)
                 (A) (A) (A) (A) (A) (A) (A) (A) (A) (A) (A) (A)
                 (A) (A) (A) (A) (A) (A) (A) (A) (A) (A) (A) (A)
                 (A) (A) (A) (A) (A) (A) (A) (A) (A) (A) (A) (A)
                 (A) (A) (A) (A) (A) (A) (A)
 The electronic state is 3-A.
     Natural Orbital Coefficients:
                           1         2         3         4         5
     Eigenvalues --     1.00000   1.00000   1.00000   1.00000   1.00000
   1 1   C  1S          0.11548   0.03148   0.01377   0.06123  -0.00770
   2        2S         -0.18236  -0.00893  -0.06627  -0.05209   0.10030
   3        3S         -0.06604   0.00330  -0.04165  -0.03757   0.07813
   4        4PX         0.02143   0.00763   0.10083   0.01582  -0.04862
   5        4PY         0.07923  -0.10724  -0.01062  -0.04358   0.09535
   6        4PZ        -0.04673  -0.03311   0.00042   0.01929   0.01695
   7        5PX         0.00058   0.03979   0.05246   0.01571  -0.04376
   8        5PY         0.04712  -0.08367  -0.02806  -0.03695   0.08921
   9        5PZ        -0.02774   0.00208   0.01292   0.02092  -0.02464
  10        6D 0       -0.00212  -0.00536  -0.00403   0.00154  -0.00027
  11        6D+1       -0.00179   0.00777  -0.00020  -0.00179   0.00202
  12        6D-1       -0.00467   0.00334  -0.00164  -0.00054   0.00208
  13        6D+2        0.00077  -0.00596   0.00233  -0.00022   0.00304
  14        6D-2        0.00070   0.00852   0.00226  -0.00102  -0.00339
  15 2   C  1S         -0.12166   0.06024  -0.02589  -0.18544  -0.00655
  16        2S          0.21807  -0.09533   0.10620   0.01975  -0.04248
  17        3S          0.02838  -0.04645   0.06266   0.02175  -0.04421
  18        4PX         0.06423  -0.04663   0.00261   0.01876   0.07160
  19        4PY         0.09911   0.22639   0.02884  -0.01946  -0.12220
  20        4PZ        -0.07719   0.14426   0.06007  -0.08340   0.16661
  21        5PX         0.02401  -0.02634  -0.00502   0.00593   0.03076
  22        5PY         0.04738   0.11727   0.00531  -0.00778  -0.06132
  23        5PZ        -0.03580   0.06433   0.03277  -0.04020   0.07726
  24        6D 0        0.00533  -0.00960  -0.00530   0.00474  -0.01195
  25        6D+1        0.00267  -0.00212  -0.00213   0.00014   0.00181
  26        6D-1        0.00482   0.01077   0.00310  -0.00141  -0.00205
  27        6D+2       -0.00123  -0.01034  -0.00074  -0.00203   0.01092
  28        6D-2       -0.00086   0.01030   0.00167  -0.00123  -0.00762
  29 3   H  1S         -0.11323   0.09859  -0.05743  -0.01502  -0.00561
  30        2S         -0.02198   0.05650  -0.00940  -0.00283  -0.01529
  31        3PX        -0.00579   0.00355  -0.00083  -0.00003  -0.00137
  32        3PY        -0.00642   0.00117  -0.00515  -0.00239   0.00343
  33        3PZ        -0.00713   0.00231  -0.00303  -0.00008   0.00017
  34 4   H  1S         -0.10420  -0.07080  -0.06219  -0.01116   0.07585
  35        2S         -0.01677  -0.04136  -0.02038   0.00797   0.00863
  36        3PX        -0.00368  -0.00126   0.00020   0.00004   0.00101
  37        3PY         0.00420  -0.00215   0.00055  -0.00081   0.00127
  38        3PZ         0.00931   0.00311   0.00546   0.00265  -0.00750
  39 5   C  1S          0.07920  -0.21082   0.25160  -0.85243  -0.26921
  40        2S         -0.21057  -0.03604   0.00363  -0.03491   0.07432
  41        3S          0.01176   0.01017  -0.01844   0.01239   0.09124
  42        4PX        -0.02014   0.16842   0.05221  -0.01766   0.02191
  43        4PY         0.16323  -0.09077   0.05223  -0.03109   0.22056
  44        4PZ        -0.05042  -0.05638  -0.11438  -0.02200  -0.07788
  45        5PX        -0.00688   0.09311   0.04343  -0.00394  -0.00358
  46        5PY         0.08480  -0.04409   0.02102  -0.01662   0.12083
  47        5PZ        -0.02823  -0.02875  -0.05373  -0.00771  -0.04679
  48        6D 0       -0.00191  -0.00760  -0.01161   0.00005  -0.01173
  49        6D+1        0.00083  -0.00970   0.00176   0.00277  -0.00044
  50        6D-1       -0.00795   0.00682   0.00127  -0.00020  -0.00427
  51        6D+2        0.00232  -0.00370   0.00275  -0.00082   0.01036
  52        6D-2       -0.00545   0.00934  -0.00192  -0.00118  -0.00094
  53 6   H  1S          0.15535  -0.16765  -0.02411   0.08834  -0.18638
  54        2S          0.03858  -0.07147  -0.03137   0.03146  -0.07701
  55        3PX         0.00085  -0.00064   0.00021   0.00012   0.00073
  56        3PY         0.00045   0.00650   0.00084  -0.00073  -0.00198
  57        3PZ         0.01385  -0.00987   0.00157   0.00543  -0.01186
  58 7   H  1S          0.13851   0.21510   0.08707  -0.02477  -0.07541
  59        2S          0.02307   0.11148   0.02786  -0.00947  -0.03931
  60        3PX        -0.00131  -0.00292  -0.00085   0.00037   0.00213
  61        3PY        -0.01167  -0.00853  -0.00681   0.00132   0.00287
  62        3PZ        -0.00638  -0.00074  -0.00116  -0.00171   0.00648
  63 8   C  1S         -0.04012  -0.04361   0.01843   0.10452  -0.05393
  64        2S          0.13554   0.08626  -0.09609  -0.03687   0.11463
  65        3S         -0.04034   0.02312  -0.05528  -0.02381   0.00941
  66        4PX         0.04725  -0.06811  -0.05133   0.01658  -0.08365
  67        4PY         0.06368  -0.02149  -0.08526  -0.03099   0.05113
  68        4PZ        -0.07822   0.04238   0.17824   0.00541   0.16267
  69        5PX         0.02720  -0.03538  -0.05412   0.00641  -0.03637
  70        5PY         0.04052  -0.01884  -0.03455  -0.00925   0.02433
  71        5PZ        -0.04377   0.01680   0.07964   0.00170   0.07968
  72        6D 0        0.00478  -0.00294  -0.01506  -0.00189  -0.01334
  73        6D+1        0.00275  -0.00113   0.00081   0.00073  -0.00411
  74        6D-1        0.00301  -0.00009  -0.00050  -0.00099   0.00495
  75        6D+2       -0.00125   0.00617   0.00487  -0.00090   0.00336
  76        6D-2       -0.00535   0.00826  -0.00232  -0.00182   0.00056
  77 9   H  1S         -0.12391  -0.07686  -0.13329  -0.01215  -0.07846
  78        2S         -0.02455  -0.04857  -0.07150  -0.00352  -0.07072
  79        3PX        -0.00046   0.00209   0.00055  -0.00041   0.00067
  80        3PY         0.00205  -0.00284   0.00066  -0.00085   0.00434
  81        3PZ         0.01253   0.00323   0.00750  -0.00019   0.00255
  82 10  H  1S         -0.19424   0.08115  -0.01116   0.03229  -0.12492
  83        2S         -0.05976   0.05883   0.00830   0.00457  -0.05315
  84        3PX        -0.00322   0.00306   0.00043   0.00025  -0.00063
  85        3PY        -0.01394   0.00295  -0.00088   0.00275  -0.00450
  86        3PZ        -0.00675   0.00002  -0.00433   0.00104  -0.00547
  87 11  H  1S          0.12340  -0.01369  -0.22521  -0.02579  -0.12332
  88        2S          0.03837  -0.02016  -0.09791  -0.00947  -0.07471
  89        3PX         0.00062  -0.00110  -0.00056   0.00042  -0.00077
  90        3PY        -0.00026  -0.00060  -0.00062  -0.00016   0.00157
  91        3PZ         0.00982   0.00079  -0.01451  -0.00250  -0.00344
  92 12  H  1S          0.07606   0.01307  -0.05346  -0.03128   0.12274
  93        2S          0.01157  -0.00048  -0.00040  -0.00293   0.03450
  94        3PX        -0.00053  -0.00195   0.00020   0.00108  -0.00317
  95        3PY        -0.00662  -0.00261   0.00415   0.00286  -0.00894
  96        3PZ        -0.00402   0.00026   0.00711   0.00125   0.00058
  97 13  C  1S          0.01518   0.03364  -0.10281  -0.00414   0.02549
  98        2S         -0.06793  -0.07017   0.22565   0.07626  -0.04813
  99        3S          0.03762  -0.02260   0.09466   0.03400   0.00297
 100        4PX        -0.02861   0.12244   0.05130  -0.02683  -0.03409
 101        4PY         0.04673   0.18312  -0.02164  -0.05475  -0.01365
 102        4PZ        -0.03631   0.00641  -0.04201  -0.01721  -0.09134
 103        5PX        -0.02380   0.07818   0.01988  -0.00822  -0.02871
 104        5PY         0.03070   0.09174   0.00746  -0.01963  -0.00954
 105        5PZ        -0.02415   0.00576  -0.02748  -0.01068  -0.04921
 106        6D 0       -0.00027  -0.00119  -0.00613  -0.00047  -0.00861
 107        6D+1        0.00210  -0.00570  -0.00439   0.00204  -0.00288
 108        6D-1       -0.00330  -0.00604   0.00375   0.00235   0.00296
 109        6D+2       -0.00172   0.01368   0.00088  -0.00382  -0.00387
 110        6D-2       -0.00349  -0.00182   0.00627   0.00075   0.00084
 111 14  H  1S         -0.04689  -0.21692   0.11746   0.08671   0.04396
 112        2S         -0.01350  -0.09043   0.03530   0.02880   0.03717
 113        3PX        -0.00111  -0.00098   0.00289   0.00069   0.00014
 114        3PY        -0.00347  -0.01250   0.01015   0.00586   0.00111
 115        3PZ        -0.00178  -0.00587   0.00290   0.00210  -0.00172
 116 15  H  1S         -0.05192  -0.03407   0.02933   0.01346  -0.11391
 117        2S         -0.00621  -0.00955  -0.02903  -0.00552  -0.05296
 118        3PX        -0.00054   0.00217   0.00121  -0.00037  -0.00041
 119        3PY         0.00024   0.00434  -0.00084  -0.00141  -0.00138
 120        3PZ         0.00458   0.00478  -0.00747  -0.00271   0.00646
 121 16  C  1S         -0.00953   0.05172  -0.01739   0.05465  -0.00937
 122        2S         -0.00413   0.01441  -0.09050  -0.11724   0.10633
 123        3S         -0.02278   0.03267  -0.01030  -0.04877   0.03391
 124        4PX         0.00535  -0.12419  -0.20890  -0.02898  -0.00094
 125        4PY         0.02793  -0.12913   0.07296   0.02526   0.13515
 126        4PZ        -0.04462  -0.00616   0.05443   0.02919  -0.05563
 127        5PX         0.01579  -0.05966  -0.10018  -0.01488  -0.00581
 128        5PY         0.01362  -0.04794   0.02854   0.00726   0.06012
 129        5PZ        -0.01941   0.00334   0.02431   0.01141  -0.02843
 130        6D 0        0.00266   0.00116  -0.00400  -0.00220   0.00190
 131        6D+1        0.00138  -0.00601  -0.00765   0.00010   0.00234
 132        6D-1        0.00110  -0.00629   0.00310   0.00104   0.00580
 133        6D+2       -0.00101   0.00891   0.00345   0.00104  -0.00456
 134        6D-2       -0.00193  -0.00628   0.01074   0.00528   0.00466
 135 17  H  1S         -0.02000   0.02326  -0.19504  -0.07956  -0.06150
 136        2S         -0.00004   0.01391  -0.06861  -0.02657  -0.02955
 137        3PX         0.00104  -0.00323   0.00668   0.00441   0.00217
 138        3PY        -0.00103  -0.00207  -0.01031  -0.00461   0.00037
 139        3PZ        -0.00054  -0.00057   0.00510   0.00283  -0.00051
 140 18  H  1S          0.04067   0.00489  -0.08541  -0.07239   0.08818
 141        2S          0.01656  -0.00106  -0.03147  -0.01841   0.01525
 142        3PX        -0.00023  -0.00221  -0.00378  -0.00072  -0.00006
 143        3PY         0.00041  -0.00320   0.00253   0.00138   0.00234
 144        3PZ         0.00201   0.00005  -0.00707  -0.00671   0.00730
 145 19  C  1S          0.02505   0.02504  -0.04588  -0.06545   0.00756
 146        2S         -0.00880  -0.11526   0.08452   0.05606  -0.02127
 147        3S         -0.01409  -0.07264   0.04810   0.04833  -0.00385
 148        4PX        -0.02843   0.01224  -0.05162   0.06487  -0.07829
 149        4PY        -0.00380   0.12766   0.06672   0.01608  -0.13196
 150        4PZ         0.00606   0.00709   0.00021   0.01884  -0.05427
 151        5PX        -0.02467   0.01779  -0.02567   0.05208  -0.05248
 152        5PY         0.00235   0.06836   0.02708  -0.00535  -0.05579
 153        5PZ         0.00628   0.00657  -0.00525  -0.00333  -0.01860
 154        6D 0        0.00097  -0.00089   0.00033   0.00204  -0.00230
 155        6D+1        0.00068  -0.00173   0.00139   0.00007   0.00187
 156        6D-1        0.00124  -0.00694  -0.00482  -0.00215   0.00818
 157        6D+2        0.00054   0.00326   0.00247   0.00179  -0.00089
 158        6D-2        0.00004  -0.00182   0.00375  -0.00038   0.00455
 159 20  H  1S         -0.01194   0.04925   0.08397   0.02181  -0.08808
 160        2S         -0.00485   0.03057   0.01320  -0.00139  -0.03670
 161        3PX        -0.00106   0.00014  -0.00065   0.00214  -0.00200
 162        3PY         0.00071  -0.00007  -0.00566  -0.00212   0.00403
 163        3PZ        -0.00029   0.00108   0.00439   0.00161  -0.00436
 164 21  H  1S         -0.00054  -0.03347   0.02953   0.05164  -0.07077
 165        2S          0.00565  -0.00409   0.00112   0.00986  -0.01707
 166        3PX        -0.00075   0.00072  -0.00203   0.00080   0.00002
 167        3PY        -0.00022   0.00228   0.00097  -0.00021  -0.00182
 168        3PZ         0.00078   0.00330  -0.00365  -0.00471   0.00597
                           6         7         8         9        10
     Eigenvalues --     1.00000   1.00000   1.00000   1.00000   1.00000
   1 1   C  1S         -0.05716   0.01434   0.01021   0.05957   0.00780
   2        2S         -0.01780   0.05183  -0.10776  -0.00275   0.00540
   3        3S          0.00805   0.06535  -0.03112   0.03213   0.03683
   4        4PX        -0.03925  -0.15088  -0.05826  -0.19316  -0.06020
   5        4PY         0.13306   0.26102   0.16043   0.17257   0.08280
   6        4PZ        -0.07237  -0.07024  -0.13385  -0.07028  -0.14558
   7        5PX        -0.05399  -0.12912  -0.08296  -0.14431  -0.04785
   8        5PY         0.10820   0.21464   0.14114   0.16701   0.08654
   9        5PZ        -0.05906  -0.09166  -0.09562  -0.08318  -0.08918
  10        6D 0       -0.00167   0.00113  -0.00423  -0.00009  -0.00181
  11        6D+1       -0.00004   0.00055   0.00186   0.00514   0.00068
  12        6D-1       -0.00242  -0.00240  -0.00341   0.00055  -0.00091
  13        6D+2        0.00063  -0.00086   0.00058  -0.00355  -0.00202
  14        6D-2       -0.00103  -0.00183  -0.00265  -0.00325  -0.00003
  15 2   C  1S         -0.04296   0.01209   0.00863   0.05517   0.17683
  16        2S          0.01272  -0.02496   0.06570  -0.07598  -0.07405
  17        3S         -0.00433  -0.04246   0.00959  -0.04865  -0.06803
  18        4PX        -0.01409   0.00004   0.05183   0.08422  -0.06584
  19        4PY        -0.00136   0.05429  -0.03534   0.02501  -0.02098
  20        4PZ         0.00700   0.04738   0.00533   0.07636  -0.08314
  21        5PX        -0.00797   0.00727   0.01120   0.04389  -0.03434
  22        5PY        -0.00641   0.01769  -0.02757   0.01007  -0.00962
  23        5PZ         0.00744   0.02468   0.01116   0.04289  -0.03953
  24        6D 0       -0.00242  -0.00210  -0.00479  -0.00642  -0.00210
  25        6D+1        0.00124   0.00527   0.00462   0.00555  -0.00176
  26        6D-1        0.00134   0.00223   0.00161   0.00349   0.00376
  27        6D+2        0.00305   0.00805   0.00263  -0.00075   0.00491
  28        6D-2       -0.00400  -0.00630  -0.01001  -0.01086  -0.00104
  29 3   H  1S         -0.04266  -0.04771  -0.06284   0.00690   0.03335
  30        2S         -0.01622  -0.02518  -0.01617   0.00424   0.00549
  31        3PX        -0.00335  -0.00622  -0.00520  -0.00470  -0.00051
  32        3PY         0.00112   0.00521  -0.00003   0.00554   0.00462
  33        3PZ        -0.00407  -0.00436  -0.00727  -0.00265  -0.00225
  34 4   H  1S         -0.03319   0.04509  -0.11116   0.01567  -0.08197
  35        2S         -0.01386   0.00539  -0.03575  -0.00530  -0.03092
  36        3PX        -0.00249  -0.00288  -0.00551  -0.00422  -0.00442
  37        3PY         0.00446   0.00651   0.00711   0.00506   0.00436
  38        3PZ         0.00067  -0.00662   0.00605  -0.00438   0.00276
  39 5   C  1S         -0.01557  -0.08912  -0.15187   0.00624   0.05963
  40        2S          0.00031   0.02223   0.03058   0.03570  -0.00835
  41        3S          0.04151   0.05543   0.08823   0.08937   0.02521
  42        4PX        -0.03636   0.01184  -0.10555  -0.11248   0.08458
  43        4PY        -0.02150   0.08915  -0.00715  -0.05475  -0.07942
  44        4PZ        -0.00793   0.14599  -0.07668  -0.01748  -0.14897
  45        5PX        -0.02067  -0.02589  -0.04747  -0.07446   0.01670
  46        5PY        -0.00403   0.04818   0.00598  -0.00653  -0.02643
  47        5PZ        -0.00749   0.06221  -0.04366  -0.01412  -0.07207
  48        6D 0        0.00041   0.00725  -0.00326   0.00169  -0.00750
  49        6D+1        0.00186  -0.00071   0.00605  -0.00052  -0.00095
  50        6D-1        0.00133  -0.00317   0.00134   0.00289   0.00363
  51        6D+2       -0.00263   0.00206  -0.00541  -0.00595  -0.00152
  52        6D-2       -0.00218  -0.00098  -0.00657  -0.00789   0.00902
  53 6   H  1S         -0.01145  -0.05220  -0.00404  -0.10991   0.01552
  54        2S         -0.01218  -0.01312  -0.02356  -0.04293  -0.00999
  55        3PX        -0.00041  -0.00074   0.00079   0.00150  -0.00165
  56        3PY        -0.00015   0.00081  -0.00082   0.00096  -0.00123
  57        3PZ         0.00007  -0.00319   0.00176  -0.00696  -0.00031
  58 7   H  1S         -0.00347   0.01914  -0.00234   0.02080  -0.08044
  59        2S         -0.00723  -0.01679  -0.00652   0.00835  -0.01234
  60        3PX        -0.00057  -0.00107   0.00067   0.00064  -0.00010
  61        3PY        -0.00039  -0.00207  -0.00146  -0.00029   0.00662
  62        3PZ         0.00023   0.00037   0.00011   0.00210   0.00178
  63 8   C  1S          0.16704  -0.15325  -0.08515   0.03454  -0.31449
  64        2S         -0.08901   0.04438  -0.25209  -0.01275   0.01827
  65        3S         -0.04213   0.03935  -0.08485  -0.06466   0.06208
  66        4PX         0.00512   0.01946  -0.02172   0.11208  -0.08808
  67        4PY        -0.01025   0.03603  -0.00313  -0.12196   0.03077
  68        4PZ        -0.00313   0.04622   0.02012  -0.14716   0.04452
  69        5PX         0.01213   0.02469   0.00550   0.06585  -0.02709
  70        5PY        -0.00362   0.00333   0.00134  -0.05556   0.00775
  71        5PZ        -0.00613   0.01874   0.00581  -0.07679   0.02928
  72        6D 0        0.00047   0.00379  -0.00193   0.00437  -0.00570
  73        6D+1        0.00095   0.00094   0.00163   0.00234  -0.00161
  74        6D-1       -0.00030  -0.00301   0.00164  -0.00336   0.00359
  75        6D+2       -0.00067   0.00004   0.00112   0.00210  -0.00349
  76        6D-2        0.00015  -0.00190   0.00246  -0.00785   0.00868
  77 9   H  1S         -0.00518   0.13793  -0.05749   0.00728  -0.13920
  78        2S         -0.00976   0.04216  -0.04020  -0.01013  -0.06303
  79        3PX        -0.00021   0.00129  -0.00143  -0.00179   0.00155
  80        3PY        -0.00041   0.00301  -0.00052  -0.00106  -0.00292
  81        3PZ         0.00023  -0.00784   0.00215  -0.00118   0.00781
  82 10  H  1S          0.02651  -0.11010   0.06179   0.07778   0.10185
  83        2S          0.00259  -0.05645   0.01045   0.01189   0.04043
  84        3PX         0.00014  -0.00079  -0.00059   0.00009   0.00299
  85        3PY         0.00143  -0.00600   0.00447   0.00521   0.00489
  86        3PZ         0.00026   0.00047  -0.00042   0.00182  -0.00117
  87 11  H  1S         -0.03285   0.00479  -0.11763   0.11422  -0.04409
  88        2S         -0.00343   0.02141  -0.03324   0.04155  -0.04153
  89        3PX        -0.00009   0.00048  -0.00021   0.00199  -0.00148
  90        3PY        -0.00009   0.00124   0.00010  -0.00334   0.00130
  91        3PZ        -0.00420   0.00085  -0.01190   0.00576  -0.00048
  92 12  H  1S         -0.04113   0.05096  -0.08861  -0.13209   0.05933
  93        2S         -0.00215   0.00118  -0.01146  -0.03281   0.03226
  94        3PX         0.00093  -0.00012   0.00188   0.00356  -0.00187
  95        3PY         0.00429  -0.00493   0.00970   0.00761  -0.00306
  96        3PZ         0.00199  -0.00216   0.00512   0.00053  -0.00017
  97 13  C  1S         -0.03661   0.00103   0.14770  -0.02183   0.19847
  98        2S         -0.00045   0.05499  -0.00295   0.02810  -0.21501
  99        3S         -0.00570  -0.04128  -0.01862   0.00883  -0.09829
 100        4PX         0.00255  -0.05650   0.10246  -0.09138  -0.07495
 101        4PY        -0.02628   0.02784  -0.02566   0.00661  -0.06837
 102        4PZ         0.02392   0.19091   0.03330  -0.13244  -0.03569
 103        5PX        -0.00636  -0.02990   0.02471  -0.06358  -0.02304
 104        5PY        -0.01060   0.00250  -0.00867   0.01072  -0.04584
 105        5PZ         0.01396   0.09502   0.01805  -0.06075  -0.00876
 106        6D 0        0.00258   0.00834   0.00047   0.00060  -0.00302
 107        6D+1       -0.00087   0.00421  -0.00560   0.00253   0.00345
 108        6D-1        0.00118  -0.00051   0.00251  -0.00368   0.00506
 109        6D+2       -0.00143  -0.00091   0.00515  -0.00428  -0.00688
 110        6D-2        0.00168  -0.00603   0.00610  -0.00154  -0.00169
 111 14  H  1S          0.01475  -0.05188  -0.01199   0.05225   0.00601
 112        2S          0.00714  -0.01795  -0.00196   0.00930   0.03111
 113        3PX         0.00031  -0.00103   0.00136  -0.00073  -0.00196
 114        3PY         0.00080  -0.00242  -0.00100   0.00416  -0.00456
 115        3PZ         0.00079   0.00308   0.00014  -0.00063  -0.00324
 116 15  H  1S          0.02653   0.18813   0.02231  -0.08269  -0.12211
 117        2S          0.01585   0.07140   0.00717  -0.00139  -0.04136
 118        3PX         0.00038  -0.00087   0.00163  -0.00108  -0.00078
 119        3PY        -0.00000   0.00233   0.00034  -0.00072  -0.00178
 120        3PZ        -0.00176  -0.01183  -0.00109   0.00503   0.01154
 121 16  C  1S          0.84532  -0.01380  -0.28061  -0.12414   0.14294
 122        2S          0.03229  -0.15196   0.17706  -0.10880  -0.10936
 123        3S         -0.02882  -0.02399   0.07936  -0.02174  -0.04666
 124        4PX        -0.00481   0.05990   0.02671  -0.09418   0.11684
 125        4PY        -0.01683  -0.03692  -0.11636   0.02384   0.06772
 126        4PZ        -0.03259   0.08620   0.03078  -0.18892   0.00382
 127        5PX         0.00421   0.03278   0.01914  -0.03104   0.03658
 128        5PY        -0.01355  -0.02619  -0.05270   0.00839   0.01773
 129        5PZ        -0.01735   0.03727   0.01812  -0.08436  -0.00381
 130        6D 0        0.00306  -0.00150  -0.00097   0.01062  -0.00248
 131        6D+1       -0.00111  -0.00300  -0.00172   0.00021   0.00718
 132        6D-1       -0.00089  -0.00090  -0.00366   0.00115   0.00320
 133        6D+2       -0.00116  -0.00413   0.00069   0.00281  -0.00969
 134        6D-2       -0.00354  -0.00879  -0.00739  -0.00145   0.00080
 135 17  H  1S          0.00469   0.03876   0.17299  -0.13967  -0.01612
 136        2S          0.01018   0.03622   0.04918  -0.03592   0.00435
 137        3PX         0.00055   0.00095  -0.00979   0.00653   0.00419
 138        3PY        -0.00106  -0.00113   0.00872  -0.00850  -0.00101
 139        3PZ        -0.00044   0.00158  -0.00357  -0.00161   0.00154
 140 18  H  1S          0.03246  -0.12201   0.04101   0.13809  -0.05419
 141        2S          0.02274  -0.02378   0.00282   0.06405  -0.02188
 142        3PX        -0.00034   0.00176   0.00090  -0.00282   0.00204
 143        3PY         0.00004  -0.00047  -0.00306   0.00049   0.00160
 144        3PZ         0.00075  -0.01033   0.00672   0.00534  -0.00496
 145 19  C  1S          0.33977  -0.09622  -0.07008  -0.00990  -0.26307
 146        2S         -0.01853   0.05567  -0.16134  -0.03611   0.17244
 147        3S         -0.01542   0.01322  -0.08180  -0.02377   0.11158
 148        4PX        -0.07460  -0.09921  -0.10322  -0.07226   0.04400
 149        4PY         0.03635   0.11227  -0.03257   0.09546   0.03862
 150        4PZ         0.02726   0.03063   0.01201   0.12012  -0.07015
 151        5PX        -0.07197  -0.09952  -0.09090  -0.07731   0.02724
 152        5PY         0.01700   0.05646   0.00302   0.04487  -0.00082
 153        5PZ         0.01976   0.02538   0.01936   0.06687  -0.03698
 154        6D 0        0.00166  -0.00022  -0.00405   0.00983  -0.00049
 155        6D+1        0.00037  -0.00116  -0.00136   0.00231   0.00035
 156        6D-1       -0.00108  -0.00690   0.00215  -0.00004  -0.00268
 157        6D+2        0.00043  -0.00239  -0.00172   0.00633  -0.00435
 158        6D-2       -0.00078  -0.00300   0.00026  -0.00167  -0.00215
 159 20  H  1S          0.00573   0.11104  -0.07857  -0.00774   0.13295
 160        2S          0.00572   0.04170  -0.00759  -0.01138   0.02966
 161        3PX        -0.00243  -0.00275  -0.00368  -0.00282   0.00246
 162        3PY         0.00075  -0.00577   0.00722   0.00137  -0.01022
 163        3PZ         0.00079   0.00563  -0.00407   0.00298   0.00543
 164 21  H  1S          0.00157   0.03203  -0.07908   0.09835   0.02257
 165        2S          0.00835   0.00094  -0.01650   0.05174  -0.01323
 166        3PX        -0.00228  -0.00424  -0.00129  -0.00416   0.00058
 167        3PY         0.00076   0.00220   0.00034   0.00096   0.00094
 168        3PZ         0.00132  -0.00353   0.00833  -0.00335  -0.00635
                          11        12        13        14        15
     Eigenvalues --     1.00000   1.00000   1.00000   1.00000   1.00000
   1 1   C  1S         -0.06708  -0.08730  -0.08087   0.12743   0.11707
   2        2S          0.09904  -0.09937   0.08874   0.03616  -0.15848
   3        3S          0.02226  -0.05883   0.07529   0.01340  -0.05588
   4        4PX         0.20009   0.05513  -0.08406  -0.06169  -0.06879
   5        4PY         0.09219  -0.12638   0.12618   0.04568   0.01696
   6        4PZ         0.02758   0.15947  -0.01251   0.07545   0.07281
   7        5PX         0.08797   0.06434  -0.05394  -0.02732  -0.02851
   8        5PY         0.02952  -0.11783   0.09846   0.02821   0.00953
   9        5PZ         0.01836   0.10317  -0.02931   0.02995   0.02662
  10        6D 0       -0.00371   0.00354   0.00458   0.00839   0.00441
  11        6D+1       -0.00608   0.00042  -0.00452  -0.00467   0.00213
  12        6D-1       -0.00387   0.00124  -0.00145  -0.00044  -0.00059
  13        6D+2        0.00833  -0.00047  -0.00025  -0.00213  -0.00394
  14        6D-2        0.00226  -0.00289  -0.00136  -0.00442  -0.00538
  15 2   C  1S         -0.07261   0.03901   0.15548   0.12589   0.46659
  16        2S          0.01201  -0.03903   0.03142  -0.13977  -0.09049
  17        3S          0.04378   0.00750  -0.05193  -0.04689  -0.04721
  18        4PX        -0.20178   0.07586  -0.02861  -0.05761   0.08472
  19        4PY        -0.05151  -0.00401   0.00020  -0.01747   0.03925
  20        4PZ         0.10381   0.03355  -0.11490  -0.14779  -0.01280
  21        5PX        -0.07500   0.03095  -0.02133  -0.02011   0.03899
  22        5PY        -0.03100   0.00411   0.00360  -0.00899   0.02008
  23        5PZ         0.05422   0.01281  -0.05409  -0.07269  -0.00965
  24        6D 0       -0.00698   0.00425   0.00393   0.01096   0.00647
  25        6D+1       -0.01129   0.00050  -0.00081  -0.00407   0.00532
  26        6D-1       -0.00111  -0.00299   0.00015  -0.00089  -0.00033
  27        6D+2        0.00459  -0.00638   0.00773   0.00039  -0.00592
  28        6D-2        0.00735   0.00080  -0.00378   0.00177  -0.00402
  29 3   H  1S         -0.11477  -0.05054  -0.00949  -0.03675  -0.07992
  30        2S         -0.04629  -0.00820  -0.02172  -0.02520  -0.01764
  31        3PX        -0.00043  -0.00030  -0.00212  -0.00192  -0.00514
  32        3PY        -0.00459  -0.00728   0.00475   0.00012  -0.00527
  33        3PZ        -0.00345   0.00141   0.00021   0.00085  -0.00298
  34 4   H  1S          0.01724   0.05434   0.08207   0.11225   0.01693
  35        2S         -0.00402   0.02922   0.02551   0.04923   0.02169
  36        3PX         0.00454   0.00348  -0.00020   0.00189  -0.00106
  37        3PY         0.00109  -0.00453   0.00215  -0.00038   0.00079
  38        3PZ        -0.00114   0.00093  -0.00740  -0.00595   0.00220
  39 5   C  1S         -0.00884  -0.02346  -0.11359   0.12902  -0.05961
  40        2S         -0.13118  -0.00737   0.10905  -0.18744  -0.03138
  41        3S         -0.11077  -0.03792   0.12215  -0.04332   0.03068
  42        4PX        -0.01756  -0.02772   0.10121  -0.01780  -0.05230
  43        4PY        -0.10289   0.05122   0.00492  -0.08869   0.01508
  44        4PZ        -0.06752   0.06350  -0.02030   0.03608   0.14006
  45        5PX        -0.00952  -0.00355   0.05918  -0.00730  -0.01980
  46        5PY        -0.07049   0.01875   0.01017  -0.04524   0.01128
  47        5PZ        -0.02318   0.03133  -0.01572   0.01463   0.06402
  48        6D 0       -0.00522   0.00410   0.00233   0.00671   0.00791
  49        6D+1       -0.00343  -0.00148  -0.00394   0.00385   0.00308
  50        6D-1        0.00588  -0.00283  -0.00282   0.00255  -0.00029
  51        6D+2       -0.00039   0.00156   0.00375  -0.00499  -0.00344
  52        6D-2        0.00418  -0.00253   0.00524   0.00507  -0.00128
  53 6   H  1S         -0.09670  -0.02181   0.10902   0.08913  -0.00973
  54        2S         -0.04074   0.01338   0.04519   0.05569   0.02287
  55        3PX        -0.00349   0.00197  -0.00070  -0.00095   0.00126
  56        3PY        -0.00039   0.00038  -0.00115  -0.00150   0.00075
  57        3PZ        -0.00530  -0.00329   0.00683   0.00095  -0.00414
  58 7   H  1S         -0.03098   0.00598  -0.04847  -0.12773  -0.00695
  59        2S         -0.01142   0.00213  -0.03040  -0.03977   0.00139
  60        3PX        -0.00368   0.00173  -0.00064   0.00087   0.00192
  61        3PY         0.00170   0.00052   0.00203   0.01027   0.00267
  62        3PZ         0.00326   0.00049  -0.00198   0.00065   0.00046
  63 8   C  1S         -0.16043  -0.65331  -0.13145   0.03904  -0.00072
  64        2S          0.12379  -0.03109   0.12622  -0.05638  -0.06838
  65        3S          0.10897   0.00405  -0.02790  -0.03688  -0.03110
  66        4PX         0.07555   0.00856  -0.08273   0.10662   0.09039
  67        4PY         0.04486   0.00168  -0.03865   0.07471   0.04381
  68        4PZ        -0.07702  -0.05990  -0.05833   0.00988   0.04699
  69        5PX         0.01796  -0.00043  -0.05027   0.03996   0.05820
  70        5PY         0.01051   0.00202  -0.00582   0.04139   0.02942
  71        5PZ        -0.02748  -0.02968  -0.03354   0.00521   0.02133
  72        6D 0        0.00149   0.00518  -0.00114   0.00044  -0.00233
  73        6D+1        0.00535  -0.00081  -0.00586   0.00383  -0.00186
  74        6D-1        0.00131  -0.00108  -0.00021   0.00382   0.00294
  75        6D+2       -0.00733   0.00127   0.01050  -0.00557  -0.00367
  76        6D-2       -0.00291  -0.00220   0.00351  -0.00174  -0.00570
  77 9   H  1S         -0.11108   0.05811   0.03870  -0.02211   0.11643
  78        2S         -0.03522   0.03653   0.01401   0.01846   0.04217
  79        3PX        -0.00086  -0.00109   0.00138  -0.00036  -0.00134
  80        3PY        -0.00231   0.00132   0.00048  -0.00160   0.00137
  81        3PZ         0.00836  -0.00255  -0.00448   0.00562  -0.00605
  82 10  H  1S          0.06136  -0.06513   0.02071  -0.00706  -0.05274
  83        2S          0.03591  -0.02185  -0.02241   0.00612  -0.01360
  84        3PX         0.00011  -0.00190   0.00207  -0.00111  -0.00212
  85        3PY         0.00083  -0.00361   0.00398  -0.00449  -0.00366
  86        3PZ        -0.00143   0.00028   0.00164  -0.00061   0.00162
  87 11  H  1S          0.11707   0.06258   0.08726  -0.02765  -0.06751
  88        2S          0.02389   0.03145   0.01478  -0.00543  -0.02609
  89        3PX         0.00130   0.00019  -0.00157   0.00134   0.00132
  90        3PY         0.00116  -0.00057  -0.00192   0.00184   0.00125
  91        3PZ         0.01086   0.00372   0.00789  -0.00241  -0.00509
  92 12  H  1S          0.09243  -0.02580  -0.02401   0.06118   0.03481
  93        2S          0.04306  -0.02135  -0.02478   0.02907   0.00990
  94        3PX         0.00003   0.00005  -0.00130   0.00140  -0.00009
  95        3PY        -0.00708   0.00072  -0.00163  -0.00185  -0.00084
  96        3PZ        -0.00543  -0.00127  -0.00137  -0.00065   0.00052
  97 13  C  1S         -0.09509   0.20612  -0.04992  -0.10545   0.02584
  98        2S          0.16357   0.02787   0.11520   0.00149   0.05068
  99        3S          0.00675   0.00347   0.06736   0.02376   0.07186
 100        4PX        -0.02462   0.01613   0.21136   0.06230   0.04380
 101        4PY        -0.07296   0.00130   0.09041   0.07316  -0.00432
 102        4PZ        -0.02254   0.01392  -0.13994  -0.03895  -0.12927
 103        5PX         0.00586   0.00590   0.09828   0.03238   0.03885
 104        5PY        -0.04569   0.00229   0.05620   0.03975   0.00172
 105        5PZ        -0.00130   0.00354  -0.07590  -0.02124  -0.06569
 106        6D 0       -0.00217   0.00395  -0.01157  -0.00364  -0.00729
 107        6D+1        0.00184  -0.00065  -0.00462  -0.00051  -0.00378
 108        6D-1        0.00035  -0.00190  -0.00418  -0.00194   0.00064
 109        6D+2       -0.00254  -0.00048   0.01388  -0.00144   0.00010
 110        6D-2       -0.00278   0.00097   0.00792   0.00248  -0.00047
 111 14  H  1S          0.13389  -0.00473  -0.02611  -0.04151   0.05309
 112        2S          0.04279  -0.00856  -0.02060  -0.00039   0.00600
 113        3PX         0.00115   0.00064   0.00403  -0.00003   0.00160
 114        3PY         0.01082  -0.00033   0.00181  -0.00285   0.00410
 115        3PZ         0.00464   0.00084  -0.00269  -0.00222  -0.00172
 116 15  H  1S          0.04868   0.03249  -0.09714  -0.04608  -0.10281
 117        2S          0.01086   0.02661  -0.05540  -0.03049  -0.05615
 118        3PX        -0.00102   0.00050   0.00377   0.00107   0.00000
 119        3PY        -0.00170  -0.00002   0.00065   0.00072  -0.00097
 120        3PZ        -0.00715  -0.00145   0.00281   0.00270   0.00453
 121 16  C  1S         -0.03975   0.29872  -0.04984   0.13026  -0.06107
 122        2S          0.08146  -0.00487   0.22750  -0.09316   0.04653
 123        3S          0.00943  -0.01838   0.08401  -0.02660  -0.03202
 124        4PX         0.02560  -0.05112  -0.18958  -0.12802  -0.03359
 125        4PY        -0.07832   0.00952  -0.01233   0.04863  -0.07181
 126        4PZ        -0.02192  -0.05781   0.16552   0.08969  -0.02123
 127        5PX         0.02223  -0.02089  -0.09816  -0.04626  -0.01572
 128        5PY        -0.03244   0.00483   0.00404   0.02989  -0.03309
 129        5PZ        -0.01225  -0.02750   0.08563   0.04354  -0.00998
 130        6D 0       -0.00397   0.00583  -0.01072  -0.00448  -0.00797
 131        6D+1       -0.00156  -0.00132  -0.00484  -0.00504   0.00064
 132        6D-1       -0.00515   0.00082   0.00414   0.00071  -0.00704
 133        6D+2       -0.00147   0.00189   0.00757   0.00324   0.00606
 134        6D-2       -0.00272   0.00134   0.00940   0.00029   0.00665
 135 17  H  1S          0.10609  -0.06066   0.01181  -0.11432   0.03276
 136        2S          0.04793  -0.02483  -0.01508  -0.02622   0.00926
 137        3PX        -0.00600   0.00219  -0.00664   0.00537  -0.00307
 138        3PY         0.00475  -0.00337   0.00283  -0.00784   0.00177
 139        3PZ        -0.00272  -0.00045   0.00210   0.00536  -0.00026
 140 18  H  1S          0.03687   0.05684  -0.07228  -0.12374   0.00277
 141        2S         -0.00224   0.03594  -0.05032  -0.04885  -0.02789
 142        3PX         0.00125  -0.00157  -0.00317  -0.00260  -0.00058
 143        3PY        -0.00198   0.00017  -0.00084   0.00188  -0.00093
 144        3PZ         0.00504   0.00187   0.00093  -0.01026   0.00272
 145 19  C  1S         -0.09077  -0.29768  -0.08372  -0.12281   0.22781
 146        2S         -0.00886  -0.01366   0.14392  -0.21237   0.04823
 147        3S         -0.00431   0.00356   0.03768  -0.08655   0.04871
 148        4PX        -0.08051   0.00364  -0.00133  -0.10444   0.19982
 149        4PY         0.11475   0.00267  -0.05756  -0.03902   0.10007
 150        4PZ        -0.11128   0.08773   0.05113  -0.06090  -0.18937
 151        5PX        -0.06882  -0.00343   0.03130  -0.06378   0.18315
 152        5PY         0.05358   0.00071  -0.01178  -0.01016   0.02184
 153        5PZ        -0.03860   0.04025   0.01689  -0.02125  -0.11032
 154        6D 0       -0.00526   0.00536  -0.00243  -0.00693  -0.00569
 155        6D+1       -0.00125   0.00102   0.00207  -0.00185  -0.00181
 156        6D-1       -0.00522   0.00170   0.00089  -0.00184  -0.00693
 157        6D+2       -0.00508   0.00413  -0.00145   0.00436  -0.00276
 158        6D-2       -0.00275   0.00037   0.00728   0.00275  -0.00264
 159 20  H  1S          0.14574  -0.04462   0.00030  -0.07834   0.16599
 160        2S          0.05704  -0.02176  -0.00713  -0.01087   0.05727
 161        3PX        -0.00204  -0.00018   0.00032  -0.00356   0.00671
 162        3PY        -0.00728   0.00199  -0.00251   0.00718  -0.00975
 163        3PZ         0.00362   0.00066   0.00205  -0.00650   0.00224
 164 21  H  1S         -0.10721   0.08273   0.09002  -0.16471  -0.10854
 165        2S         -0.04074   0.03422   0.01187  -0.04824  -0.04843
 166        3PX        -0.00057  -0.00158  -0.00196   0.00094   0.00792
 167        3PY         0.00339  -0.00070  -0.00176  -0.00002   0.00259
 168        3PZ         0.00541  -0.00438  -0.00873   0.01417   0.00281
                          16        17        18        19        20
     Eigenvalues --     1.00000   1.00000   1.00000   1.00000   1.00000
   1 1   C  1S         -0.08346  -0.14090   0.05799  -0.04356   0.13134
   2        2S          0.07674   0.09922  -0.09325  -0.04020   0.00915
   3        3S          0.03562   0.03195  -0.01694  -0.00995   0.00851
   4        4PX        -0.14487  -0.03301  -0.10723  -0.00301  -0.07857
   5        4PY        -0.02240   0.05508   0.06012   0.06300  -0.09071
   6        4PZ        -0.03760  -0.02263   0.07567  -0.10252  -0.11562
   7        5PX        -0.07291  -0.03393  -0.06763  -0.02288  -0.03973
   8        5PY         0.00497   0.03859   0.06097   0.05310  -0.02781
   9        5PZ        -0.02727  -0.02022   0.01314  -0.05736  -0.05492
  10        6D 0        0.00067  -0.00151   0.00273  -0.00228  -0.00400
  11        6D+1        0.00479  -0.00060   0.00208  -0.00139   0.00496
  12        6D-1        0.00342  -0.00032   0.00095  -0.00297   0.00319
  13        6D+2       -0.00690  -0.00029  -0.00077   0.00112  -0.00277
  14        6D-2        0.00451   0.00483  -0.00717   0.00059   0.00299
  15 2   C  1S         -0.05020  -0.35711  -0.22067  -0.48387   0.40288
  16        2S         -0.04381   0.08183   0.00019   0.05046   0.12030
  17        3S         -0.00637   0.04585  -0.02325   0.01970   0.02044
  18        4PX         0.01470  -0.04426   0.19338  -0.02513   0.09746
  19        4PY         0.17486   0.11935  -0.07073  -0.01310   0.00369
  20        4PZ         0.00539   0.02729   0.04881  -0.07323  -0.02431
  21        5PX         0.01936  -0.00852   0.08446  -0.02062   0.05785
  22        5PY         0.07668   0.05144  -0.03018  -0.00778   0.00149
  23        5PZ         0.00343   0.01391   0.01999  -0.03526  -0.01299
  24        6D 0        0.00035  -0.00225  -0.00530   0.00285  -0.00286
  25        6D+1        0.00184  -0.00073   0.00414   0.00395   0.00604
  26        6D-1        0.00735   0.00388  -0.00057  -0.00205   0.00114
  27        6D+2       -0.00679  -0.00391  -0.00394   0.00392  -0.00393
  28        6D-2        0.00528   0.00306  -0.01557  -0.00294  -0.00406
  29 3   H  1S          0.13540   0.03936  -0.06539  -0.01332   0.14710
  30        2S          0.05008   0.01223  -0.01776  -0.00724   0.05688
  31        3PX         0.00280   0.00092  -0.00532  -0.00146   0.00425
  32        3PY         0.00791   0.00427  -0.00244   0.00094   0.00645
  33        3PZ         0.00480   0.00162  -0.00193  -0.00313   0.00355
  34 4   H  1S          0.03232   0.03785   0.06251  -0.08221  -0.08687
  35        2S         -0.00052   0.00278   0.02521  -0.02300  -0.03294
  36        3PX        -0.00147   0.00048  -0.00093  -0.00329  -0.00402
  37        3PY        -0.00130   0.00019   0.00120   0.00348  -0.00065
  38        3PZ        -0.00557  -0.00541  -0.00268   0.00467   0.00304
  39 5   C  1S          0.10458   0.06147   0.07880  -0.02604  -0.09738
  40        2S         -0.20324  -0.03222   0.12442   0.17226   0.11146
  41        3S         -0.05856  -0.02723   0.10568   0.08036   0.01875
  42        4PX        -0.01919  -0.04559  -0.16639   0.03013  -0.04994
  43        4PY        -0.03816  -0.09992   0.00707  -0.01657  -0.01140
  44        4PZ         0.05774   0.05574  -0.15357   0.09196  -0.06272
  45        5PX        -0.00366  -0.02364  -0.08214   0.01757  -0.03904
  46        5PY        -0.02202  -0.05192   0.01266  -0.00231  -0.00229
  47        5PZ         0.03296   0.03208  -0.08506   0.04129  -0.02527
  48        6D 0        0.00280  -0.00080  -0.01083   0.00549  -0.00660
  49        6D+1        0.00194   0.00323   0.00634   0.00115   0.00323
  50        6D-1        0.00295   0.00489   0.00028  -0.00154  -0.00014
  51        6D+2       -0.00879  -0.00691  -0.00711   0.00250   0.00017
  52        6D-2       -0.00093  -0.00100  -0.00372   0.00066  -0.00382
  53 6   H  1S         -0.01254   0.01689  -0.05268   0.09057   0.04754
  54        2S         -0.00648  -0.00419  -0.03154   0.02799  -0.00354
  55        3PX         0.00044  -0.00094   0.00334  -0.00100   0.00105
  56        3PY         0.00411   0.00304  -0.00111  -0.00077   0.00011
  57        3PZ        -0.00029   0.00465  -0.00235   0.00725   0.00567
  58 7   H  1S          0.14255   0.14424  -0.00871  -0.01945   0.06376
  59        2S          0.06550   0.05285   0.00325  -0.01849   0.03455
  60        3PX        -0.00083  -0.00272   0.00329  -0.00074   0.00066
  61        3PY        -0.00656  -0.00974  -0.00071  -0.00098  -0.00495
  62        3PZ        -0.00338  -0.00436   0.00161  -0.00238  -0.00220
  63 8   C  1S          0.15744  -0.29958   0.10027  -0.07235  -0.17430
  64        2S         -0.11817   0.01394   0.06066   0.03236   0.16665
  65        3S         -0.06480   0.03489  -0.03025  -0.01659   0.05948
  66        4PX         0.09394   0.14720   0.03997  -0.01323   0.10041
  67        4PY         0.03609   0.02922   0.15617  -0.03262  -0.06203
  68        4PZ         0.03876   0.07315   0.01547   0.03989   0.06231
  69        5PX         0.03501   0.07232   0.04360  -0.00704   0.05809
  70        5PY         0.03154   0.01715   0.08596  -0.00240  -0.03143
  71        5PZ         0.01277   0.03282   0.00412   0.01752   0.02946
  72        6D 0       -0.00100  -0.00717  -0.00538  -0.00083  -0.00676
  73        6D+1        0.00352   0.00166   0.00481  -0.00338   0.00624
  74        6D-1        0.00160   0.00348   0.00750  -0.00305  -0.00403
  75        6D+2       -0.00829  -0.00805  -0.00319   0.00577   0.00074
  76        6D-2       -0.00576  -0.00495   0.00138   0.00153  -0.00734
  77 9   H  1S         -0.02708   0.03201  -0.10050   0.15486  -0.01915
  78        2S         -0.00370  -0.00169  -0.06202   0.04730  -0.02400
  79        3PX        -0.00061  -0.00104  -0.00306   0.00119  -0.00110
  80        3PY        -0.00094  -0.00226  -0.00160   0.00042  -0.00080
  81        3PZ         0.00577  -0.00225   0.00202  -0.01244  -0.00232
  82 10  H  1S         -0.04102   0.07744   0.13057   0.03844   0.08294
  83        2S          0.02100   0.05136   0.05138  -0.01040   0.02936
  84        3PX        -0.00155   0.00027  -0.00123   0.00155   0.00019
  85        3PY        -0.00721   0.00249   0.00965   0.00530   0.00738
  86        3PZ        -0.00183   0.00270   0.00054   0.00482   0.00154
  87 11  H  1S         -0.07777  -0.06708  -0.00301  -0.01593   0.00200
  88        2S         -0.02026  -0.04906  -0.02633   0.00363  -0.01708
  89        3PX         0.00175   0.00281   0.00023  -0.00005   0.00160
  90        3PY         0.00135   0.00140   0.00327  -0.00068  -0.00050
  91        3PZ        -0.00722  -0.00175   0.00263  -0.00052   0.00455
  92 12  H  1S          0.01684   0.09556   0.16580  -0.01845   0.05041
  93        2S          0.02109   0.04684   0.05995  -0.02854   0.00823
  94        3PX         0.00089   0.00104  -0.00232  -0.00057   0.00063
  95        3PY         0.00203  -0.00594  -0.00960  -0.00050  -0.00679
  96        3PZ         0.00156  -0.00052  -0.00382   0.00036  -0.00150
  97 13  C  1S         -0.25938   0.28686  -0.13922  -0.04910  -0.11415
  98        2S          0.07897   0.03188   0.03500   0.02532   0.18589
  99        3S          0.07531   0.01254   0.08966   0.04475   0.05245
 100        4PX        -0.01544  -0.07397   0.08477   0.03273  -0.15858
 101        4PY        -0.05759   0.00517   0.00992   0.09280   0.03866
 102        4PZ        -0.01145  -0.15658  -0.00383   0.00776   0.03261
 103        5PX        -0.00732  -0.02782   0.04483   0.02100  -0.07524
 104        5PY        -0.02031   0.00411   0.02024   0.04448   0.01624
 105        5PZ        -0.01644  -0.07867  -0.00450   0.00302   0.01884
 106        6D 0       -0.00089  -0.01266  -0.00151   0.00228  -0.00054
 107        6D+1       -0.00217   0.00410  -0.00216  -0.00441   0.00598
 108        6D-1        0.00199   0.00195   0.00021  -0.00512  -0.00203
 109        6D+2       -0.00373  -0.00492  -0.00029   0.00420  -0.00221
 110        6D-2        0.00229  -0.00497  -0.00296   0.00014  -0.01026
 111 14  H  1S          0.09534   0.07765  -0.00198  -0.08209   0.05449
 112        2S          0.03125   0.04404  -0.00675  -0.04503   0.00810
 113        3PX         0.00095  -0.00069   0.00191   0.00023  -0.00141
 114        3PY         0.00702   0.00422   0.00079  -0.00352   0.00714
 115        3PZ         0.00327  -0.00234  -0.00007  -0.00140   0.00348
 116 15  H  1S          0.02700  -0.15302   0.00611   0.02097   0.09502
 117        2S         -0.00101  -0.07816  -0.01711   0.00826   0.01687
 118        3PX        -0.00111  -0.00135   0.00191   0.00069  -0.00238
 119        3PY        -0.00175  -0.00153   0.00001   0.00184   0.00102
 120        3PZ        -0.00441   0.00766  -0.00182  -0.00086  -0.00993
 121 16  C  1S          0.04502  -0.02648   0.13277   0.01429   0.15437
 122        2S          0.15606  -0.04849  -0.07937   0.06101  -0.03314
 123        3S         -0.00722  -0.03570  -0.06884   0.02378  -0.01703
 124        4PX         0.05123   0.03754  -0.03566  -0.08895   0.05829
 125        4PY         0.05720  -0.00024  -0.15774   0.08051   0.01435
 126        4PZ        -0.02823   0.09439   0.05144  -0.11221  -0.01291
 127        5PX         0.02782   0.02358  -0.01187  -0.05267   0.03902
 128        5PY         0.02349  -0.00402  -0.07169   0.04708   0.00652
 129        5PZ        -0.01705   0.04428   0.02358  -0.04700  -0.00385
 130        6D 0       -0.00051  -0.00858  -0.00475   0.00259  -0.00044
 131        6D+1        0.00316   0.00567  -0.00098  -0.00439   0.00017
 132        6D-1        0.00304   0.00227  -0.00719  -0.00338  -0.00126
 133        6D+2       -0.00143   0.00260   0.01064   0.00358   0.00166
 134        6D-2        0.00853   0.00100   0.00189   0.00859  -0.00245
 135 17  H  1S          0.02649   0.02330   0.04433  -0.11257   0.01323
 136        2S         -0.01218   0.01375   0.01238  -0.04716   0.01553
 137        3PX        -0.00253   0.00032  -0.00257   0.00322   0.00110
 138        3PY         0.00524   0.00118  -0.00048  -0.00362   0.00067
 139        3PZ        -0.00233   0.00290   0.00101  -0.00071  -0.00033
 140 18  H  1S          0.08299  -0.12005  -0.08999   0.11379  -0.00448
 141        2S          0.02313  -0.05644  -0.02582   0.02604   0.00080
 142        3PX         0.00093   0.00064  -0.00049  -0.00187   0.00145
 143        3PY         0.00066   0.00063  -0.00247   0.00150   0.00043
 144        3PZ         0.00832  -0.00722  -0.00693   0.00787  -0.00101
 145 19  C  1S         -0.48070   0.34840  -0.17925  -0.19919  -0.03941
 146        2S          0.13510  -0.04320  -0.04611  -0.03264  -0.13320
 147        3S          0.08512  -0.00291   0.02295  -0.00841  -0.05189
 148        4PX         0.10904   0.07244   0.23525   0.10361  -0.00034
 149        4PY        -0.10027  -0.10415   0.06918   0.02542  -0.05115
 150        4PZ        -0.01220   0.01048   0.04508  -0.21793  -0.04835
 151        5PX         0.09583   0.06156   0.18702   0.12217  -0.00045
 152        5PY        -0.05360  -0.05588   0.01264   0.00563  -0.02125
 153        5PZ        -0.02037  -0.00795  -0.01085  -0.10935  -0.02213
 154        6D 0        0.00122  -0.00222   0.00192  -0.00559  -0.00287
 155        6D+1        0.00172  -0.00094  -0.00270  -0.00067  -0.00182
 156        6D-1        0.00677   0.00192  -0.00622  -0.00064   0.00201
 157        6D+2       -0.00220   0.00100   0.00477   0.00009   0.00099
 158        6D-2        0.00236   0.00025  -0.00459   0.00153  -0.00118
 159 20  H  1S         -0.01866  -0.10718   0.00693   0.09091  -0.07053
 160        2S         -0.02567  -0.02999   0.00470   0.02711  -0.01464
 161        3PX         0.00364   0.00147   0.00645   0.00406  -0.00046
 162        3PY        -0.00294   0.00686   0.00049  -0.00634   0.00541
 163        3PZ         0.00063  -0.00551   0.00034  -0.00105  -0.00509
 164 21  H  1S          0.07045  -0.01652   0.06372  -0.16893  -0.09798
 165        2S          0.01464  -0.00908   0.01678  -0.05350  -0.02331
 166        3PX         0.00175   0.00285   0.00517   0.00683   0.00224
 167        3PY        -0.00226  -0.00202   0.00030   0.00130  -0.00046
 168        3PZ        -0.00787   0.00223  -0.00542   0.00895   0.00855
                          21        22        23        24        25
     Eigenvalues --     1.00000   1.00000   1.00000   1.00000   1.00000
   1 1   C  1S         -0.02216  -0.09776   0.06616   0.26697   0.22597
   2        2S          0.13654   0.12128   0.19436   0.04208  -0.02997
   3        3S          0.07634   0.05135   0.06565  -0.01958   0.00684
   4        4PX        -0.11752   0.01712   0.11414  -0.01950  -0.14374
   5        4PY         0.00243  -0.02127   0.14941   0.00442  -0.08941
   6        4PZ         0.03241  -0.00872  -0.00269   0.21273  -0.00529
   7        5PX        -0.04935   0.01922   0.02309   0.00172  -0.05154
   8        5PY         0.01694  -0.02370   0.08946  -0.02812  -0.03478
   9        5PZ         0.00757   0.00259  -0.01591   0.10890  -0.00719
  10        6D 0        0.00623   0.00067  -0.00340   0.00631   0.00158
  11        6D+1       -0.00230  -0.00306  -0.00568  -0.00410   0.00720
  12        6D-1        0.00276   0.00020  -0.00277   0.00069   0.00506
  13        6D+2       -0.00309   0.00090   0.00888   0.00021  -0.00688
  14        6D-2       -0.00060   0.00443   0.00327  -0.00056  -0.00001
  15 2   C  1S         -0.00822   0.02263   0.10867   0.00008  -0.21214
  16        2S         -0.02830   0.11226   0.17679   0.15431  -0.10956
  17        3S         -0.04189   0.00292   0.04665   0.03890  -0.04177
  18        4PX         0.01304  -0.05089  -0.11095   0.09657   0.13745
  19        4PY         0.00593   0.04939  -0.04757   0.10043   0.06106
  20        4PZ        -0.11869  -0.05420   0.11992   0.01516   0.02551
  21        5PX         0.00650  -0.03277  -0.04935   0.03591   0.06314
  22        5PY         0.00263   0.02699  -0.03088   0.05583   0.03648
  23        5PZ        -0.05955  -0.03004   0.06553   0.00542   0.01504
  24        6D 0        0.00372   0.00306  -0.00821   0.00115  -0.00142
  25        6D+1       -0.00319  -0.00058  -0.00587  -0.00246   0.00539
  26        6D-1        0.00213  -0.00046  -0.00161   0.00198   0.00387
  27        6D+2        0.00259   0.00448   0.01073  -0.00997  -0.00328
  28        6D-2       -0.00026   0.00525   0.00200  -0.00427  -0.00272
  29 3   H  1S          0.08279   0.06055  -0.06269  -0.06999   0.11165
  30        2S          0.01228   0.00903  -0.03542  -0.01784   0.04743
  31        3PX         0.00202   0.00335  -0.00008  -0.00246   0.00136
  32        3PY         0.00704   0.00419   0.00127  -0.00413   0.00395
  33        3PZ         0.00557   0.00365  -0.00167   0.00239   0.00372
  34 4   H  1S          0.12485   0.03942   0.06189   0.19253  -0.00050
  35        2S          0.03702   0.00869   0.00345   0.06986  -0.00381
  36        3PX         0.00126   0.00171   0.00400   0.00558  -0.00267
  37        3PY        -0.00201  -0.00183   0.00185  -0.00390  -0.00187
  38        3PZ        -0.01021  -0.00443  -0.00679  -0.01006  -0.00052
  39 5   C  1S          0.03830  -0.02691  -0.00913  -0.08221   0.07868
  40        2S         -0.09205   0.07123  -0.02209   0.09407  -0.00136
  41        3S          0.00967   0.02109   0.00254   0.02071   0.01350
  42        4PX         0.03827   0.10455  -0.01286  -0.08669   0.05661
  43        4PY         0.00022   0.06574   0.07572  -0.08889   0.10700
  44        4PZ        -0.11681   0.08493  -0.02398  -0.05101  -0.05173
  45        5PX         0.02785   0.06196  -0.00328  -0.03655   0.02320
  46        5PY        -0.00200   0.03291   0.03347  -0.04652   0.05737
  47        5PZ        -0.06065   0.04670  -0.01366  -0.03397  -0.02159
  48        6D 0       -0.00366   0.00419  -0.00147  -0.00349   0.00067
  49        6D+1        0.00134  -0.00228  -0.00267   0.00359  -0.00747
  50        6D-1       -0.00139  -0.00451  -0.00149   0.00211  -0.00500
  51        6D+2       -0.00254   0.00276   0.00628  -0.00980   0.00185
  52        6D-2        0.00556   0.00467  -0.00693  -0.00496  -0.00220
  53 6   H  1S          0.08992   0.09961  -0.05311   0.06414  -0.05994
  54        2S          0.02867   0.03819  -0.02937   0.02296  -0.01846
  55        3PX         0.00046  -0.00098  -0.00162   0.00252   0.00265
  56        3PY        -0.00072   0.00055  -0.00078   0.00247   0.00129
  57        3PZ         0.00479   0.00814   0.00072   0.00759  -0.00471
  58 7   H  1S         -0.04108   0.04993   0.02759   0.16815   0.04179
  59        2S         -0.00721   0.00427  -0.01446   0.05572   0.01744
  60        3PX         0.00096  -0.00146  -0.00313  -0.00072   0.00195
  61        3PY         0.00293  -0.00486  -0.00583  -0.01190  -0.00073
  62        3PZ        -0.00144  -0.00401   0.00058  -0.00570   0.00062
  63 8   C  1S         -0.13824   0.08750   0.04582   0.11241  -0.08543
  64        2S         -0.03841  -0.02650  -0.06809  -0.10105  -0.00323
  65        3S         -0.05801  -0.00667   0.01086  -0.06751   0.00534
  66        4PX        -0.08152  -0.16834  -0.03515  -0.00100  -0.13216
  67        4PY         0.10054   0.08933  -0.11846   0.04197  -0.09007
  68        4PZ         0.01421   0.02269  -0.08181  -0.02657  -0.16893
  69        5PX        -0.04798  -0.07509  -0.03283   0.00895  -0.05090
  70        5PY         0.06930   0.04323  -0.04597   0.02138  -0.05267
  71        5PZ         0.00455   0.00998  -0.04008  -0.01685  -0.08470
  72        6D 0        0.00108  -0.00152   0.00584   0.00091   0.00745
  73        6D+1        0.00316  -0.01172  -0.00073   0.00142  -0.00430
  74        6D-1        0.00188   0.00455  -0.00426   0.00167  -0.00349
  75        6D+2       -0.00133  -0.00313   0.00801  -0.00286   0.00623
  76        6D-2        0.00548   0.00796  -0.00263   0.00586  -0.00029
  77 9   H  1S         -0.13242   0.10371  -0.03563  -0.00278  -0.04246
  78        2S         -0.03613   0.03723  -0.01512  -0.00067  -0.00350
  79        3PX         0.00050   0.00181   0.00030  -0.00142   0.00044
  80        3PY        -0.00121   0.00162   0.00223  -0.00303   0.00190
  81        3PZ         0.00973  -0.00694   0.00308  -0.00331   0.00398
  82 10  H  1S          0.00324  -0.06437  -0.07772   0.15285  -0.08900
  83        2S          0.00989  -0.01878  -0.04794   0.06359  -0.03701
  84        3PX        -0.00029   0.00151  -0.00067   0.00105  -0.00001
  85        3PY        -0.00154  -0.00254  -0.00366   0.00969  -0.00460
  86        3PZ        -0.00313   0.00130  -0.00301   0.00403  -0.00307
  87 11  H  1S         -0.01480  -0.02950   0.04362  -0.01351   0.14556
  88        2S          0.00591  -0.00867   0.01759   0.00597   0.05112
  89        3PX        -0.00163  -0.00232  -0.00053   0.00053  -0.00282
  90        3PY         0.00196   0.00219  -0.00411   0.00107  -0.00298
  91        3PZ        -0.00119  -0.00168  -0.00045  -0.00285   0.00755
  92 12  H  1S          0.06035   0.05995  -0.17706   0.00073  -0.15047
  93        2S          0.01582   0.03809  -0.09131   0.02861  -0.05578
  94        3PX        -0.00238  -0.00325   0.00090   0.00128  -0.00092
  95        3PY        -0.00242  -0.00157   0.01012   0.00270   0.00859
  96        3PZ        -0.00111  -0.00044   0.00319   0.00035  -0.00029
  97 13  C  1S          0.17837   0.01570   0.06652   0.18371   0.01028
  98        2S          0.07069  -0.08047  -0.02052  -0.13083   0.05432
  99        3S          0.06748  -0.06007   0.06804  -0.07052   0.00269
 100        4PX         0.09716   0.07232   0.02197  -0.00705   0.04158
 101        4PY        -0.03190  -0.22447   0.04934  -0.01229  -0.13587
 102        4PZ         0.16562  -0.10261   0.02463   0.05202  -0.00648
 103        5PX         0.05389   0.03476   0.02804  -0.03099   0.02538
 104        5PY         0.00091  -0.11282   0.03811  -0.01576  -0.07158
 105        5PZ         0.07551  -0.04530   0.00408   0.03241   0.00190
 106        6D 0        0.01306  -0.00442   0.00560   0.00309   0.00032
 107        6D+1       -0.00870  -0.00540   0.00185   0.00050   0.00539
 108        6D-1       -0.00103   0.00980  -0.00312   0.00077   0.00372
 109        6D+2        0.00030  -0.00587   0.00550  -0.00408   0.00070
 110        6D-2        0.00398   0.00537  -0.00028   0.00401   0.00686
 111 14  H  1S         -0.02133   0.17772  -0.08279  -0.04353   0.12088
 112        2S         -0.02160   0.07143  -0.05867   0.01098   0.03175
 113        3PX         0.00165   0.00345  -0.00041  -0.00121   0.00223
 114        3PY        -0.00075   0.00717  -0.00421  -0.00574   0.00759
 115        3PZ         0.00476   0.00116  -0.00149  -0.00119   0.00308
 116 15  H  1S          0.19382  -0.11293   0.02065  -0.00271   0.02072
 117        2S          0.08196  -0.03192   0.01013   0.01134   0.00060
 118        3PX         0.00151   0.00099   0.00073   0.00036   0.00094
 119        3PY         0.00002  -0.00482   0.00132   0.00005  -0.00246
 120        3PZ        -0.01163   0.00682   0.00050   0.00347  -0.00289
 121 16  C  1S         -0.11956   0.08803   0.12328   0.00448   0.05122
 122        2S          0.01140  -0.09705  -0.08153   0.04949  -0.00151
 123        3S         -0.01452  -0.02706  -0.04508   0.03813   0.00539
 124        4PX        -0.08757  -0.04225  -0.00564   0.05422   0.02947
 125        4PY        -0.02184  -0.16839  -0.01310   0.12070   0.01121
 126        4PZ        -0.18042  -0.08878   0.01434  -0.00232   0.14565
 127        5PX        -0.03918  -0.02673  -0.01350   0.02093   0.00593
 128        5PY         0.00004  -0.08326   0.00661   0.04902   0.01094
 129        5PZ        -0.08940  -0.04887   0.01354   0.00040   0.07303
 130        6D 0        0.01314   0.00345  -0.00138   0.00073  -0.01107
 131        6D+1       -0.00679   0.00036   0.00084   0.00043  -0.00053
 132        6D-1       -0.00672  -0.00727  -0.00425   0.00498  -0.00133
 133        6D+2        0.00574   0.00086   0.00824  -0.01186  -0.00418
 134        6D-2        0.00609  -0.00430   0.00797  -0.00260   0.00388
 135 17  H  1S         -0.09419   0.02743  -0.05098  -0.01119   0.03955
 136        2S         -0.05663   0.01466  -0.03184   0.00493   0.01538
 137        3PX         0.00153  -0.00147   0.00282   0.00158  -0.00136
 138        3PY        -0.00379  -0.00287  -0.00240   0.00077   0.00212
 139        3PZ        -0.00315  -0.00130   0.00199  -0.00025   0.00334
 140 18  H  1S          0.18498   0.03218  -0.05221   0.02685  -0.14688
 141        2S          0.08629   0.01286  -0.01104   0.00479  -0.06432
 142        3PX        -0.00215  -0.00085  -0.00062   0.00106   0.00093
 143        3PY        -0.00026  -0.00267   0.00040   0.00199   0.00115
 144        3PZ         0.01017  -0.00038  -0.00494   0.00270  -0.00760
 145 19  C  1S          0.35555  -0.12895  -0.11427  -0.11082   0.09098
 146        2S         -0.04829  -0.17279  -0.05424   0.10577  -0.01701
 147        3S         -0.02740  -0.02447   0.00546   0.02143  -0.00273
 148        4PX         0.13432  -0.06114   0.31249  -0.19153  -0.03741
 149        4PY         0.05987   0.16507  -0.05344   0.00077  -0.02365
 150        4PZ        -0.00391   0.07228  -0.06738  -0.09348  -0.16418
 151        5PX         0.11297  -0.08658   0.27658  -0.15076  -0.01206
 152        5PY         0.01764   0.06136  -0.04282   0.01283  -0.01317
 153        5PZ        -0.01590   0.04013  -0.06528  -0.02032  -0.07354
 154        6D 0        0.00585   0.00399  -0.00063  -0.00435  -0.01037
 155        6D+1        0.00044  -0.00149  -0.00257   0.00162  -0.00226
 156        6D-1        0.00037  -0.00719  -0.00041   0.00118  -0.00349
 157        6D+2        0.00519   0.00423   0.00411  -0.00640  -0.00570
 158        6D-2       -0.00108  -0.00630  -0.00139   0.00261   0.00101
 159 20  H  1S         -0.00120   0.02822  -0.05090   0.09917   0.06209
 160        2S         -0.00463   0.01908  -0.01709   0.02800   0.03293
 161        3PX         0.00391  -0.00229   0.00930  -0.00481  -0.00042
 162        3PY         0.00055   0.00268   0.00221  -0.00733  -0.00296
 163        3PZ        -0.00025   0.00199  -0.00500   0.00346  -0.00216
 164 21  H  1S          0.01533  -0.00236  -0.02728  -0.06935  -0.17194
 165        2S          0.02753   0.00954  -0.01194  -0.02994  -0.07310
 166        3PX         0.00379  -0.00179   0.00982  -0.00419   0.00250
 167        3PY         0.00055   0.00340  -0.00175   0.00111   0.00097
 168        3PZ         0.00054   0.00335   0.00058   0.00253   0.00963
                          26        27        28        29        30
     Eigenvalues --     1.00000   1.00000   1.00000   1.00000   0.00000
   1 1   C  1S         -0.35147   0.78633  -0.16409   0.12724   0.00905
   2        2S          0.13732   0.05551   0.05907  -0.08134  -0.06521
   3        3S          0.04739  -0.02370   0.02890  -0.02498  -2.09675
   4        4PX        -0.01977   0.05884  -0.06272   0.01345  -0.06420
   5        4PY        -0.11508  -0.06278  -0.04349   0.02150   0.00200
   6        4PZ        -0.15085  -0.09595   0.10584  -0.03250   0.04288
   7        5PX        -0.02955   0.02270  -0.01804   0.00969  -1.15591
   8        5PY        -0.03710  -0.03280  -0.02802   0.01208  -0.40445
   9        5PZ        -0.07049  -0.03685   0.05308  -0.01699   0.18701
  10        6D 0       -0.00785  -0.00428   0.00701  -0.00110  -0.02357
  11        6D+1        0.00581   0.00060  -0.00319   0.00147  -0.02679
  12        6D-1        0.00447   0.00110   0.00216  -0.00133   0.04772
  13        6D+2        0.00217   0.00277  -0.00049  -0.00156   0.01048
  14        6D-2        0.00355   0.00262  -0.00342  -0.00018  -0.01382
  15 2   C  1S          0.01251  -0.17024  -0.13673   0.08499   0.04377
  16        2S          0.10821   0.02116   0.01103  -0.09201  -0.74296
  17        3S          0.03233   0.03128   0.05118  -0.03778   6.74568
  18        4PX         0.05515  -0.03675   0.07801  -0.04218   0.09911
  19        4PY        -0.13026  -0.08764  -0.06043   0.03745  -0.00152
  20        4PZ         0.08724   0.00243  -0.09465   0.00523  -0.00904
  21        5PX         0.02779  -0.01567   0.05761  -0.02208   0.17182
  22        5PY        -0.06460  -0.04479  -0.03453   0.01965  -1.49951
  23        5PZ         0.04326  -0.00004  -0.04336   0.00071   1.07655
  24        6D 0       -0.00813  -0.00035   0.00649   0.00043  -0.06239
  25        6D+1        0.00529   0.00199  -0.00085   0.00019  -0.04478
  26        6D-1       -0.00525  -0.00406  -0.00209   0.00173  -0.00496
  27        6D+2        0.00270   0.00280   0.00220  -0.00100   0.12893
  28        6D-2       -0.00094   0.00235  -0.00278   0.00195   0.03924
  29 3   H  1S          0.21191   0.06280   0.02513  -0.03849   0.02517
  30        2S          0.06496   0.02367  -0.00431  -0.00583  -0.17883
  31        3PX         0.00911   0.00358   0.00096  -0.00207   0.00714
  32        3PY         0.01111   0.00146   0.00197  -0.00278   0.12628
  33        3PZ         0.00652   0.00031   0.00487  -0.00334  -0.02225
[...]
     4  H    0.000458   0.000046   0.000147   0.000068   0.000000   0.000001
     5  C   -0.007783  -0.012868  -0.004010  -0.003615  -0.000385  -0.000380
     6  H    0.002111   0.001131   0.000188   0.000402   0.000027   0.000010
     7  H    0.007625   0.001188   0.000384   0.000198  -0.000001  -0.000013
     8  C    0.001188   0.014478   0.001157   0.000996   0.000127  -0.000072
     9  H    0.000384   0.001157   0.000650   0.000307   0.000019   0.000043
    10  H    0.000198   0.000996   0.000307   0.000830  -0.000020  -0.000017
    11  H   -0.000001   0.000127   0.000019  -0.000020   0.000382   0.000174
    12  H   -0.000013  -0.000072   0.000043  -0.000017   0.000174   0.000372
    13  C   -0.000044  -0.003839  -0.000300  -0.000260  -0.001079  -0.001448
    14  H   -0.000004   0.001208   0.000014  -0.000142   0.000208   0.000144
    15  H   -0.000005   0.000098  -0.000009  -0.000035   0.000037   0.000093
    16  C    0.000003  -0.000107   0.000013   0.000015   0.000005  -0.000004
    17  H   -0.000000   0.000250   0.000001  -0.000004   0.000053   0.000076
    18  H   -0.000000   0.000125   0.000000  -0.000003   0.000090   0.000060
    19  C   -0.000013  -0.001127   0.000032  -0.000014   0.000637   0.003199
    20  H   -0.000000  -0.000046   0.000000  -0.000000   0.000023   0.000106
    21  H   -0.000000  -0.000003   0.000000  -0.000000   0.000005   0.000050
              13         14         15         16         17         18
     1  C   -0.000101  -0.000009  -0.000007   0.000001  -0.000000  -0.000000
     2  C   -0.000060   0.000022   0.000010   0.000001   0.000000   0.000001
     3  H   -0.000002  -0.000000  -0.000000   0.000000  -0.000000  -0.000000
     4  H   -0.000002  -0.000000  -0.000000   0.000000  -0.000000  -0.000000
     5  C    0.001329  -0.000413  -0.000123  -0.000003  -0.000027  -0.000016
     6  H   -0.000054  -0.000004  -0.000002   0.000003  -0.000000  -0.000000
     7  H   -0.000044  -0.000004  -0.000005   0.000003  -0.000000  -0.000000
     8  C   -0.003839   0.001208   0.000098  -0.000107   0.000250   0.000125
     9  H   -0.000300   0.000014  -0.000009   0.000013   0.000001   0.000000
    10  H   -0.000260  -0.000142  -0.000035   0.000015  -0.000004  -0.000003
    11  H   -0.001079   0.000208   0.000037   0.000005   0.000053   0.000090
    12  H   -0.001448   0.000144   0.000093  -0.000004   0.000076   0.000060
    13  C    0.076643  -0.006456  -0.002002  -0.003024  -0.011330  -0.003113
    14  H   -0.006456   0.004399   0.000496   0.000499   0.001324   0.000314
    15  H   -0.002002   0.000496   0.000301   0.000129   0.000434   0.000055
    16  C   -0.003024   0.000499   0.000129   0.012706   0.011056   0.002031
    17  H   -0.011330   0.001324   0.000434   0.011056   0.018649   0.001484
    18  H   -0.003113   0.000314   0.000055   0.002031   0.001484   0.001576
    19  C   -0.033955   0.001116   0.001690  -0.023255  -0.014138  -0.001870
    20  H   -0.000760   0.000021   0.000025   0.000472   0.000246   0.000156
    21  H   -0.000940   0.000029   0.000078   0.000514   0.000446   0.000054
              19         20         21
     1  C   -0.000000  -0.000000  -0.000000
     2  C    0.000019   0.000000   0.000000
     3  H    0.000000   0.000000   0.000000
     4  H    0.000000   0.000000  -0.000000
     5  C   -0.000366  -0.000005  -0.000004
     6  H   -0.000001  -0.000000  -0.000000
     7  H   -0.000013  -0.000000  -0.000000
     8  C   -0.001127  -0.000046  -0.000003
     9  H    0.000032   0.000000   0.000000
    10  H   -0.000014  -0.000000  -0.000000
    11  H    0.000637   0.000023   0.000005
    12  H    0.003199   0.000106   0.000050
    13  C   -0.033955  -0.000760  -0.000940
    14  H    0.001116   0.000021   0.000029
    15  H    0.001690   0.000025   0.000078
    16  C   -0.023255   0.000472   0.000514
    17  H   -0.014138   0.000246   0.000446
    18  H   -0.001870   0.000156   0.000054
    19  C    1.022592   0.003407   0.003447
    20  H    0.003407   0.001641   0.000321
    21  H    0.003447   0.000321   0.001314
 Mulliken charges and spin densities:
               1          2
     1  C   -0.107424   0.963528
     2  C   -0.045575   0.001085
     3  H    0.055472   0.005511
     4  H    0.055566   0.005512
     5  C   -0.063026   0.008727
     6  H    0.031011   0.003685
     7  H    0.031258   0.003661
     8  C   -0.060128   0.005185
     9  H    0.022392   0.002033
    10  H    0.021899   0.002085
    11  H    0.018306   0.000398
    12  H    0.025482   0.002516
    13  C   -0.052792   0.009207
    14  H    0.024025   0.002764
    15  H    0.021719   0.001262
    16  C   -0.031158   0.001054
    17  H    0.037802   0.008523
    18  H    0.029853   0.000943
    19  C   -0.129093   0.961400
    20  H    0.060105   0.005607
    21  H    0.054304   0.005313
 Sum of Mulliken charges =  -0.00000   2.00000
 Mulliken charges and spin densities with hydrogens summed into heavy atoms:
               1          2
     1  C    0.003614   0.974551
     2  C    0.016694   0.008432
     5  C   -0.018735   0.012845
     8  C   -0.016340   0.008099
    13  C   -0.007048   0.013234
    16  C    0.036497   0.010520
    19  C   -0.014684   0.972319
 Electronic spatial extent (au):  <R**2>=           1445.3975
 Charge=             -0.0000 electrons
 Dipole moment (field-independent basis, Debye):
    X=              0.0691    Y=             -0.2175    Z=              0.0467  Tot=              0.2329
 Quadrupole moment (field-independent basis, Debye-Ang):
   XX=            -51.9314   YY=            -47.6390   ZZ=            -46.3958
   XY=              0.4828   XZ=             -0.0086   YZ=              0.6216
 Traceless Quadrupole moment (field-independent basis, Debye-Ang):
   XX=             -3.2760   YY=              1.0164   ZZ=              2.2596
   XY=              0.4828   XZ=             -0.0086   YZ=              0.6216
 Octapole moment (field-independent basis, Debye-Ang**2):
  XXX=             -1.8284  YYY=              0.1436  ZZZ=              0.6901  XYY=              1.8483
  XXY=             -8.2865  XXZ=              3.6775  XZZ=              0.1667  YZZ=              0.4686
  YYZ=             -0.9723  XYZ=             -2.7425
 Hexadecapole moment (field-independent basis, Debye-Ang**3):
 XXXX=          -1873.1559 YYYY=           -192.0745 ZZZZ=           -113.1785 XXXY=             10.6100
 XXXZ=             -1.6228 YYYX=              2.3008 YYYZ=              1.1083 ZZZX=              0.2940
 ZZZY=              1.0667 XXYY=           -325.7089 XXZZ=           -297.5281 YYZZ=            -53.3934
 XXYZ=              7.2618 YYXZ=             -0.8981 ZZXY=              0.5677
 N-N= 2.914653772056D+02 E-N=-1.215862543078D+03  KE= 2.714554616674D+02
                          Isotropic Fermi Contact Couplings
        Atom                 a.u.       MegaHertz       Gauss      10(-4) cm-1
     1  C(13)              0.03437      19.31742       6.89293       6.44360
     2  C(13)              0.00179       1.00830       0.35979       0.33633
     3  H(1)               0.00047       1.06024       0.37832       0.35366
     4  H(1)               0.00047       1.06026       0.37833       0.35366
     5  C(13)              0.04300      24.17029       8.62456       8.06234
     6  H(1)               0.00248       5.54538       1.97873       1.84974
     7  H(1)               0.00245       5.46834       1.95124       1.82404
     8  C(13)              0.00385       2.16372       0.77207       0.72174
     9  H(1)               0.00007       0.16666       0.05947       0.05559
    10  H(1)               0.00016       0.34669       0.12371       0.11564
    11  H(1)               0.00004       0.08037       0.02868       0.02681
    12  H(1)               0.00019       0.42494       0.15163       0.14174
    13  C(13)              0.03763      21.14927       7.54659       7.05464
    14  H(1)               0.00069       1.54052       0.54970       0.51386
    15  H(1)               0.00008       0.16928       0.06040       0.05647
    16  C(13)              0.00135       0.76136       0.27167       0.25396
    17  H(1)               0.00560      12.50457       4.46194       4.17108
    18  H(1)               0.00058       1.30663       0.46624       0.43584
    19  C(13)              0.02051      11.52593       4.11274       3.84464
    20  H(1)               0.00031       0.69059       0.24642       0.23036
    21  H(1)               0.00022       0.49938       0.17819       0.16658
 --------------------------------------------------------
       Center         ----  Spin Dipole Couplings  ----
                      3XX-RR        3YY-RR        3ZZ-RR
 --------------------------------------------------------
     1   Atom       -0.143901      0.391640     -0.247740
     2   Atom        0.039478     -0.014864     -0.024613
     3   Atom       -0.019027      0.038062     -0.019035
     4   Atom       -0.035005     -0.021114      0.056118
     5   Atom        0.036592     -0.013145     -0.023447
     6   Atom        0.005909     -0.010783      0.004874
     7   Atom        0.010111      0.001902     -0.012014
     8   Atom        0.015324     -0.005190     -0.010134
     9   Atom        0.010477     -0.008126     -0.002352
    10   Atom        0.007558      0.000932     -0.008490
    11   Atom        0.006337     -0.005017     -0.001320
    12   Atom        0.016958     -0.007392     -0.009566
    13   Atom        0.027544     -0.005561     -0.021982
    14   Atom        0.001548      0.003939     -0.005487
    15   Atom        0.002009      0.000446     -0.002454
    16   Atom        0.001916      0.022110     -0.024026
    17   Atom       -0.008812      0.020757     -0.011945
    18   Atom       -0.006167     -0.001466      0.007633
    19   Atom        0.947418     -0.510964     -0.436454
    20   Atom       -0.001414      0.027792     -0.026378
    21   Atom        0.003097     -0.063952      0.060855
 --------------------------------------------------------
                        XY            XZ            YZ
 --------------------------------------------------------
     1   Atom       -0.616578      0.348670     -0.529992
     2   Atom        0.007535     -0.012211     -0.013285
     3   Atom        0.017890      0.046227      0.024921
     4   Atom       -0.034099     -0.023399      0.002402
     5   Atom       -0.021456      0.008082     -0.004894
     6   Atom        0.003495     -0.014209     -0.004078
     7   Atom        0.014660      0.000904      0.000758
     8   Atom        0.005901     -0.000429      0.000822
     9   Atom       -0.001361      0.006446     -0.002774
    10   Atom       -0.006869     -0.002742      0.002329
    11   Atom        0.001778      0.001943      0.000645
    12   Atom        0.001477      0.002408      0.000419
    13   Atom        0.025306     -0.008073     -0.002986
    14   Atom        0.003823      0.000246      0.002156
    15   Atom        0.007234     -0.004517     -0.004874
    16   Atom        0.018415      0.003011      0.023001
    17   Atom       -0.001875      0.000801      0.002993
    18   Atom        0.004611      0.005965      0.013314
    19   Atom       -0.244473     -0.409996      0.065961
    20   Atom       -0.017464     -0.012990     -0.054570
    21   Atom       -0.008451      0.009472      0.009924
 --------------------------------------------------------


 ---------------------------------------------------------------------------------
              Anisotropic Spin Dipole Couplings in Principal Axis System
 ---------------------------------------------------------------------------------

       Atom             a.u.   MegaHertz   Gauss  10(-4) cm-1        Axes

              Baa    -0.5488   -73.638   -26.276   -24.563  0.8470  0.3134 -0.4293
     1 C(13)  Bbb    -0.5469   -73.389   -26.187   -24.480  0.1907  0.5747  0.7959
              Bcc     1.0957   147.028    52.463    49.043 -0.4961  0.7560 -0.4270
 
              Baa    -0.0344    -4.612    -1.646    -1.538  0.0837  0.5387  0.8383
     2 C(13)  Bbb    -0.0091    -1.217    -0.434    -0.406 -0.2550  0.8249 -0.5046
              Bcc     0.0434     5.829     2.080     1.944  0.9633  0.1715 -0.2064
 
              Baa    -0.0655   -34.959   -12.474   -11.661 -0.6937 -0.0530  0.7183
     3 H(1)   Bbb     0.0020     1.080     0.385     0.360 -0.5765  0.6386 -0.5097
              Bcc     0.0635    33.879    12.089    11.301  0.4317  0.7677  0.4736
 
              Baa    -0.0652   -34.790   -12.414   -11.605  0.7869  0.6010  0.1399
     4 H(1)   Bbb     0.0020     1.059     0.378     0.353 -0.5525  0.7872 -0.2738
              Bcc     0.0632    33.731    12.036    11.252 -0.2746  0.1382  0.9516
 
              Baa    -0.0254    -3.410    -1.217    -1.137  0.0180  0.3976  0.9174
     5 C(13)  Bbb    -0.0204    -2.738    -0.977    -0.913  0.3727  0.8488 -0.3751
              Bcc     0.0458     6.148     2.194     2.051  0.9278 -0.3487  0.1329
 
              Baa    -0.0118    -6.286    -2.243    -2.097 -0.0028  0.9718  0.2356
     6 H(1)   Bbb    -0.0087    -4.664    -1.664    -1.556  0.7067 -0.1648  0.6881
              Bcc     0.0205    10.950     3.907     3.652  0.7075  0.1684 -0.6863
 
              Baa    -0.0121    -6.433    -2.295    -2.146 -0.0159 -0.0376  0.9992
     7 H(1)   Bbb    -0.0092    -4.917    -1.755    -1.640 -0.6048  0.7961  0.0203
              Bcc     0.0213    11.350     4.050     3.786  0.7962  0.6040  0.0354
 
              Baa    -0.0104    -1.391    -0.496    -0.464  0.0699 -0.2338  0.9698
     8 C(13)  Bbb    -0.0065    -0.877    -0.313    -0.293 -0.2482  0.9375  0.2439
              Bcc     0.0169     2.268     0.809     0.757  0.9662  0.2578 -0.0075
 
              Baa    -0.0093    -4.979    -1.777    -1.661 -0.0779  0.8997  0.4295
     9 H(1)   Bbb    -0.0041    -2.176    -0.776    -0.726 -0.3997 -0.4228  0.8133
              Bcc     0.0134     7.155     2.553     2.387  0.9133 -0.1083  0.3926
 
              Baa    -0.0091    -4.876    -1.740    -1.627  0.0943 -0.1628  0.9821
    10 H(1)   Bbb    -0.0033    -1.781    -0.635    -0.594  0.5467  0.8329  0.0856
              Bcc     0.0125     6.657     2.375     2.221  0.8320 -0.5289 -0.1676
 
              Baa    -0.0053    -2.839    -1.013    -0.947 -0.1349  0.9864 -0.0936
    11 H(1)   Bbb    -0.0018    -0.946    -0.338    -0.316 -0.2447  0.0584  0.9678
              Bcc     0.0071     3.785     1.351     1.263  0.9602  0.1534  0.2335
 
              Baa    -0.0098    -5.238    -1.869    -1.747 -0.0823 -0.1207  0.9893
    12 H(1)   Bbb    -0.0075    -3.975    -1.418    -1.326 -0.0713  0.9908  0.1149
              Bcc     0.0173     9.213     3.287     3.073  0.9941  0.0611  0.0902
 
              Baa    -0.0235    -3.147    -1.123    -1.050  0.2413 -0.1821  0.9532
    13 C(13)  Bbb    -0.0189    -2.537    -0.905    -0.846 -0.4234  0.8640  0.2722
              Bcc     0.0424     5.684     2.028     1.896  0.8732  0.4693 -0.1313
 
              Baa    -0.0060    -3.206    -1.144    -1.070  0.0923 -0.2446  0.9652
    14 H(1)   Bbb    -0.0010    -0.548    -0.195    -0.183  0.8167 -0.5360 -0.2139
              Bcc     0.0070     3.754     1.339     1.252  0.5697  0.8080  0.1503
 
              Baa    -0.0064    -3.421    -1.221    -1.141 -0.3948  0.7713  0.4993
    15 H(1)   Bbb    -0.0052    -2.778    -0.991    -0.927  0.6357 -0.1630  0.7545
              Bcc     0.0116     6.200     2.212     2.068  0.6633  0.6153 -0.4260
 
              Baa    -0.0341    -4.578    -1.634    -1.527  0.1358 -0.4129  0.9006
    16 C(13)  Bbb    -0.0062    -0.827    -0.295    -0.276  0.8925 -0.3437 -0.2921
              Bcc     0.0403     5.405     1.929     1.803  0.4301  0.8434  0.3218
 
              Baa    -0.0125    -6.658    -2.376    -2.221 -0.2613 -0.1012  0.9599
    17 H(1)   Bbb    -0.0087    -4.619    -1.648    -1.541  0.9634  0.0343  0.2659
              Bcc     0.0211    11.277     4.024     3.762 -0.0599  0.9943  0.0885
 
              Baa    -0.0110    -5.877    -2.097    -1.960 -0.0987  0.8245 -0.5572
    18 H(1)   Bbb    -0.0084    -4.461    -1.592    -1.488  0.9541 -0.0808 -0.2885
              Bcc     0.0194    10.338     3.689     3.448  0.2829  0.5600  0.7787
 
              Baa    -0.5512   -73.963   -26.392   -24.671  0.2393  0.9131  0.3300
    19 C(13)  Bbb    -0.5484   -73.590   -26.259   -24.547  0.1871 -0.3769  0.9072
              Bcc     1.0996   147.553    52.650    49.218  0.9528 -0.1553 -0.2610
 
              Baa    -0.0666   -35.510   -12.671   -11.845  0.2988  0.5186  0.8011
    20 H(1)   Bbb     0.0039     2.066     0.737     0.689  0.9454 -0.0461 -0.3228
              Bcc     0.0627    33.444    11.934    11.156 -0.1305  0.8537 -0.5041
 
              Baa    -0.0660   -35.196   -12.559   -11.740  0.1328  0.9873 -0.0872
    21 H(1)   Bbb     0.0030     1.613     0.576     0.538  0.9802 -0.1438 -0.1359
              Bcc     0.0629    33.582    11.983    11.202  0.1467  0.0674  0.9869
 

 ---------------------------------------------------------------------------------

 1\1\GINC-CNODE03\SP\ROHF\def2SVP\C7H14(3)\LCZ\15-May-2022\0\\# ROHF de
 f2SVP Pop=NOAB\\C7H14 two-free radical\\0,3\C,0,-3.693788,1.34595,-0.0
 80153\C,0,-2.193484,1.373788,-0.056812\H,0,-4.225508,1.180088,-1.01033
 4\H,0,-4.255204,1.224048,0.839301\C,0,-1.554416,-0.023401,-0.0161\H,0,
 -1.824927,1.905707,-0.93985\H,0,-1.852812,1.944021,0.813355\C,0,-0.027
 056,0.0145,0.00732\H,0,-1.919913,-0.559214,0.866609\H,0,-1.893486,-0.5
 98246,-0.884715\H,0,0.334747,0.551752,-0.877315\H,0,0.305045,0.594496,
 0.87434\C,0,0.609304,-1.374514,0.044919\H,0,0.262703,-1.951369,-0.8190
 54\H,0,0.259278,-1.91206,0.933203\C,0,2.14782,-1.364759,0.03756\H,0,2.
 493149,-2.399801,-0.057561\H,0,2.498336,-0.839762,-0.856087\C,0,2.7715
 44,-0.752033,1.258758\H,0,3.140055,0.266294,1.257206\H,0,2.687753,-1.2
 5126,2.218099\\Version=ES64L-G16RevA.03\State=3-A\HF=-272.9362705\RMSD
 =4.795e-09\Dipole=-0.0053073,-0.0877526,-0.0258427\Quadrupole=-1.69003
 04,-0.1331931,1.8232235,1.3338139,-0.3555156,-0.0262477\PG=C01 [X(C7H1
 4)]\\@


 NOTHING RESEMBLES A NEW PHENOMENON AS MUCH AS A MISTAKE.

                               -- ENRICO FERMI (?)
 Job cpu time:       0 days  0 hours  0 minutes 22.4 seconds.
 Elapsed time:       0 days  0 hours  0 minutes 22.4 seconds.
 File lengths (MBytes):  RWF=     24 Int=      0 D2E=      0 Chk=      4 Scr=      1
 Normal termination of Gaussian 16 at Sun May 15 18:31:22 2022.

Sender: Unischeduler System <lcz@mgt01>
Subject: Job 132271: <#!/bin/bash
#BSUB -J intel
#BSUB -o C7H14-ROHF.out
#BSUB -n 8
#BSUB -q cqueue
#BSUB -R span[hosts=1]
export g16root=/apps/software
source /apps/software/g16/bsd/g16.profile
export GAUSS_SCRDIR=/scratch
/apps/software/g16/g16 < C7H14-ROHF.inp > C7H14-ROHF.out> Done

Job <#!/bin/bash
#BSUB -J intel
#BSUB -o C7H14-ROHF.out
#BSUB -n 8
#BSUB -q cqueue
#BSUB -R span[hosts=1]
export g16root=/apps/software
source /apps/software/g16/bsd/g16.profile
export GAUSS_SCRDIR=/scratch
/apps/software/g16/g16 < C7H14-ROHF.inp > C7H14-ROHF.out> was submitted from host <mgt01> by user <lcz>.
Job was executed on host(s) <8*cnode03>, in queue <cqueue>, as user <lcz>.
</apps/users/lcz> was used as the home directory.
</apps/users/lcz/exe7/task4/Gaussian> was used as the working directory.
Started at 2022-05-15 18:30:59
Results reported at 2022-05-15 18:31:22

Your job looked like:

------------------------------------------------------------
# User input
#!/bin/bash
#BSUB -J intel
#BSUB -o C7H14-ROHF.out
#BSUB -n 8
#BSUB -q cqueue
#BSUB -R span[hosts=1]
export g16root=/apps/software
source /apps/software/g16/bsd/g16.profile
export GAUSS_SCRDIR=/scratch
/apps/software/g16/g16 < C7H14-ROHF.inp > C7H14-ROHF.out
------------------------------------------------------------

Successfully completed.

Resource usage summary:

    CPU time   :           12.84 sec.
    Max Memory :               170 MB
    Max Processes  :               5


The output (if any) follows:

