 Entering Gaussian System, Link 0=/apps/software/g16/g16
 Initial command:
 /apps/software/g16/l1.exe "/scratch/Gau-298436.inp" -scrdir="/scratch/"
 Entering Link 1 = /apps/software/g16/l1.exe PID=    298437.
  
 Copyright (c) 1988,1990,1992,1993,1995,1998,2003,2009,2016,
            Gaussian, Inc.  All Rights Reserved.
  
 This is part of the Gaussian(R) 16 program.  It is based on
 the Gaussian(R) 09 system (copyright 2009, Gaussian, Inc.),
 the Gaussian(R) 03 system (copyright 2003, Gaussian, Inc.),
 the Gaussian(R) 98 system (copyright 1998, Gaussian, Inc.),
 the Gaussian(R) 94 system (copyright 1995, Gaussian, Inc.),
 the Gaussian 92(TM) system (copyright 1992, Gaussian, Inc.),
 the Gaussian 90(TM) system (copyright 1990, Gaussian, Inc.),
 the Gaussian 88(TM) system (copyright 1988, Gaussian, Inc.),
 the Gaussian 86(TM) system (copyright 1986, Carnegie Mellon
 University), and the Gaussian 82(TM) system (copyright 1983,
 Carnegie Mellon University). Gaussian is a federally registered
 trademark of Gaussian, Inc.
  
 This software contains proprietary and confidential information,
 including trade secrets, belonging to Gaussian, Inc.
  
 This software is provided under written license and may be
 used, copied, transmitted, or stored only in accord with that
 written license.
  
 The following legend is applicable only to US Government
 contracts under FAR:
  
                    RESTRICTED RIGHTS LEGEND
  
 Use, reproduction and disclosure by the US Government is
 subject to restrictions as set forth in subparagraphs (a)
 and (c) of the Commercial Computer Software - Restricted
 Rights clause in FAR 52.227-19.
  
 Gaussian, Inc.
 340 Quinnipiac St., Bldg. 40, Wallingford CT 06492
  
  
 ---------------------------------------------------------------
 Warning -- This program may not be used in any manner that
 competes with the business of Gaussian, Inc. or will provide
 assistance to any competitor of Gaussian, Inc.  The licensee
 of this program is prohibited from giving any competitor of
 Gaussian, Inc. access to this program.  By using this program,
 the user acknowledges that Gaussian, Inc. is engaged in the
 business of creating and licensing software in the field of
 computational chemistry and represents and warrants to the
 licensee that it is not a competitor of Gaussian, Inc. and that
 it will not use this program in any manner prohibited above.
 ---------------------------------------------------------------
  

 Cite this work as:
 Gaussian 16, Revision A.03,
 M. J. Frisch, G. W. Trucks, H. B. Schlegel, G. E. Scuseria, 
 M. A. Robb, J. R. Cheeseman, G. Scalmani, V. Barone, 
 G. A. Petersson, H. Nakatsuji, X. Li, M. Caricato, A. V. Marenich, 
 J. Bloino, B. G. Janesko, R. Gomperts, B. Mennucci, H. P. Hratchian, 
 J. V. Ortiz, A. F. Izmaylov, J. L. Sonnenberg, D. Williams-Young, 
 F. Ding, F. Lipparini, F. Egidi, J. Goings, B. Peng, A. Petrone, 
 T. Henderson, D. Ranasinghe, V. G. Zakrzewski, J. Gao, N. Rega, 
 G. Zheng, W. Liang, M. Hada, M. Ehara, K. Toyota, R. Fukuda, 
 J. Hasegawa, M. Ishida, T. Nakajima, Y. Honda, O. Kitao, H. Nakai, 
 T. Vreven, K. Throssell, J. A. Montgomery, Jr., J. E. Peralta, 
 F. Ogliaro, M. J. Bearpark, J. J. Heyd, E. N. Brothers, K. N. Kudin, 
 V. N. Staroverov, T. A. Keith, R. Kobayashi, J. Normand, 
 K. Raghavachari, A. P. Rendell, J. C. Burant, S. S. Iyengar, 
 J. Tomasi, M. Cossi, J. M. Millam, M. Klene, C. Adamo, R. Cammi, 
 J. W. Ochterski, R. L. Martin, K. Morokuma, O. Farkas, 
 J. B. Foresman, and D. J. Fox, Gaussian, Inc., Wallingford CT, 2016.
 
 ******************************************
 Gaussian 16:  ES64L-G16RevA.03 25-Dec-2016
                15-May-2022 
 ******************************************
 %oldchk=C7H14-ROHF.chk
 %chk=C7H14-CAS22.chk
 Copying data from "C7H14-ROHF.chk" to current chk file "C7H14-CAS22.chk"
 IOpt=  2 FromEx=T IUOpen= 4 IOptOp= 5 NList=   0 IFRang= 0 IUIn= 4 IUOut= 2.
 ---------------------------------------
 #p cas(2,2)/def2SVP guess=read Pop=NOAB
 ---------------------------------------
 1/38=1,172=1/1;
 2/12=2,17=6,18=5,40=1/2;
 3/5=43,7=101,25=1,116=101/1,2,3;
 4/5=1,17=2,18=2,43=1/1,5;
 5/5=2,17=1000000,38=6/10;
 6/7=2,8=2,9=2,10=2,22=-1,28=1,31=2/1;
 99/5=1,9=1/99;
 Leave Link    1 at Sun May 15 18:18:53 2022, MaxMem=   104857600 cpu:               0.0 elap:               0.0
 (Enter /apps/software/g16/l101.exe)
 ----------------------
 C7H14 two-free radical
 ----------------------
 Symbolic Z-matrix:
 Charge =  0 Multiplicity = 1
 C                    -3.69379   1.34595  -0.08015 
 C                    -2.19348   1.37379  -0.05681 
 H                    -4.22551   1.18009  -1.01033 
 H                    -4.2552    1.22405   0.8393 
 C                    -1.55442  -0.0234   -0.0161 
 H                    -1.82493   1.90571  -0.93985 
 H                    -1.85281   1.94402   0.81336 
 C                    -0.02706   0.0145    0.00732 
 H                    -1.91991  -0.55921   0.86661 
 H                    -1.89349  -0.59825  -0.88472 
 H                     0.33475   0.55175  -0.87732 
 H                     0.30505   0.5945    0.87434 
 C                     0.6093   -1.37451   0.04492 
 H                     0.2627   -1.95137  -0.81905 
 H                     0.25928  -1.91206   0.9332 
 C                     2.14782  -1.36476   0.03756 
 H                     2.49315  -2.3998   -0.05756 
 H                     2.49834  -0.83976  -0.85609 
 C                     2.77154  -0.75203   1.25876 
 H                     3.14006   0.26629   1.25721 
 H                     2.68775  -1.25126   2.2181 
 
 ITRead=  0  0  0  0  0  0  0  0  0  0  0  0  0  0  0  0  0  0  0  0
 ITRead=  0
 MicOpt= -1 -1 -1 -1 -1 -1 -1 -1 -1 -1 -1 -1 -1 -1 -1 -1 -1 -1 -1 -1
 MicOpt= -1
 NAtoms=     21 NQM=       21 NQMF=       0 NMMI=      0 NMMIF=      0
                NMic=       0 NMicF=      0.
                    Isotopes and Nuclear Properties:
 (Nuclear quadrupole moments (NQMom) in fm**2, nuclear magnetic moments (NMagM)
  in nuclear magnetons)

  Atom         1           2           3           4           5           6           7           8           9          10
 IAtWgt=          12          12           1           1          12           1           1          12           1           1
 AtmWgt=  12.0000000  12.0000000   1.0078250   1.0078250  12.0000000   1.0078250   1.0078250  12.0000000   1.0078250   1.0078250
 NucSpn=           0           0           1           1           0           1           1           0           1           1
 AtZEff=  -0.0000000  -0.0000000  -0.0000000  -0.0000000  -0.0000000  -0.0000000  -0.0000000  -0.0000000  -0.0000000  -0.0000000
 NQMom=    0.0000000   0.0000000   0.0000000   0.0000000   0.0000000   0.0000000   0.0000000   0.0000000   0.0000000   0.0000000
 NMagM=    0.0000000   0.0000000   2.7928460   2.7928460   0.0000000   2.7928460   2.7928460   0.0000000   2.7928460   2.7928460
 AtZNuc=   6.0000000   6.0000000   1.0000000   1.0000000   6.0000000   1.0000000   1.0000000   6.0000000   1.0000000   1.0000000

  Atom        11          12          13          14          15          16          17          18          19          20
 IAtWgt=           1           1          12           1           1          12           1           1          12           1
 AtmWgt=   1.0078250   1.0078250  12.0000000   1.0078250   1.0078250  12.0000000   1.0078250   1.0078250  12.0000000   1.0078250
 NucSpn=           1           1           0           1           1           0           1           1           0           1
 AtZEff=  -0.0000000  -0.0000000  -0.0000000  -0.0000000  -0.0000000  -0.0000000  -0.0000000  -0.0000000  -0.0000000  -0.0000000
 NQMom=    0.0000000   0.0000000   0.0000000   0.0000000   0.0000000   0.0000000   0.0000000   0.0000000   0.0000000   0.0000000
 NMagM=    2.7928460   2.7928460   0.0000000   2.7928460   2.7928460   0.0000000   2.7928460   2.7928460   0.0000000   2.7928460
 AtZNuc=   1.0000000   1.0000000   6.0000000   1.0000000   1.0000000   6.0000000   1.0000000   1.0000000   6.0000000   1.0000000

  Atom        21
 IAtWgt=           1
 AtmWgt=   1.0078250
 NucSpn=           1
 AtZEff=  -0.0000000
 NQMom=    0.0000000
 NMagM=    2.7928460
 AtZNuc=   1.0000000
 Leave Link  101 at Sun May 15 18:18:53 2022, MaxMem=   104857600 cpu:               0.1 elap:               0.1
 (Enter /apps/software/g16/l202.exe)
                          Input orientation:                          
 ---------------------------------------------------------------------
 Center     Atomic      Atomic             Coordinates (Angstroms)
 Number     Number       Type             X           Y           Z
 ---------------------------------------------------------------------
      1          6           0       -3.693788    1.345950   -0.080153
      2          6           0       -2.193484    1.373788   -0.056812
      3          1           0       -4.225508    1.180088   -1.010334
      4          1           0       -4.255204    1.224048    0.839301
      5          6           0       -1.554416   -0.023401   -0.016100
      6          1           0       -1.824927    1.905707   -0.939850
      7          1           0       -1.852812    1.944021    0.813355
      8          6           0       -0.027056    0.014500    0.007320
      9          1           0       -1.919913   -0.559214    0.866609
     10          1           0       -1.893486   -0.598246   -0.884715
     11          1           0        0.334747    0.551752   -0.877315
     12          1           0        0.305045    0.594496    0.874340
     13          6           0        0.609304   -1.374514    0.044919
     14          1           0        0.262703   -1.951369   -0.819054
     15          1           0        0.259278   -1.912060    0.933203
     16          6           0        2.147820   -1.364759    0.037560
     17          1           0        2.493149   -2.399801   -0.057561
     18          1           0        2.498336   -0.839762   -0.856087
     19          6           0        2.771544   -0.752033    1.258758
     20          1           0        3.140055    0.266294    1.257206
     21          1           0        2.687753   -1.251260    2.218099
 ---------------------------------------------------------------------
                    Distance matrix (angstroms):
                    1          2          3          4          5
     1  C    0.000000
     2  C    1.500744   0.000000
     3  H    1.084192   2.252964   0.000000
     4  H    1.084179   2.253027   1.850396   0.000000
     5  C    2.540893   1.536946   3.093803   3.095496   0.000000
     6  H    2.131912   1.094773   2.508840   3.088087   2.155910
     7  H    2.131956   1.094721   3.088547   2.508091   2.155872
     8  C    3.901965   2.558356   4.474507   4.475761   1.528010
     9  H    2.769953   2.159640   3.444395   2.938427   1.095381
    10  H    2.769171   2.159708   2.935401   3.445388   1.095403
    11  H    4.182740   2.782251   4.605261   4.946352   2.154398
    12  H    4.179283   2.777947   4.941743   4.603633   2.152272
    13  C    5.092462   3.926720   5.569107   5.571984   2.551649
    14  H    5.203086   4.203634   5.476007   5.765839   2.768342
    15  H    5.221901   4.218171   5.783772   5.497685   2.785264
    16  C    6.440977   5.133758   6.942164   6.952944   3.938105
    17  H    7.232520   6.017018   7.672270   7.712128   4.693802
    18  H    6.612247   5.248983   7.022369   7.262503   4.218628
    19  C    6.927823   5.558898   7.605301   7.311363   4.568380
    20  H    7.046673   5.603555   7.760688   7.468721   4.872709
    21  H    7.263025   5.991041   8.007959   7.498859   4.949271
                    6          7          8          9         10
     6  H    0.000000
     7  H    1.753845   0.000000
     8  C    2.775993   2.775991   0.000000
     9  H    3.057475   2.504700   2.156486   0.000000
    10  H    2.505498   3.057486   2.157486   1.751958   0.000000
    11  H    2.549764   3.095512   1.096412   3.059250   2.507503
    12  H    3.089877   2.545837   1.094719   2.506301   3.057850
    13  C    4.201797   4.202997   1.528309   2.781515   2.780426
    14  H    4.387462   4.723794   2.152091   3.089234   2.546449
    15  H    4.735777   4.398255   2.156590   2.565833   3.108911
    16  C    5.237747   5.249280   2.575530   4.228791   4.215482
    17  H    6.161300   6.206018   3.490629   4.870007   4.813767
    18  H    5.122033   5.428533   2.802292   4.750507   4.398551
    19  C    5.746739   5.371383   3.160037   4.711765   5.136208
    20  H    5.671488   5.285877   3.414119   5.141722   5.538212
    21  H    6.348493   5.727116   3.722886   4.851396   5.571502
                   11         12         13         14         15
    11  H    0.000000
    12  H    1.752428   0.000000
    13  C    2.153230   2.158127   0.000000
    14  H    2.504835   3.057909   1.095145   0.000000
    15  H    3.058438   2.507665   1.095684   1.752701   0.000000
    16  C    2.792355   2.816860   1.538565   2.152107   2.160626
    17  H    3.747314   3.823879   2.147228   2.399136   2.491924
    18  H    2.572524   3.140382   2.160142   2.497018   3.060190
    19  C    3.492942   2.836289   2.556593   3.471310   2.786239
    20  H    3.536583   2.879511   3.250629   4.184261   3.626166
    21  H    4.285916   3.299970   3.009627   3.949091   2.825793
                   16         17         18         19         20
    16  C    0.000000
    17  H    1.095268   0.000000
    18  H    1.094115   1.752539   0.000000
    19  C    1.501929   2.127284   2.134223   0.000000
    20  H    2.265480   3.042230   2.470055   1.082956   0.000000
    21  H    2.249258   2.556491   3.107383   1.084704   1.852259
                   21
    21  H    0.000000
 Stoichiometry    C7H14
 Framework group  C1[X(C7H14)]
 Deg. of freedom    57
 Full point group                 C1      NOp   1
 Largest Abelian subgroup         C1      NOp   1
 Largest concise Abelian subgroup C1      NOp   1
                         Standard orientation:                         
 ---------------------------------------------------------------------
 Center     Atomic      Atomic             Coordinates (Angstroms)
 Number     Number       Type             X           Y           Z
 ---------------------------------------------------------------------
      1          6           0       -3.718495    0.068095    0.172328
      2          6           0       -2.362236    0.532389   -0.271773
      3          1           0       -4.243919   -0.701737   -0.381531
      4          1           0       -4.073806    0.287740    1.172805
      5          6           0       -1.218777   -0.387295    0.185266
      6          1           0       -2.341708    0.606280   -1.363857
      7          1           0       -2.178886    1.541548    0.110841
      8          6           0        0.158086    0.092884   -0.271342
      9          1           0       -1.235006   -0.463614    1.277864
     10          1           0       -1.398649   -1.398898   -0.194488
     11          1           0        0.170157    0.168299   -1.365091
     12          1           0        0.329379    1.105804    0.106893
     13          6           0        1.295459   -0.822620    0.180281
     14          1           0        1.110077   -1.835581   -0.192395
     15          1           0        1.294641   -0.892999    1.273701
     16          6           0        2.690127   -0.377905   -0.293335
     17          1           0        3.406152   -1.161102   -0.022187
     18          1           0        2.695775   -0.320271   -1.385917
     19          6           0        3.154723    0.929205    0.282341
     20          1           0        3.083446    1.853119   -0.278101
     21          1           0        3.389026    1.002893    1.338871
 ---------------------------------------------------------------------
 Rotational constants (GHZ):           8.4387997           0.8612935           0.8259875
 Leave Link  202 at Sun May 15 18:18:53 2022, MaxMem=   104857600 cpu:               0.0 elap:               0.0
 (Enter /apps/software/g16/l301.exe)
 Standard basis: def2SVP (5D, 7F)
 Ernie: Thresh=  0.10000D-02 Tol=  0.10000D-05 Strict=F.
 There are   175 symmetry adapted cartesian basis functions of A   symmetry.
 There are   168 symmetry adapted basis functions of A   symmetry.
   168 basis functions,   273 primitive gaussians,   175 cartesian basis functions
    28 alpha electrons       28 beta electrons
       nuclear repulsion energy       291.4653772056 Hartrees.
 IExCor=    0 DFT=F Ex=HF Corr=None ExCW=0 ScaHFX=  1.000000
 ScaDFX=  1.000000  1.000000  1.000000  1.000000 ScalE2=  1.000000  1.000000
 IRadAn=      5 IRanWt=     -1 IRanGd=            0 ICorTp=0 IEmpDi=  4
 NAtoms=   21 NActive=   21 NUniq=   21 SFac= 1.00D+00 NAtFMM=   60 NAOKFM=F Big=F
 Integral buffers will be    131072 words long.
 Regular integral format.
 Two-electron integral symmetry is turned off.
 Leave Link  301 at Sun May 15 18:18:53 2022, MaxMem=   104857600 cpu:               0.1 elap:               0.1
 (Enter /apps/software/g16/l302.exe)
 NPDir=0 NMtPBC=     1 NCelOv=     1 NCel=       1 NClECP=     1 NCelD=      1
         NCelK=      1 NCelE2=     1 NClLst=     1 CellRange=     0.0.
 One-electron integrals computed using PRISM.
   1 Symmetry operations used in ECPInt.
 ECPInt:  NShTT=    3570 NPrTT=   12068 LenC2=    3478 LenP2D=    9490.
 LDataN:  DoStor=T MaxTD1= 4 Len=   56
 NBasis=   168 RedAO= T EigKep=  1.23D-03  NBF=   168
 NBsUse=   168 1.00D-06 EigRej= -1.00D+00 NBFU=   168
 Leave Link  302 at Sun May 15 18:18:53 2022, MaxMem=   104857600 cpu:               0.1 elap:               0.1
 (Enter /apps/software/g16/l303.exe)
 DipDrv:  MaxL=1.
 Leave Link  303 at Sun May 15 18:18:53 2022, MaxMem=   104857600 cpu:               0.0 elap:               0.0
 (Enter /apps/software/g16/l401.exe)
 Initial guess from the checkpoint file:  "C7H14-CAS22.chk"
 B after Tr=     0.000000    0.000000    0.000000
         Rot=    1.000000    0.000000    0.000000    0.000000 Ang=   0.00 deg.
 Guess basis will be translated and rotated to current coordinates.
 JPrj=2 DoOrth=T DoCkMO=T.
 Leave Link  401 at Sun May 15 18:18:53 2022, MaxMem=   104857600 cpu:               0.1 elap:               0.1
 (Enter /apps/software/g16/l405.exe)
          Truncation Level=               99999
          a=  1          b=  0          c=  1
          a=N/2 - s   b=2s   c=n- (a+b)
          no. active orbitals (n)  2
          no. active ELECTRONS (N)=  2
                                                  IRREPS TO BE RETAINED = 1
                                                  GROUP IRREP. MULT. TABLE
                                                      1
                                                  IRREP. LABELS FOR ORBITALS
                                                   1 1
          BOTTOM WEIGHT=  2     TOP WEIGHT=  4
          Configuration         1 Symmetry 1 10
          Configuration         2 Symmetry 1 ab
          Configuration         3 Symmetry 1 01
          NO OF BASIS FUNCTIONS =         3 NO TO BE DELETED =    0
 CI Matrix Elements calculated here
          NO. OF CONFIGURATIONS IN REFERENCE SPACE =    1
                                   SECONDARY SPACE =    3
                                   TERTIARY SPACE =    3
          NO. OF ORBITALS =    2
          NO. OF ELECTRONS =    2
          NO. OF WEIGHTS =    3
          REFERENCE STATE CONFIGURATIONS ARE:     0
          NO. OF CORE ORBITALS =    0
          OPTION:  NON-DIAGONAL HOLE LINE INTERACTIONS INCLUDED
 Len28=          98 LenMCI=         101.
 Leave Link  405 at Sun May 15 18:18:54 2022, MaxMem=   104857600 cpu:               0.4 elap:               0.4
 (Enter /apps/software/g16/l510.exe)
 Enter MCSCF program.
 NBasis=  168 NCore=   27 NVal=    2 NVirt=  139 IFrame=0 Acc=  1.00D-08.
  InCore calculation needs more space:                123556468
  In this calculation the integrals will be calculated in every iteration
  and Contracted with The Density Matrices
 Do   4 iterations with Incremental Fock Matrices and then one Full.
 IBUJAK length=                   123200
 FoFJK:  IHMeth= 0 ICntrl=     500 DoSepK=F KAlg= 0 I1Cent=           0 FoldK=F
 IRaf=        -5 NMat=       4 IRICut=       1 DoRegI=T DoRafI=F ISym2E= 0 IDoP0=0 IntGTp=1.
 FoFCou: FMM=F IPFlag=           0 FMFlag=           0 FMFlg1=           0
         NFxFlg=           0 DoJE=F BraDBF=F KetDBF=F FulRan=T
         wScrn=  0.000000 ICntrl=       500 IOpCl=  1 I1Cent=           0 NGrid=           0
         NMat0=    4 NMatS0=      4 NMatT0=    0 NMatD0=    4 NMtDS0=    0 NMtDT0=    0
 Symmetry not used in FoFCou.
 Defining IBUGAM
 2ND ORD PT ENERGY     CV   -0.000000   CU   -0.000000   UV   -0.000003
 TOTAL                    -272.936279
 ITN=  1 MaxIt= 64 E=   -272.9362756290 DE=-2.73D+02 Acc= 1.00D-08 Lan=  0
 ITN=  2 MaxIt= 64 E=   -272.9362790858 DE=-3.46D-06 Acc= 1.00D-08 Lan=  0
 ITN=  3 MaxIt= 64 E=   -272.9362791676 DE=-8.17D-08 Acc= 1.00D-08 Lan=  0
 ITN=  4 MaxIt= 64 E=   -272.9362791736 DE=-6.00D-09 Acc= 1.00D-08 Lan=  0
 ... Do an extra-iteration for final printing.


                    EIGENVALUES AND  EIGENVECTORS OF CI MATRIX



   ( 1)     EIGENVALUE   -272.9362792    
 (    1) 0.7120959 (    3)-0.7020822 (    2) 0.0000010 (
 Final one electron symbolic density matrix:
                1             2 
      1  0.101416D+01
      2  0.293770D-07  0.985839D+00
 MCSCF converged.
 Leave Link  510 at Sun May 15 18:19:09 2022, MaxMem=   104857600 cpu:              15.3 elap:              15.3
 (Enter /apps/software/g16/l601.exe)
 Copying SCF densities to generalized density rwf, IOpCl= 0 IROHF=3.

 **********************************************************************

            Population analysis using the SCF density.

 **********************************************************************

 Orbital symmetries:
       Occupied  (A) (A) (A) (A) (A) (A) (A) (A) (A) (A) (A) (A)
                 (A) (A) (A) (A) (A) (A) (A) (A) (A) (A) (A) (A)
                 (A) (A) (A) (A)
       Virtual   (A) (A) (A) (A) (A) (A) (A) (A) (A) (A) (A) (A)
                 (A) (A) (A) (A) (A) (A) (A) (A) (A) (A) (A) (A)
                 (A) (A) (A) (A) (A) (A) (A) (A) (A) (A) (A) (A)
                 (A) (A) (A) (A) (A) (A) (A) (A) (A) (A) (A) (A)
                 (A) (A) (A) (A) (A) (A) (A) (A) (A) (A) (A) (A)
                 (A) (A) (A) (A) (A) (A) (A) (A) (A) (A) (A) (A)
                 (A) (A) (A) (A) (A) (A) (A) (A) (A) (A) (A) (A)
                 (A) (A) (A) (A) (A) (A) (A) (A) (A) (A) (A) (A)
                 (A) (A) (A) (A) (A) (A) (A) (A) (A) (A) (A) (A)
                 (A) (A) (A) (A) (A) (A) (A) (A) (A) (A) (A) (A)
                 (A) (A) (A) (A) (A) (A) (A) (A) (A) (A) (A) (A)
                 (A) (A) (A) (A) (A) (A) (A) (A)
 The electronic state is 1-A.
     Natural Orbital Coefficients:
                           1         2         3         4         5
     Eigenvalues --     2.00000   2.00000   2.00000   2.00000   2.00000
   1 1   C  1S         -0.04358  -0.04991  -0.12002   0.02541  -0.03706
   2        2S          0.01910  -0.00419  -0.04092  -0.01285  -0.10348
   3        3S          0.00607   0.01602   0.00042  -0.00494  -0.02169
   4        4PX         0.01445  -0.02783   0.01477  -0.03602  -0.03200
   5        4PY         0.00174  -0.00042   0.03422  -0.03678   0.06454
   6        4PZ        -0.00773   0.01714   0.02028   0.00530   0.14379
   7        5PX         0.00460  -0.00180   0.01413  -0.01885  -0.00585
   8        5PY         0.00102  -0.00041   0.01410  -0.01293   0.02933
   9        5PZ        -0.00326   0.00626   0.00876   0.00061   0.05830
  10        6D 0       -0.00097   0.00172   0.00130   0.00019   0.00589
  11        6D+1       -0.00041   0.00136  -0.00123   0.00206   0.00019
  12        6D-1       -0.00010   0.00083  -0.00154   0.00171  -0.00078
  13        6D+2        0.00103  -0.00276  -0.00049  -0.00032  -0.00219
  14        6D-2        0.00084  -0.00071  -0.00094  -0.00192  -0.00621
  15 2   C  1S         -0.07739   0.17083   0.02582   0.01185   0.24954
  16        2S          0.03566  -0.14562  -0.06990   0.00744  -0.17690
  17        3S          0.01260  -0.05387  -0.02119  -0.00225  -0.06027
  18        4PX        -0.00204  -0.04436  -0.04744   0.08330   0.02810
  19        4PY        -0.00892   0.03664   0.02355  -0.05492   0.02647
  20        4PZ         0.01259   0.00451  -0.01842   0.01883   0.05006
  21        5PX        -0.00137  -0.01297  -0.01639   0.03525   0.01787
  22        5PY        -0.00374   0.02073   0.01360  -0.02584   0.01485
  23        5PZ         0.00577   0.00013  -0.00894   0.00790   0.02336
  24        6D 0       -0.00183   0.00058   0.00161  -0.00091   0.00193
  25        6D+1       -0.00000  -0.00258  -0.00192   0.00347  -0.00145
  26        6D-1       -0.00044   0.00243   0.00088  -0.00227   0.00119
  27        6D+2        0.00078  -0.00209  -0.00005  -0.00020  -0.00329
  28        6D-2       -0.00083   0.00355   0.00090  -0.00417  -0.00236
  29 3   H  1S          0.00525   0.00475  -0.05239   0.02982  -0.13126
  30        2S          0.00103   0.00172  -0.01773   0.01014  -0.04035
  31        3PX         0.00057  -0.00037  -0.00212   0.00062  -0.00622
  32        3PY         0.00046   0.00025  -0.00240   0.00099  -0.00673
  33        3PZ         0.00024   0.00040  -0.00188   0.00128  -0.00318
  34 4   H  1S         -0.00229   0.01916   0.00484   0.00261   0.09342
  35        2S         -0.00294   0.00390   0.00417   0.00139   0.03821
  36        3PX         0.00026   0.00002   0.00010  -0.00049   0.00191
  37        3PY        -0.00007  -0.00023   0.00085  -0.00077   0.00035
  38        3PZ        -0.00032  -0.00124   0.00063  -0.00015  -0.00273
  39 5   C  1S         -0.75040   0.47605  -0.32335   0.15610   0.04336
  40        2S          0.00905  -0.07527   0.01544   0.03643  -0.07402
  41        3S          0.04221  -0.03479   0.00970   0.02264  -0.01740
  42        4PX         0.00195   0.04261   0.08287  -0.07567   0.01296
  43        4PY         0.00043  -0.06678  -0.05388   0.06287  -0.00881
  44        4PZ        -0.01733  -0.00534   0.00265   0.00122   0.02045
  45        5PX         0.00501   0.01876   0.03504  -0.03229  -0.00085
  46        5PY         0.00150  -0.03281  -0.02840   0.03471  -0.00508
  47        5PZ        -0.00982  -0.00263   0.00120  -0.00162   0.00590
  48        6D 0       -0.00229   0.00096   0.00029  -0.00010   0.00222
  49        6D+1        0.00049  -0.00358  -0.00469   0.00310  -0.00396
  50        6D-1        0.00026   0.00336   0.00164  -0.00246   0.00133
  51        6D+2        0.00138  -0.00261   0.00328  -0.00074  -0.00043
  52        6D-2       -0.00120   0.00630   0.00485  -0.00364   0.00231
  53 6   H  1S          0.00007  -0.05928  -0.00673  -0.01622  -0.10136
  54        2S         -0.00607  -0.01058   0.00558  -0.00620  -0.01102
  55        3PX        -0.00033  -0.00067  -0.00112   0.00156   0.00076
  56        3PY         0.00010   0.00083   0.00043  -0.00102   0.00078
  57        3PZ         0.00097  -0.00677  -0.00205  -0.00105  -0.01077
  58 7   H  1S          0.01140  -0.02683  -0.02131  -0.02554  -0.03608
  59        2S          0.00143   0.00634  -0.00540  -0.01022  -0.00826
  60        3PX        -0.00056  -0.00005  -0.00103   0.00205   0.00101
  61        3PY        -0.00131   0.00489   0.00294   0.00079   0.00553
  62        3PZ        -0.00038   0.00226   0.00060   0.00107   0.00346
  63 8   C  1S          0.42834   0.50785  -0.37311  -0.13436  -0.40720
  64        2S          0.04670   0.11404   0.16040  -0.07744   0.05649
  65        3S         -0.02581   0.00850   0.07451  -0.04380   0.01506
  66        4PX         0.01207   0.03105   0.02675  -0.01117   0.04980
  67        4PY        -0.03623   0.03760  -0.08381   0.05978  -0.01866
  68        4PZ         0.02858  -0.04240  -0.01540   0.00300  -0.05269
  69        5PX         0.00335   0.01290   0.01542   0.00058   0.01882
  70        5PY        -0.01436   0.01798  -0.04513   0.03312  -0.00754
  71        5PZ         0.01200  -0.01654  -0.00273  -0.00397  -0.02380
  72        6D 0       -0.00314   0.00196  -0.00068   0.00039   0.00182
  73        6D+1        0.00043   0.00084  -0.00001   0.00039   0.00134
  74        6D-1       -0.00126   0.00193  -0.00396   0.00198  -0.00109
  75        6D+2        0.00257  -0.00343   0.00409  -0.00118  -0.00042
  76        6D-2       -0.00130   0.00064  -0.00167  -0.00070  -0.00475
  77 9   H  1S         -0.00430  -0.03591   0.01763   0.00940  -0.00750
  78        2S         -0.01358  -0.00243   0.00603   0.00058   0.00593
  79        3PX         0.00015   0.00042   0.00089  -0.00122  -0.00047
  80        3PY         0.00002  -0.00141  -0.00078   0.00113   0.00014
  81        3PZ        -0.00175   0.00417  -0.00213  -0.00070   0.00232
  82 10  H  1S          0.01898   0.02047   0.03600  -0.02823  -0.02944
  83        2S         -0.00202   0.02286   0.00157  -0.00959  -0.00808
  84        3PX         0.00062   0.00059   0.00158  -0.00173  -0.00073
  85        3PY         0.00274  -0.00141   0.00281  -0.00091  -0.00331
  86        3PZ         0.00062  -0.00060   0.00159  -0.00054  -0.00089
  87 11  H  1S         -0.02142   0.07267   0.07504  -0.02508   0.07416
  88        2S         -0.01012   0.02153   0.01324  -0.00309   0.02106
  89        3PX         0.00038   0.00016   0.00031  -0.00058   0.00060
  90        3PY        -0.00045   0.00047  -0.00192   0.00139  -0.00051
  91        3PZ        -0.00129   0.00595   0.00820  -0.00272   0.00613
  92 12  H  1S         -0.01065   0.06203  -0.00785   0.01991   0.00250
  93        2S         -0.00255   0.02445  -0.01997   0.01152  -0.00546
  94        3PX         0.00052  -0.00083   0.00005  -0.00069  -0.00008
  95        3PY         0.00039  -0.00413  -0.00370   0.00022  -0.00167
  96        3PZ         0.00089  -0.00281  -0.00181  -0.00005  -0.00220
  97 13  C  1S         -0.47719  -0.15478   0.31188  -0.54144  -0.40174
  98        2S          0.03962  -0.05382   0.07466   0.00685   0.07547
  99        3S          0.04293  -0.00549  -0.01199   0.05105   0.04245
 100        4PX        -0.00072   0.00608  -0.04372   0.04295  -0.01571
 101        4PY         0.03653   0.03432   0.09101  -0.05362   0.00569
 102        4PZ        -0.02054  -0.05700  -0.04944   0.03689  -0.05177
 103        5PX        -0.00277   0.00677  -0.00897   0.01747  -0.00290
 104        5PY         0.02218   0.01183   0.03795  -0.01666   0.00206
 105        5PZ        -0.01233  -0.02674  -0.02091   0.01793  -0.02710
 106        6D 0       -0.00227  -0.00337  -0.00397   0.00367  -0.00126
 107        6D+1       -0.00073  -0.00133   0.00146  -0.00255   0.00000
 108        6D-1       -0.00126  -0.00249  -0.00490   0.00185  -0.00255
 109        6D+2        0.00267   0.00185   0.00600  -0.00253  -0.00056
 110        6D-2       -0.00055  -0.00029  -0.00455   0.00164  -0.00005
 111 14  H  1S         -0.00301  -0.02844  -0.03933   0.03836   0.04748
 112        2S         -0.00879  -0.00605  -0.02171   0.00512   0.00733
 113        3PX         0.00015  -0.00083  -0.00124   0.00170   0.00077
 114        3PY         0.00190  -0.00158  -0.00015   0.00256   0.00503
 115        3PZ         0.00015  -0.00173  -0.00132   0.00227   0.00157
 116 15  H  1S         -0.00077  -0.06688  -0.02478   0.05178  -0.00284
 117        2S         -0.01020  -0.01876  -0.00742   0.01584  -0.00026
 118        3PX        -0.00016  -0.00055  -0.00094   0.00095  -0.00037
 119        3PY         0.00065   0.00008   0.00148  -0.00093  -0.00060
 120        3PZ        -0.00186   0.00463   0.00078  -0.00435  -0.00206
 121 16  C  1S          0.00270  -0.24067  -0.05725   0.17489   0.21846
 122        2S          0.05360   0.17736   0.15705  -0.09431   0.09113
 123        3S          0.01679   0.05403   0.05605  -0.04938  -0.00106
 124        4PX        -0.02446   0.03953   0.01689  -0.05451  -0.04332
 125        4PY         0.00599   0.01527   0.01302  -0.06676   0.05234
 126        4PZ         0.00332  -0.04544  -0.02622  -0.03907  -0.06532
 127        5PX        -0.00929   0.02179   0.00988  -0.01755  -0.01483
 128        5PY         0.00471   0.01626   0.01239  -0.03217   0.02603
 129        5PZ         0.00335  -0.01962  -0.00812  -0.02133  -0.03020
 130        6D 0       -0.00116   0.00113   0.00005   0.00244   0.00207
 131        6D+1       -0.00110   0.00231   0.00086  -0.00354  -0.00064
 132        6D-1        0.00045   0.00064   0.00067  -0.00512   0.00202
 133        6D+2        0.00159  -0.00056   0.00148   0.00348   0.00037
 134        6D-2        0.00116  -0.00074  -0.00135  -0.00049   0.00484
 135 17  H  1S          0.00414   0.07453   0.06078  -0.03804  -0.04425
 136        2S          0.00024   0.01573   0.01757  -0.00796  -0.01921
 137        3PX        -0.00106  -0.00495  -0.00426   0.00194   0.00058
 138        3PY         0.00089   0.00655   0.00541  -0.00413  -0.00061
 139        3PZ        -0.00046  -0.00338  -0.00247   0.00055  -0.00144
 140 18  H  1S          0.01488   0.10783   0.07983  -0.00286   0.09031
 141        2S         -0.00080   0.02055   0.01378   0.01146   0.02990
 142        3PX        -0.00013   0.00086   0.00038  -0.00101  -0.00097
 143        3PY        -0.00013  -0.00074  -0.00059  -0.00026   0.00063
 144        3PZ         0.00205   0.01062   0.00855  -0.00273   0.00665
 145 19  C  1S         -0.02365   0.18050   0.57424   0.67896  -0.39232
 146        2S          0.01497  -0.03910   0.00653  -0.03166   0.05965
 147        3S         -0.00183  -0.04204  -0.04075  -0.02327   0.03185
 148        4PX        -0.00827  -0.01844  -0.01609   0.02092  -0.01018
 149        4PY        -0.00772  -0.09372  -0.06289   0.10990  -0.00613
 150        4PZ        -0.00991  -0.04143  -0.03496   0.01604  -0.00759
 151        5PX        -0.00015  -0.00492  -0.00153   0.00811  -0.00141
 152        5PY         0.00118  -0.03249  -0.01798   0.04121  -0.00207
 153        5PZ        -0.00441  -0.01256  -0.00972   0.00203  -0.00207
 154        6D 0       -0.00083  -0.00260  -0.00198   0.00275   0.00147
 155        6D+1        0.00036   0.00069   0.00082  -0.00056   0.00163
 156        6D-1        0.00063   0.00636   0.00430  -0.00574   0.00253
 157        6D+2       -0.00063  -0.00231  -0.00268   0.00246   0.00007
 158        6D-2        0.00105   0.00206   0.00217  -0.00302   0.00179
 159 20  H  1S          0.00537  -0.07158  -0.03827   0.04821   0.02339
 160        2S          0.00047  -0.01879  -0.00599   0.02290  -0.00396
 161        3PX        -0.00018  -0.00085  -0.00064   0.00023  -0.00005
 162        3PY        -0.00068   0.00407   0.00227  -0.00052  -0.00342
 163        3PZ         0.00019  -0.00420  -0.00274   0.00154   0.00207
 164 21  H  1S         -0.00390  -0.06061  -0.04257   0.00219   0.02906
 165        2S         -0.00183  -0.01197  -0.00744   0.01076   0.00879
 166        3PX        -0.00020   0.00102   0.00062   0.00038  -0.00095
 167        3PY        -0.00016  -0.00127  -0.00081   0.00181  -0.00032
 168        3PZ        -0.00012   0.00533   0.00381   0.00129  -0.00327
                           6         7         8         9        10
     Eigenvalues --     2.00000   2.00000   2.00000   2.00000   2.00000
   1 1   C  1S         -0.06042   0.26883   0.64783   0.07413   0.25682
   2        2S         -0.00560   0.22561  -0.09040   0.08980  -0.03161
   3        3S          0.02332   0.07173  -0.06662   0.02358  -0.01631
   4        4PX        -0.09947   0.03423  -0.04151  -0.01212  -0.04169
   5        4PY        -0.13448   0.04192  -0.00937  -0.02047  -0.02278
   6        4PZ        -0.08029   0.07586  -0.02977   0.03770   0.02426
   7        5PX        -0.03585   0.01235  -0.01690  -0.01428  -0.01655
   8        5PY        -0.05210   0.01876  -0.00871  -0.00567  -0.00574
   9        5PZ        -0.03990   0.03302  -0.01062   0.01340   0.00895
  10        6D 0       -0.00164   0.00230   0.00113   0.00012   0.00143
  11        6D+1        0.00759  -0.00609   0.00159   0.00057   0.00177
  12        6D-1        0.00523   0.00087  -0.00066   0.00225   0.00202
  13        6D+2       -0.00369   0.00539  -0.00484   0.00265  -0.00220
  14        6D-2       -0.00113   0.00186   0.00145  -0.00077  -0.00270
  15 2   C  1S          0.09014  -0.18259   0.18531   0.05428   0.16650
  16        2S         -0.09036   0.12410  -0.05157   0.08367  -0.08443
  17        3S         -0.06680   0.01881  -0.02267   0.03038  -0.01283
  18        4PX         0.11480  -0.04109  -0.01879   0.07964   0.04773
  19        4PY        -0.08506  -0.04753   0.13117  -0.07659  -0.03232
  20        4PZ         0.02019   0.01895  -0.07396   0.07801  -0.00177
  21        5PX         0.05110  -0.01821  -0.01377   0.03822   0.03285
  22        5PY        -0.03271  -0.01753   0.06350  -0.03884  -0.02138
  23        5PZ         0.00199   0.00752  -0.03517   0.04011  -0.00320
  24        6D 0       -0.00157  -0.00237   0.00811  -0.00316  -0.00277
  25        6D+1        0.00808  -0.00541   0.00267   0.00252  -0.00234
  26        6D-1       -0.00354  -0.00241   0.00365  -0.00401   0.00319
  27        6D+2        0.00067   0.00517  -0.00739   0.00308  -0.00388
  28        6D-2       -0.00322   0.00040   0.00403  -0.00349  -0.00207
  29 3   H  1S          0.16141   0.00916  -0.00814   0.03737   0.00198
  30        2S          0.05418  -0.01310   0.01370   0.00662   0.00526
  31        3PX         0.00476   0.00208  -0.00188   0.00191  -0.00062
  32        3PY         0.00665   0.00334  -0.00239   0.00258  -0.00103
  33        3PZ         0.00488   0.00390  -0.00238   0.00303   0.00014
  34 4   H  1S         -0.06293   0.14814  -0.06074   0.06284   0.01061
  35        2S         -0.02573   0.04046  -0.00579   0.01467   0.00755
  36        3PX        -0.00337   0.00517  -0.00274   0.00209  -0.00045
  37        3PY        -0.00189  -0.00232   0.00128  -0.00193  -0.00034
  38        3PZ         0.00212  -0.01138   0.00598  -0.00518   0.00025
  39 5   C  1S         -0.21010  -0.04317  -0.06442  -0.01768  -0.05276
  40        2S          0.01220   0.03003  -0.13965   0.00151  -0.16596
  41        3S          0.05554   0.01655  -0.02517   0.01099  -0.05414
  42        4PX        -0.06590  -0.02061  -0.00407  -0.10910  -0.04808
  43        4PY         0.12679   0.01384  -0.07360   0.13599  -0.03678
  44        4PZ         0.04632  -0.05682   0.13353   0.02461  -0.18997
  45        5PX        -0.03162  -0.01775   0.00524  -0.04579  -0.03484
  46        5PY         0.07115   0.01044  -0.03951   0.06757  -0.01641
  47        5PZ         0.02519  -0.03240   0.06526   0.01248  -0.09104
  48        6D 0        0.00255  -0.00373   0.01153   0.00145  -0.01542
  49        6D+1        0.00009  -0.00064   0.00062   0.00203   0.00747
  50        6D-1       -0.00572  -0.00126   0.00158  -0.00497   0.00555
  51        6D+2        0.00101   0.00281  -0.00773   0.00275  -0.00452
  52        6D-2        0.00081  -0.00176   0.00102  -0.01029   0.00193
  53 6   H  1S         -0.05916   0.03102   0.06190  -0.03816  -0.05026
  54        2S         -0.01638   0.00591   0.03832  -0.01336  -0.03409
  55        3PX         0.00160  -0.00057  -0.00037   0.00172   0.00050
  56        3PY        -0.00140  -0.00120   0.00236  -0.00129  -0.00067
  57        3PZ        -0.00605   0.00481   0.00221  -0.00091  -0.00476
  58 7   H  1S         -0.07947   0.00409   0.06436  -0.00606  -0.03986
  59        2S         -0.01712  -0.01261   0.03152  -0.01920   0.00913
  60        3PX         0.00373  -0.00145  -0.00089   0.00146   0.00191
  61        3PY         0.00578  -0.00343  -0.00138  -0.00223   0.00441
  62        3PZ         0.00352  -0.00094  -0.00305   0.00112   0.00282
  63 8   C  1S         -0.14538  -0.24349  -0.04492   0.15803   0.00082
  64        2S          0.09518   0.09591  -0.18400  -0.08611  -0.03219
  65        3S          0.00872   0.03224  -0.05208  -0.06508   0.01157
  66        4PX        -0.02589   0.00190   0.03610   0.00374   0.09260
  67        4PY         0.19953   0.00773   0.03905  -0.01487   0.06607
  68        4PZ        -0.06019  -0.06177  -0.04971  -0.07302   0.21640
  69        5PX         0.00943   0.00374   0.02025  -0.00198   0.05076
  70        5PY         0.09526   0.00457   0.02103  -0.00213   0.03067
  71        5PZ        -0.02959  -0.02541  -0.02797  -0.03757   0.11136
  72        6D 0        0.00381   0.00190   0.00826   0.00333  -0.01745
  73        6D+1       -0.00352  -0.00131   0.00032  -0.00170   0.00784
  74        6D-1        0.00763   0.00188  -0.00001   0.00030   0.00665
  75        6D+2       -0.00473   0.00156  -0.00401   0.00073  -0.01092
  76        6D-2        0.00190   0.00248   0.00096  -0.00563  -0.00349
  77 9   H  1S          0.04822  -0.03842   0.08759   0.01866  -0.25789
  78        2S          0.01442  -0.01280   0.05543   0.00826  -0.11483
  79        3PX        -0.00144   0.00001  -0.00003  -0.00173  -0.00126
  80        3PY         0.00235  -0.00041  -0.00088   0.00330  -0.00246
  81        3PZ        -0.00276   0.00132  -0.00198  -0.00022   0.01685
  82 10  H  1S         -0.09454   0.01578  -0.02581  -0.11167   0.05640
  83        2S         -0.02859  -0.00251   0.00276  -0.04946   0.05625
  84        3PX        -0.00261   0.00063  -0.00092  -0.00280  -0.00078
  85        3PY        -0.00423   0.00189  -0.00469  -0.00516  -0.00025
  86        3PZ        -0.00073  -0.00004   0.00178  -0.00231  -0.00547
  87 11  H  1S          0.10409   0.08861  -0.00224   0.02961  -0.23362
  88        2S          0.03225   0.01789   0.02821   0.02093  -0.11812
  89        3PX        -0.00049   0.00027   0.00040   0.00051   0.00161
  90        3PY         0.00357  -0.00083   0.00074  -0.00105   0.00347
  91        3PZ         0.00934   0.00769  -0.00487  -0.00070  -0.01202
  92 12  H  1S          0.17904   0.02583  -0.05002  -0.07269   0.15300
  93        2S          0.05375  -0.00207  -0.01168  -0.01867   0.08410
  94        3PX        -0.00345  -0.00022   0.00144   0.00116  -0.00010
  95        3PY        -0.01100  -0.00333   0.00638   0.00576  -0.00690
  96        3PZ        -0.00691  -0.00241   0.00086   0.00101   0.00274
  97 13  C  1S          0.13362  -0.03786  -0.05613   0.17155   0.11716
  98        2S         -0.04319  -0.24524  -0.03195   0.04854   0.00412
  99        3S         -0.00298  -0.05246  -0.01201   0.02993   0.00513
 100        4PX         0.08882  -0.06094   0.09945  -0.00088  -0.15152
 101        4PY        -0.08400   0.07563   0.01162  -0.10222  -0.06237
 102        4PZ        -0.04362  -0.08175   0.06713  -0.06140  -0.06639
 103        5PX         0.04530  -0.03413   0.04616  -0.01786  -0.06930
 104        5PY        -0.04396   0.03049   0.00234  -0.04785  -0.02700
 105        5PZ        -0.01949  -0.03592   0.03173  -0.03201  -0.03262
 106        6D 0       -0.00121  -0.00186   0.00319   0.00045  -0.00725
 107        6D+1       -0.00391   0.00278  -0.00280  -0.00195   0.00028
 108        6D-1        0.00194  -0.00357  -0.00073   0.00191   0.00646
 109        6D+2       -0.00308  -0.00186   0.00463  -0.00431  -0.01115
 110        6D-2        0.00022  -0.00381   0.00490   0.00565  -0.00607
 111 14  H  1S          0.05307  -0.11838  -0.05985   0.11961   0.11711
 112        2S          0.02140  -0.02716  -0.02320   0.03834   0.06695
 113        3PX         0.00232  -0.00297   0.00059   0.00189  -0.00183
 114        3PY         0.00143  -0.01060  -0.00393   0.00731   0.00566
 115        3PZ         0.00029  -0.00635  -0.00005   0.00234   0.00053
 116 15  H  1S         -0.04682  -0.16079   0.04930  -0.02117  -0.07511
 117        2S         -0.00646  -0.03695   0.02059   0.00241  -0.04868
 118        3PX         0.00110  -0.00046   0.00103  -0.00041  -0.00279
 119        3PY        -0.00207   0.00062   0.00087  -0.00258  -0.00212
 120        3PZ         0.00322   0.01518  -0.00191   0.00015   0.00311
 121 16  C  1S         -0.07703   0.01074  -0.15852  -0.24009   0.02426
 122        2S          0.02791  -0.02888   0.15175   0.11862  -0.06823
 123        3S         -0.01368  -0.00043   0.04703   0.02055  -0.05920
 124        4PX        -0.00310   0.04279   0.04081  -0.00085   0.08815
 125        4PY        -0.15948   0.08083  -0.04464   0.07771   0.02328
 126        4PZ        -0.05944  -0.08641   0.07588  -0.10147  -0.07542
 127        5PX         0.00549   0.01657   0.02207  -0.00540   0.05168
 128        5PY        -0.06802   0.04104  -0.01576   0.02805  -0.00527
 129        5PZ        -0.03094  -0.03613   0.03811  -0.04968  -0.04575
 130        6D 0        0.00118   0.00425  -0.00451   0.00110   0.00254
 131        6D+1       -0.00027   0.00452  -0.00136   0.00135   0.00619
 132        6D-1       -0.00858   0.00200  -0.00219   0.00254   0.00227
 133        6D+2        0.00424  -0.00340  -0.00120  -0.00650  -0.00294
 134        6D-2       -0.00429  -0.00271  -0.00235   0.00789  -0.00134
 135 17  H  1S          0.09840  -0.04828   0.12957  -0.02564  -0.00692
 136        2S          0.03346  -0.00730   0.03600  -0.01670   0.00245
 137        3PX        -0.00575   0.00403  -0.00719  -0.00085   0.00270
 138        3PY         0.00287  -0.00197   0.00756   0.00196  -0.00023
 139        3PZ        -0.00277  -0.00050  -0.00141  -0.00286  -0.00092
 140 18  H  1S          0.05359   0.06389  -0.01290   0.13463   0.03894
 141        2S          0.01307   0.01732  -0.01748   0.03495   0.01500
 142        3PX        -0.00001   0.00028   0.00113  -0.00017   0.00149
 143        3PY        -0.00316   0.00127  -0.00133   0.00110   0.00067
 144        3PZ         0.00396   0.00286   0.00305   0.01174   0.00102
 145 19  C  1S         -0.07466   0.00890   0.03491  -0.04789   0.07259
 146        2S         -0.19955  -0.06801  -0.01384   0.28831   0.00836
 147        3S         -0.05946  -0.03654  -0.02607   0.12100   0.03813
 148        4PX         0.02584  -0.01674  -0.02325  -0.01686   0.02545
 149        4PY         0.07228  -0.04269  -0.03482   0.08278  -0.02594
 150        4PZ        -0.01027  -0.06475  -0.07738  -0.08088   0.05187
 151        5PX         0.00699  -0.00771  -0.00669  -0.00937  -0.00309
 152        5PY         0.02639  -0.01688  -0.00614   0.03033  -0.02555
 153        5PZ        -0.00516  -0.02267  -0.03096  -0.03464   0.01821
 154        6D 0       -0.00103  -0.00132  -0.00653   0.00157   0.00437
 155        6D+1       -0.00244   0.00014  -0.00105   0.00349   0.00076
 156        6D-1       -0.00332   0.00312   0.00054  -0.00038   0.00292
 157        6D+2        0.00246   0.00054  -0.00477  -0.00687   0.00135
 158        6D-2       -0.00457  -0.00004   0.00133   0.00142  -0.00216
 159 20  H  1S         -0.01932  -0.03690   0.01358   0.21049  -0.04875
 160        2S          0.01069  -0.00989   0.01658   0.04586  -0.02568
 161        3PX         0.00003  -0.00061  -0.00063   0.00100   0.00053
 162        3PY         0.00464   0.00235  -0.00059  -0.01624   0.00272
 163        3PZ        -0.00253  -0.00336  -0.00166   0.00990  -0.00042
 164 21  H  1S         -0.07843  -0.08346  -0.08724   0.05933   0.05587
 165        2S         -0.01416  -0.01906  -0.03390   0.00442   0.02399
 166        3PX         0.00244   0.00161   0.00101  -0.00207  -0.00017
 167        3PY         0.00190  -0.00044   0.00020   0.00182  -0.00069
 168        3PZ         0.00789   0.00687   0.00496  -0.00974  -0.00283
                          11        12        13        14        15
     Eigenvalues --     2.00000   2.00000   2.00000   2.00000   2.00000
   1 1   C  1S         -0.28550  -0.15711  -0.15225  -0.10244  -0.41657
   2        2S          0.12648   0.00492  -0.00850  -0.04330  -0.02294
   3        3S          0.05505   0.02327   0.01175  -0.02246  -0.00968
   4        4PX         0.03112  -0.07086  -0.04117   0.01154  -0.03777
   5        4PY        -0.08246  -0.06852   0.04046   0.04713   0.01683
   6        4PZ        -0.19459  -0.07570   0.15268   0.03136   0.08109
   7        5PX         0.01500  -0.01749  -0.01853   0.00181  -0.02352
   8        5PY        -0.03785  -0.03089   0.02129   0.01523   0.00686
   9        5PZ        -0.07911  -0.03233   0.06389   0.01588   0.03790
  10        6D 0       -0.00555   0.00158   0.00786   0.00092   0.00300
  11        6D+1       -0.00056   0.00273  -0.00443  -0.00220  -0.00086
  12        6D-1        0.00081   0.00184  -0.00023  -0.00244   0.00003
  13        6D+2        0.00055  -0.00557   0.00203  -0.00016  -0.00094
  14        6D-2        0.00703   0.00142  -0.00731   0.00088  -0.00298
  15 2   C  1S         -0.05310   0.35087   0.28080  -0.00502  -0.13080
  16        2S          0.09023  -0.13547   0.08230   0.08274  -0.00532
  17        3S          0.03342  -0.06287  -0.00579   0.03425   0.00272
  18        4PX        -0.11282  -0.05218   0.13266  -0.00483   0.04609
  19        4PY        -0.02763   0.05049  -0.09968   0.08707   0.00647
  20        4PZ        -0.12188  -0.10338  -0.05033  -0.02605  -0.01047
  21        5PX        -0.04790  -0.01801   0.05170  -0.00878   0.01609
  22        5PY        -0.01976   0.02691  -0.04791   0.03778   0.00242
  23        5PZ        -0.05688  -0.05179  -0.02555  -0.01185  -0.00390
  24        6D 0        0.00080   0.00801   0.00539   0.00242   0.00014
  25        6D+1       -0.00171   0.00137   0.00176   0.00026  -0.00270
  26        6D-1        0.00017   0.00166  -0.00509   0.00205   0.00136
  27        6D+2        0.00634   0.00120   0.00560  -0.00234  -0.00576
  28        6D-2        0.00806   0.00758  -0.00898  -0.00020  -0.00292
  29 3   H  1S          0.17554   0.10866  -0.08666  -0.06160  -0.03339
  30        2S          0.04695   0.03393  -0.04265  -0.01770  -0.01173
  31        3PX         0.00830   0.00332  -0.00359  -0.00260  -0.00147
  32        3PY         0.00959   0.00524  -0.00271  -0.00283  -0.00111
  33        3PZ         0.00446   0.00306   0.00061  -0.00208   0.00068
  34 4   H  1S         -0.11844  -0.04436   0.15247   0.01581   0.07893
  35        2S         -0.04944  -0.01400   0.06122   0.01003   0.02683
  36        3PX        -0.00264  -0.00240   0.00349   0.00044   0.00176
  37        3PY        -0.00030  -0.00071  -0.00141   0.00082  -0.00092
  38        3PZ         0.00314   0.00153  -0.00759  -0.00005  -0.00456
  39 5   C  1S          0.11288  -0.04073  -0.08088  -0.01389  -0.01968
  40        2S         -0.02817  -0.15567   0.07486   0.10022  -0.12576
  41        3S         -0.04477  -0.05624   0.04789   0.02163   0.00571
  42        4PX         0.08666   0.11351  -0.02255   0.05144  -0.14684
  43        4PY        -0.01406   0.02596   0.19127  -0.03874  -0.09527
  44        4PZ        -0.04852   0.10712  -0.01334   0.04994  -0.09517
  45        5PX         0.04612   0.03953  -0.01335   0.03395  -0.05100
  46        5PY        -0.01032   0.01682   0.09525  -0.01820  -0.04798
  47        5PZ        -0.01245   0.05492  -0.01834   0.02242  -0.05560
  48        6D 0       -0.00328   0.01030  -0.00029   0.00119  -0.00318
  49        6D+1        0.00130  -0.00403   0.00385   0.00171   0.00672
  50        6D-1       -0.00007  -0.00223  -0.00886   0.00132   0.00431
  51        6D+2        0.00353   0.00370   0.00704  -0.00143  -0.01228
  52        6D-2        0.00526   0.00461  -0.00505  -0.00063  -0.00280
  53 6   H  1S          0.12436   0.04496   0.08045   0.06443   0.00874
  54        2S          0.02240   0.03483   0.04022   0.02118  -0.00145
  55        3PX        -0.00240  -0.00107   0.00258  -0.00006   0.00168
  56        3PY        -0.00128   0.00022  -0.00308   0.00175   0.00056
  57        3PZ         0.00978  -0.00144   0.00446   0.00586   0.00067
  58 7   H  1S         -0.03347  -0.05705  -0.07652   0.09127   0.01972
  59        2S         -0.00654  -0.01307  -0.05353   0.02550   0.01774
  60        3PX        -0.00122   0.00034   0.00315  -0.00140   0.00111
  61        3PY         0.00081   0.00687   0.00171  -0.00647  -0.00059
  62        3PZ        -0.00234   0.00038  -0.00016  -0.00411  -0.00086
  63 8   C  1S         -0.28880   0.06877   0.01425   0.12139   0.03533
  64        2S          0.00603   0.00632  -0.05573  -0.14534  -0.19801
  65        3S          0.04137   0.01859  -0.04186  -0.03386  -0.10990
  66        4PX        -0.04898  -0.01214  -0.10323  -0.05816   0.07471
  67        4PY        -0.00065  -0.05890   0.02970  -0.07313   0.12773
  68        4PZ         0.09440  -0.03192   0.05926   0.10952  -0.02950
  69        5PX        -0.03567  -0.00677  -0.04250  -0.01530   0.03659
  70        5PY         0.00068  -0.03437   0.02180  -0.02956   0.07132
  71        5PZ         0.05001  -0.01298   0.02804   0.05441  -0.01887
  72        6D 0       -0.00681   0.00789   0.00027  -0.00578   0.00227
  73        6D+1       -0.00107  -0.00138  -0.00158  -0.00462   0.00688
  74        6D-1        0.00076  -0.00467  -0.00049  -0.00233   0.00661
  75        6D+2       -0.00132   0.00027   0.00400   0.00047  -0.00447
  76        6D-2        0.00240  -0.00112   0.00224   0.00236   0.00385
  77 9   H  1S         -0.05919   0.05138   0.01188   0.07862  -0.12470
  78        2S         -0.02151   0.04657   0.01020   0.01628  -0.03856
  79        3PX         0.00146   0.00230   0.00015   0.00104  -0.00270
  80        3PY        -0.00063   0.00136   0.00408  -0.00041  -0.00335
  81        3PZ         0.00424   0.00172  -0.00131  -0.00698   0.00887
  82 10  H  1S          0.00011  -0.14074  -0.13256   0.05009   0.09838
  83        2S          0.00666  -0.05146  -0.07007   0.01735   0.05300
  84        3PX         0.00122  -0.00016  -0.00192   0.00196  -0.00199
  85        3PY        -0.00071  -0.01077  -0.00484   0.00410   0.00269
  86        3PZ        -0.00155  -0.00181  -0.00277   0.00301  -0.00062
  87 11  H  1S         -0.08581   0.04764  -0.06309  -0.15864  -0.04634
  88        2S         -0.04330   0.04134  -0.00506  -0.04530  -0.00737
  89        3PX        -0.00073  -0.00037  -0.00166  -0.00059   0.00115
  90        3PY         0.00080  -0.00150   0.00039  -0.00053   0.00229
  91        3PZ        -0.00365   0.00124  -0.00546  -0.01262  -0.00646
  92 12  H  1S          0.03855  -0.07136  -0.00959  -0.08304   0.03503
  93        2S          0.01617  -0.04029  -0.02157  -0.01497   0.03238
  94        3PX        -0.00094   0.00063  -0.00116   0.00013   0.00160
  95        3PY        -0.00245   0.00365   0.00129   0.00757   0.00236
  96        3PZ         0.00127   0.00039   0.00184   0.00599   0.00047
  97 13  C  1S         -0.27010   0.10084   0.02127   0.06506   0.11677
  98        2S         -0.00455  -0.13505  -0.07090  -0.03101  -0.10095
  99        3S         -0.00588  -0.05963  -0.00612  -0.02777   0.01691
 100        4PX        -0.01555  -0.12608  -0.00668  -0.04366   0.15634
 101        4PY        -0.04076   0.01947  -0.02167  -0.08323   0.10390
 102        4PZ        -0.02202   0.08346   0.15460  -0.03286   0.05213
 103        5PX        -0.00514  -0.04759  -0.02432  -0.02097   0.06482
 104        5PY        -0.02633  -0.00060  -0.01036  -0.04309   0.05893
 105        5PZ        -0.01131   0.04293   0.06731  -0.01035   0.02529
 106        6D 0       -0.00595   0.00946   0.00728   0.00153   0.00317
 107        6D+1       -0.00112   0.00492  -0.00053  -0.00681  -0.00599
 108        6D-1        0.00316  -0.00173   0.00188   0.00390  -0.00359
 109        6D+2        0.00062  -0.00557  -0.00037  -0.00103   0.00333
 110        6D-2        0.00123  -0.00319   0.00275  -0.00030   0.00580
 111 14  H  1S          0.05339  -0.07725  -0.04938   0.06025  -0.15969
 112        2S          0.02828  -0.02414  -0.00833   0.00975  -0.04516
 113        3PX         0.00038  -0.00361  -0.00055  -0.00002  -0.00007
 114        3PY         0.00331  -0.00735  -0.00462   0.00283  -0.01125
 115        3PZ         0.00081  -0.00101   0.00185   0.00041  -0.00364
 116 15  H  1S         -0.02969   0.03646   0.11208  -0.02962   0.00234
 117        2S         -0.02802   0.03920   0.04426   0.00177   0.00177
 118        3PX        -0.00066  -0.00214   0.00003  -0.00109   0.00266
 119        3PY        -0.00124   0.00094   0.00044  -0.00107   0.00223
 120        3PZ         0.00027   0.00218  -0.00504   0.00250   0.00322
 121 16  C  1S         -0.03796   0.13592  -0.14245   0.15326  -0.09790
 122        2S          0.19677  -0.20907   0.08807   0.05463   0.06656
 123        3S          0.05114  -0.05980   0.04054   0.01113   0.01776
 124        4PX         0.08856   0.04019   0.11149   0.02389  -0.07751
 125        4PY         0.05806   0.14746   0.09706  -0.09915   0.00022
 126        4PZ         0.03635  -0.09844   0.03086  -0.25649   0.03280
 127        5PX         0.03341   0.01436   0.04692   0.00882  -0.02842
 128        5PY         0.02262   0.06580   0.04527  -0.04794   0.00614
 129        5PZ         0.01434  -0.04893   0.01315  -0.12199   0.01875
 130        6D 0       -0.00463   0.00733   0.00406   0.01142  -0.00273
 131        6D+1        0.00338   0.00108   0.00192   0.00090  -0.00559
 132        6D-1        0.00397   0.00190   0.00501  -0.00901  -0.00264
 133        6D+2       -0.00661  -0.00717  -0.00576   0.00208   0.00034
 134        6D-2        0.00305  -0.00010   0.00072  -0.00433  -0.00082
 135 17  H  1S          0.09479  -0.16685   0.03077   0.03859  -0.00311
 136        2S          0.02116  -0.04088  -0.01075   0.00905   0.00178
 137        3PX        -0.00524   0.01160  -0.00063  -0.00199  -0.00162
 138        3PY         0.00856  -0.00910   0.00525   0.00108  -0.00069
 139        3PZ        -0.00199   0.00217  -0.00098  -0.00641   0.00065
 140 18  H  1S          0.03584   0.01809   0.02942   0.24070  -0.01001
 141        2S         -0.00976   0.02389   0.02001   0.08132  -0.01524
 142        3PX         0.00233  -0.00001   0.00216   0.00009  -0.00146
 143        3PY         0.00035   0.00360   0.00158  -0.00229  -0.00016
 144        3PZ         0.00709  -0.00417   0.00310   0.01492   0.00087
 145 19  C  1S         -0.15758   0.04275   0.03520   0.02620  -0.00017
 146        2S          0.13013   0.02309  -0.02219  -0.20795  -0.00280
 147        3S          0.05644   0.01081  -0.02326  -0.06344  -0.02399
 148        4PX        -0.03292  -0.01702  -0.01438   0.02922  -0.04433
 149        4PY        -0.09266   0.04453  -0.21555   0.10283   0.06774
 150        4PZ        -0.07777  -0.09954   0.03383  -0.06113  -0.13745
 151        5PX        -0.01799  -0.01152  -0.00940   0.00474  -0.01091
 152        5PY        -0.03810   0.01109  -0.08744   0.03688   0.03933
 153        5PZ        -0.03278  -0.03966   0.01618  -0.02335  -0.05826
 154        6D 0       -0.00465   0.00050  -0.00023   0.00227  -0.00723
 155        6D+1        0.00128   0.00020   0.00090  -0.00136  -0.00077
 156        6D-1        0.00519  -0.00163   0.01138  -0.00061  -0.00467
 157        6D+2       -0.00736   0.00038  -0.00110   0.00278  -0.00261
 158        6D-2        0.00315  -0.00122   0.00413  -0.00555   0.00159
 159 20  H  1S          0.02599   0.07795  -0.18797   0.00851   0.11820
 160        2S          0.00083   0.02009  -0.06392   0.01201   0.04666
 161        3PX        -0.00018   0.00021  -0.00070   0.00063  -0.00076
 162        3PY        -0.00428  -0.00511   0.00946   0.00282  -0.00649
 163        3PZ         0.00067   0.00132  -0.00708  -0.00181   0.00164
 164 21  H  1S         -0.02566  -0.06943   0.00495  -0.10941  -0.12780
 165        2S         -0.02186  -0.02054   0.00941  -0.01037  -0.04632
 166        3PX        -0.00038   0.00108   0.00008   0.00332   0.00122
 167        3PY        -0.00103   0.00116  -0.00408   0.00282   0.00217
 168        3PZ        -0.00145   0.00394   0.00186   0.01060   0.00651
                          16        17        18        19        20
     Eigenvalues --     2.00000   2.00000   2.00000   2.00000   2.00000
   1 1   C  1S          0.07977  -0.02836   0.15631  -0.05056   0.02135
   2        2S         -0.03498   0.05438  -0.06523  -0.01683  -0.06455
   3        3S          0.01754   0.02206  -0.03441  -0.02642  -0.04807
   4        4PX        -0.16517  -0.01494  -0.05515   0.02246   0.01432
   5        4PY        -0.01475   0.02403  -0.09574   0.00891  -0.01744
   6        4PZ         0.11712   0.05382  -0.07372  -0.00723  -0.01707
   7        5PX        -0.05268  -0.00594  -0.03069  -0.00065  -0.00800
   8        5PY        -0.00841   0.00880  -0.03810   0.00055  -0.00374
   9        5PZ         0.04681   0.02309  -0.03406  -0.00365  -0.00577
  10        6D 0        0.00820   0.00165  -0.00467  -0.00196  -0.00227
  11        6D+1        0.00188  -0.00186   0.00726   0.00039   0.00102
  12        6D-1        0.00294  -0.00009   0.00331  -0.00125  -0.00044
  13        6D+2       -0.00773  -0.00001  -0.00197   0.00116   0.00134
  14        6D-2       -0.00162   0.00098   0.00087   0.00138  -0.00173
  15 2   C  1S         -0.40178   0.44437  -0.24653  -0.14215  -0.21857
  16        2S         -0.10935   0.09128   0.03987   0.04618   0.03260
  17        3S         -0.04066  -0.00701   0.02869   0.03881   0.05798
  18        4PX         0.11966  -0.00008   0.14607  -0.01404   0.04885
  19        4PY         0.14990   0.05794  -0.01841   0.03954  -0.06193
  20        4PZ        -0.04806  -0.00041   0.07360   0.04213   0.01217
  21        5PX         0.05633   0.00472   0.06763   0.00241   0.03723
  22        5PY         0.07685   0.03271  -0.01003   0.01432  -0.03308
  23        5PZ        -0.02825  -0.00379   0.03646   0.01354   0.01109
  24        6D 0        0.00483  -0.00041  -0.00493   0.00192  -0.00130
  25        6D+1        0.00292  -0.00126   0.00749   0.00389   0.00133
  26        6D-1        0.00605   0.00101   0.00029  -0.00222  -0.00220
  27        6D+2       -0.00419  -0.00452  -0.00379  -0.00384  -0.00453
  28        6D-2       -0.00215  -0.00101  -0.00441   0.00182  -0.00471
  29 3   H  1S          0.01703  -0.00727   0.09484  -0.01422  -0.01525
  30        2S          0.00910  -0.00399   0.04665  -0.00012   0.00273
  31        3PX        -0.00280  -0.00023   0.00222  -0.00033  -0.00038
  32        3PY         0.00069   0.00066   0.00221  -0.00102  -0.00203
  33        3PZ         0.00301   0.00151   0.00131  -0.00092  -0.00141
  34 4   H  1S          0.12554   0.07483  -0.09753  -0.01979  -0.04805
  35        2S          0.04671   0.02303  -0.03503  -0.00407  -0.01141
  36        3PX         0.00014   0.00198  -0.00370   0.00002  -0.00106
  37        3PY        -0.00229  -0.00110  -0.00046   0.00028   0.00052
  38        3PZ        -0.00693  -0.00545   0.00563   0.00130   0.00407
  39 5   C  1S          0.03250  -0.03924   0.08635   0.03541   0.01024
  40        2S          0.03831   0.08403  -0.00699   0.00741  -0.01420
  41        3S          0.02092   0.00645   0.02512  -0.02823  -0.07577
  42        4PX         0.16754  -0.04834  -0.10577  -0.10003  -0.17675
  43        4PY         0.08952  -0.11005   0.11144  -0.02303  -0.08431
  44        4PZ        -0.00356   0.00665  -0.02920   0.22550  -0.04679
  45        5PX         0.07357  -0.02935  -0.04766  -0.05658  -0.10480
  46        5PY         0.04479  -0.05811   0.06171  -0.01600  -0.04963
  47        5PZ        -0.00615   0.00444  -0.01569   0.10767  -0.01622
  48        6D 0       -0.00255  -0.00133  -0.00327   0.00697  -0.00028
  49        6D+1       -0.00381   0.00158   0.00307   0.00703   0.00380
  50        6D-1       -0.00374   0.00320  -0.00316   0.00152   0.00192
  51        6D+2        0.00279  -0.00760   0.00070  -0.00310  -0.00561
  52        6D-2        0.00608   0.00259  -0.01018  -0.00202  -0.00816
  53 6   H  1S          0.02518   0.03453  -0.05577  -0.00039   0.00026
  54        2S          0.01766   0.01452  -0.03662   0.00648  -0.00855
  55        3PX         0.00181  -0.00003   0.00252  -0.00080   0.00100
  56        3PY         0.00257   0.00151   0.00014   0.00145  -0.00098
  57        3PZ         0.00041   0.00369  -0.00146   0.00090   0.00115
  58 7   H  1S          0.08494   0.08297   0.05500   0.06400  -0.01257
  59        2S          0.02673   0.03724   0.02050   0.01990  -0.00128
  60        3PX         0.00098  -0.00120   0.00208  -0.00087   0.00062
  61        3PY        -0.00348  -0.00519  -0.00465  -0.00492  -0.00007
  62        3PZ        -0.00295  -0.00282   0.00042  -0.00181   0.00049
  63 8   C  1S         -0.05635   0.06668   0.15346  -0.06195  -0.05790
  64        2S          0.11160   0.08329  -0.01688   0.06754  -0.00247
  65        3S          0.02756   0.04034  -0.06056   0.02468   0.04722
  66        4PX        -0.10925   0.04222   0.06516   0.21624   0.13613
  67        4PY        -0.00842   0.11930  -0.03589   0.13813  -0.02731
  68        4PZ         0.13036  -0.00362  -0.00812   0.16463  -0.14034
  69        5PX        -0.04081   0.02963   0.03494   0.10770   0.07452
  70        5PY        -0.01057   0.05574  -0.01261   0.06605  -0.01868
  71        5PZ         0.06303  -0.00353  -0.01168   0.07885  -0.06280
  72        6D 0       -0.00872  -0.00207   0.00044  -0.00323   0.00935
  73        6D+1       -0.00434   0.00096   0.00414   0.00454   0.01029
  74        6D-1       -0.00063   0.00399  -0.00123   0.00266  -0.00502
  75        6D+2        0.00274  -0.00865   0.00389  -0.00966  -0.00742
  76        6D-2        0.00217   0.00278  -0.00651  -0.00580  -0.00756
  77 9   H  1S         -0.00086   0.04384  -0.04130   0.19615  -0.03228
  78        2S         -0.00506   0.00982  -0.02265   0.06237   0.00274
  79        3PX         0.00255  -0.00116  -0.00162  -0.00101  -0.00282
  80        3PY         0.00146  -0.00278   0.00191   0.00046  -0.00227
  81        3PZ        -0.00045  -0.00581   0.00295  -0.01222   0.00204
  82 10  H  1S         -0.07231   0.14588  -0.07197  -0.01926   0.09910
  83        2S         -0.01694   0.06635  -0.02527   0.00933   0.03471
  84        3PX         0.00166   0.00117  -0.00266  -0.00216  -0.00144
  85        3PY        -0.00410   0.00897  -0.00350  -0.00207   0.00549
  86        3PZ        -0.00167   0.00478  -0.00285   0.00446   0.00175
  87 11  H  1S         -0.08206   0.03662  -0.00420  -0.09482   0.14330
  88        2S         -0.04305  -0.00040   0.00269  -0.02292   0.06747
  89        3PX        -0.00197   0.00088   0.00095   0.00421   0.00206
  90        3PY         0.00092   0.00328  -0.00143   0.00416  -0.00044
  91        3PZ        -0.00197   0.00531  -0.00140  -0.00331   0.00812
  92 12  H  1S          0.06116   0.15562  -0.04643   0.21817  -0.03679
  93        2S          0.01756   0.07252  -0.02549   0.06727  -0.00764
  94        3PX        -0.00320  -0.00111   0.00136   0.00067   0.00289
  95        3PY        -0.00557  -0.00924   0.00245  -0.01427   0.00230
  96        3PZ         0.00031  -0.00495   0.00153  -0.00325  -0.00345
  97 13  C  1S         -0.06176   0.06695   0.12763  -0.02513  -0.12924
  98        2S          0.06432   0.03520   0.04287  -0.02784   0.08691
  99        3S          0.00137  -0.01294   0.05443  -0.00705  -0.00347
 100        4PX        -0.01966  -0.01988  -0.02286  -0.11999  -0.21340
 101        4PY        -0.04715  -0.08477   0.09087   0.14113  -0.09570
 102        4PZ         0.00361  -0.00875   0.02991   0.05561   0.17379
 103        5PX         0.00069  -0.00370  -0.02781  -0.06174  -0.10501
 104        5PY        -0.03216  -0.05306   0.05006   0.06134  -0.05858
 105        5PZ         0.00336   0.00292   0.00856   0.02257   0.09414
 106        6D 0       -0.00531  -0.00444   0.00228   0.00086   0.01402
 107        6D+1        0.00068   0.00469   0.00113  -0.00023   0.01048
 108        6D-1        0.00409   0.00383  -0.00409  -0.00437  -0.00029
 109        6D+2       -0.00036  -0.00772   0.00103  -0.00440  -0.01103
 110        6D-2        0.00009  -0.00074   0.00020  -0.01189  -0.00717
 111 14  H  1S          0.07377   0.10782  -0.06444  -0.11210   0.09327
 112        2S          0.03027   0.05922  -0.02576  -0.02696   0.02750
 113        3PX         0.00073   0.00084  -0.00088  -0.00316  -0.00255
 114        3PY         0.00490   0.00564  -0.00257  -0.00681   0.00683
 115        3PZ         0.00158   0.00195  -0.00058  -0.00176   0.00780
 116 15  H  1S          0.01055  -0.00551   0.03992   0.03143   0.21772
 117        2S         -0.02387  -0.02185   0.01418   0.01520   0.09415
 118        3PX        -0.00045  -0.00012   0.00003  -0.00255  -0.00361
 119        3PY        -0.00087  -0.00212   0.00198   0.00284  -0.00092
 120        3PZ        -0.00314  -0.00160  -0.00259  -0.00096  -0.01428
 121 16  C  1S         -0.15524   0.35914   0.61121  -0.07507  -0.19293
 122        2S         -0.01229  -0.04236   0.11043  -0.01517  -0.08974
 123        3S          0.01479  -0.03876   0.00247  -0.02095  -0.03516
 124        4PX         0.01312   0.06043  -0.01114   0.07116   0.21144
 125        4PY         0.05416   0.03116   0.12416   0.02714   0.06557
 126        4PZ         0.08201   0.13199   0.00265  -0.08186  -0.07367
 127        5PX        -0.00336   0.02560   0.00275   0.04470   0.11092
 128        5PY         0.02259   0.00990   0.05903   0.00259   0.03029
 129        5PZ         0.03716   0.05949   0.00539  -0.04356  -0.03524
 130        6D 0       -0.00813  -0.01141   0.00111   0.00544   0.00453
 131        6D+1       -0.00118   0.00117  -0.00118   0.00245   0.00347
 132        6D-1        0.00041   0.00020   0.00433   0.00201  -0.00164
 133        6D+2       -0.00461  -0.00582  -0.00129  -0.00093  -0.00796
 134        6D-2        0.00355   0.00151   0.00270  -0.00545  -0.00355
 135 17  H  1S         -0.00692   0.02994  -0.05421   0.01156   0.03801
 136        2S          0.00216   0.02636  -0.01993   0.01428   0.02141
 137        3PX         0.00061   0.00052   0.00244   0.00101   0.00253
 138        3PY         0.00037   0.00093  -0.00045   0.00097   0.00312
 139        3PZ         0.00248   0.00366   0.00067  -0.00251  -0.00237
 140 18  H  1S         -0.08948  -0.15625   0.03584   0.07806   0.04726
 141        2S         -0.05086  -0.06750   0.01459   0.03399   0.03377
 142        3PX         0.00098   0.00172  -0.00058   0.00138   0.00409
 143        3PY         0.00152   0.00151   0.00238  -0.00023   0.00150
 144        3PZ        -0.00431  -0.00954   0.00286   0.00406   0.00157
 145 19  C  1S         -0.01780   0.01477   0.01573  -0.05520  -0.03237
 146        2S          0.02902   0.04183  -0.00704   0.08734  -0.05985
 147        3S          0.02261   0.03819  -0.01988   0.02887  -0.02686
 148        4PX        -0.04980  -0.04074  -0.04146   0.02305   0.00086
 149        4PY         0.00523   0.00509  -0.12265   0.01602  -0.04922
 150        4PZ        -0.16984  -0.15357  -0.05617   0.05518  -0.10736
 151        5PX        -0.02345  -0.02333  -0.01274   0.00602  -0.00943
 152        5PY        -0.00052  -0.00639  -0.04625   0.00799  -0.02569
 153        5PZ        -0.07586  -0.07126  -0.02327   0.02533  -0.04365
 154        6D 0       -0.00900  -0.00929  -0.00305   0.00475  -0.00232
 155        6D+1       -0.00119  -0.00183   0.00095   0.00136  -0.00163
 156        6D-1       -0.00308  -0.00460   0.00619   0.00214   0.00354
 157        6D+2       -0.00536  -0.00557  -0.00049   0.00019  -0.00315
 158        6D-2        0.00131  -0.00033   0.00469  -0.00149  -0.00327
 159 20  H  1S          0.10137   0.10236  -0.07244   0.01633  -0.01461
 160        2S          0.03638   0.03968  -0.02672  -0.00390   0.00074
 161        3PX        -0.00038  -0.00054  -0.00110   0.00047  -0.00016
 162        3PY        -0.00606  -0.00612   0.00275  -0.00248   0.00095
 163        3PZ         0.00036   0.00054  -0.00412   0.00311  -0.00351
 164 21  H  1S         -0.15072  -0.13518  -0.06427   0.09609  -0.11450
 165        2S         -0.06458  -0.06423  -0.01661   0.03527  -0.03020
 166        3PX         0.00177   0.00155   0.00055  -0.00154   0.00239
 167        3PY         0.00148   0.00134  -0.00204  -0.00032  -0.00002
 168        3PZ         0.00727   0.00580   0.00477  -0.00725   0.00833
                          21        22        23        24        25
     Eigenvalues --     2.00000   2.00000   2.00000   2.00000   2.00000
   1 1   C  1S          0.25872  -0.01513  -0.06055  -0.14839  -0.02969
   2        2S          0.01638   0.06327   0.08979   0.20974   0.01061
   3        3S          0.01363   0.03244   0.05417   0.07120   0.00908
   4        4PX        -0.01162  -0.00739  -0.04747   0.07680  -0.13297
   5        4PY        -0.00130   0.04169  -0.05204   0.07523  -0.03970
   6        4PZ         0.00619   0.08678  -0.04514   0.03742   0.02786
   7        5PX         0.00291   0.00268  -0.01085   0.03155  -0.04917
   8        5PY         0.00333   0.02008  -0.02474   0.02701  -0.02231
   9        5PZ         0.00604   0.03812  -0.02293   0.01817   0.01544
  10        6D 0        0.00428   0.00656  -0.00661   0.00108   0.00505
  11        6D+1       -0.00469  -0.00528   0.00872  -0.00729   0.00122
  12        6D-1       -0.00040  -0.00057   0.00473  -0.00186   0.00212
  13        6D+2        0.00058   0.00092  -0.00417   0.00459  -0.00734
  14        6D-2       -0.00323  -0.00365   0.00877   0.00550   0.00109
  15 2   C  1S          0.09563  -0.18499   0.17510  -0.11838  -0.15465
  16        2S         -0.00425  -0.10284   0.02706   0.12970  -0.07628
  17        3S         -0.02457  -0.01871  -0.02156   0.05939  -0.06198
  18        4PX        -0.00683  -0.05432   0.02888  -0.15411   0.01942
  19        4PY        -0.10190  -0.05895   0.19448   0.07201   0.14318
  20        4PZ        -0.16485  -0.08520   0.22084  -0.01059  -0.11084
  21        5PX        -0.00784  -0.01589   0.01424  -0.05145  -0.00540
  22        5PY        -0.04596  -0.02720   0.09671   0.02280   0.07884
  23        5PZ        -0.08322  -0.04183   0.10555  -0.00135  -0.05830
  24        6D 0        0.00615   0.00636  -0.01671   0.00269   0.00644
  25        6D+1       -0.00221  -0.00462  -0.00060  -0.00824   0.00062
  26        6D-1       -0.00298  -0.00269   0.01093   0.00168   0.00444
  27        6D+2        0.00466   0.00489  -0.00683   0.00583  -0.00859
  28        6D-2       -0.00376   0.00067   0.00467   0.01180   0.00139
  29 3   H  1S         -0.00981  -0.04710   0.13726  -0.00956   0.07636
  30        2S         -0.01466  -0.03134   0.06367  -0.01922   0.02809
  31        3PX        -0.00027  -0.00127   0.00419   0.00207   0.00082
  32        3PY         0.00028  -0.00047   0.00605   0.00284   0.00393
  33        3PZ         0.00051   0.00102   0.00409   0.00233   0.00398
  34 4   H  1S          0.02612   0.11559  -0.01942   0.10971   0.06288
  35        2S          0.01943   0.04364  -0.03778   0.02658   0.02355
  36        3PX        -0.00007   0.00308  -0.00085   0.00504  -0.00067
  37        3PY         0.00004  -0.00092  -0.00182  -0.00122  -0.00191
  38        3PZ        -0.00052  -0.00643  -0.00321  -0.00943  -0.00462
  39 5   C  1S          0.02781   0.00607  -0.02565   0.13884  -0.09352
  40        2S          0.08887  -0.05393   0.01088  -0.31318   0.00080
  41        3S          0.05132  -0.05005   0.00664  -0.12510   0.03113
  42        4PX         0.05481   0.04732   0.09043   0.01509   0.01199
  43        4PY        -0.03040  -0.01111  -0.00199   0.06239  -0.15920
  44        4PZ        -0.10831   0.00107  -0.13698   0.05484   0.03513
  45        5PX         0.03165   0.00948   0.03994   0.02222   0.01486
  46        5PY        -0.01546  -0.01227  -0.00125   0.01063  -0.07374
  47        5PZ        -0.05865  -0.00044  -0.06831   0.03435   0.01779
  48        6D 0       -0.00381   0.00384  -0.01295   0.00354   0.00659
  49        6D+1        0.00208  -0.00146  -0.00868  -0.00055  -0.00087
  50        6D-1       -0.00132  -0.00121   0.00360  -0.00215   0.00276
  51        6D+2        0.00318   0.00269  -0.00285   0.00193  -0.01378
  52        6D-2        0.00687   0.00459   0.00174  -0.00064   0.00739
  53 6   H  1S          0.13464   0.04750  -0.20432   0.07098   0.08804
  54        2S          0.04616   0.03332  -0.10107   0.02532   0.04293
  55        3PX        -0.00049  -0.00101   0.00096  -0.00248   0.00091
  56        3PY        -0.00347  -0.00213   0.00605   0.00094   0.00300
  57        3PZ         0.00692  -0.00010  -0.00895   0.00700   0.00441
  58 7   H  1S         -0.14150  -0.12916   0.26148   0.07175   0.07439
  59        2S         -0.04773  -0.05387   0.11667   0.00388   0.04800
  60        3PX         0.00128   0.00028  -0.00249  -0.00389   0.00005
  61        3PY         0.00808   0.00860  -0.01420  -0.00657  -0.00166
  62        3PZ         0.00014   0.00170  -0.00080  -0.00366  -0.00455
  63 8   C  1S          0.00730   0.11078  -0.10763   0.01866   0.05117
  64        2S          0.11649   0.02328   0.06337   0.01531  -0.09971
  65        3S         -0.01650   0.08768   0.02826  -0.00205  -0.11047
  66        4PX        -0.05139  -0.04479  -0.10644   0.08416  -0.07744
  67        4PY         0.03081   0.01221  -0.03071   0.04928   0.16706
  68        4PZ         0.06272  -0.04175  -0.00903  -0.03099  -0.10988
  69        5PX        -0.03576   0.00116  -0.04921   0.00731  -0.04221
  70        5PY         0.02588  -0.01231  -0.02269   0.03403   0.10440
  71        5PZ         0.03213  -0.00708  -0.00919  -0.01783  -0.06374
  72        6D 0       -0.00321   0.00669   0.00107   0.00451   0.00736
  73        6D+1        0.00362   0.00014   0.00222   0.00446  -0.00381
  74        6D-1       -0.00161  -0.00142  -0.00287   0.00068   0.00501
  75        6D+2        0.00602  -0.00197   0.00501  -0.00579  -0.01014
  76        6D-2        0.00498   0.00361   0.00651  -0.00852   0.01098
  77 9   H  1S         -0.05545  -0.00677  -0.14080  -0.06847   0.06179
  78        2S         -0.01648   0.02063  -0.07577   0.00523   0.03707
  79        3PX         0.00109   0.00117   0.00115   0.00005  -0.00005
  80        3PY        -0.00115  -0.00003  -0.00161   0.00164  -0.00430
  81        3PZ         0.00109   0.00233   0.00657   0.01158  -0.00429
  82 10  H  1S          0.07690  -0.03051   0.05763  -0.18980   0.14286
  83        2S          0.00931  -0.02098   0.04582  -0.04645   0.07244
  84        3PX         0.00131   0.00033   0.00192  -0.00313   0.00207
  85        3PY         0.00652  -0.00268   0.00280  -0.01641   0.00659
  86        3PZ         0.00047  -0.00069  -0.00238  -0.00607   0.00553
  87 11  H  1S         -0.00761   0.06009   0.03389   0.04558   0.07859
  88        2S          0.00230   0.03276   0.00693   0.02438   0.04966
  89        3PX        -0.00122  -0.00140  -0.00155   0.00139  -0.00092
  90        3PY         0.00084   0.00016  -0.00101   0.00051   0.00348
  91        3PZ         0.00226   0.00325   0.00289   0.00279   0.00291
  92 12  H  1S          0.06910  -0.00382  -0.02225   0.04442   0.07757
  93        2S          0.00611  -0.01072  -0.01324   0.00994   0.05791
  94        3PX        -0.00170  -0.00074  -0.00194   0.00056  -0.00180
  95        3PY        -0.00655   0.00007  -0.00027  -0.00287  -0.00018
  96        3PZ        -0.00162  -0.00157  -0.00032  -0.00198  -0.00379
  97 13  C  1S         -0.01246   0.12005  -0.00900  -0.03416   0.08247
  98        2S          0.14965  -0.13152  -0.04125   0.20141  -0.08909
  99        3S          0.06157  -0.09865  -0.02644   0.09512  -0.01854
 100        4PX         0.09719  -0.05669   0.00491   0.02253   0.09527
 101        4PY         0.12197  -0.03525   0.05408  -0.03776  -0.18057
 102        4PZ         0.14912   0.11300   0.17474   0.02559   0.03749
 103        5PX         0.04821  -0.00853   0.00730   0.02056   0.03091
 104        5PY         0.06882  -0.03216   0.02661  -0.00454  -0.08136
 105        5PZ         0.07210   0.06419   0.08759   0.00257   0.01347
 106        6D 0        0.00876   0.00689   0.01066   0.00218   0.00697
 107        6D+1       -0.00799   0.00334  -0.00105  -0.00099  -0.00435
 108        6D-1       -0.00650   0.00177  -0.00285  -0.00048   0.00435
 109        6D+2        0.00774   0.00133   0.00642  -0.00159  -0.01071
 110        6D-2       -0.00008  -0.00688  -0.00307   0.00006   0.01260
[...]
  10        6D 0        0.02023  -0.01844   0.01058
  11        6D+1        0.06650   0.04554  -0.01730
  12        6D-1        0.13669  -0.03790   0.18085
  13        6D+2        0.05704   0.03984  -0.12081
  14        6D-2        0.07620  -0.12292   0.29785
  15 2   C  1S          0.02225  -0.01858  -0.03064
  16        2S         -0.36401   0.30816   0.19655
  17        3S          2.85477  -1.99727  -1.20671
  18        4PX        -0.17699  -0.05616  -0.07073
  19        4PY         0.08401  -0.01856  -0.01220
  20        4PZ        -0.01525  -0.00844  -0.03921
  21        5PX         1.33272   0.82486  -0.16791
  22        5PY         0.23373   0.09382   0.15897
  23        5PZ        -0.81330   0.35847  -0.46030
  24        6D 0        0.19710  -0.02732  -0.01144
  25        6D+1        0.10617   0.04119  -0.10296
  26        6D-1        0.01216   0.02887  -0.03186
  27        6D+2        0.01351   0.04899  -0.05513
  28        6D-2       -0.04038  -0.00080  -0.00622
  29 3   H  1S         -0.13524   0.05471  -0.28399
  30        2S          0.35058   0.83928  -0.17592
  31        3PX        -0.07927  -0.02261   0.02161
  32        3PY        -0.16393   0.02708  -0.17258
  33        3PZ        -0.15872   0.13330  -0.31748
  34 4   H  1S          0.04325   0.14831  -0.26449
  35        2S          0.40333   0.63199  -0.11662
  36        3PX        -0.00050  -0.11557   0.12695
  37        3PY         0.07755  -0.06471   0.06766
  38        3PZ         0.03271  -0.04289   0.16652
  39 5   C  1S          0.01262  -0.01298   0.03812
  40        2S          0.13241   0.18028  -0.30474
  41        3S         -2.77643  -0.24953   2.53192
  42        4PX         0.06025   0.09508   0.17419
  43        4PY         0.05738   0.07424   0.04275
  44        4PZ        -0.06186   0.00971   0.16974
  45        5PX        -0.02372  -0.38386  -0.18114
  46        5PY         0.25462  -0.97808   0.91712
  47        5PZ         0.27416  -1.10880  -0.43161
  48        6D 0       -0.00331  -0.11508  -0.12391
  49        6D+1       -0.02027  -0.03207  -0.10004
  50        6D-1       -0.02946   0.01128  -0.01016
  51        6D+2        0.07667  -0.11187  -0.00356
  52        6D-2       -0.00200   0.08105   0.07784
  53 6   H  1S         -0.52323   0.22664  -0.31298
  54        2S         -0.89971   0.32007   0.26468
  55        3PX        -0.15890  -0.13127  -0.02485
  56        3PY        -0.11936   0.00727   0.09488
  57        3PZ        -0.36266  -0.08217  -0.00978
  58 7   H  1S         -0.16971   0.04597   0.04794
  59        2S         -0.77916   0.41086   0.15247
  60        3PX        -0.19165  -0.06186  -0.06509
  61        3PY         0.17464  -0.06107  -0.03523
  62        3PZ         0.22039  -0.04341   0.06540
  63 8   C  1S         -0.02486  -0.01006  -0.02251
  64        2S          0.09308   0.22562   0.41062
  65        3S          1.95537  -1.60948  -2.02178
  66        4PX        -0.03736   0.03436  -0.14319
  67        4PY         0.02856  -0.03679   0.16211
  68        4PZ         0.17563  -0.10246   0.04478
  69        5PX         1.13104  -0.59345   1.25518
  70        5PY        -1.05209   1.03592  -0.04061
  71        5PZ         0.11458   0.98537  -0.49996
  72        6D 0       -0.10464  -0.03710   0.08264
  73        6D+1        0.07129  -0.06801   0.03331
  74        6D-1       -0.02241   0.18310   0.17631
  75        6D+2       -0.00127  -0.10078  -0.14395
  76        6D-2       -0.04550   0.02498   0.10141
  77 9   H  1S          0.04879   0.24086  -0.02383
  78        2S          0.79757   0.76207  -0.03810
  79        3PX         0.04839   0.02779   0.06614
  80        3PY         0.09206   0.12846  -0.12079
  81        3PZ        -0.16895   0.05200   0.03094
  82 10  H  1S          0.19158  -0.17256  -0.04608
  83        2S          0.96643  -0.86402   0.14387
  84        3PX         0.04017  -0.00383   0.05760
  85        3PY         0.26465  -0.15898  -0.11505
  86        3PZ         0.04307  -0.05143  -0.00497
  87 11  H  1S          0.19287   0.34238  -0.03580
  88        2S         -0.48664   0.78796  -0.04066
  89        3PX        -0.19008   0.11170  -0.15035
  90        3PY         0.13343  -0.16213  -0.05935
  91        3PZ        -0.01159   0.05015  -0.02575
  92 12  H  1S         -0.04362  -0.19139  -0.01106
  93        2S          0.22125  -0.39828   0.47802
  94        3PX        -0.16352   0.06281   0.02398
  95        3PY         0.13416  -0.02475   0.11746
  96        3PZ        -0.08387   0.02910   0.28204
  97 13  C  1S         -0.08517  -0.00008   0.02316
  98        2S          0.61337   0.13828  -0.10297
  99        3S         -2.23102  -1.43449  -0.84285
 100        4PX         0.07349   0.05590   0.00153
 101        4PY        -0.16133  -0.07924   0.10644
 102        4PZ         0.18488  -0.03357   0.10247
 103        5PX         0.69088  -1.59748  -1.02441
 104        5PY        -0.42924   0.97581  -0.39052
 105        5PZ         0.28759  -0.12256   0.28559
 106        6D 0        0.17968  -0.02121  -0.15558
 107        6D+1       -0.07429   0.02312   0.02952
 108        6D-1        0.03481  -0.07173   0.02101
 109        6D+2        0.05226   0.09365   0.06207
 110        6D-2        0.06294  -0.13399   0.04656
 111 14  H  1S         -0.08893   0.17507  -0.10239
 112        2S          0.30123   1.02713   0.14855
 113        3PX        -0.02414   0.08922  -0.04996
 114        3PY        -0.05953   0.08853  -0.00803
 115        3PZ        -0.05464   0.08106  -0.01934
 116 15  H  1S         -0.15055   0.14035  -0.00865
 117        2S         -0.06770   0.08609  -0.11599
 118        3PX        -0.01253   0.07261  -0.03751
 119        3PY        -0.04173  -0.09803  -0.05211
 120        3PZ         0.18281   0.15171   0.14669
 121 16  C  1S          0.08095   0.07094   0.05462
 122        2S         -0.37531  -0.82233  -0.57464
 123        3S         -0.62479   4.79519   2.91520
 124        4PX        -0.23970   0.00678  -0.12466
 125        4PY         0.19667   0.02202   0.05545
 126        4PZ        -0.00102  -0.00488  -0.08144
 127        5PX         0.38044  -0.14533  -0.24913
 128        5PY        -0.57090  -0.30662   0.41635
 129        5PZ         0.67845   0.78258   0.83179
 130        6D 0       -0.01643  -0.03198  -0.11537
 131        6D+1        0.01188  -0.00372  -0.04593
 132        6D-1        0.04867  -0.05193   0.00801
 133        6D+2        0.02279  -0.00894  -0.10202
 134        6D-2        0.13192   0.04166   0.07779
 135 17  H  1S          0.19555  -0.30381  -0.04123
 136        2S         -0.70021  -0.84282  -0.22790
 137        3PX        -0.08631   0.15466  -0.22449
 138        3PY         0.24195  -0.11051  -0.06061
 139        3PZ        -0.18812  -0.02791   0.04155
 140 18  H  1S          0.22049  -0.07346  -0.03363
 141        2S          0.92985  -0.54463   0.07141
 142        3PX        -0.11535  -0.11616   0.13596
 143        3PY        -0.06104   0.11097  -0.08572
 144        3PZ         0.25255  -0.08328   0.12025
 145 19  C  1S          0.04933  -0.04807   0.03680
 146        2S         -0.37093   0.58921  -0.07706
 147        3S          0.46695  -3.68566  -1.30340
 148        4PX        -0.16254  -0.02092  -0.06258
 149        4PY        -0.08476  -0.01795  -0.00204
 150        4PZ        -0.01596   0.05218  -0.07013
 151        5PX        -0.13179   0.17899   0.42096
 152        5PY        -0.38673   0.30439   0.74845
 153        5PZ        -0.22049  -0.43188  -0.06121
 154        6D 0       -0.03239  -0.07957  -0.18277
 155        6D+1        0.02309  -0.10026  -0.05563
 156        6D-1        0.13647   0.02460  -0.13006
 157        6D+2        0.07653   0.17007  -0.01443
 158        6D-2        0.00529  -0.01730   0.05006
 159 20  H  1S          0.23022   0.02641   0.05375
 160        2S          0.02373   0.95139  -0.32084
 161        3PX         0.12030  -0.01894  -0.03733
 162        3PY        -0.12867  -0.14582   0.14840
 163        3PZ         0.13898   0.09413   0.05533
 164 21  H  1S          0.13456   0.26401   0.25862
 165        2S         -0.01286   1.17376   0.16568
 166        3PX         0.05303  -0.00203  -0.07738
 167        3PY         0.05233   0.02637  -0.00485
 168        3PZ        -0.20579  -0.05983  -0.01230
          Condensed to atoms (all electrons):
               1          2          3          4          5          6
     1  C    5.054614   0.374585   0.414950   0.415009  -0.086502  -0.035987
     2  C    0.374585   4.683349  -0.033435  -0.033402   0.374222   0.408931
     3  H    0.414950  -0.033435   0.595251  -0.031717  -0.000734  -0.007321
     4  H    0.415009  -0.033402  -0.031717   0.595067  -0.000717   0.005694
     5  C   -0.086502   0.374222  -0.000734  -0.000717   4.817084  -0.033133
     6  H   -0.035987   0.408931  -0.007321   0.005694  -0.033133   0.660025
     7  H   -0.035853   0.408626   0.005687  -0.007342  -0.032771  -0.027664
     8  C    0.010568  -0.068116  -0.000199  -0.000200   0.357086  -0.006436
     9  H   -0.001793  -0.033167  -0.000383   0.002414   0.398293   0.007879
    10  H   -0.001756  -0.033685   0.002419  -0.000385   0.399821  -0.007195
    11  H   -0.000044  -0.005618   0.000008   0.000005  -0.031772   0.004862
    12  H   -0.000033  -0.005434   0.000005   0.000006  -0.029853  -0.000688
    13  C   -0.000321   0.008984   0.000006   0.000006  -0.062914   0.000024
    14  H   -0.000009   0.000033  -0.000003   0.000001  -0.007125   0.000008
    15  H   -0.000009   0.000002   0.000001  -0.000003  -0.006631  -0.000005
    16  C    0.000004  -0.000300  -0.000000  -0.000000   0.009522  -0.000005
    17  H   -0.000000   0.000009   0.000000   0.000000  -0.000316  -0.000000
    18  H   -0.000000  -0.000010   0.000000  -0.000000   0.000052  -0.000006
    19  C   -0.000000   0.000017  -0.000000   0.000000  -0.000580   0.000001
    20  H    0.000000   0.000005   0.000000   0.000000  -0.000020   0.000000
    21  H   -0.000000  -0.000001   0.000000   0.000000   0.000010  -0.000000
               7          8          9         10         11         12
     1  C   -0.035853   0.010568  -0.001793  -0.001756  -0.000044  -0.000033
     2  C    0.408626  -0.068116  -0.033167  -0.033685  -0.005618  -0.005434
     3  H    0.005687  -0.000199  -0.000383   0.002419   0.000008   0.000005
     4  H   -0.007342  -0.000200   0.002414  -0.000385   0.000005   0.000006
     5  C   -0.032771   0.357086   0.398293   0.399821  -0.031772  -0.029853
     6  H   -0.027664  -0.006436   0.007879  -0.007195   0.004862  -0.000688
     7  H    0.659407  -0.006363  -0.007261   0.007888  -0.000698   0.005036
     8  C   -0.006363   4.824789  -0.029408  -0.030661   0.401182   0.403122
     9  H   -0.007261  -0.029408   0.671898  -0.028923   0.007623  -0.007190
    10  H    0.007888  -0.030661  -0.028923   0.672262  -0.007368   0.007486
    11  H   -0.000698   0.401182   0.007623  -0.007368   0.675054  -0.027902
    12  H    0.005036   0.403122  -0.007190   0.007486  -0.027902   0.659203
    13  C    0.000040   0.350202  -0.006258  -0.005741  -0.035801  -0.029203
    14  H   -0.000003  -0.028797  -0.000579   0.004638  -0.006903   0.007237
    15  H    0.000008  -0.032523   0.004429  -0.000620   0.007790  -0.007011
    16  C   -0.000000  -0.079548   0.000021  -0.000094  -0.002784  -0.007712
    17  H   -0.000000   0.009462   0.000006  -0.000007  -0.000099  -0.000033
    18  H    0.000003  -0.009019  -0.000002   0.000015   0.004714  -0.000322
    19  C   -0.000017  -0.005629   0.000029  -0.000001  -0.000746   0.008302
    20  H   -0.000002   0.001297   0.000006  -0.000002   0.000157  -0.000591
    21  H    0.000001  -0.000719  -0.000008   0.000001   0.000048   0.000123
              13         14         15         16         17         18
     1  C   -0.000321  -0.000009  -0.000009   0.000004  -0.000000  -0.000000
     2  C    0.008984   0.000033   0.000002  -0.000300   0.000009  -0.000010
     3  H    0.000006  -0.000003   0.000001  -0.000000   0.000000   0.000000
     4  H    0.000006   0.000001  -0.000003  -0.000000   0.000000  -0.000000
     5  C   -0.062914  -0.007125  -0.006631   0.009522  -0.000316   0.000052
     6  H    0.000024   0.000008  -0.000005  -0.000005  -0.000000  -0.000006
     7  H    0.000040  -0.000003   0.000008  -0.000000  -0.000000   0.000003
     8  C    0.350202  -0.028797  -0.032523  -0.079548   0.009462  -0.009019
     9  H   -0.006258  -0.000579   0.004429   0.000021   0.000006  -0.000002
    10  H   -0.005741   0.004638  -0.000620  -0.000094  -0.000007   0.000015
    11  H   -0.035801  -0.006903   0.007790  -0.002784  -0.000099   0.004714
    12  H   -0.029203   0.007237  -0.007011  -0.007712  -0.000033  -0.000322
    13  C    4.775545   0.401894   0.400151   0.412059  -0.038918  -0.030195
    14  H    0.401894   0.667015  -0.026646  -0.032640  -0.005759  -0.005059
    15  H    0.400151  -0.026646   0.671953  -0.032475  -0.004720   0.007586
    16  C    0.412059  -0.032640  -0.032475   4.648003   0.417223   0.407581
    17  H   -0.038918  -0.005759  -0.004720   0.417223   0.649855  -0.026177
    18  H   -0.030195  -0.005059   0.007586   0.407581  -0.026177   0.659832
    19  C   -0.086675   0.009054  -0.006026   0.358152  -0.037943  -0.036280
    20  H    0.000200  -0.000238  -0.000060  -0.030065   0.005125  -0.008498
    21  H   -0.000299  -0.000161   0.003082  -0.035692  -0.005560   0.005926
              19         20         21
     1  C   -0.000000   0.000000  -0.000000
     2  C    0.000017   0.000005  -0.000001
     3  H   -0.000000   0.000000   0.000000
     4  H    0.000000   0.000000   0.000000
     5  C   -0.000580  -0.000020   0.000010
     6  H    0.000001   0.000000  -0.000000
     7  H   -0.000017  -0.000002   0.000001
     8  C   -0.005629   0.001297  -0.000719
     9  H    0.000029   0.000006  -0.000008
    10  H   -0.000001  -0.000002   0.000001
    11  H   -0.000746   0.000157   0.000048
    12  H    0.008302  -0.000591   0.000123
    13  C   -0.086675   0.000200  -0.000299
    14  H    0.009054  -0.000238  -0.000161
    15  H   -0.006026  -0.000060   0.003082
    16  C    0.358152  -0.030065  -0.035692
    17  H   -0.037943   0.005125  -0.005560
    18  H   -0.036280  -0.008498   0.005926
    19  C    5.097910   0.415617   0.413872
    20  H    0.415617   0.588885  -0.031910
    21  H    0.413872  -0.031910   0.596989
 Mulliken charges:
               1
     1  C   -0.107424
     2  C   -0.045596
     3  H    0.055464
     4  H    0.055563
     5  C   -0.063024
     6  H    0.031017
     7  H    0.031277
     8  C   -0.060091
     9  H    0.022376
    10  H    0.021907
    11  H    0.018292
    12  H    0.025452
    13  C   -0.052787
    14  H    0.024043
    15  H    0.021728
    16  C   -0.031247
    17  H    0.037851
    18  H    0.029862
    19  C   -0.129056
    20  H    0.060095
    21  H    0.054298
 Sum of Mulliken charges =  -0.00000
 Mulliken charges with hydrogens summed into heavy atoms:
               1
     1  C    0.003604
     2  C    0.016698
     5  C   -0.018742
     8  C   -0.016346
    13  C   -0.007016
    16  C    0.036466
    19  C   -0.014663
 Electronic spatial extent (au):  <R**2>=           1445.3986
 Charge=             -0.0000 electrons
 Dipole moment (field-independent basis, Debye):
    X=              0.0693    Y=             -0.2178    Z=              0.0467  Tot=              0.2333
 Quadrupole moment (field-independent basis, Debye-Ang):
   XX=            -51.9338   YY=            -47.6379   ZZ=            -46.3960
   XY=              0.4820   XZ=             -0.0087   YZ=              0.6217
 Traceless Quadrupole moment (field-independent basis, Debye-Ang):
   XX=             -3.2779   YY=              1.0180   ZZ=              2.2599
   XY=              0.4820   XZ=             -0.0087   YZ=              0.6217
 Octapole moment (field-independent basis, Debye-Ang**2):
  XXX=             -1.8297  YYY=              0.1421  ZZZ=              0.6900  XYY=              1.8504
  XXY=             -8.2948  XXZ=              3.6773  XZZ=              0.1671  YZZ=              0.4684
  YYZ=             -0.9724  XYZ=             -2.7421
 Hexadecapole moment (field-independent basis, Debye-Ang**3):
 XXXX=          -1873.2180 YYYY=           -192.0695 ZZZZ=           -113.1794 XXXY=             10.5992
 XXXZ=             -1.6240 YYYX=              2.2981 YYYZ=              1.1084 ZZZX=              0.2941
 ZZZY=              1.0667 XXYY=           -325.7026 XXZZ=           -297.5299 YYZZ=            -53.3931
 XXYZ=              7.2628 YYXZ=             -0.8984 ZZXY=              0.5673
 N-N= 2.914653772056D+02 E-N=-1.215862588627D+03  KE= 2.714554279740D+02
 No NMR shielding tensors so no spin-rotation constants.
 Leave Link  601 at Sun May 15 18:19:09 2022, MaxMem=   104857600 cpu:               0.1 elap:               0.1
 (Enter /apps/software/g16/l9999.exe)
 1\1\GINC-CNODE06\SP\CASSCF\def2SVP\C7H14\LCZ\15-May-2022\0\\#p cas(2,2
 )/def2SVP guess=read Pop=NOAB\\C7H14 two-free radical\\0,1\C,0,-3.6937
 88,1.34595,-0.080153\C,0,-2.193484,1.373788,-0.056812\H,0,-4.225508,1.
 180088,-1.010334\H,0,-4.255204,1.224048,0.839301\C,0,-1.554416,-0.0234
 01,-0.0161\H,0,-1.824927,1.905707,-0.93985\H,0,-1.852812,1.944021,0.81
 3355\C,0,-0.027056,0.0145,0.00732\H,0,-1.919913,-0.559214,0.866609\H,0
 ,-1.893486,-0.598246,-0.884715\H,0,0.334747,0.551752,-0.877315\H,0,0.3
 05045,0.594496,0.87434\C,0,0.609304,-1.374514,0.044919\H,0,0.262703,-1
 .951369,-0.819054\H,0,0.259278,-1.91206,0.933203\C,0,2.14782,-1.364759
 ,0.03756\H,0,2.493149,-2.399801,-0.057561\H,0,2.498336,-0.839762,-0.85
 6087\C,0,2.771544,-0.752033,1.258758\H,0,3.140055,0.266294,1.257206\H,
 0,2.687753,-1.25126,2.218099\\Version=ES64L-G16RevA.03\State=1-A\HF=-2
 72.9362792\RMSD=0.000e+00\Dipole=-0.0052639,-0.087907,-0.0258803\Quadr
 upole=-1.6913899,-0.1322427,1.8236325,1.3342673,-0.3558567,-0.0256868\
 PG=C01 [X(C7H14)]\\@


 THEREFORE SHALL EVIL COME UPON THEE...
 THOU SHALT NOT KNOW FROM WHENCE IT RISETH...
 AND MISCHIEF SHALL FALL UPON THEE...
 THOU SHALT NOT BE ABLE TO PUT IT OFF...
 AND DESOLATION SHALL COME UPON THEE SUDDENLY...
 WHICH THOU SHALT NOT KNOW...

                                         ISAIAH 47.11
 Job cpu time:       0 days  0 hours  0 minutes 16.3 seconds.
 Elapsed time:       0 days  0 hours  0 minutes 16.3 seconds.
 File lengths (MBytes):  RWF=     10 Int=      0 D2E=      0 Chk=     67 Scr=      1
 Normal termination of Gaussian 16 at Sun May 15 18:19:09 2022.

Sender: Unischeduler System <lcz@mgt01>
Subject: Job 132275: <#!/bin/bash
#BSUB -J intel
#BSUB -o C7H14-CAS22.out
#BSUB -n 8
#BSUB -q cqueue
#BSUB -R span[hosts=1]
export g16root=/apps/software
source /apps/software/g16/bsd/g16.profile
export GAUSS_SCRDIR=/scratch
/apps/software/g16/g16 < C7H14-CAS22.inp > C7H14-CAS22.out> Done

Job <#!/bin/bash
#BSUB -J intel
#BSUB -o C7H14-CAS22.out
#BSUB -n 8
#BSUB -q cqueue
#BSUB -R span[hosts=1]
export g16root=/apps/software
source /apps/software/g16/bsd/g16.profile
export GAUSS_SCRDIR=/scratch
/apps/software/g16/g16 < C7H14-CAS22.inp > C7H14-CAS22.out> was submitted from host <mgt01> by user <lcz>.
Job was executed on host(s) <8*cnode06>, in queue <cqueue>, as user <lcz>.
</apps/users/lcz> was used as the home directory.
</apps/users/lcz/exe7/task4/Gaussian> was used as the working directory.
Started at 2022-05-15 18:18:53
Results reported at 2022-05-15 18:19:09

Your job looked like:

------------------------------------------------------------
# User input
#!/bin/bash
#BSUB -J intel
#BSUB -o C7H14-CAS22.out
#BSUB -n 8
#BSUB -q cqueue
#BSUB -R span[hosts=1]
export g16root=/apps/software
source /apps/software/g16/bsd/g16.profile
export GAUSS_SCRDIR=/scratch
/apps/software/g16/g16 < C7H14-CAS22.inp > C7H14-CAS22.out
------------------------------------------------------------

Successfully completed.

Resource usage summary:

    CPU time   :           12.65 sec.
    Max Memory :               967 MB
    Max Processes  :               5


The output (if any) follows:

