 Entering Gaussian System, Link 0=/apps/software/g16/g16
 Initial command:
 /apps/software/g16/l1.exe "/scratch/Gau-257727.inp" -scrdir="/scratch/"
 Entering Link 1 = /apps/software/g16/l1.exe PID=    257728.
  
 Copyright (c) 1988,1990,1992,1993,1995,1998,2003,2009,2016,
            Gaussian, Inc.  All Rights Reserved.
  
 This is part of the Gaussian(R) 16 program.  It is based on
 the Gaussian(R) 09 system (copyright 2009, Gaussian, Inc.),
 the Gaussian(R) 03 system (copyright 2003, Gaussian, Inc.),
 the Gaussian(R) 98 system (copyright 1998, Gaussian, Inc.),
 the Gaussian(R) 94 system (copyright 1995, Gaussian, Inc.),
 the Gaussian 92(TM) system (copyright 1992, Gaussian, Inc.),
 the Gaussian 90(TM) system (copyright 1990, Gaussian, Inc.),
 the Gaussian 88(TM) system (copyright 1988, Gaussian, Inc.),
 the Gaussian 86(TM) system (copyright 1986, Carnegie Mellon
 University), and the Gaussian 82(TM) system (copyright 1983,
 Carnegie Mellon University). Gaussian is a federally registered
 trademark of Gaussian, Inc.
  
 This software contains proprietary and confidential information,
 including trade secrets, belonging to Gaussian, Inc.
  
 This software is provided under written license and may be
 used, copied, transmitted, or stored only in accord with that
 written license.
  
 The following legend is applicable only to US Government
 contracts under FAR:
  
                    RESTRICTED RIGHTS LEGEND
  
 Use, reproduction and disclosure by the US Government is
 subject to restrictions as set forth in subparagraphs (a)
 and (c) of the Commercial Computer Software - Restricted
 Rights clause in FAR 52.227-19.
  
 Gaussian, Inc.
 340 Quinnipiac St., Bldg. 40, Wallingford CT 06492
  
  
 ---------------------------------------------------------------
 Warning -- This program may not be used in any manner that
 competes with the business of Gaussian, Inc. or will provide
 assistance to any competitor of Gaussian, Inc.  The licensee
 of this program is prohibited from giving any competitor of
 Gaussian, Inc. access to this program.  By using this program,
 the user acknowledges that Gaussian, Inc. is engaged in the
 business of creating and licensing software in the field of
 computational chemistry and represents and warrants to the
 licensee that it is not a competitor of Gaussian, Inc. and that
 it will not use this program in any manner prohibited above.
 ---------------------------------------------------------------
  

 Cite this work as:
 Gaussian 16, Revision A.03,
 M. J. Frisch, G. W. Trucks, H. B. Schlegel, G. E. Scuseria, 
 M. A. Robb, J. R. Cheeseman, G. Scalmani, V. Barone, 
 G. A. Petersson, H. Nakatsuji, X. Li, M. Caricato, A. V. Marenich, 
 J. Bloino, B. G. Janesko, R. Gomperts, B. Mennucci, H. P. Hratchian, 
 J. V. Ortiz, A. F. Izmaylov, J. L. Sonnenberg, D. Williams-Young, 
 F. Ding, F. Lipparini, F. Egidi, J. Goings, B. Peng, A. Petrone, 
 T. Henderson, D. Ranasinghe, V. G. Zakrzewski, J. Gao, N. Rega, 
 G. Zheng, W. Liang, M. Hada, M. Ehara, K. Toyota, R. Fukuda, 
 J. Hasegawa, M. Ishida, T. Nakajima, Y. Honda, O. Kitao, H. Nakai, 
 T. Vreven, K. Throssell, J. A. Montgomery, Jr., J. E. Peralta, 
 F. Ogliaro, M. J. Bearpark, J. J. Heyd, E. N. Brothers, K. N. Kudin, 
 V. N. Staroverov, T. A. Keith, R. Kobayashi, J. Normand, 
 K. Raghavachari, A. P. Rendell, J. C. Burant, S. S. Iyengar, 
 J. Tomasi, M. Cossi, J. M. Millam, M. Klene, C. Adamo, R. Cammi, 
 J. W. Ochterski, R. L. Martin, K. Morokuma, O. Farkas, 
 J. B. Foresman, and D. J. Fox, Gaussian, Inc., Wallingford CT, 2016.
 
 ******************************************
 Gaussian 16:  ES64L-G16RevA.03 25-Dec-2016
                 5-May-2022 
 ******************************************
 -------------------------------------------
 #p RHF/3-21G guess=mix stable=opt sym=loose
 -------------------------------------------
 1/38=1,172=1/1;
 2/12=2,17=4,18=3,40=1/2;
 3/5=5,11=2,25=1,30=1,116=1/1,2,3;
 4/13=-1/1;
 5/5=2,38=5/2;
 6/7=2,8=2,9=2,10=2,28=1/1;
 8/6=1,10=90,11=11/1;
 9/8=-3,42=1,46=1/14;
 5/5=2,8=3,17=40,38=5/8(-2);
 6/7=2,8=2,9=2,10=2,28=1/1;
 99/5=1,9=1/99;
 Leave Link    1 at Thu May  5 17:00:13 2022, MaxMem=           0 cpu:               0.0 elap:               0.0
 (Enter /apps/software/g16/l101.exe)
 -------
 C60 opt
 -------
 Symbolic Z-matrix:
 Charge =  0 Multiplicity = 1
 C                     0.17823  -0.42164   0.09565 
 C                     1.71824  -0.4216    0.09557 
 C                     2.39581   0.75205   0.09552 
 C                     1.62578   2.08571   0.09554 
 C                     0.27057   2.08567   0.0956 
 C                    -0.49939   0.75198   0.09566 
 C                    -0.29764  -1.58554  -0.79344 
 C                     0.94824  -2.30482  -1.34299 
 C                     2.19412  -1.58547  -0.79355 
 C                     3.29047  -1.43603  -1.576 
 C                     3.64168   0.92187  -0.79363 
 C                     2.39573   3.0798   -0.7936 
 C                     1.71807   3.95455  -1.57601 
 C                     0.17807   3.9545   -1.57595 
 C                    -0.49948   3.07971  -0.7935 
 C                    -1.74537   2.36037  -1.34296 
 C                    -1.7453    0.92174  -0.79343 
 C                    -2.16407  -0.10248  -1.57584 
 C                    -1.39404  -1.43614  -1.57584 
 C                     0.94822  -2.78841  -2.60898 
 C                    -0.29771  -2.61864  -3.49806 
 C                    -1.39409  -1.98567  -3.01447 
 C                    -2.16415  -0.99163  -3.90357 
 C                    -2.64003   0.17224  -3.01445 
 C                    -2.64009   1.43823  -3.49803 
 C                    -2.16421   2.60213  -2.60894 
 C                    -1.39425   3.59619  -3.49809 
 C                    -0.29787   4.22922  -3.01457 
 C                     3.64162   2.3605   -1.34314 
 C                     2.19382   3.19618  -5.71927 
 C                     3.29022   3.04679  -4.93688 
 C                     4.06026   1.71313  -4.93688 
 C                     3.64149   0.6889   -5.71928 
 C                     2.39556   0.85866  -6.60837 
 C                     0.17794   2.03224  -6.6083 
 C                    -0.29794   3.19612  -5.71918 
 C                     0.94794   3.91547  -5.16973 
 C                     0.94798   4.39904  -3.90374 
 C                     2.1939    4.22929  -3.01466 
 C                     3.29027   3.59631  -3.49827 
 C                     4.53622   1.4384   -3.49827 
 C                     4.53628   0.17241  -3.01469 
 C                     4.0604   -0.99148  -3.90378 
 C                     3.64156  -0.74972  -5.16977 
 C                     2.39567  -1.46907  -5.71922 
 C                     1.6256   -0.47504  -6.60833 
 C                     0.27039  -0.47507  -6.60828 
 C                    -0.49963   0.85859  -6.60826 
 C                    -1.39429   3.04667  -4.93672 
 C                    -2.16426   1.71297  -4.93667 
 C                    -1.74548   0.68876  -5.7191 
 C                    -1.74543  -0.74986  -5.16957 
 C                    -0.49955  -1.46915  -5.71912 
 C                     0.17811  -2.34389  -4.9367 
 C                     1.71811  -2.34386  -4.93676 
 C                     2.19406  -2.61858  -3.49814 
 C                     3.29044  -1.98556  -3.01462 
 C                     4.06034   2.60227  -2.60915 
 C                     4.06045  -0.10234  -1.57606 
 C                     1.71794   2.03228  -6.60836 
 
 ITRead=  0  0  0  0  0  0  0  0  0  0  0  0  0  0  0  0  0  0  0  0
 ITRead=  0  0  0  0  0  0  0  0  0  0  0  0  0  0  0  0  0  0  0  0
 ITRead=  0  0  0  0  0  0  0  0  0  0  0  0  0  0  0  0  0  0  0  0
 MicOpt= -1 -1 -1 -1 -1 -1 -1 -1 -1 -1 -1 -1 -1 -1 -1 -1 -1 -1 -1 -1
 MicOpt= -1 -1 -1 -1 -1 -1 -1 -1 -1 -1 -1 -1 -1 -1 -1 -1 -1 -1 -1 -1
 MicOpt= -1 -1 -1 -1 -1 -1 -1 -1 -1 -1 -1 -1 -1 -1 -1 -1 -1 -1 -1 -1
 NAtoms=     60 NQM=       60 NQMF=       0 NMMI=      0 NMMIF=      0
                NMic=       0 NMicF=      0.
                    Isotopes and Nuclear Properties:
 (Nuclear quadrupole moments (NQMom) in fm**2, nuclear magnetic moments (NMagM)
  in nuclear magnetons)

  Atom         1           2           3           4           5           6           7           8           9          10
 IAtWgt=          12          12          12          12          12          12          12          12          12          12
 AtmWgt=  12.0000000  12.0000000  12.0000000  12.0000000  12.0000000  12.0000000  12.0000000  12.0000000  12.0000000  12.0000000
 NucSpn=           0           0           0           0           0           0           0           0           0           0
 AtZEff=  -0.0000000  -0.0000000  -0.0000000  -0.0000000  -0.0000000  -0.0000000  -0.0000000  -0.0000000  -0.0000000  -0.0000000
 NQMom=    0.0000000   0.0000000   0.0000000   0.0000000   0.0000000   0.0000000   0.0000000   0.0000000   0.0000000   0.0000000
 NMagM=    0.0000000   0.0000000   0.0000000   0.0000000   0.0000000   0.0000000   0.0000000   0.0000000   0.0000000   0.0000000
 AtZNuc=   6.0000000   6.0000000   6.0000000   6.0000000   6.0000000   6.0000000   6.0000000   6.0000000   6.0000000   6.0000000

  Atom        11          12          13          14          15          16          17          18          19          20
 IAtWgt=          12          12          12          12          12          12          12          12          12          12
 AtmWgt=  12.0000000  12.0000000  12.0000000  12.0000000  12.0000000  12.0000000  12.0000000  12.0000000  12.0000000  12.0000000
 NucSpn=           0           0           0           0           0           0           0           0           0           0
 AtZEff=  -0.0000000  -0.0000000  -0.0000000  -0.0000000  -0.0000000  -0.0000000  -0.0000000  -0.0000000  -0.0000000  -0.0000000
 NQMom=    0.0000000   0.0000000   0.0000000   0.0000000   0.0000000   0.0000000   0.0000000   0.0000000   0.0000000   0.0000000
 NMagM=    0.0000000   0.0000000   0.0000000   0.0000000   0.0000000   0.0000000   0.0000000   0.0000000   0.0000000   0.0000000
 AtZNuc=   6.0000000   6.0000000   6.0000000   6.0000000   6.0000000   6.0000000   6.0000000   6.0000000   6.0000000   6.0000000

  Atom        21          22          23          24          25          26          27          28          29          30
 IAtWgt=          12          12          12          12          12          12          12          12          12          12
 AtmWgt=  12.0000000  12.0000000  12.0000000  12.0000000  12.0000000  12.0000000  12.0000000  12.0000000  12.0000000  12.0000000
 NucSpn=           0           0           0           0           0           0           0           0           0           0
 AtZEff=  -0.0000000  -0.0000000  -0.0000000  -0.0000000  -0.0000000  -0.0000000  -0.0000000  -0.0000000  -0.0000000  -0.0000000
 NQMom=    0.0000000   0.0000000   0.0000000   0.0000000   0.0000000   0.0000000   0.0000000   0.0000000   0.0000000   0.0000000
 NMagM=    0.0000000   0.0000000   0.0000000   0.0000000   0.0000000   0.0000000   0.0000000   0.0000000   0.0000000   0.0000000
 AtZNuc=   6.0000000   6.0000000   6.0000000   6.0000000   6.0000000   6.0000000   6.0000000   6.0000000   6.0000000   6.0000000

  Atom        31          32          33          34          35          36          37          38          39          40
 IAtWgt=          12          12          12          12          12          12          12          12          12          12
 AtmWgt=  12.0000000  12.0000000  12.0000000  12.0000000  12.0000000  12.0000000  12.0000000  12.0000000  12.0000000  12.0000000
 NucSpn=           0           0           0           0           0           0           0           0           0           0
 AtZEff=  -0.0000000  -0.0000000  -0.0000000  -0.0000000  -0.0000000  -0.0000000  -0.0000000  -0.0000000  -0.0000000  -0.0000000
 NQMom=    0.0000000   0.0000000   0.0000000   0.0000000   0.0000000   0.0000000   0.0000000   0.0000000   0.0000000   0.0000000
 NMagM=    0.0000000   0.0000000   0.0000000   0.0000000   0.0000000   0.0000000   0.0000000   0.0000000   0.0000000   0.0000000
 AtZNuc=   6.0000000   6.0000000   6.0000000   6.0000000   6.0000000   6.0000000   6.0000000   6.0000000   6.0000000   6.0000000

  Atom        41          42          43          44          45          46          47          48          49          50
 IAtWgt=          12          12          12          12          12          12          12          12          12          12
 AtmWgt=  12.0000000  12.0000000  12.0000000  12.0000000  12.0000000  12.0000000  12.0000000  12.0000000  12.0000000  12.0000000
 NucSpn=           0           0           0           0           0           0           0           0           0           0
 AtZEff=  -0.0000000  -0.0000000  -0.0000000  -0.0000000  -0.0000000  -0.0000000  -0.0000000  -0.0000000  -0.0000000  -0.0000000
 NQMom=    0.0000000   0.0000000   0.0000000   0.0000000   0.0000000   0.0000000   0.0000000   0.0000000   0.0000000   0.0000000
 NMagM=    0.0000000   0.0000000   0.0000000   0.0000000   0.0000000   0.0000000   0.0000000   0.0000000   0.0000000   0.0000000
 AtZNuc=   6.0000000   6.0000000   6.0000000   6.0000000   6.0000000   6.0000000   6.0000000   6.0000000   6.0000000   6.0000000

  Atom        51          52          53          54          55          56          57          58          59          60
 IAtWgt=          12          12          12          12          12          12          12          12          12          12
 AtmWgt=  12.0000000  12.0000000  12.0000000  12.0000000  12.0000000  12.0000000  12.0000000  12.0000000  12.0000000  12.0000000
 NucSpn=           0           0           0           0           0           0           0           0           0           0
 AtZEff=  -0.0000000  -0.0000000  -0.0000000  -0.0000000  -0.0000000  -0.0000000  -0.0000000  -0.0000000  -0.0000000  -0.0000000
 NQMom=    0.0000000   0.0000000   0.0000000   0.0000000   0.0000000   0.0000000   0.0000000   0.0000000   0.0000000   0.0000000
 NMagM=    0.0000000   0.0000000   0.0000000   0.0000000   0.0000000   0.0000000   0.0000000   0.0000000   0.0000000   0.0000000
 AtZNuc=   6.0000000   6.0000000   6.0000000   6.0000000   6.0000000   6.0000000   6.0000000   6.0000000   6.0000000   6.0000000
 Leave Link  101 at Thu May  5 17:00:13 2022, MaxMem=   104857600 cpu:               0.1 elap:               0.1
 (Enter /apps/software/g16/l202.exe)
 Stoichiometry    C60
 Framework group  IH[15SG(C4)]
 Deg. of freedom     2
 Full point group                 IH      NOp 120
 Largest Abelian subgroup         C2H     NOp   4
 Largest concise Abelian subgroup C2H     NOp   4
                         Standard orientation:                         
 ---------------------------------------------------------------------
 Center     Atomic      Atomic             Coordinates (Angstroms)
 Number     Number       Type             X           Y           Z
 ---------------------------------------------------------------------
      1          6           0        0.770009   -1.059826    3.408513
      2          6           0       -0.770009   -1.059826    3.408513
      3          6           0       -1.447603   -1.992454    2.696048
      4          6           0       -0.677594   -3.052280    1.886413
      5          6           0        0.677594   -3.052280    1.886413
      6          6           0        1.447603   -1.992454    2.696048
      7          6           0        1.245900    0.404818    3.408513
      8          6           0        0.000000    1.310017    3.408513
      9          6           0       -1.245900    0.404818    3.408513
     10          6           0       -2.342270    0.761050    2.696048
     11          6           0       -2.693503   -1.587637    1.886413
     12          6           0       -1.447603   -3.302471    0.576396
     13          6           0       -0.770009   -3.522635   -0.576396
     14          6           0        0.770009   -3.522635   -0.576396
     15          6           0        1.447603   -3.302471    0.576396
     16          6           0        2.693503   -2.397272    0.576396
     17          6           0        2.693503   -1.587637    1.886413
     18          6           0        3.112279   -0.298776    1.886413
     19          6           0        2.342270    0.761050    2.696048
     20          6           0        0.000000    2.462809    2.696048
     21          6           0        1.245900    2.867626    1.886413
     22          6           0        2.342270    2.071067    1.886413
     23          6           0        3.112279    1.820876    0.576396
     24          6           0        3.588171    0.356232    0.576396
     25          6           0        3.588171   -0.356232   -0.576396
     26          6           0        3.112279   -1.820876   -0.576396
     27          6           0        2.342270   -2.071067   -1.886413
     28          6           0        1.245900   -2.867626   -1.886413
     29          6           0       -2.693503   -2.397272    0.576396
     30          6           0       -1.245900   -0.404818   -3.408513
     31          6           0       -2.342270   -0.761050   -2.696048
     32          6           0       -3.112279    0.298776   -1.886413
     33          6           0       -2.693503    1.587637   -1.886413
     34          6           0       -1.447603    1.992454   -2.696048
     35          6           0        0.770009    1.059826   -3.408513
     36          6           0        1.245900   -0.404818   -3.408513
     37          6           0        0.000000   -1.310017   -3.408513
     38          6           0       -0.000000   -2.462809   -2.696048
     39          6           0       -1.245900   -2.867626   -1.886413
     40          6           0       -2.342270   -2.071067   -1.886413
     41          6           0       -3.588171   -0.356232   -0.576396
     42          6           0       -3.588171    0.356232    0.576396
     43          6           0       -3.112279    1.820876    0.576396
     44          6           0       -2.693503    2.397272   -0.576396
     45          6           0       -1.447603    3.302471   -0.576396
     46          6           0       -0.677594    3.052280   -1.886413
     47          6           0        0.677594    3.052280   -1.886413
     48          6           0        1.447603    1.992454   -2.696048
     49          6           0        2.342270   -0.761050   -2.696048
     50          6           0        3.112279    0.298776   -1.886413
     51          6           0        2.693503    1.587637   -1.886413
     52          6           0        2.693503    2.397272   -0.576396
     53          6           0        1.447603    3.302471   -0.576396
     54          6           0        0.770009    3.522635    0.576396
     55          6           0       -0.770009    3.522635    0.576396
     56          6           0       -1.245900    2.867626    1.886413
     57          6           0       -2.342270    2.071067    1.886413
     58          6           0       -3.112279   -1.820876   -0.576396
     59          6           0       -3.112279   -0.298776    1.886413
     60          6           0       -0.770009    1.059826   -3.408513
 ---------------------------------------------------------------------
 Rotational constants (GHZ):           0.0789609           0.0789609           0.0789609
 Leave Link  202 at Thu May  5 17:00:13 2022, MaxMem=   104857600 cpu:               0.1 elap:               0.1
 (Enter /apps/software/g16/l301.exe)
 Standard basis: 3-21G (6D, 7F)
 Ernie: Thresh=  0.10000D-02 Tol=  0.10000D-05 Strict=F.
 There are   140 symmetry adapted cartesian basis functions of AG  symmetry.
 There are   130 symmetry adapted cartesian basis functions of BG  symmetry.
 There are   130 symmetry adapted cartesian basis functions of AU  symmetry.
 There are   140 symmetry adapted cartesian basis functions of BU  symmetry.
 There are   140 symmetry adapted basis functions of AG  symmetry.
 There are   130 symmetry adapted basis functions of BG  symmetry.
 There are   130 symmetry adapted basis functions of AU  symmetry.
 There are   140 symmetry adapted basis functions of BU  symmetry.
   540 basis functions,   900 primitive gaussians,   540 cartesian basis functions
   180 alpha electrons      180 beta electrons
       nuclear repulsion energy      8096.2887348075 Hartrees.
 IExCor=    0 DFT=F Ex=HF Corr=None ExCW=0 ScaHFX=  1.000000
 ScaDFX=  1.000000  1.000000  1.000000  1.000000 ScalE2=  1.000000  1.000000
 IRadAn=      5 IRanWt=     -1 IRanGd=            0 ICorTp=0 IEmpDi=  4
 NAtoms=   60 NActive=   60 NUniq=    1 SFac= 4.00D+00 NAtFMM=   60 NAOKFM=T Big=F
 Integral buffers will be    131072 words long.
 Raffenetti 2 integral format.
 Two-electron integral symmetry is turned on.
 Leave Link  301 at Thu May  5 17:00:13 2022, MaxMem=   104857600 cpu:               0.1 elap:               0.1
 (Enter /apps/software/g16/l302.exe)
 NPDir=0 NMtPBC=     1 NCelOv=     1 NCel=       1 NClECP=     1 NCelD=      1
         NCelK=      1 NCelE2=     1 NClLst=     1 CellRange=     0.0.
 One-electron integrals computed using PRISM.
 One-electron integral symmetry used in STVInt
 NBasis=   540 RedAO= T EigKep=  1.69D-03  NBF=   140   130   130   140
 NBsUse=   540 1.00D-06 EigRej= -1.00D+00 NBFU=   140   130   130   140
 Leave Link  302 at Thu May  5 17:00:14 2022, MaxMem=   104857600 cpu:               0.6 elap:               0.6
 (Enter /apps/software/g16/l303.exe)
 DipDrv:  MaxL=1.
 Leave Link  303 at Thu May  5 17:00:14 2022, MaxMem=   104857600 cpu:               0.1 elap:               0.1
 (Enter /apps/software/g16/l401.exe)
 ExpMin= 1.96D-01 ExpMax= 1.72D+02 ExpMxC= 1.72D+02 IAcc=3 IRadAn=         5 AccDes= 0.00D+00
 Harris functional with IExCor=  205 and IRadAn=       5 diagonalized for initial guess.
 HarFok:  IExCor=  205 AccDes= 0.00D+00 IRadAn=         5 IDoV= 1 UseB2=F ITyADJ=14
 ICtDFT=  3500011 ScaDFX=  1.000000  1.000000  1.000000  1.000000
 FoFCou: FMM=F IPFlag=           0 FMFlag=      100000 FMFlg1=        2000
         NFxFlg=           0 DoJE=T BraDBF=F KetDBF=T FulRan=T
         wScrn=  0.000000 ICntrl=       500 IOpCl=  0 I1Cent=   200000004 NGrid=           0
         NMat0=    1 NMatS0=      1 NMatT0=    0 NMatD0=    1 NMtDS0=    0 NMtDT0=    0
 Petite list used in FoFCou.
 Harris En= -2260.56220985762    
 JPrj=0 DoOrth=F DoCkMO=T.
 Mixing orbitals, IMix= 1 IMixAn=  0 NRI=1 NE=  180 Coef=  7.07106781D-01  7.07106781D-01
 Initial guess orbital symmetries:
       Occupied  (T2G) (T2G) (T2G) (GU) (GU) (GU) (GU) (HU) (HU)
                 (HU) (HU) (HU) (GG) (GG) (GG) (GG) (T1G) (T1G)
                 (T1G) (HG) (HG) (HG) (HG) (HG) (T2U) (T2U) (T2U)
                 (T1U) (T1U) (T1U) (HU) (HU) (HU) (HU) (HU) (HG)
                 (HG) (HG) (HG) (HG) (GG) (GG) (GG) (GG) (T2U)
                 (T2U) (T2U) (GU) (GU) (GU) (GU) (HG) (HG) (HG)
                 (HG) (HG) (T1U) (T1U) (T1U) (AG) (AG) (T1U) (T1U)
                 (T1U) (HG) (HG) (HG) (HG) (HG) (GU) (GU) (GU)
                 (GU) (T2U) (T2U) (T2U) (GG) (GG) (GG) (GG) (HG)
                 (HG) (HG) (HG) (HG) (HU) (HU) (HU) (HU) (HU) (T1U)
                 (T1U) (T1U) (T2U) (T2U) (T2U) (HG) (HG) (HG) (HG)
                 (HG) (AG) (T1G) (T1G) (T1G) (GG) (GG) (GG) (GG)
                 (HU) (HU) (HU) (HU) (HU) (T1U) (T1U) (T1U) (T2U)
                 (T2U) (T2U) (HG) (HG) (HG) (HG) (HG) (GU) (GU)
                 (GU) (GU) (GG) (GG) (GG) (GG) (AG) (T1U) (T1U)
                 (T1U) (GU) (GU) (GU) (GU) (T2G) (T2G) (T2G) (HG)
                 (HG) (HG) (HG) (HG) (HG) (HG) (HG) (HG) (HG) (HU)
                 (HU) (HU) (HU) (HU) (GU) (GU) (GU) (GU) (T2U)
                 (T2U) (T2U) (GG) (GG) (GG) (GG) (HG) (HG) (HG)
                 (HG) (HG) (?A) (?A) (?A) (?A) (?A)
       Virtual   (?A) (?A) (?A) (T1G) (T1G) (T1G) (HG) (HG) (HG)
                 (HG) (HG) (T2U) (T2U) (T2U) (HU) (HU) (HU) (HU)
                 (HU) (GG) (GG) (GG) (GG) (GU) (GU) (GU) (GU) (T2G)
                 (T2G) (T2G) (T1U) (T1U) (T1U) (T1G) (T1G) (T1G)
                 (HG) (HG) (HG) (HG) (HG) (GU) (GU) (GU) (GU) (T2U)
                 (T2U) (T2U) (HU) (HU) (HU) (HU) (HU) (GG) (GG)
                 (GG) (GG) (HG) (HG) (HG) (HG) (HG) (T2G) (T2G)
                 (T2G) (T2U) (T2U) (T2U) (HU) (HU) (HU) (HU) (HU)
                 (T1U) (T1U) (T1U) (HG) (HG) (HG) (HG) (HG) (GG)
                 (GG) (GG) (GG) (GU) (GU) (GU) (GU) (T2G) (T2G)
                 (T2G) (T1G) (T1G) (T1G) (HU) (HU) (HU) (HU) (HU)
                 (HU) (HU) (HU) (HU) (HU) (T1G) (T1G) (T1G) (GG)
                 (GG) (GG) (GG) (AU) (AG) (T1U) (T1U) (T1U) (AG)
                 (T1U) (T1U) (T1U) (GU) (GU) (GU) (GU) (T2U) (T2U)
                 (T2U) (HG) (HG) (HG) (HG) (HG) (GG) (GG) (GG)
                 (GG) (GU) (GU) (GU) (GU) (T2G) (T2G) (T2G) (HG)
                 (HG) (HG) (HG) (HG) (T2U) (T2U) (T2U) (GU) (GU)
                 (GU) (GU) (HG) (HG) (HG) (HG) (HG) (GG) (GG) (GG)
                 (GG) (T2U) (T2U) (T2U) (HU) (HU) (HU) (HU) (HU)
                 (HG) (HG) (HG) (HG) (HG) (T1U) (T1U) (T1U) (T1G)
                 (T1G) (T1G) (HU) (HU) (HU) (HU) (HU) (GG) (GG)
                 (GG) (GG) (T2G) (T2G) (T2G) (GU) (GU) (GU) (GU)
                 (HG) (HG) (HG) (HG) (HG) (T2U) (T2U) (T2U) (T1U)
                 (T1U) (T1U) (AG) (GU) (GU) (GU) (GU) (GG) (GG)
                 (GG) (GG) (HU) (HU) (HU) (HU) (HU) (HG) (HG) (HG)
                 (HG) (HG) (T2G) (T2G) (T2G) (HG) (HG) (HG) (HG)
                 (HG) (T1G) (T1G) (T1G) (T2U) (T2U) (T2U) (HU)
                 (HU) (HU) (HU) (HU) (T1U) (T1U) (T1U) (HU) (HU)
                 (HU) (HU) (HU) (GG) (GG) (GG) (GG) (HG) (HG) (HG)
                 (HG) (HG) (GU) (GU) (GU) (GU) (T1U) (T1U) (T1U)
                 (T2G) (T2G) (T2G) (T1G) (T1G) (T1G) (HU) (HU)
                 (HU) (HU) (HU) (HG) (HG) (HG) (HG) (HG) (GG) (GG)
                 (GG) (GG) (GU) (GU) (GU) (GU) (HU) (HU) (HU) (HU)
                 (HU) (T2U) (T2U) (T2U) (GU) (GU) (GU) (GU) (T1G)
                 (T1G) (T1G) (T2G) (T2G) (T2G) (GG) (GG) (GG) (GG)
                 (AU) (HG) (HG) (HG) (HG) (HG) (HU) (HU) (HU) (HU)
                 (HU) (T1U) (T1U) (T1U) (T2U) (T2U) (T2U) (HG)
                 (HG) (HG) (HG) (HG) (T1G) (T1G) (T1G) (GG) (GG)
                 (GG) (GG) (HU) (HU) (HU) (HU) (HU) (GU) (GU) (GU)
                 (GU) (T2G) (T2G) (T2G)
 Leave Link  401 at Thu May  5 17:00:15 2022, MaxMem=   104857600 cpu:               0.9 elap:               0.9
 (Enter /apps/software/g16/l502.exe)
 Integral symmetry usage will be decided dynamically.
 Closed shell SCF:
 Using DIIS extrapolation, IDIIS=  1040.
 NGot=   104857600 LenX=   104240616 LenY=   103948476
 Requested convergence on RMS density matrix=1.00D-08 within 128 cycles.
 Requested convergence on MAX density matrix=1.00D-06.
 Requested convergence on             energy=1.00D-06.
 No special actions if energy rises.
 Fock matrices will be formed incrementally for  20 cycles.
 Integral accuracy reduced to 1.0D-05 until final iterations.
 An orbital has undefined symmetry, so N**3 symmetry is turned off.

 Cycle   1  Pass 0  IDiag  1:
 Density matrix breaks symmetry, PCut= 1.00D-07
 Density matrix has no symmetry -- integrals replicated.
 FoFJK:  IHMeth= 1 ICntrl=       0 DoSepK=F KAlg= 0 I1Cent=           0 FoldK=F
 IRaf= 690000000 NMat=       1 IRICut=       1 DoRegI=T DoRafI=F ISym2E= 2 IDoP0=0 IntGTp=1.
 FoFCou: FMM=T IPFlag=           0 FMFlag=      100000 FMFlg1=        2000
         NFxFlg=           0 DoJE=F BraDBF=F KetDBF=F FulRan=T
         wScrn=  0.000000 ICntrl=         0 IOpCl=  0 I1Cent=           0 NGrid=           0
         NMat0=    1 NMatS0=      1 NMatT0=    0 NMatD0=    1 NMtDS0=    0 NMtDT0=    0
 Symmetry not used in FoFCou.
 FMM levels:  10  Number of levels for PrismC:   9
 E= -2257.79938257001    
 DIIS: error= 4.72D-02 at cycle   1 NSaved=   1.
 NSaved= 1 IEnMin= 1 EnMin= -2257.79938257001     IErMin= 1 ErrMin= 4.72D-02
 ErrMax= 4.72D-02  0.00D+00 EMaxC= 1.00D-01 BMatC= 1.42D+00 BMatP= 1.42D+00
 IDIUse=3 WtCom= 5.28D-01 WtEn= 4.72D-01
 Coeff-Com:  0.100D+01
 Coeff-En:   0.100D+01
 Coeff:      0.100D+01
 Gap=     0.113 Goal=   None    Shift=    0.000
 GapD=    0.113 DampG=1.000 DampE=0.500 DampFc=0.5000 IDamp=-1.
 Damping current iteration by 5.00D-01
 RMSDP=3.15D-03 MaxDP=6.23D-02              OVMax= 4.89D-01

 Cycle   2  Pass 0  IDiag  1:
 Density matrix breaks symmetry, PCut= 1.00D-07
 Density matrix has no symmetry -- integrals replicated.
 RMSU=  1.52D-03    CP:  9.79D-01
 E= -2258.26298141119     Delta-E=       -0.463598841179 Rises=F Damp=T
 DIIS: error= 2.61D-02 at cycle   2 NSaved=   2.
 NSaved= 2 IEnMin= 2 EnMin= -2258.26298141119     IErMin= 2 ErrMin= 2.61D-02
 ErrMax= 2.61D-02  0.00D+00 EMaxC= 1.00D-01 BMatC= 3.88D-01 BMatP= 1.42D+00
 IDIUse=3 WtCom= 7.39D-01 WtEn= 2.61D-01
 Coeff-Com: -0.102D+01 0.202D+01
 Coeff-En:   0.000D+00 0.100D+01
 Coeff:     -0.752D+00 0.175D+01
 Gap=     0.278 Goal=   None    Shift=    0.000
 RMSDP=1.77D-03 MaxDP=2.26D-02 DE=-4.64D-01 OVMax= 1.29D-01

 Cycle   3  Pass 0  IDiag  1:
 Density matrix breaks symmetry, PCut= 1.00D-07
 Density matrix has no symmetry -- integrals replicated.
 RMSU=  8.76D-04    CP:  9.65D-01  1.99D+00
 E= -2258.78232436299     Delta-E=       -0.519342951800 Rises=F Damp=F
 DIIS: error= 8.97D-03 at cycle   3 NSaved=   3.
 NSaved= 3 IEnMin= 3 EnMin= -2258.78232436299     IErMin= 3 ErrMin= 8.97D-03
 ErrMax= 8.97D-03  0.00D+00 EMaxC= 1.00D-01 BMatC= 4.03D-03 BMatP= 3.88D-01
 IDIUse=3 WtCom= 9.10D-01 WtEn= 8.97D-02
 Coeff-Com: -0.150D+00 0.259D+00 0.890D+00
 Coeff-En:   0.000D+00 0.000D+00 0.100D+01
 Coeff:     -0.136D+00 0.236D+00 0.900D+00
 Gap=     0.308 Goal=   None    Shift=    0.000
 RMSDP=3.60D-04 MaxDP=1.04D-02 DE=-5.19D-01 OVMax= 5.04D-02

 Cycle   4  Pass 0  IDiag  1:
 Density matrix breaks symmetry, PCut= 1.00D-07
 Density matrix has no symmetry -- integrals replicated.
 RMSU=  2.88D-04    CP:  9.61D-01  2.12D+00  9.64D-01
 E= -2258.79218052020     Delta-E=       -0.009856157205 Rises=F Damp=F
 DIIS: error= 3.26D-03 at cycle   4 NSaved=   4.
 NSaved= 4 IEnMin= 4 EnMin= -2258.79218052020     IErMin= 4 ErrMin= 3.26D-03
 ErrMax= 3.26D-03  0.00D+00 EMaxC= 1.00D-01 BMatC= 1.42D-03 BMatP= 4.03D-03
 IDIUse=3 WtCom= 9.67D-01 WtEn= 3.26D-02
 Coeff-Com:  0.277D-01-0.656D-01 0.326D+00 0.712D+00
 Coeff-En:   0.000D+00 0.000D+00 0.000D+00 0.100D+01
 Coeff:      0.268D-01-0.635D-01 0.315D+00 0.721D+00
 Gap=     0.315 Goal=   None    Shift=    0.000
 RMSDP=1.52D-04 MaxDP=3.41D-03 DE=-9.86D-03 OVMax= 2.49D-02

 Cycle   5  Pass 0  IDiag  1:
 Density matrix breaks symmetry, PCut= 1.00D-07
 Density matrix has no symmetry -- integrals replicated.
 RMSU=  1.26D-04    CP:  9.60D-01  2.14D+00  1.06D+00  9.72D-01
 E= -2258.79511940277     Delta-E=       -0.002938882575 Rises=F Damp=F
 DIIS: error= 2.05D-03 at cycle   5 NSaved=   5.
 NSaved= 5 IEnMin= 5 EnMin= -2258.79511940277     IErMin= 5 ErrMin= 2.05D-03
 ErrMax= 2.05D-03  0.00D+00 EMaxC= 1.00D-01 BMatC= 1.99D-04 BMatP= 1.42D-03
 IDIUse=3 WtCom= 9.80D-01 WtEn= 2.05D-02
 Coeff-Com:  0.351D-01-0.635D-01-0.108D+00 0.923D-01 0.104D+01
 Coeff-En:   0.000D+00 0.000D+00 0.000D+00 0.000D+00 0.100D+01
 Coeff:      0.344D-01-0.622D-01-0.105D+00 0.905D-01 0.104D+01
 Gap=     0.317 Goal=   None    Shift=    0.000
 RMSDP=9.80D-05 MaxDP=2.12D-03 DE=-2.94D-03 OVMax= 1.92D-02

 Cycle   6  Pass 0  IDiag  1:
 Density matrix breaks symmetry, PCut= 1.00D-07
 Density matrix has no symmetry -- integrals replicated.
 RMSU=  4.73D-05    CP:  9.61D-01  2.15D+00  1.11D+00  1.21D+00  1.18D+00
 E= -2258.79620468680     Delta-E=       -0.001085284031 Rises=F Damp=F
 DIIS: error= 8.05D-04 at cycle   6 NSaved=   6.
 NSaved= 6 IEnMin= 6 EnMin= -2258.79620468680     IErMin= 6 ErrMin= 8.05D-04
 ErrMax= 8.05D-04  0.00D+00 EMaxC= 1.00D-01 BMatC= 4.23D-05 BMatP= 1.99D-04
 IDIUse=3 WtCom= 9.92D-01 WtEn= 8.05D-03
 Coeff-Com: -0.513D-02 0.115D-01-0.370D-01-0.150D+00-0.571D-01 0.124D+01
 Coeff-En:   0.000D+00 0.000D+00 0.000D+00 0.000D+00 0.000D+00 0.100D+01
 Coeff:     -0.509D-02 0.114D-01-0.367D-01-0.149D+00-0.567D-01 0.124D+01
 Gap=     0.318 Goal=   None    Shift=    0.000
 RMSDP=5.56D-05 MaxDP=1.33D-03 DE=-1.09D-03 OVMax= 9.46D-03

 Cycle   7  Pass 0  IDiag  1:
 Density matrix breaks symmetry, PCut= 1.00D-07
 Density matrix has no symmetry -- integrals replicated.
 RMSU=  1.97D-05    CP:  9.60D-01  2.15D+00  1.13D+00  1.30D+00  1.45D+00
                    CP:  1.47D+00
 E= -2258.79647712232     Delta-E=       -0.000272435518 Rises=F Damp=F
 DIIS: error= 2.38D-04 at cycle   7 NSaved=   7.
 NSaved= 7 IEnMin= 7 EnMin= -2258.79647712232     IErMin= 7 ErrMin= 2.38D-04
 ErrMax= 2.38D-04  0.00D+00 EMaxC= 1.00D-01 BMatC= 1.03D-05 BMatP= 4.23D-05
 IDIUse=3 WtCom= 9.98D-01 WtEn= 2.38D-03
 Coeff-Com: -0.602D-02 0.108D-01 0.247D-01-0.219D-01-0.216D+00 0.101D+00
 Coeff-Com:  0.111D+01
 Coeff-En:   0.000D+00 0.000D+00 0.000D+00 0.000D+00 0.000D+00 0.000D+00
 Coeff-En:   0.100D+01
 Coeff:     -0.601D-02 0.108D-01 0.246D-01-0.219D-01-0.216D+00 0.101D+00
 Coeff:      0.111D+01
 Gap=     0.318 Goal=   None    Shift=    0.000
 RMSDP=2.35D-05 MaxDP=7.31D-04 DE=-2.72D-04 OVMax= 3.30D-03

 Cycle   8  Pass 0  IDiag  1:
 Density matrix breaks symmetry, PCut= 1.00D-07
 Density matrix has no symmetry -- integrals replicated.
 RMSU=  1.12D-05    CP:  9.60D-01  2.15D+00  1.13D+00  1.33D+00  1.54D+00
                    CP:  1.76D+00  1.38D+00
 E= -2258.79652186766     Delta-E=       -0.000044745342 Rises=F Damp=F
 DIIS: error= 1.17D-04 at cycle   8 NSaved=   8.
 NSaved= 8 IEnMin= 8 EnMin= -2258.79652186766     IErMin= 8 ErrMin= 1.17D-04
 ErrMax= 1.17D-04  0.00D+00 EMaxC= 1.00D-01 BMatC= 2.57D-06 BMatP= 1.03D-05
 IDIUse=3 WtCom= 9.99D-01 WtEn= 1.17D-03
 Coeff-Com:  0.179D-02-0.389D-02 0.135D-01 0.507D-01 0.160D-01-0.359D+00
 Coeff-Com: -0.576D-01 0.134D+01
 Coeff-En:   0.000D+00 0.000D+00 0.000D+00 0.000D+00 0.000D+00 0.000D+00
 Coeff-En:   0.000D+00 0.100D+01
 Coeff:      0.179D-02-0.388D-02 0.135D-01 0.507D-01 0.160D-01-0.358D+00
 Coeff:     -0.575D-01 0.134D+01
 Gap=     0.318 Goal=   None    Shift=    0.000
 RMSDP=1.48D-05 MaxDP=5.85D-04 DE=-4.47D-05 OVMax= 1.78D-03

 Cycle   9  Pass 0  IDiag  1:
 Density matrix breaks symmetry, PCut= 1.00D-07
 Density matrix has no symmetry -- integrals replicated.
 RMSU=  5.09D-06    CP:  9.60D-01  2.15D+00  1.13D+00  1.34D+00  1.56D+00
                    CP:  1.91D+00  1.86D+00  1.50D+00
 E= -2258.79658618626     Delta-E=       -0.000064318592 Rises=F Damp=F
 DIIS: error= 6.69D-05 at cycle   9 NSaved=   9.
 NSaved= 9 IEnMin= 9 EnMin= -2258.79658618626     IErMin= 9 ErrMin= 6.69D-05
 ErrMax= 6.69D-05  0.00D+00 EMaxC= 1.00D-01 BMatC= 4.47D-07 BMatP= 2.57D-06
 IDIUse=1 WtCom= 1.00D+00 WtEn= 0.00D+00
 Coeff-Com:  0.763D-03-0.119D-02-0.942D-02-0.110D-01 0.360D-01 0.100D+00
 Coeff-Com: -0.195D+00-0.433D+00 0.151D+01
 Coeff:      0.763D-03-0.119D-02-0.942D-02-0.110D-01 0.360D-01 0.100D+00
 Coeff:     -0.195D+00-0.433D+00 0.151D+01
 Gap=     0.318 Goal=   None    Shift=    0.000
 RMSDP=7.22D-06 MaxDP=2.97D-04 DE=-6.43D-05 OVMax= 1.03D-03

 Initial convergence to 1.0D-05 achieved.  Increase integral accuracy.
 Cycle  10  Pass 1  IDiag  1:
 Density matrix breaks symmetry, PCut= 1.00D-07
 Density matrix has no symmetry -- integrals replicated.
 E= -2258.79544112475     Delta-E=        0.001145061502 Rises=F Damp=F
 DIIS: error= 5.17D-04 at cycle   1 NSaved=   1.
 NSaved= 1 IEnMin= 1 EnMin= -2258.79544112475     IErMin= 1 ErrMin= 5.17D-04
 ErrMax= 5.17D-04  0.00D+00 EMaxC= 1.00D-01 BMatC= 3.93D-05 BMatP= 3.93D-05
 IDIUse=3 WtCom= 9.95D-01 WtEn= 5.17D-03
 Coeff-Com:  0.100D+01
 Coeff-En:   0.100D+01
 Coeff:      0.100D+01
 Gap=     0.318 Goal=   None    Shift=    0.000
 RMSDP=7.22D-06 MaxDP=2.97D-04 DE= 1.15D-03 OVMax= 5.61D-04

 Cycle  11  Pass 1  IDiag  1:
 Density matrix breaks symmetry, PCut= 1.00D-07
 Density matrix has no symmetry -- integrals replicated.
 RMSU=  8.78D-05    CP:  1.00D+00
 E= -2258.79547873180     Delta-E=       -0.000037607049 Rises=F Damp=F
 DIIS: error= 2.32D-05 at cycle   2 NSaved=   2.
 NSaved= 2 IEnMin= 2 EnMin= -2258.79547873180     IErMin= 2 ErrMin= 2.32D-05
 ErrMax= 2.32D-05  0.00D+00 EMaxC= 1.00D-01 BMatC= 1.65D-07 BMatP= 3.93D-05
 IDIUse=1 WtCom= 1.00D+00 WtEn= 0.00D+00
 Coeff-Com: -0.419D-01 0.104D+01
 Coeff:     -0.419D-01 0.104D+01
 Gap=     0.318 Goal=   None    Shift=    0.000
 RMSDP=5.07D-06 MaxDP=6.93D-05 DE=-3.76D-05 OVMax= 1.69D-04

 Cycle  12  Pass 1  IDiag  1:
 Density matrix breaks symmetry, PCut= 1.00D-07
 Density matrix has no symmetry -- integrals replicated.
 RMSU=  1.92D-06    CP:  1.00D+00  1.05D+00
 E= -2258.79547906130     Delta-E=       -0.000000329495 Rises=F Damp=F
 DIIS: error= 1.38D-05 at cycle   3 NSaved=   3.
 NSaved= 3 IEnMin= 3 EnMin= -2258.79547906130     IErMin= 3 ErrMin= 1.38D-05
 ErrMax= 1.38D-05  0.00D+00 EMaxC= 1.00D-01 BMatC= 4.30D-08 BMatP= 1.65D-07
 IDIUse=1 WtCom= 1.00D+00 WtEn= 0.00D+00
 Coeff-Com: -0.159D-01 0.345D+00 0.671D+00
 Coeff:     -0.159D-01 0.345D+00 0.671D+00
 Gap=     0.318 Goal=   None    Shift=    0.000
 RMSDP=7.75D-07 MaxDP=2.13D-05 DE=-3.29D-07 OVMax= 5.98D-05

 Cycle  13  Pass 1  IDiag  1:
 Density matrix breaks symmetry, PCut= 1.00D-07
 Density matrix has no symmetry -- integrals replicated.
 RMSU=  7.50D-07    CP:  1.00D+00  1.05D+00  9.30D-01
 E= -2258.79547913580     Delta-E=       -0.000000074499 Rises=F Damp=F
 DIIS: error= 7.89D-06 at cycle   4 NSaved=   4.
 NSaved= 4 IEnMin= 4 EnMin= -2258.79547913580     IErMin= 4 ErrMin= 7.89D-06
 ErrMax= 7.89D-06  0.00D+00 EMaxC= 1.00D-01 BMatC= 1.06D-08 BMatP= 4.30D-08
 IDIUse=1 WtCom= 1.00D+00 WtEn= 0.00D+00
 Coeff-Com:  0.624D-02-0.163D+00 0.116D+00 0.104D+01
 Coeff:      0.624D-02-0.163D+00 0.116D+00 0.104D+01
 Gap=     0.318 Goal=   None    Shift=    0.000
 RMSDP=5.76D-07 MaxDP=2.21D-05 DE=-7.45D-08 OVMax= 7.29D-05

 Cycle  14  Pass 1  IDiag  1:
 Density matrix breaks symmetry, PCut= 1.00D-07
 Density matrix has no symmetry -- integrals replicated.
 RMSU=  3.96D-07    CP:  1.00D+00  1.06D+00  1.12D+00  1.25D+00
 E= -2258.79547918437     Delta-E=       -0.000000048574 Rises=F Damp=F
 DIIS: error= 6.05D-06 at cycle   5 NSaved=   5.
 NSaved= 5 IEnMin= 5 EnMin= -2258.79547918437     IErMin= 5 ErrMin= 6.05D-06
 ErrMax= 6.05D-06  0.00D+00 EMaxC= 1.00D-01 BMatC= 3.31D-09 BMatP= 1.06D-08
 IDIUse=1 WtCom= 1.00D+00 WtEn= 0.00D+00
 Coeff-Com:  0.280D-02-0.526D-01-0.240D+00-0.297D+00 0.159D+01
 Coeff:      0.280D-02-0.526D-01-0.240D+00-0.297D+00 0.159D+01
 Gap=     0.318 Goal=   None    Shift=    0.000
 RMSDP=5.87D-07 MaxDP=2.51D-05 DE=-4.86D-08 OVMax= 8.36D-05

 Cycle  15  Pass 1  IDiag  1:
 Density matrix breaks symmetry, PCut= 1.00D-07
 Density matrix has no symmetry -- integrals replicated.
 RMSU=  2.43D-07    CP:  1.00D+00  1.06D+00  1.24D+00  1.70D+00  1.87D+00
 E= -2258.79547921226     Delta-E=       -0.000000027891 Rises=F Damp=F
 DIIS: error= 2.14D-06 at cycle   6 NSaved=   6.
 NSaved= 6 IEnMin= 6 EnMin= -2258.79547921226     IErMin= 6 ErrMin= 2.14D-06
 ErrMax= 2.14D-06  0.00D+00 EMaxC= 1.00D-01 BMatC= 7.30D-10 BMatP= 3.31D-09
 IDIUse=1 WtCom= 1.00D+00 WtEn= 0.00D+00
 Coeff-Com: -0.187D-02 0.524D-01-0.883D-01-0.438D+00 0.313D+00 0.116D+01
 Coeff:     -0.187D-02 0.524D-01-0.883D-01-0.438D+00 0.313D+00 0.116D+01
 Gap=     0.318 Goal=   None    Shift=    0.000
 RMSDP=3.30D-07 MaxDP=1.43D-05 DE=-2.79D-08 OVMax= 4.99D-05

 Cycle  16  Pass 1  IDiag  1:
 Density matrix breaks symmetry, PCut= 1.00D-07
 Density matrix has no symmetry -- integrals replicated.
 RMSU=  6.29D-08    CP:  1.00D+00  1.06D+00  1.29D+00  1.90D+00  2.50D+00
                    CP:  1.35D+00
 E= -2258.79547921772     Delta-E=       -0.000000005461 Rises=F Damp=F
 DIIS: error= 4.94D-07 at cycle   7 NSaved=   7.
 NSaved= 7 IEnMin= 7 EnMin= -2258.79547921772     IErMin= 7 ErrMin= 4.94D-07
 ErrMax= 4.94D-07  0.00D+00 EMaxC= 1.00D-01 BMatC= 4.20D-11 BMatP= 7.30D-10
 IDIUse=1 WtCom= 1.00D+00 WtEn= 0.00D+00
 Coeff-Com: -0.331D-03 0.703D-02 0.124D-01 0.282D-02-0.998D-01 0.258D-01
 Coeff-Com:  0.105D+01
 Coeff:     -0.331D-03 0.703D-02 0.124D-01 0.282D-02-0.998D-01 0.258D-01
 Coeff:      0.105D+01
 Gap=     0.318 Goal=   None    Shift=    0.000
 RMSDP=5.17D-08 MaxDP=1.80D-06 DE=-5.46D-09 OVMax= 6.43D-06

 Cycle  17  Pass 1  IDiag  1:
 Density matrix breaks symmetry, PCut= 1.00D-07
 Density matrix has no symmetry -- integrals replicated.
 RMSU=  2.89D-08    CP:  1.00D+00  1.06D+00  1.29D+00  1.93D+00  2.58D+00
                    CP:  1.42D+00  1.20D+00
 E= -2258.79547921796     Delta-E=       -0.000000000233 Rises=F Damp=F
 DIIS: error= 3.11D-07 at cycle   8 NSaved=   8.
 NSaved= 8 IEnMin= 8 EnMin= -2258.79547921796     IErMin= 8 ErrMin= 3.11D-07
 ErrMax= 3.11D-07  0.00D+00 EMaxC= 1.00D-01 BMatC= 9.65D-12 BMatP= 4.20D-11
 IDIUse=1 WtCom= 1.00D+00 WtEn= 0.00D+00
 Coeff-Com:  0.331D-03-0.931D-02 0.153D-01 0.808D-01-0.495D-01-0.230D+00
 Coeff-Com:  0.625D-01 0.113D+01
 Coeff:      0.331D-03-0.931D-02 0.153D-01 0.808D-01-0.495D-01-0.230D+00
 Coeff:      0.625D-01 0.113D+01
 Gap=     0.318 Goal=   None    Shift=    0.000
 RMSDP=2.32D-08 MaxDP=7.17D-07 DE=-2.33D-10 OVMax= 2.98D-06

 Cycle  18  Pass 1  IDiag  1:
 Density matrix breaks symmetry, PCut= 1.00D-07
 Density matrix has no symmetry -- integrals replicated.
 RMSU=  9.65D-09    CP:  1.00D+00  1.06D+00  1.30D+00  1.93D+00  2.59D+00
                    CP:  1.45D+00  1.47D+00  1.32D+00
 E= -2258.79547921800     Delta-E=       -0.000000000042 Rises=F Damp=F
 DIIS: error= 1.44D-07 at cycle   9 NSaved=   9.
 NSaved= 9 IEnMin= 9 EnMin= -2258.79547921800     IErMin= 9 ErrMin= 1.44D-07
 ErrMax= 1.44D-07  0.00D+00 EMaxC= 1.00D-01 BMatC= 1.20D-12 BMatP= 9.65D-12
 IDIUse=1 WtCom= 1.00D+00 WtEn= 0.00D+00
 Coeff-Com: -0.180D-06 0.384D-03-0.501D-02-0.135D-01 0.270D-01 0.241D-01
 Coeff-Com: -0.166D+00-0.202D+00 0.134D+01
 Coeff:     -0.180D-06 0.384D-03-0.501D-02-0.135D-01 0.270D-01 0.241D-01
 Coeff:     -0.166D+00-0.202D+00 0.134D+01
 Gap=     0.318 Goal=   None    Shift=    0.000
 RMSDP=1.12D-08 MaxDP=2.41D-07 DE=-4.18D-11 OVMax= 2.09D-06

 Cycle  19  Pass 1  IDiag  1:
 Density matrix breaks symmetry, PCut= 1.00D-07
 Density matrix has no symmetry -- integrals replicated.
 RMSU=  2.73D-09    CP:  1.00D+00  1.06D+00  1.30D+00  1.93D+00  2.59D+00
                    CP:  1.46D+00  1.56D+00  1.59D+00  1.52D+00
 E= -2258.79547921793     Delta-E=        0.000000000065 Rises=F Damp=F
 DIIS: error= 3.84D-08 at cycle  10 NSaved=  10.
 NSaved=10 IEnMin= 9 EnMin= -2258.79547921800     IErMin=10 ErrMin= 3.84D-08
 ErrMax= 3.84D-08  0.00D+00 EMaxC= 1.00D-01 BMatC= 1.05D-13 BMatP= 1.20D-12
 IDIUse=1 WtCom= 1.00D+00 WtEn= 0.00D+00
 Coeff-Com: -0.352D-04 0.108D-02-0.277D-02-0.116D-01 0.117D-01 0.287D-01
 Coeff-Com: -0.411D-01-0.163D+00 0.301D+00 0.876D+00
 Coeff:     -0.352D-04 0.108D-02-0.277D-02-0.116D-01 0.117D-01 0.287D-01
 Coeff:     -0.411D-01-0.163D+00 0.301D+00 0.876D+00
 Gap=     0.318 Goal=   None    Shift=    0.000
 RMSDP=2.28D-09 MaxDP=5.51D-08 DE= 6.55D-11 OVMax= 3.79D-07

 SCF Done:  E(RHF) =  -2258.79547922     A.U. after   19 cycles
            NFock= 19  Conv=0.23D-08     -V/T= 2.0053
 KE= 2.246817553969D+03 PE=-2.142738514097D+04 EE= 8.825483372980D+03
 Leave Link  502 at Thu May  5 17:04:20 2022, MaxMem=   104857600 cpu:             244.4 elap:             245.3
 (Enter /apps/software/g16/l601.exe)
 Copying SCF densities to generalized density rwf, IOpCl= 0 IROHF=0.

 **********************************************************************

            Population analysis using the SCF density.

 **********************************************************************

 Orbital symmetries:
       Occupied  (T2G) (T2G) (T2G) (GU) (GU) (GU) (GU) (HU) (HU)
                 (HU) (HU) (HU) (T1G) (T1G) (T1G) (GG) (GG) (GG)
                 (GG) (HG) (HG) (HG) (HG) (HG) (HU) (HU) (HU) (HU)
                 (HU) (T1U) (T1U) (T1U) (T2U) (T2U) (T2U) (GG)
                 (GG) (GG) (GG) (HG) (HG) (HG) (HG) (HG) (GU) (GU)
                 (GU) (GU) (T2U) (T2U) (T2U) (HG) (HG) (HG) (HG)
                 (HG) (T1U) (T1U) (T1U) (AG) (AG) (T1U) (T1U) (T1U)
                 (HG) (HG) (HG) (HG) (HG) (GU) (GU) (GU) (GU) (T2U)
                 (T2U) (T2U) (GG) (GG) (GG) (GG) (HG) (HG) (HG)
                 (HG) (HG) (HU) (HU) (HU) (HU) (HU) (T1U) (T1U)
                 (T1U) (T2U) (T2U) (T2U) (HG) (HG) (HG) (HG) (HG)
                 (T1G) (T1G) (T1G) (AG) (GG) (GG) (GG) (GG) (HU)
                 (HU) (HU) (HU) (HU) (T1U) (T1U) (T1U) (T2U) (T2U)
                 (T2U) (AG) (GU) (GU) (GU) (GU) (HG) (HG) (HG)
                 (HG) (HG) (GG) (GG) (GG) (GG) (T1U) (T1U) (T1U)
                 (GU) (GU) (GU) (GU) (T2G) (T2G) (T2G) (HG) (HG)
                 (HG) (HG) (HG) (HG) (HG) (HG) (HG) (HG) (HU) (HU)
                 (HU) (HU) (HU) (GU) (GU) (GU) (GU) (T2U) (T2U)
                 (T2U) (GG) (GG) (GG) (GG) (HG) (HG) (HG) (HG)
                 (HG) (HU) (HU) (HU) (HU) (HU)
       Virtual   (T1U) (T1U) (T1U) (T1G) (T1G) (T1G) (HG) (HG)
                 (HG) (HG) (HG) (T2U) (T2U) (T2U) (HU) (HU) (HU)
                 (HU) (HU) (GG) (GG) (GG) (GG) (GU) (GU) (GU) (GU)
                 (T1U) (T1U) (T1U) (T2G) (T2G) (T2G) (HG) (HG)
                 (HG) (HG) (HG) (T1G) (T1G) (T1G) (T2U) (T2U) (T2U)
                 (GU) (GU) (GU) (GU) (HU) (HU) (HU) (HU) (HU) (GG)
                 (GG) (GG) (GG) (HG) (HG) (HG) (HG) (HG) (T2G)
                 (T2G) (T2G) (T2U) (T2U) (T2U) (T1U) (T1U) (T1U)
                 (HU) (HU) (HU) (HU) (HU) (HG) (HG) (HG) (HG) (HG)
                 (GU) (GU) (GU) (GU) (GG) (GG) (GG) (GG) (T2G)
                 (T2G) (T2G) (T1G) (T1G) (T1G) (HU) (HU) (HU) (HU)
                 (HU) (AG) (GG) (GG) (GG) (GG) (HU) (HU) (HU) (HU)
                 (HU) (T1G) (T1G) (T1G) (AG) (T1U) (T1U) (T1U)
                 (T1U) (T1U) (T1U) (AU) (T2U) (T2U) (T2U) (HG)
                 (HG) (HG) (HG) (HG) (GU) (GU) (GU) (GU) (GG) (GG)
                 (GG) (GG) (HG) (HG) (HG) (HG) (HG) (GU) (GU) (GU)
                 (GU) (T2G) (T2G) (T2G) (GU) (GU) (GU) (GU) (T2U)
                 (T2U) (T2U) (HG) (HG) (HG) (HG) (HG) (HU) (HU)
                 (HU) (HU) (HU) (HG) (HG) (HG) (HG) (HG) (GG) (GG)
                 (GG) (GG) (T2U) (T2U) (T2U) (T1U) (T1U) (T1U)
                 (T1G) (T1G) (T1G) (T2G) (T2G) (T2G) (HU) (HU)
                 (HU) (HU) (HU) (GU) (GU) (GU) (GU) (GG) (GG) (GG)
                 (GG) (HG) (HG) (HG) (HG) (HG) (T1U) (T1U) (T1U)
                 (T2U) (T2U) (T2U) (AG) (GU) (GU) (GU) (GU) (GG)
                 (GG) (GG) (GG) (HG) (HG) (HG) (HG) (HG) (HU) (HU)
                 (HU) (HU) (HU) (HG) (HG) (HG) (HG) (HG) (T2U)
                 (T2U) (T2U) (T2G) (T2G) (T2G) (HU) (HU) (HU) (HU)
                 (HU) (T1G) (T1G) (T1G) (T1U) (T1U) (T1U) (HU)
                 (HU) (HU) (HU) (HU) (HG) (HG) (HG) (HG) (HG) (GG)
                 (GG) (GG) (GG) (GU) (GU) (GU) (GU) (T2G) (T2G)
                 (T2G) (T1U) (T1U) (T1U) (HU) (HU) (HU) (HU) (HU)
                 (T1G) (T1G) (T1G) (HG) (HG) (HG) (HG) (HG) (GU)
                 (GU) (GU) (GU) (GG) (GG) (GG) (GG) (HU) (HU) (HU)
                 (HU) (HU) (T1G) (T1G) (T1G) (T2U) (T2U) (T2U)
                 (GU) (GU) (GU) (GU) (T2G) (T2G) (T2G) (AU) (GG)
                 (GG) (GG) (GG) (HG) (HG) (HG) (HG) (HG) (HU) (HU)
                 (HU) (HU) (HU) (T2U) (T2U) (T2U) (T1U) (T1U) (T1U)
                 (HG) (HG) (HG) (HG) (HG) (T1G) (T1G) (T1G) (GG)
                 (GG) (GG) (GG) (HU) (HU) (HU) (HU) (HU) (GU) (GU)
                 (GU) (GU) (T2G) (T2G) (T2G)
 The electronic state is 1-AG.
 Alpha  occ. eigenvalues --  -11.26808 -11.26808 -11.26808 -11.26802 -11.26802
 Alpha  occ. eigenvalues --  -11.26802 -11.26802 -11.26802 -11.26802 -11.26802
 Alpha  occ. eigenvalues --  -11.26802 -11.26802 -11.26795 -11.26795 -11.26795
 Alpha  occ. eigenvalues --  -11.26794 -11.26794 -11.26794 -11.26794 -11.26787
 Alpha  occ. eigenvalues --  -11.26787 -11.26787 -11.26787 -11.26787 -11.26778
 Alpha  occ. eigenvalues --  -11.26778 -11.26778 -11.26778 -11.26778 -11.26769
 Alpha  occ. eigenvalues --  -11.26769 -11.26769 -11.26761 -11.26761 -11.26761
 Alpha  occ. eigenvalues --  -11.26748 -11.26748 -11.26748 -11.26748 -11.26738
 Alpha  occ. eigenvalues --  -11.26738 -11.26738 -11.26738 -11.26738 -11.26716
 Alpha  occ. eigenvalues --  -11.26716 -11.26716 -11.26716 -11.26705 -11.26705
 Alpha  occ. eigenvalues --  -11.26705 -11.26676 -11.26676 -11.26676 -11.26676
 Alpha  occ. eigenvalues --  -11.26676 -11.26637 -11.26637 -11.26637 -11.26605
 Alpha  occ. eigenvalues --   -1.28180  -1.25853  -1.25853  -1.25853  -1.21288
 Alpha  occ. eigenvalues --   -1.21288  -1.21288  -1.21288  -1.21288  -1.14825
 Alpha  occ. eigenvalues --   -1.14825  -1.14825  -1.14825  -1.14564  -1.14564
 Alpha  occ. eigenvalues --   -1.14564  -1.06944  -1.06944  -1.06944  -1.06944
 Alpha  occ. eigenvalues --   -1.06406  -1.06406  -1.06406  -1.06406  -1.06406
 Alpha  occ. eigenvalues --   -1.00583  -1.00583  -1.00583  -1.00583  -1.00583
 Alpha  occ. eigenvalues --   -0.93118  -0.93118  -0.93118  -0.90463  -0.90463
 Alpha  occ. eigenvalues --   -0.90463  -0.88022  -0.88022  -0.88022  -0.88022
 Alpha  occ. eigenvalues --   -0.88022  -0.83627  -0.83627  -0.83627  -0.79520
 Alpha  occ. eigenvalues --   -0.74889  -0.74889  -0.74889  -0.74889  -0.74014
 Alpha  occ. eigenvalues --   -0.74014  -0.74014  -0.74014  -0.74014  -0.70721
 Alpha  occ. eigenvalues --   -0.70721  -0.70721  -0.69235  -0.69235  -0.69235
 Alpha  occ. eigenvalues --   -0.64508  -0.63375  -0.63375  -0.63375  -0.63375
 Alpha  occ. eigenvalues --   -0.63304  -0.63304  -0.63304  -0.63304  -0.63304
 Alpha  occ. eigenvalues --   -0.63108  -0.63108  -0.63108  -0.63108  -0.61600
 Alpha  occ. eigenvalues --   -0.61600  -0.61600  -0.58451  -0.58451  -0.58451
 Alpha  occ. eigenvalues --   -0.58451  -0.57096  -0.57096  -0.57096  -0.55896
 Alpha  occ. eigenvalues --   -0.55896  -0.55896  -0.55896  -0.55896  -0.50322
 Alpha  occ. eigenvalues --   -0.50322  -0.50322  -0.50322  -0.50322  -0.48829
 Alpha  occ. eigenvalues --   -0.48829  -0.48829  -0.48829  -0.48829  -0.48027
 Alpha  occ. eigenvalues --   -0.48027  -0.48027  -0.48027  -0.46922  -0.46922
 Alpha  occ. eigenvalues --   -0.46922  -0.38973  -0.38973  -0.38973  -0.38973
 Alpha  occ. eigenvalues --   -0.36778  -0.36778  -0.36778  -0.36778  -0.36778
 Alpha  occ. eigenvalues --   -0.32297  -0.32297  -0.32297  -0.32297  -0.32297
 Alpha virt. eigenvalues --   -0.00479  -0.00479  -0.00479   0.05171   0.05171
 Alpha virt. eigenvalues --    0.05171   0.07072   0.07072   0.07072   0.07072
 Alpha virt. eigenvalues --    0.07072   0.07559   0.07559   0.07559   0.16663
 Alpha virt. eigenvalues --    0.16663   0.16663   0.16663   0.16663   0.19365
 Alpha virt. eigenvalues --    0.19365   0.19365   0.19365   0.20193   0.20193
 Alpha virt. eigenvalues --    0.20193   0.20193   0.22403   0.22403   0.22403
 Alpha virt. eigenvalues --    0.23800   0.23800   0.23800   0.26574   0.26574
 Alpha virt. eigenvalues --    0.26574   0.26574   0.26574   0.28560   0.28560
 Alpha virt. eigenvalues --    0.28560   0.34727   0.34727   0.34727   0.35206
 Alpha virt. eigenvalues --    0.35206   0.35206   0.35206   0.40649   0.40649
 Alpha virt. eigenvalues --    0.40649   0.40649   0.40649   0.40979   0.40979
 Alpha virt. eigenvalues --    0.40979   0.40979   0.41335   0.41335   0.41335
 Alpha virt. eigenvalues --    0.41335   0.41335   0.49677   0.49677   0.49677
 Alpha virt. eigenvalues --    0.50088   0.50088   0.50088   0.52040   0.52040
 Alpha virt. eigenvalues --    0.52040   0.53456   0.53456   0.53456   0.53456
 Alpha virt. eigenvalues --    0.53456   0.60265   0.60265   0.60265   0.60265
 Alpha virt. eigenvalues --    0.60265   0.62847   0.62847   0.62847   0.62847
 Alpha virt. eigenvalues --    0.62967   0.62967   0.62967   0.62967   0.65971
 Alpha virt. eigenvalues --    0.65971   0.65971   0.67150   0.67150   0.67150
 Alpha virt. eigenvalues --    0.72066   0.72066   0.72066   0.72066   0.72066
 Alpha virt. eigenvalues --    0.77394   0.78371   0.78371   0.78371   0.78371
 Alpha virt. eigenvalues --    0.78497   0.78497   0.78497   0.78497   0.78497
 Alpha virt. eigenvalues --    0.83675   0.83675   0.83675   0.87149   0.87186
 Alpha virt. eigenvalues --    0.87186   0.87186   0.88435   0.88435   0.88435
 Alpha virt. eigenvalues --    0.89128   0.90080   0.90080   0.90080   0.90206
 Alpha virt. eigenvalues --    0.90206   0.90206   0.90206   0.90206   0.90884
 Alpha virt. eigenvalues --    0.90884   0.90884   0.90884   0.91263   0.91263
 Alpha virt. eigenvalues --    0.91263   0.91263   0.93860   0.93860   0.93860
 Alpha virt. eigenvalues --    0.93860   0.93860   0.94065   0.94065   0.94065
 Alpha virt. eigenvalues --    0.94065   0.97856   0.97856   0.97856   0.99212
 Alpha virt. eigenvalues --    0.99212   0.99212   0.99212   0.99992   0.99992
 Alpha virt. eigenvalues --    0.99992   1.03062   1.03062   1.03062   1.03062
 Alpha virt. eigenvalues --    1.03062   1.04460   1.04460   1.04460   1.04460
 Alpha virt. eigenvalues --    1.04460   1.04623   1.04623   1.04623   1.04623
 Alpha virt. eigenvalues --    1.04623   1.04676   1.04676   1.04676   1.04676
 Alpha virt. eigenvalues --    1.05685   1.05685   1.05685   1.06303   1.06303
 Alpha virt. eigenvalues --    1.06303   1.07565   1.07565   1.07565   1.07676
 Alpha virt. eigenvalues --    1.07676   1.07676   1.07797   1.07797   1.07797
 Alpha virt. eigenvalues --    1.07797   1.07797   1.08297   1.08297   1.08297
 Alpha virt. eigenvalues --    1.08297   1.08486   1.08486   1.08486   1.08486
 Alpha virt. eigenvalues --    1.18098   1.18098   1.18098   1.18098   1.18098
 Alpha virt. eigenvalues --    1.18589   1.18589   1.18589   1.19953   1.19953
 Alpha virt. eigenvalues --    1.19953   1.24548   1.31374   1.31374   1.31374
 Alpha virt. eigenvalues --    1.31374   1.36361   1.36361   1.36361   1.36361
 Alpha virt. eigenvalues --    1.36438   1.36438   1.36438   1.36438   1.36438
 Alpha virt. eigenvalues --    1.38117   1.38117   1.38117   1.38117   1.38117
 Alpha virt. eigenvalues --    1.39958   1.39958   1.39958   1.39958   1.39958
 Alpha virt. eigenvalues --    1.41388   1.41388   1.41388   1.42190   1.42190
 Alpha virt. eigenvalues --    1.42190   1.44758   1.44758   1.44758   1.44758
 Alpha virt. eigenvalues --    1.44758   1.45007   1.45007   1.45007   1.46070
 Alpha virt. eigenvalues --    1.46070   1.46070   1.48167   1.48167   1.48167
 Alpha virt. eigenvalues --    1.48167   1.48167   1.51966   1.51966   1.51966
 Alpha virt. eigenvalues --    1.51966   1.51966   1.52477   1.52477   1.52477
 Alpha virt. eigenvalues --    1.52477   1.53989   1.53989   1.53989   1.53989
 Alpha virt. eigenvalues --    1.58455   1.58455   1.58455   1.58773   1.58773
 Alpha virt. eigenvalues --    1.58773   1.62204   1.62204   1.62204   1.62204
 Alpha virt. eigenvalues --    1.62204   1.62530   1.62530   1.62530   1.64146
 Alpha virt. eigenvalues --    1.64146   1.64146   1.64146   1.64146   1.66461
 Alpha virt. eigenvalues --    1.66461   1.66461   1.66461   1.66597   1.66597
 Alpha virt. eigenvalues --    1.66597   1.66597   1.69082   1.69082   1.69082
 Alpha virt. eigenvalues --    1.69082   1.69082   1.74096   1.74096   1.74096
 Alpha virt. eigenvalues --    1.75040   1.75040   1.75040   1.75074   1.75074
 Alpha virt. eigenvalues --    1.75074   1.75074   1.76392   1.76392   1.76392
 Alpha virt. eigenvalues --    1.85362   1.88212   1.88212   1.88212   1.88212
 Alpha virt. eigenvalues --    1.92197   1.92197   1.92197   1.92197   1.92197
 Alpha virt. eigenvalues --    2.09306   2.09306   2.09306   2.09306   2.09306
 Alpha virt. eigenvalues --    2.18730   2.18730   2.18730   2.19098   2.19098
 Alpha virt. eigenvalues --    2.19098   2.35243   2.35243   2.35243   2.35243
 Alpha virt. eigenvalues --    2.35243   2.42358   2.42358   2.42358   2.69925
 Alpha virt. eigenvalues --    2.69925   2.69925   2.69925   2.70611   2.70611
 Alpha virt. eigenvalues --    2.70611   2.70611   2.70611   3.16725   3.16725
 Alpha virt. eigenvalues --    3.16725   3.16725   3.35650   3.35650   3.35650
          Condensed to atoms (all electrons):
 Mulliken charges:
               1
     1  C   -0.000000
     2  C   -0.000000
     3  C   -0.000000
     4  C   -0.000000
     5  C   -0.000000
     6  C   -0.000000
     7  C   -0.000000
     8  C   -0.000000
     9  C   -0.000000
    10  C   -0.000000
    11  C   -0.000000
    12  C   -0.000000
    13  C   -0.000000
    14  C   -0.000000
    15  C   -0.000000
    16  C   -0.000000
    17  C   -0.000000
    18  C   -0.000000
    19  C   -0.000000
    20  C   -0.000000
    21  C   -0.000000
    22  C   -0.000000
    23  C   -0.000000
    24  C   -0.000000
    25  C   -0.000000
    26  C   -0.000000
    27  C   -0.000000
    28  C   -0.000000
    29  C   -0.000000
    30  C   -0.000000
    31  C   -0.000000
    32  C   -0.000000
    33  C   -0.000000
    34  C   -0.000000
    35  C   -0.000000
    36  C   -0.000000
    37  C   -0.000000
    38  C   -0.000000
    39  C   -0.000000
    40  C   -0.000000
    41  C   -0.000000
    42  C   -0.000000
    43  C   -0.000000
    44  C   -0.000000
    45  C   -0.000000
    46  C   -0.000000
    47  C   -0.000000
    48  C   -0.000000
    49  C   -0.000000
    50  C   -0.000000
    51  C   -0.000000
    52  C   -0.000000
    53  C   -0.000000
    54  C   -0.000000
    55  C   -0.000000
    56  C   -0.000000
    57  C   -0.000000
    58  C   -0.000000
    59  C   -0.000000
    60  C   -0.000000
 Sum of Mulliken charges =  -0.00000
 Mulliken charges with hydrogens summed into heavy atoms:
               1
     1  C   -0.000000
     2  C   -0.000000
     3  C   -0.000000
     4  C   -0.000000
     5  C   -0.000000
     6  C   -0.000000
     7  C   -0.000000
     8  C   -0.000000
     9  C   -0.000000
    10  C   -0.000000
    11  C   -0.000000
    12  C   -0.000000
    13  C   -0.000000
    14  C   -0.000000
    15  C   -0.000000
    16  C   -0.000000
    17  C   -0.000000
    18  C   -0.000000
    19  C   -0.000000
    20  C   -0.000000
    21  C   -0.000000
    22  C   -0.000000
    23  C   -0.000000
    24  C   -0.000000
    25  C   -0.000000
    26  C   -0.000000
    27  C   -0.000000
    28  C   -0.000000
    29  C   -0.000000
    30  C   -0.000000
    31  C   -0.000000
    32  C   -0.000000
    33  C   -0.000000
    34  C   -0.000000
    35  C   -0.000000
    36  C   -0.000000
    37  C   -0.000000
    38  C   -0.000000
    39  C   -0.000000
    40  C   -0.000000
    41  C   -0.000000
    42  C   -0.000000
    43  C   -0.000000
    44  C   -0.000000
    45  C   -0.000000
    46  C   -0.000000
    47  C   -0.000000
    48  C   -0.000000
    49  C   -0.000000
    50  C   -0.000000
    51  C   -0.000000
    52  C   -0.000000
    53  C   -0.000000
    54  C   -0.000000
    55  C   -0.000000
    56  C   -0.000000
    57  C   -0.000000
    58  C   -0.000000
    59  C   -0.000000
    60  C   -0.000000
 Electronic spatial extent (au):  <R**2>=          17935.2833
 Charge=             -0.0000 electrons
 Dipole moment (field-independent basis, Debye):
    X=             -0.0000    Y=              0.0000    Z=             -0.0000  Tot=              0.0000
 Quadrupole moment (field-independent basis, Debye-Ang):
   XX=           -355.6189   YY=           -355.6189   ZZ=           -355.6189
   XY=             -0.0000   XZ=             -0.0000   YZ=             -0.0000
 Traceless Quadrupole moment (field-independent basis, Debye-Ang):
   XX=             -0.0000   YY=              0.0000   ZZ=              0.0000
   XY=             -0.0000   XZ=             -0.0000   YZ=             -0.0000
 Octapole moment (field-independent basis, Debye-Ang**2):
  XXX=              0.0000  YYY=              0.0000  ZZZ=             -0.0000  XYY=              0.0000
  XXY=              0.0000  XXZ=              0.0000  XZZ=              0.0000  YZZ=             -0.0000
  YYZ=             -0.0000  XYZ=              0.0000
 Hexadecapole moment (field-independent basis, Debye-Ang**3):
 XXXX=          -9888.3764 YYYY=          -9888.3764 ZZZZ=          -9888.3764 XXXY=              0.0000
 XXXZ=             -0.0000 YYYX=              0.0000 YYYZ=              0.0000 ZZZX=             -0.0000
 ZZZY=             -0.0000 XXYY=          -3296.1255 XXZZ=          -3296.1255 YYZZ=          -3296.1255
 XXYZ=             -0.0000 YYXZ=              0.0000 ZZXY=              0.0000
 N-N= 8.096288734807D+03 E-N=-2.142738513627D+04  KE= 2.246817553969D+03
 Symmetry AG   KE= 6.032568888022D+02
 Symmetry BG   KE= 5.199994692457D+02
 Symmetry AU   KE= 5.260255277975D+02
 Symmetry BU   KE= 5.975356681235D+02
 No NMR shielding tensors so no spin-rotation constants.
 Leave Link  601 at Thu May  5 17:04:21 2022, MaxMem=   104857600 cpu:               0.6 elap:               0.6
 (Enter /apps/software/g16/l801.exe)
 Range of M.O.s used for correlation:     1   540
 NBasis=   540 NAE=   180 NBE=   180 NFC=     0 NFV=     0
 NROrb=    540 NOA=   180 NOB=   180 NVA=   360 NVB=   360
 Leave Link  801 at Thu May  5 17:04:21 2022, MaxMem=   104857600 cpu:               0.1 elap:               0.1
 (Enter /apps/software/g16/l914.exe)
 RHF ground state
 Doing stability rather than CIS.
 Two-electron integrals replicated using symmetry.
 MDV=   104857600 DFT=F DoStab=T Mixed=F DoRPA=F DoScal=F NonHer=F
 Making orbital integer symmetry assigments:
 Orbital symmetries:
       Occupied  (T2G) (T2G) (T2G) (GU) (GU) (GU) (GU) (HU) (HU)
                 (HU) (HU) (HU) (T1G) (T1G) (T1G) (GG) (GG) (GG)
                 (GG) (HG) (HG) (HG) (HG) (HG) (HU) (HU) (HU) (HU)
                 (HU) (T1U) (T1U) (T1U) (T2U) (T2U) (T2U) (GG)
                 (GG) (GG) (GG) (HG) (HG) (HG) (HG) (HG) (GU) (GU)
                 (GU) (GU) (T2U) (T2U) (T2U) (HG) (HG) (HG) (HG)
                 (HG) (T1U) (T1U) (T1U) (AG) (AG) (T1U) (T1U) (T1U)
                 (HG) (HG) (HG) (HG) (HG) (GU) (GU) (GU) (GU) (T2U)
                 (T2U) (T2U) (GG) (GG) (GG) (GG) (HG) (HG) (HG)
                 (HG) (HG) (HU) (HU) (HU) (HU) (HU) (T1U) (T1U)
                 (T1U) (T2U) (T2U) (T2U) (HG) (HG) (HG) (HG) (HG)
                 (T1G) (T1G) (T1G) (AG) (GG) (GG) (GG) (GG) (HU)
                 (HU) (HU) (HU) (HU) (T1U) (T1U) (T1U) (T2U) (T2U)
                 (T2U) (AG) (GU) (GU) (GU) (GU) (HG) (HG) (HG)
                 (HG) (HG) (GG) (GG) (GG) (GG) (T1U) (T1U) (T1U)
                 (GU) (GU) (GU) (GU) (T2G) (T2G) (T2G) (HG) (HG)
                 (HG) (HG) (HG) (HG) (HG) (HG) (HG) (HG) (HU) (HU)
                 (HU) (HU) (HU) (GU) (GU) (GU) (GU) (T2U) (T2U)
                 (T2U) (GG) (GG) (GG) (GG) (HG) (HG) (HG) (HG)
                 (HG) (HU) (HU) (HU) (HU) (HU)
       Virtual   (T1U) (T1U) (T1U) (T1G) (T1G) (T1G) (HG) (HG)
                 (HG) (HG) (HG) (T2U) (T2U) (T2U) (HU) (HU) (HU)
                 (HU) (HU) (GG) (GG) (GG) (GG) (GU) (GU) (GU) (GU)
                 (T1U) (T1U) (T1U) (T2G) (T2G) (T2G) (HG) (HG)
                 (HG) (HG) (HG) (T1G) (T1G) (T1G) (T2U) (T2U) (T2U)
                 (GU) (GU) (GU) (GU) (HU) (HU) (HU) (HU) (HU) (GG)
                 (GG) (GG) (GG) (HG) (HG) (HG) (HG) (HG) (T2G)
                 (T2G) (T2G) (T2U) (T2U) (T2U) (T1U) (T1U) (T1U)
                 (HU) (HU) (HU) (HU) (HU) (HG) (HG) (HG) (HG) (HG)
                 (GU) (GU) (GU) (GU) (GG) (GG) (GG) (GG) (T2G)
                 (T2G) (T2G) (T1G) (T1G) (T1G) (HU) (HU) (HU) (HU)
                 (HU) (AG) (GG) (GG) (GG) (GG) (HU) (HU) (HU) (HU)
                 (HU) (T1G) (T1G) (T1G) (AG) (T1U) (T1U) (T1U)
                 (T1U) (T1U) (T1U) (AU) (T2U) (T2U) (T2U) (HG)
                 (HG) (HG) (HG) (HG) (GU) (GU) (GU) (GU) (GG) (GG)
                 (GG) (GG) (HG) (HG) (HG) (HG) (HG) (GU) (GU) (GU)
                 (GU) (T2G) (T2G) (T2G) (GU) (GU) (GU) (GU) (T2U)
                 (T2U) (T2U) (HG) (HG) (HG) (HG) (HG) (HU) (HU)
                 (HU) (HU) (HU) (HG) (HG) (HG) (HG) (HG) (GG) (GG)
                 (GG) (GG) (T2U) (T2U) (T2U) (T1U) (T1U) (T1U)
                 (T1G) (T1G) (T1G) (T2G) (T2G) (T2G) (HU) (HU)
                 (HU) (HU) (HU) (GU) (GU) (GU) (GU) (GG) (GG) (GG)
                 (GG) (HG) (HG) (HG) (HG) (HG) (T1U) (T1U) (T1U)
                 (T2U) (T2U) (T2U) (AG) (GU) (GU) (GU) (GU) (GG)
                 (GG) (GG) (GG) (HG) (HG) (HG) (HG) (HG) (HU) (HU)
                 (HU) (HU) (HU) (HG) (HG) (HG) (HG) (HG) (T2U)
                 (T2U) (T2U) (T2G) (T2G) (T2G) (HU) (HU) (HU) (HU)
                 (HU) (T1G) (T1G) (T1G) (T1U) (T1U) (T1U) (HU)
                 (HU) (HU) (HU) (HU) (HG) (HG) (HG) (HG) (HG) (GG)
                 (GG) (GG) (GG) (GU) (GU) (GU) (GU) (T2G) (T2G)
                 (T2G) (T1U) (T1U) (T1U) (HU) (HU) (HU) (HU) (HU)
                 (T1G) (T1G) (T1G) (HG) (HG) (HG) (HG) (HG) (GU)
                 (GU) (GU) (GU) (GG) (GG) (GG) (GG) (HU) (HU) (HU)
                 (HU) (HU) (T1G) (T1G) (T1G) (T2U) (T2U) (T2U)
                 (GU) (GU) (GU) (GU) (T2G) (T2G) (T2G) (AU) (GG)
                 (GG) (GG) (GG) (HG) (HG) (HG) (HG) (HG) (HU) (HU)
                 (HU) (HU) (HU) (T2U) (T2U) (T2U) (T1U) (T1U) (T1U)
                 (HG) (HG) (HG) (HG) (HG) (T1G) (T1G) (T1G) (GG)
                 (GG) (GG) (GG) (HU) (HU) (HU) (HU) (HU) (GU) (GU)
                 (GU) (GU) (T2G) (T2G) (T2G)
 FoFJK:  IHMeth= 1 ICntrl=       0 DoSepK=F KAlg= 0 I1Cent=           0 FoldK=F
 IRaf=         0 NMat=       1 IRICut=       1 DoRegI=T DoRafI=F ISym2E= 1 IDoP0=0 IntGTp=1.
 FoFCou: FMM=F IPFlag=           0 FMFlag=      100000 FMFlg1=        2000
         NFxFlg=           0 DoJE=F BraDBF=F KetDBF=F FulRan=T
         wScrn=  0.000000 ICntrl=         0 IOpCl=  1 I1Cent=           0 NGrid=           0
         NMat0=    1 NMatS0=      1 NMatT0=    0 NMatD0=    1 NMtDS0=    0 NMtDT0=    0
 Petite list used in FoFCou.
 DSYEVD-2 returned Info=       65611 IAlg= 4 N=   360 NDim=   360 NE2=      289540 trying  DSYEV.
    24 initial guesses have been made.
 Convergence on wavefunction:    0.001000000000000
 Davidson Disk Diagonalization:  ConvIn= 1.00D-03 SkipCon=T Conv= 1.00D-03.
 Max sub-space:  2000 roots to seek:    24 dimension of matrix:       129600
 Iteration     1 Dimension    24 NMult     0 NNew     24
 CISAX will form    24 AO SS matrices at one time.
 NMat=    24 NSing=    12 JSym2X= 2.
 New state      1 was old state     12
 Excitation Energies [eV] at current iteration:
 Root      1 :     4.645479886527231
 Root      2 :     4.667974298754465
 Root      3 :     4.855827241400029
 Root      4 :     5.089797751182868
 Root      5 :     5.103021002373072
 Root      6 :     5.104719889412011
 Root      7 :     5.112078272693966
 Root      8 :     5.112078377063273
 Root      9 :     5.187464952198642
 Root     10 :     5.234283337108441
 Root     11 :     5.273828643594284
 Root     12 :     5.283672865012692
 Root     13 :     5.328967988089297
 Root     14 :     5.334753022412883
 Root     15 :     5.364855332018019
 Root     16 :     5.368062923139294
 Root     17 :     5.509529079872547
 Root     18 :     5.520383078524885
 Root     19 :     5.611523559858179
 Root     20 :     5.653287364900041
 Root     21 :     6.072197921523211
 Root     22 :     6.121403945882190
 Root     23 :     6.222765044692242
 Root     24 :     6.222765172309407
 Iteration     2 Dimension    48 NMult    24 NNew     24
 CISAX will form    24 AO SS matrices at one time.
 NMat=    24 NSing=    12 JSym2X= 2.
 Root      1 not converged, maximum delta is    0.169820928504101
 Excitation Energies [eV] at current iteration:
 Root      1 :    -0.384689660505128   Change is   -5.030169547032359
 Root      2 :    -0.327702991341433   Change is   -4.995677290095897
 Root      3 :     0.383640155771524   Change is   -4.472187085628506
 Root      4 :     2.457871913705945   Change is   -2.631925837476923
 Root      5 :     2.841498521639933   Change is   -2.263221367772078
 Root      6 :     2.918164892196268   Change is   -2.184856110176804
 Root      7 :     3.335894720833475   Change is   -1.776183551860491
 Root      8 :     3.335897089356466   Change is   -1.776181287706807
 Root      9 :     3.587013699230176   Change is   -1.600451252968466
 Root     10 :     3.925299553854638   Change is   -1.308983783253803
 Root     11 :     4.072006623258810   Change is   -1.201822020335474
 Root     12 :     4.103434574054183   Change is   -1.225533414035114
 Root     13 :     4.134235206990565   Change is   -1.149437658022127
 Root     14 :     4.149440787738877   Change is   -1.185312234674006
 Root     15 :     4.473754128609196   Change is   -0.891101203408823
 Root     16 :     4.529594554471243   Change is   -0.838468368668050
 Root     17 :     4.831366732846327   Change is   -0.678162347026221
 Root     18 :     4.989147463851623   Change is   -0.531235614673263
 Root     19 :     5.135048571392869   Change is   -0.518238793507172
 Root     20 :     5.222922692504707   Change is   -0.388600867353472
 Root     21 :     5.476098104998953   Change is   -0.596099816524258
 Root     22 :     5.506046666148409   Change is   -0.615357279733781
 Root     23 :     5.560653592455856   Change is   -0.662111452236386
 Root     24 :     5.560653701653107   Change is   -0.662111470656300
 Iteration     3 Dimension    54 NMult    48 NNew      6
 CISAX will form     6 AO SS matrices at one time.
 NMat=     6 NSing=     3 JSym2X= 2.
 Root      1 not converged, maximum delta is    0.056717931877552
 Excitation Energies [eV] at current iteration:
 Root      1 :    -1.413105383238810   Change is   -1.028415722733682
 Root      2 :    -1.400531947317429   Change is   -1.072828955975996
 Root      3 :    -1.127482279174582   Change is   -1.511122434946106
 Root      4 :     3.559573631213343   Change is   -0.543860942840840
 Root      5 :     3.630162276708984   Change is   -0.519278511029893
 Root      6 :     4.208571775880933   Change is   -0.265182352728263
 Iteration     4 Dimension    60 NMult    54 NNew      6
 CISAX will form     6 AO SS matrices at one time.
 NMat=     6 NSing=     3 JSym2X= 2.
 Root      1 not converged, maximum delta is    0.013317026861421
 Excitation Energies [eV] at current iteration:
 Root      1 :    -1.486010752481514   Change is   -0.072905369242704
 Root      2 :    -1.483458794936054   Change is   -0.082926847618626
 Root      3 :    -1.421052355766011   Change is   -0.293570076591428
 Root      4 :     3.450871178606746   Change is   -0.108702452606597
 Root      5 :     3.481239462847745   Change is   -0.148922813861238
 Root      6 :     3.840129212874914   Change is   -0.368442563006019
 Iteration     5 Dimension    66 NMult    60 NNew      6
 CISAX will form     6 AO SS matrices at one time.
 NMat=     6 NSing=     3 JSym2X= 2.
 Root      1 not converged, maximum delta is    0.015599543995475
 Excitation Energies [eV] at current iteration:
 Root      1 :    -1.491860264303613   Change is   -0.005849511822099
 Root      2 :    -1.491105197145495   Change is   -0.007646402209440
 Root      3 :    -1.480533112057395   Change is   -0.059480756291385
 Root      4 :     3.438053974970366   Change is   -0.012817203636380
 Root      5 :     3.447165906958770   Change is   -0.034073555888976
 Root      6 :     3.569549677060184   Change is   -0.270579535814730
 Iteration     6 Dimension    72 NMult    66 NNew      6
 CISAX will form     6 AO SS matrices at one time.
 NMat=     6 NSing=     3 JSym2X= 2.
 Root      1 not converged, maximum delta is    0.007977102972669
 Excitation Energies [eV] at current iteration:
 Root      1 :    -1.492429444451482   Change is   -0.000569180147869
 Root      2 :    -1.492298503632300   Change is   -0.001193306486805
 Root      3 :    -1.491340644649946   Change is   -0.010807532592551
 Root      4 :     3.430616962247271   Change is   -0.007437012723095
 Root      5 :     3.432240009973470   Change is   -0.014925896985300
 Root      6 :     3.455541643294840   Change is   -0.114008033765344
 Iteration     7 Dimension    78 NMult    72 NNew      6
 CISAX will form     6 AO SS matrices at one time.
 NMat=     6 NSing=     3 JSym2X= 2.
 Root      1 not converged, maximum delta is    0.039717991809636
 Excitation Energies [eV] at current iteration:
 Root      1 :    -1.492547700458133   Change is   -0.000118256006651
 Root      2 :    -1.492533203121125   Change is   -0.000234699488825
 Root      3 :    -1.492423703636186   Change is   -0.001083058986240
 Root      4 :     3.428475017801017   Change is   -0.002141944446255
 Root      5 :     3.428690361281894   Change is   -0.003549648691576
 Root      6 :     3.431554748718419   Change is   -0.023986894576421
 Iteration     8 Dimension    84 NMult    78 NNew      6
 CISAX will form     6 AO SS matrices at one time.
 NMat=     6 NSing=     3 JSym2X= 2.
 Root      1 not converged, maximum delta is    0.066882967077725
 Excitation Energies [eV] at current iteration:
 Root      1 :    -1.492568007851719   Change is   -0.000020307393587
 Root      2 :    -1.492562312396482   Change is   -0.000029109275356
 Root      3 :    -1.492539685270941   Change is   -0.000115981634755
 Root      4 :     3.428218251693010   Change is   -0.000256766108007
 Root      5 :     3.428258817330711   Change is   -0.000431543951182
 Root      6 :     3.428654475753567   Change is   -0.002900272964852
 Iteration     9 Dimension    90 NMult    84 NNew      6
 CISAX will form     6 AO SS matrices at one time.
 NMat=     6 NSing=     3 JSym2X= 2.
 Root      1 not converged, maximum delta is    0.003935615645418
 Excitation Energies [eV] at current iteration:
 Root      1 :    -1.492572384633039   Change is   -0.000004376781320
 Root      2 :    -1.492569114332199   Change is   -0.000006801935717
 Root      3 :    -1.492561370775300   Change is   -0.000021685504359
 Root      4 :     3.428193854777573   Change is   -0.000024396915437
 Root      5 :     3.428200351203334   Change is   -0.000058466127377
 Root      6 :     3.428298747973344   Change is   -0.000355727780223
 Cease iterating as an instability has been found.
 ***********************************************************************
 Stability analysis using <AA,BB:AA,BB> singles matrix:
 ***********************************************************************
 1PDM for each excited state written to RWF  633
 Ground to excited state transition densities written to RWF  633

 Eigenvectors of the stability matrix:
 
 Excited state symmetry could not be determined.
 Eigenvector   1:      Triplet-?Sym  Eigenvalue=-0.0548510  <S**2>=2.000
     173 ->187        -0.11174
     175 ->189        -0.15391
     178 ->182        -0.16618
     179 ->181         0.12534
     179 ->183         0.17529
 
 Excited state symmetry could not be determined.
 Eigenvector   2:      Triplet-?Sym  Eigenvalue=-0.0548509  <S**2>=2.000
     171 ->188        -0.10544
     172 ->190        -0.10640
     173 ->186         0.11514
     177 ->181        -0.12983
     177 ->183         0.11880
     178 ->181         0.13955
     179 ->182        -0.10286
     180 ->181        -0.12051
     180 ->182        -0.13813
 
 Excited state symmetry could not be determined.
 Eigenvector   3:      Triplet-?Sym  Eigenvalue=-0.0548506  <S**2>=2.000
     172 ->184         0.10675
     174 ->185         0.10768
     176 ->183        -0.23343
     177 ->182         0.14624
     177 ->194         0.11069
     178 ->181        -0.10319
     180 ->182        -0.12879
 
 Excited state symmetry could not be determined.
 Eigenvector   4:      Singlet-?Sym  Eigenvalue= 0.1259838  <S**2>=0.000
     171 ->186         0.10806
     175 ->189        -0.12220
     176 ->182         0.10214
     177 ->181         0.22018
     177 ->183        -0.17865
     178 ->182        -0.14018
     179 ->181         0.23733
     179 ->182         0.17263
     179 ->183         0.24149
     180 ->183        -0.10958
 
 Excited state symmetry could not be determined.
 Eigenvector   5:      Singlet-?Sym  Eigenvalue= 0.1259840  <S**2>=0.000
     173 ->186         0.11059
     176 ->181         0.15176
     177 ->181        -0.10430
     178 ->181         0.18789
     178 ->182        -0.24013
     178 ->183         0.10143
     179 ->183         0.12082
     180 ->181        -0.18764
     180 ->182        -0.27540
 
 Excited state symmetry could not be determined.
 Eigenvector   6:      Singlet-?Sym  Eigenvalue= 0.1259877  <S**2>=0.000
     172 ->184         0.10340
     174 ->185         0.11408
     176 ->183        -0.35462
     177 ->182         0.22186
     178 ->181        -0.19906
     180 ->181         0.11763
     180 ->182        -0.13165
     180 ->183        -0.10638
 The wavefunction has an RHF -> UHF instability.
 Leave Link  914 at Thu May  5 17:24:10 2022, MaxMem=   104857600 cpu:            1186.5 elap:            1189.3
 (Enter /apps/software/g16/l508.exe)
 Two-electron integrals replicated using symmetry.
 Tight linear equation convergence will be used.
 UHF wavefunction.
 Quadratic Convergence SCF Method.
 Line search only if initial step raises energy.
 Fock matrices will be formed incrementally for  20 cycles.
 Perform preliminary linear searches along instability eigenvector.
     ILin= 1 X=0.000D+00 Y=-2.258795479218D+03 DE= 0.00D+00
 FoFJK:  IHMeth= 1 ICntrl=       0 DoSepK=F KAlg= 0 I1Cent=           0 FoldK=F
 IRaf= 690000000 NMat=       1 IRICut=       1 DoRegI=T DoRafI=F ISym2E= 2 IDoP0=0 IntGTp=1.
 FoFCou: FMM=T IPFlag=           0 FMFlag=      100000 FMFlg1=        2000
         NFxFlg=           0 DoJE=F BraDBF=F KetDBF=F FulRan=T
         wScrn=  0.000000 ICntrl=         0 IOpCl=  1 I1Cent=           0 NGrid=           0
         NMat0=    1 NMatS0=      1 NMatT0=    0 NMatD0=    1 NMtDS0=    0 NMtDT0=    0
 Symmetry not used in FoFCou.
 FMM levels:  10  Number of levels for PrismC:   9
     ILin= 2 X=1.000D-01 Y=-2.258796025321D+03 DE=-5.46D-04
     ILin= 3 X=1.441D-01 Y=-2.258796610863D+03 DE=-1.13D-03
     ILin= 4 X=2.077D-01 Y=-2.258797818265D+03 DE=-2.34D-03
     ILin= 5 X=2.994D-01 Y=-2.258800288151D+03 DE=-4.81D-03
     ILin= 6 X=4.314D-01 Y=-2.258805255102D+03 DE=-9.78D-03
     ILin= 7 X=6.218D-01 Y=-2.258814874272D+03 DE=-1.94D-02
     ILin= 8 X=8.962D-01 Y=-2.258831903042D+03 DE=-3.64D-02
     ILin= 9 X=1.292D+00 Y=-2.258855055758D+03 DE=-5.96D-02
     ILin=10 X=1.861D+00 Y=-2.258854816468D+03 DE=-5.93D-02
     An  expanding polynomial of degree 10 produced  1.5957
 Iteration F X= 1.596D+00 EE=-2.258862663227153D+03
     ILin= 1 X=0.000D+00 Y=-2.258795479218D+03 DE= 0.00D+00
     ILin= 2 X=1.000D-01 Y=-2.258796025321D+03 DE=-5.46D-04
     ILin= 3 X=1.441D-01 Y=-2.258796610863D+03 DE=-1.13D-03
 The two search directions are symmetric.
 Iteration B X= 1.596D+00 EE=-2.258862663227153D+03
 Take forward step, X= 1.596D+00 Step= 1.596D+00
 Iteration   1 EE= -2258.86268624587                                    Grad=9.174D-02 Max rot=    0.5714 deg.
 Gradient too large for Newton-Raphson -- use scaled steepest descent instead.
 Alpha Gap=     0.359 HL deriv= 3.37D-03
  Beta Gap=     0.359 HL deriv= 2.42D-03
     ILin= 1 X=0.000D+00 Y=-2.258862686246D+03 DE= 0.00D+00 F= -1.51D-02
 RMSU=  1.10D-04    CP:  1.00D+00
     ILin= 2 X=3.000D-01 Y=-2.258866728619D+03 DE=-4.04D-03 F= -1.19D-02
 RMSU=  2.28D-06    CP:  1.00D+00  1.99D+00
     ILin= 3 X=6.000D-01 Y=-2.258869822742D+03 DE=-7.14D-03 F= -8.73D-03
 RMSU=  1.06D-04    CP:  1.00D+00  3.00D+00  3.00D+00
     ILin= 4 X=1.200D+00 Y=-2.258873169667D+03 DE=-1.05D-02 F= -2.42D-03
 RMSU=  2.15D-04    CP:  1.00D+00  3.00D+00  3.00D+00  3.00D+00
     ILin= 5 X=2.400D+00 Y=-2.258868534038D+03 DE=-5.85D-03 F=  1.01D-02
     An  expanding polynomial of degree  5 produced  1.4310
 RMSU=  1.47D-06    CP:  1.00D+00  3.00D+00  3.00D+00  1.78D+00  7.28D-04
 Iteration   2 EE= -2258.87344967786     Delta-E=       -0.010763431987 Grad=4.217D-02 Max rot=    0.2168 deg.
 Gradient too large for Newton-Raphson -- use scaled steepest descent instead.
[...]

       Atom             a.u.   MegaHertz   Gauss  10(-4) cm-1        Axes

              Baa    -0.2712   -36.399   -12.988   -12.141  0.2614 -0.2923  0.9199
     1 C(13)  Bbb     0.1223    16.416     5.858     5.476  0.7730  0.6341 -0.0182
              Bcc     0.1489    19.983     7.130     6.666 -0.5780  0.7159  0.3917
 
              Baa    -0.2625   -35.228   -12.570   -11.751 -0.2493 -0.2936  0.9229
     2 C(13)  Bbb     0.1126    15.114     5.393     5.041 -0.5035  0.8533  0.1355
              Bcc     0.1499    20.114     7.177     6.709  0.8273  0.4309  0.3605
 
              Baa    -0.1523   -20.442    -7.294    -6.819  0.7693  0.2848  0.5719
     3 C(13)  Bbb    -0.1143   -15.334    -5.471    -5.115 -0.5300  0.7844  0.3223
              Bcc     0.2666    35.776    12.766    11.934 -0.3568 -0.5510  0.7544
 
              Baa    -0.4311   -57.848   -20.642   -19.296  0.1762  0.8417 -0.5104
     4 C(13)  Bbb     0.1866    25.038     8.934     8.352  0.0061  0.5175  0.8556
              Bcc     0.2445    32.810    11.707    10.944  0.9843 -0.1539  0.0861
 
              Baa    -0.2661   -35.708   -12.741   -11.911  0.9466  0.2898  0.1415
     5 C(13)  Bbb    -0.2210   -29.659   -10.583    -9.893 -0.2638  0.4434  0.8566
              Bcc     0.4871    65.366    23.324    21.804 -0.1855  0.8482 -0.4962
 
              Baa    -0.1581   -21.213    -7.569    -7.076 -0.0697  0.8147  0.5757
     6 C(13)  Bbb    -0.1262   -16.937    -6.044    -5.650  0.8987  0.3017 -0.3182
              Bcc     0.2843    38.150    13.613    12.725  0.4329 -0.4952  0.7532
 
              Baa    -0.2398   -32.180   -11.483   -10.734  0.8155  0.4510 -0.3627
     7 C(13)  Bbb    -0.1804   -24.214    -8.640    -8.077 -0.4615  0.8849  0.0627
              Bcc     0.4203    56.395    20.123    18.811  0.3492  0.1162  0.9298
 
              Baa    -0.4459   -59.835   -21.351   -19.959 -0.0009  0.3711  0.9286
     8 C(13)  Bbb     0.1935    25.969     9.266     8.662  0.9942 -0.0997  0.0408
              Bcc     0.2524    33.865    12.084    11.296  0.1077  0.9232 -0.3689
 
              Baa    -0.2343   -31.439   -11.218   -10.487  0.8961 -0.2440  0.3707
     9 C(13)  Bbb    -0.1783   -23.920    -8.535    -7.979  0.2716  0.9621 -0.0231
              Bcc     0.4125    55.359    19.753    18.466 -0.3510  0.1214  0.9285
 
              Baa    -0.4668   -62.642   -22.352   -20.895 -0.6310  0.2351  0.7393
    10 C(13)  Bbb     0.2123    28.487    10.165     9.502  0.0781  0.9674 -0.2410
              Bcc     0.2545    34.154    12.187    11.393  0.7718  0.0943  0.6288
 
              Baa    -0.1839   -24.671    -8.803    -8.229 -0.4852  0.8740 -0.0250
    11 C(13)  Bbb    -0.1500   -20.134    -7.184    -6.716  0.4174  0.2567  0.8717
              Bcc     0.3339    44.805    15.988    14.945  0.7683  0.4125 -0.4893
 
              Baa    -0.2840   -38.105   -13.597   -12.711 -0.3686  0.3188  0.8732
    12 C(13)  Bbb    -0.2264   -30.376   -10.839   -10.132  0.8376 -0.2936  0.4608
              Bcc     0.5103    68.481    24.436    22.843  0.4032  0.9012 -0.1588
 
              Baa    -0.5208   -69.893   -24.939   -23.314  0.1956  0.9671  0.1627
    13 C(13)  Bbb     0.2292    30.757    10.975    10.259  0.8908 -0.2446  0.3830
              Bcc     0.2916    39.136    13.965    13.054 -0.4102 -0.0700  0.9093
 
              Baa    -0.3067   -41.153   -14.684   -13.727  0.5656 -0.0219  0.8244
    14 C(13)  Bbb    -0.2454   -32.924   -11.748   -10.982  0.7988  0.2631 -0.5411
              Bcc     0.5520    74.077    26.432    24.709 -0.2050  0.9645  0.1663
 
              Baa    -0.5527   -74.173   -26.467   -24.741 -0.4028  0.8989 -0.1727
    15 C(13)  Bbb     0.2423    32.508    11.600    10.844  0.8390  0.2871 -0.4622
              Bcc     0.3105    41.665    14.867    13.898  0.3659  0.3311  0.8698
 
              Baa    -0.3126   -41.954   -14.970   -13.994 -0.4508 -0.2878  0.8450
    16 C(13)  Bbb    -0.2498   -33.524   -11.962   -11.182  0.5094  0.6944  0.5083
              Bcc     0.5625    75.478    26.932    25.177  0.7330 -0.6596  0.1664
 
              Baa    -0.5283   -70.894   -25.297   -23.648  0.7342 -0.4490  0.5094
    17 C(13)  Bbb     0.2324    31.189    11.129    10.403 -0.4258  0.2799  0.8604
              Bcc     0.2959    39.705    14.168    13.244  0.5289  0.8486 -0.0143
 
              Baa    -0.2866   -38.463   -13.725   -12.830  0.1245  0.9894 -0.0744
    18 C(13)  Bbb    -0.2233   -29.966   -10.693    -9.996 -0.5080  0.1279  0.8518
              Bcc     0.5099    68.429    24.417    22.826  0.8523 -0.0682  0.5186
 
              Baa    -0.4650   -62.402   -22.267   -20.815  0.6484  0.1845  0.7386
    19 C(13)  Bbb     0.2106    28.263    10.085     9.427 -0.5030  0.8321  0.2337
              Bcc     0.2544    34.140    12.182    11.388 -0.5715 -0.5230  0.6323
 
              Baa    -0.2726   -36.587   -13.055   -12.204  0.3014  0.7077 -0.6390
    20 C(13)  Bbb    -0.2274   -30.511   -10.887   -10.178  0.9532 -0.2070  0.2203
              Bcc     0.5000    67.098    23.942    22.382 -0.0236  0.6755  0.7370
 
              Baa    -0.1494   -20.042    -7.151    -6.685  0.9214 -0.3005 -0.2465
    21 C(13)  Bbb    -0.1205   -16.175    -5.772    -5.396  0.0516 -0.5340  0.8439
              Bcc     0.2699    36.217    12.923    12.081  0.3852  0.7903  0.4765
 
              Baa    -0.2679   -35.953   -12.829   -11.993  0.6308  0.6115  0.4776
    22 C(13)  Bbb     0.1204    16.160     5.766     5.390 -0.4947 -0.1572  0.8547
              Bcc     0.1475    19.793     7.063     6.602 -0.5978  0.7755 -0.2034
 
              Baa    -0.2817   -37.805   -13.490   -12.611  0.0590 -0.4074  0.9113
    23 C(13)  Bbb    -0.2208   -29.632   -10.573    -9.884 -0.5080  0.7736  0.3788
              Bcc     0.5026    67.438    24.063    22.495  0.8593  0.4853  0.1613
 
              Baa    -0.5293   -71.026   -25.344   -23.692  0.9813  0.1035  0.1621
    24 C(13)  Bbb     0.2354    31.589    11.272    10.537 -0.0046  0.8554 -0.5179
              Bcc     0.2939    39.437    14.072    13.155 -0.1923  0.5075  0.8400
 
              Baa    -0.3032   -40.692   -14.520   -13.573  0.1984  0.4010  0.8943
    25 C(13)  Bbb    -0.2369   -31.784   -11.341   -10.602  0.0302  0.9095 -0.4145
              Bcc     0.5401    72.475    25.861    24.175  0.9797 -0.1092 -0.1683
 
              Baa    -0.5621   -75.430   -26.915   -25.161  0.8536 -0.4938 -0.1661
    26 C(13)  Bbb     0.2499    33.534    11.966    11.186  0.4987  0.6822  0.5348
              Bcc     0.3122    41.897    14.950    13.975 -0.1507 -0.5393  0.8285
 
              Baa    -0.3059   -41.047   -14.647   -13.692  0.6627  0.7480  0.0377
    27 C(13)  Bbb    -0.2382   -31.966   -11.406   -10.663  0.3648 -0.3664  0.8560
              Bcc     0.5441    73.013    26.053    24.354  0.6541 -0.5534 -0.5157
 
              Baa    -0.5411   -72.606   -25.908   -24.219 -0.3244  0.7923  0.5168
    28 C(13)  Bbb     0.2370    31.807    11.349    10.610  0.2556 -0.4525  0.8543
              Bcc     0.3040    40.799    14.558    13.609  0.9107  0.4092 -0.0558
 
              Baa    -0.4976   -66.770   -23.825   -22.272  0.7295  0.6646 -0.1616
    29 C(13)  Bbb     0.2185    29.327    10.465     9.782 -0.5646  0.7186  0.4061
              Bcc     0.2790    37.443    13.361    12.490  0.3860 -0.2050  0.8994
 
              Baa    -0.2398   -32.180   -11.483   -10.734  0.8155  0.4510 -0.3627
    30 C(13)  Bbb    -0.1804   -24.214    -8.640    -8.077 -0.4615  0.8849  0.0627
              Bcc     0.4203    56.395    20.123    18.811  0.3492  0.1162  0.9298
 
              Baa    -0.4650   -62.402   -22.267   -20.815  0.6484  0.1845  0.7386
    31 C(13)  Bbb     0.2106    28.263    10.085     9.427 -0.5030  0.8321  0.2337
              Bcc     0.2544    34.140    12.182    11.388 -0.5715 -0.5230  0.6323
 
              Baa    -0.2866   -38.463   -13.725   -12.830  0.1245  0.9894 -0.0744
    32 C(13)  Bbb    -0.2233   -29.966   -10.693    -9.996 -0.5080  0.1279  0.8518
              Bcc     0.5099    68.429    24.417    22.826  0.8523 -0.0682  0.5186
 
              Baa    -0.5283   -70.894   -25.297   -23.648  0.7342 -0.4490  0.5094
    33 C(13)  Bbb     0.2324    31.189    11.129    10.403 -0.4258  0.2799  0.8604
              Bcc     0.2959    39.705    14.168    13.244  0.5289  0.8486 -0.0143
 
              Baa    -0.1581   -21.213    -7.569    -7.076 -0.0697  0.8147  0.5757
    34 C(13)  Bbb    -0.1262   -16.937    -6.044    -5.650  0.8987  0.3017 -0.3182
              Bcc     0.2843    38.150    13.613    12.725  0.4329 -0.4952  0.7532
 
              Baa    -0.2625   -35.228   -12.570   -11.751 -0.2493 -0.2936  0.9229
    35 C(13)  Bbb     0.1126    15.114     5.393     5.041 -0.5035  0.8533  0.1355
              Bcc     0.1499    20.114     7.177     6.709  0.8273  0.4309  0.3605
 
              Baa    -0.2343   -31.439   -11.218   -10.487  0.8961 -0.2440  0.3707
    36 C(13)  Bbb    -0.1783   -23.920    -8.535    -7.979  0.2716  0.9621 -0.0231
              Bcc     0.4125    55.359    19.753    18.466 -0.3510  0.1214  0.9285
 
              Baa    -0.4459   -59.835   -21.351   -19.959 -0.0009  0.3711  0.9286
    37 C(13)  Bbb     0.1935    25.969     9.266     8.662  0.9942 -0.0997  0.0408
              Bcc     0.2524    33.865    12.084    11.296  0.1077  0.9232 -0.3689
 
              Baa    -0.2726   -36.587   -13.055   -12.204  0.3014  0.7077 -0.6390
    38 C(13)  Bbb    -0.2274   -30.511   -10.887   -10.178  0.9532 -0.2070  0.2203
              Bcc     0.5000    67.098    23.942    22.382 -0.0236  0.6755  0.7370
 
              Baa    -0.1494   -20.042    -7.151    -6.685  0.9214 -0.3005 -0.2465
    39 C(13)  Bbb    -0.1205   -16.175    -5.772    -5.396  0.0516 -0.5340  0.8439
              Bcc     0.2699    36.217    12.923    12.081  0.3852  0.7903  0.4765
 
              Baa    -0.2679   -35.953   -12.829   -11.993  0.6308  0.6115  0.4776
    40 C(13)  Bbb     0.1204    16.160     5.766     5.390 -0.4947 -0.1572  0.8547
              Bcc     0.1475    19.793     7.063     6.602 -0.5978  0.7755 -0.2034
 
              Baa    -0.5293   -71.026   -25.344   -23.692  0.9813  0.1035  0.1621
    41 C(13)  Bbb     0.2354    31.589    11.272    10.537 -0.0046  0.8554 -0.5179
              Bcc     0.2939    39.437    14.072    13.155 -0.1923  0.5075  0.8400
 
              Baa    -0.3032   -40.692   -14.520   -13.573  0.1984  0.4010  0.8943
    42 C(13)  Bbb    -0.2369   -31.784   -11.341   -10.602  0.0302  0.9095 -0.4145
              Bcc     0.5401    72.475    25.861    24.175  0.9797 -0.1092 -0.1683
 
              Baa    -0.5621   -75.430   -26.915   -25.161  0.8536 -0.4938 -0.1661
    43 C(13)  Bbb     0.2499    33.534    11.966    11.186  0.4987  0.6822  0.5348
              Bcc     0.3122    41.897    14.950    13.975 -0.1507 -0.5393  0.8285
 
              Baa    -0.3126   -41.954   -14.970   -13.994 -0.4508 -0.2878  0.8450
    44 C(13)  Bbb    -0.2498   -33.524   -11.962   -11.182  0.5094  0.6944  0.5083
              Bcc     0.5625    75.478    26.932    25.177  0.7330 -0.6596  0.1664
 
              Baa    -0.5527   -74.173   -26.467   -24.741 -0.4028  0.8989 -0.1727
    45 C(13)  Bbb     0.2423    32.508    11.600    10.844  0.8390  0.2871 -0.4622
              Bcc     0.3105    41.665    14.867    13.898  0.3659  0.3311  0.8698
 
              Baa    -0.2661   -35.708   -12.741   -11.911  0.9466  0.2898  0.1415
    46 C(13)  Bbb    -0.2210   -29.659   -10.583    -9.893 -0.2638  0.4434  0.8566
              Bcc     0.4871    65.366    23.324    21.804 -0.1855  0.8482 -0.4962
 
              Baa    -0.4311   -57.848   -20.642   -19.296  0.1762  0.8417 -0.5104
    47 C(13)  Bbb     0.1866    25.038     8.934     8.352  0.0061  0.5175  0.8556
              Bcc     0.2445    32.810    11.707    10.944  0.9843 -0.1539  0.0861
 
              Baa    -0.1523   -20.442    -7.294    -6.819  0.7693  0.2848  0.5719
    48 C(13)  Bbb    -0.1143   -15.334    -5.471    -5.115 -0.5300  0.7844  0.3223
              Bcc     0.2666    35.776    12.766    11.934 -0.3568 -0.5510  0.7544
 
              Baa    -0.4668   -62.642   -22.352   -20.895 -0.6310  0.2351  0.7393
    49 C(13)  Bbb     0.2123    28.487    10.165     9.502  0.0781  0.9674 -0.2410
              Bcc     0.2545    34.154    12.187    11.393  0.7718  0.0943  0.6288
 
              Baa    -0.3534   -47.417   -16.920   -15.817  0.8686  0.1094 -0.4833
    50 C(13)  Bbb     0.1588    21.307     7.603     7.107  0.4954 -0.1724  0.8514
              Bcc     0.1946    26.110     9.317     8.709 -0.0098  0.9789  0.2040
 
              Baa    -0.1839   -24.671    -8.803    -8.229 -0.4852  0.8740 -0.0250
    51 C(13)  Bbb    -0.1500   -20.134    -7.184    -6.716  0.4174  0.2567  0.8717
              Bcc     0.3339    44.805    15.988    14.945  0.7683  0.4125 -0.4893
 
              Baa    -0.4976   -66.770   -23.825   -22.272  0.7295  0.6646 -0.1616
    52 C(13)  Bbb     0.2185    29.327    10.465     9.782 -0.5646  0.7186  0.4061
              Bcc     0.2790    37.443    13.361    12.490  0.3860 -0.2050  0.8994
 
              Baa    -0.2840   -38.105   -13.597   -12.711 -0.3686  0.3188  0.8732
    53 C(13)  Bbb    -0.2264   -30.376   -10.839   -10.132  0.8376 -0.2936  0.4608
              Bcc     0.5103    68.481    24.436    22.843  0.4032  0.9012 -0.1588
 
              Baa    -0.5208   -69.893   -24.939   -23.314  0.1956  0.9671  0.1627
    54 C(13)  Bbb     0.2292    30.757    10.975    10.259  0.8908 -0.2446  0.3830
              Bcc     0.2916    39.136    13.965    13.054 -0.4102 -0.0700  0.9093
 
              Baa    -0.3067   -41.153   -14.684   -13.727  0.5656 -0.0219  0.8244
    55 C(13)  Bbb    -0.2454   -32.924   -11.748   -10.982  0.7988  0.2631 -0.5411
              Bcc     0.5520    74.077    26.432    24.709 -0.2050  0.9645  0.1663
 
              Baa    -0.5411   -72.606   -25.908   -24.219 -0.3244  0.7923  0.5168
    56 C(13)  Bbb     0.2370    31.807    11.349    10.610  0.2556 -0.4525  0.8543
              Bcc     0.3040    40.799    14.558    13.609  0.9107  0.4092 -0.0558
 
              Baa    -0.3059   -41.047   -14.647   -13.692  0.6627  0.7480  0.0377
    57 C(13)  Bbb    -0.2382   -31.966   -11.406   -10.663  0.3648 -0.3664  0.8560
              Bcc     0.5441    73.013    26.053    24.354  0.6541 -0.5534 -0.5157
 
              Baa    -0.2817   -37.805   -13.490   -12.611  0.0590 -0.4074  0.9113
    58 C(13)  Bbb    -0.2208   -29.632   -10.573    -9.884 -0.5080  0.7736  0.3788
              Bcc     0.5026    67.438    24.063    22.495  0.8593  0.4853  0.1613
 
              Baa    -0.3534   -47.417   -16.920   -15.817  0.8686  0.1094 -0.4833
    59 C(13)  Bbb     0.1588    21.307     7.603     7.107  0.4954 -0.1724  0.8514
              Bcc     0.1946    26.110     9.317     8.709 -0.0098  0.9789  0.2040
 
              Baa    -0.2712   -36.399   -12.988   -12.141  0.2614 -0.2923  0.9199
    60 C(13)  Bbb     0.1223    16.416     5.858     5.476  0.7730  0.6341 -0.0182
              Bcc     0.1489    19.983     7.130     6.666 -0.5780  0.7159  0.3917
 

 ---------------------------------------------------------------------------------

 No NMR shielding tensors so no spin-rotation constants.
 Leave Link  601 at Thu May  5 18:55:54 2022, MaxMem=   104857600 cpu:               1.2 elap:               1.2
 (Enter /apps/software/g16/l9999.exe)
 1\1\GINC-CNODE12\Stability\UHF\3-21G\C60\LCZ\05-May-2022\0\\#p RHF/3-2
 1G guess=mix stable=opt sym=loose\\C60 opt\\0,1\C,0,0.17823418,-0.4216
 4323,0.09565119\C,0,1.71823511,-0.4215991,0.0955729\C,0,2.39581061,0.7
 5205293,0.09551743\C,0,1.62577918,2.0857105,0.09554027\C,0,0.27057274,
 2.08567496,0.09560319\C,0,-0.49939037,0.75197568,0.09566016\C,0,-0.297
 64057,-1.58554271,-0.79343964\C,0,0.94824467,-2.3048235,-1.34298703\C,
 0,2.19411771,-1.5854695,-0.7935464\C,0,3.29047211,-1.43602853,-1.57600
 328\C,0,3.64167728,0.92187162,-0.79363343\C,0,2.39573304,3.07979634,-0
 .7935988\C,0,1.71807245,3.95454959,-1.57601146\C,0,0.17807323,3.954502
 84,-1.57594943\C,0,-0.49948258,3.07971459,-0.79350035\C,0,-1.74536573,
 2.36036611,-1.34296092\C,0,-1.74530211,0.92174422,-0.79343253\C,0,-2.1
 6407157,-0.10248057,-1.57583829\C,0,-1.39404387,-1.43614394,-1.5758419
 \C,0,0.94821837,-2.78840832,-2.60897537\C,0,-0.2977092,-2.61863957,-3.
 49806243\C,0,-1.39408517,-1.98566616,-3.01446536\C,0,-2.16414938,-0.99
 163127,-3.90356997\C,0,-2.64002792,0.17224245,-3.01444935\C,0,-2.64009
 316,1.43823148,-3.49803454\C,0,-2.16420539,2.60212618,-2.60894011\C,0,
 -1.39425314,3.59619146,-3.49808944\C,0,-0.29787072,4.22921858,-3.01456
 765\C,0,3.6416249,2.36049587,-1.34314427\C,0,2.19382128,3.19618464,-5.
 71927447\C,0,3.29022186,3.04678758,-4.93687678\C,0,4.0602562,1.7131288
 9,-4.93687731\C,0,3.64148891,0.68889917,-5.71927852\C,0,2.39556326,0.8
 5866399,-6.60836629\C,0,0.17794164,2.03224124,-6.60829905\C,0,-0.29793
 775,3.19611649,-5.71917848\C,0,0.94794358,3.91547025,-5.16973199\C,0,0
 .94798075,4.39904412,-3.90374283\C,0,2.19389569,4.22928771,-3.01466412
 \C,0,3.29026522,3.59630751,-3.49826617\C,0,4.5362192,1.43839705,-3.498
 26888\C,0,4.53628351,0.17240824,-3.014694\C,0,4.06040419,-0.99148381,-
 3.90378394\C,0,3.64156049,-0.74972201,-5.16976724\C,0,2.39566533,-1.46
 907298,-5.71922364\C,0,1.62559666,-0.47504074,-6.60832906\C,0,0.270394
 76,-0.47507361,-6.60827661\C,0,-0.4996295,0.85858503,-6.60825947\C,0,-
 1.39429089,3.04667285,-4.93671591\C,0,-2.16426181,1.71297411,-4.936673
 64\C,0,-1.74548392,0.68876342,-5.71909678\C,0,-1.74542598,-0.74985794,
 -5.16957309\C,0,-0.49954852,-1.4691468,-5.71912001\C,0,0.17810642,-2.3
 4389385,-4.93670439\C,0,1.71811031,-2.34386028,-4.93675859\C,0,2.19406
 394,-2.61858453,-3.49813556\C,0,3.29044415,-1.98556035,-3.01462044\C,0
 ,4.06033885,2.60227132,-2.60915116\C,0,4.06045287,-0.10233677,-1.57605
 659\C,0,1.71793581,2.03228443,-6.60835736\\Version=ES64L-G16RevA.03\St
 ate=1-AG\HF=-2258.8912288\S2=7.031163\S2-1=0.\S2A=25.836976\RMSD=4.687
 e-09\Dipole=0.,0.,0.\Quadrupole=0.6314991,0.3635843,-0.9950833,-0.7891
 623,-0.6260154,0.8282091\PG=IH [15SG(C4)]\\@


 FIREWORKS ENDED
 AND SPECTATORS GONE AWAY....
 AH, HOW VAST AND DARK
                     SHIKI
 Job cpu time:       0 days  1 hours 55 minutes 24.2 seconds.
 Elapsed time:       0 days  1 hours 55 minutes 40.7 seconds.
 File lengths (MBytes):  RWF=   2953 Int=      0 D2E=      0 Chk=     60 Scr=      1
 Normal termination of Gaussian 16 at Thu May  5 18:55:54 2022.

Sender: Unischeduler System <lcz@mgt01>
Subject: Job 128592: <#!/bin/bash
#BSUB -J intel
#BSUB -o C60.out
#BSUB -n 8
#BSUB -q cqueue
#BSUB -R span[hosts=1]
export g16root=/apps/software
source /apps/software/g16/bsd/g16.profile
export GAUSS_SCRDIR=/scratch
/apps/software/g16/g16 < C60.inp > C60.out> Done

Job <#!/bin/bash
#BSUB -J intel
#BSUB -o C60.out
#BSUB -n 8
#BSUB -q cqueue
#BSUB -R span[hosts=1]
export g16root=/apps/software
source /apps/software/g16/bsd/g16.profile
export GAUSS_SCRDIR=/scratch
/apps/software/g16/g16 < C60.inp > C60.out> was submitted from host <mgt01> by user <lcz>.
Job was executed on host(s) <8*cnode12>, in queue <cqueue>, as user <lcz>.
</apps/users/lcz> was used as the home directory.
</apps/users/lcz/exe4/task3/Gaussian> was used as the working directory.
Started at 2022-05-05 17:00:13
Results reported at 2022-05-05 18:55:54

Your job looked like:

------------------------------------------------------------
# User input
#!/bin/bash
#BSUB -J intel
#BSUB -o C60.out
#BSUB -n 8
#BSUB -q cqueue
#BSUB -R span[hosts=1]
export g16root=/apps/software
source /apps/software/g16/bsd/g16.profile
export GAUSS_SCRDIR=/scratch
/apps/software/g16/g16 < C60.inp > C60.out
------------------------------------------------------------

Successfully completed.

Resource usage summary:

    CPU time   :         6916.74 sec.
    Max Memory :              1204 MB
    Max Processes  :               5


The output (if any) follows:

