
                                        *****************
                                        * O   R   C   A *
                                        *****************

                                            #,                                       
                                            ###                                      
                                            ####                                     
                                            #####                                    
                                            ######                                   
                                           ########,                                 
                                     ,,################,,,,,                         
                               ,,#################################,,                 
                          ,,##########################################,,             
                       ,#########################################, ''#####,          
                    ,#############################################,,   '####,        
                  ,##################################################,,,,####,       
                ,###########''''           ''''###############################       
              ,#####''   ,,,,##########,,,,          '''####'''          '####       
            ,##' ,,,,###########################,,,                        '##       
           ' ,,###''''                  '''############,,,                           
         ,,##''                                '''############,,,,        ,,,,,,###''
      ,#''                                            '''#######################'''  
     '                                                          ''''####''''         
             ,#######,   #######,   ,#######,      ##                                
            ,#'     '#,  ##    ##  ,#'     '#,    #''#        ######   ,####,        
            ##       ##  ##   ,#'  ##            #'  '#       #        #'  '#        
            ##       ##  #######   ##           ,######,      #####,   #    #        
            '#,     ,#'  ##    ##  '#,     ,#' ,#      #,         ##   #,  ,#        
             '#######'   ##     ##  '#######'  #'      '#     #####' # '####'        



                  #######################################################
                  #                        -***-                        #
                  #          Department of theory and spectroscopy      #
                  #    Directorship and core code : Frank Neese         #
                  #        Max Planck Institute fuer Kohlenforschung    #
                  #                Kaiser Wilhelm Platz 1               #
                  #                 D-45470 Muelheim/Ruhr               #
                  #                      Germany                        #
                  #                                                     #
                  #                  All rights reserved                #
                  #                        -***-                        #
                  #######################################################


                         Program Version 5.0.0 -  RELEASE  -
                                (SVN: $Rev: 19529$)
                ($Date: 2021-06-28 11:36:33 +0200 (Mo, 28 Jun 2021) $)


 With contributions from (in alphabetic order):
   Daniel Aravena         : Magnetic Suceptibility
   Michael Atanasov       : Ab Initio Ligand Field Theory (pilot matlab implementation)
   Alexander A. Auer      : GIAO ZORA, VPT2 properties, NMR spectrum
   Ute Becker             : Parallelization
   Giovanni Bistoni       : ED, misc. LED, open-shell LED, HFLD
   Martin Brehm           : Molecular dynamics
   Dmytro Bykov           : SCF Hessian
   Vijay G. Chilkuri      : MRCI spin determinant printing, contributions to CSF-ICE
   Dipayan Datta          : RHF DLPNO-CCSD density
   Achintya Kumar Dutta   : EOM-CC, STEOM-CC
   Dmitry Ganyushin       : Spin-Orbit,Spin-Spin,Magnetic field MRCI
   Miquel Garcia          : C-PCM Hessian, Gaussian charge scheme
   Yang Guo               : DLPNO-NEVPT2, F12-NEVPT2, CIM, IAO-localization
   Andreas Hansen         : Spin unrestricted coupled pair/coupled cluster methods
   Benjamin Helmich-Paris : MC-RPA, TRAH-SCF, COSX integrals
   Lee Huntington         : MR-EOM, pCC
   Robert Izsak           : Overlap fitted RIJCOSX, COSX-SCS-MP3, EOM
   Marcus Kettner         : VPT2
   Christian Kollmar      : KDIIS, OOCD, Brueckner-CCSD(T), CCSD density, CASPT2, CASPT2-K
   Simone Kossmann        : Meta GGA functionals, TD-DFT gradient, OOMP2, MP2 Hessian
   Martin Krupicka        : Initial AUTO-CI
   Lucas Lang             : DCDCAS
   Marvin Lechner         : AUTO-CI (C++ implementation), FIC-MRCC
   Dagmar Lenk            : GEPOL surface, SMD
   Dimitrios Liakos       : Extrapolation schemes; Compound Job, initial MDCI parallelization
   Dimitrios Manganas     : Further ROCIS development; embedding schemes
   Dimitrios Pantazis     : SARC Basis sets
   Anastasios Papadopoulos: AUTO-CI, single reference methods and gradients
   Taras Petrenko         : DFT Hessian,TD-DFT gradient, ASA, ECA, R-Raman, ABS, FL, XAS/XES, NRVS
   Peter Pinski           : DLPNO-MP2, DLPNO-MP2 Gradient
   Christoph Reimann      : Effective Core Potentials
   Marius Retegan         : Local ZFS, SOC
   Christoph Riplinger    : Optimizer, TS searches, QM/MM, DLPNO-CCSD(T), (RO)-DLPNO pert. Triples
   Tobias Risthaus        : Range-separated hybrids, TD-DFT gradient, RPA, STAB
   Michael Roemelt        : Original ROCIS implementation
   Masaaki Saitow         : Open-shell DLPNO-CCSD energy and density
   Barbara Sandhoefer     : DKH picture change effects
   Avijit Sen             : IP-ROCIS
   Kantharuban Sivalingam : CASSCF convergence, NEVPT2, FIC-MRCI
   Bernardo de Souza      : ESD, SOC TD-DFT
   Georgi Stoychev        : AutoAux, RI-MP2 NMR
   Willem Van den Heuvel  : Paramagnetic NMR
   Boris Wezisla          : Elementary symmetry handling
   Frank Wennmohs         : Technical directorship


 We gratefully acknowledge several colleagues who have allowed us to
 interface, adapt or use parts of their codes:
   Stefan Grimme, W. Hujo, H. Kruse, P. Pracht,  : VdW corrections, initial TS optimization,
                  C. Bannwarth, S. Ehlert          DFT functionals, gCP, sTDA/sTD-DF
   Ed Valeev, F. Pavosevic, A. Kumar             : LibInt (2-el integral package), F12 methods
   Garnet Chan, S. Sharma, J. Yang, R. Olivares  : DMRG
   Ulf Ekstrom                                   : XCFun DFT Library
   Mihaly Kallay                                 : mrcc  (arbitrary order and MRCC methods)
   Jiri Pittner, Ondrej Demel                    : Mk-CCSD
   Frank Weinhold                                : gennbo (NPA and NBO analysis)
   Christopher J. Cramer and Donald G. Truhlar   : smd solvation model
   Lars Goerigk                                  : TD-DFT with DH, B97 family of functionals
   V. Asgeirsson, H. Jonsson                     : NEB implementation
   FAccTs GmbH                                   : IRC, NEB, NEB-TS, DLPNO-Multilevel, CI-OPT
                                                   MM, QMMM, 2- and 3-layer-ONIOM, Crystal-QMMM,
                                                   LR-CPCM, SF, NACMEs, symmetry and pop. for TD-DFT,
                                                   nearIR, NL-DFT gradient (VV10), updates on ESD,
                                                   ML-optimized integration grids
   S Lehtola, MJT Oliveira, MAL Marques          : LibXC Library
   Liviu Ungur et al                             : ANISO software


 Your calculation uses the libint2 library for the computation of 2-el integrals
 For citations please refer to: http://libint.valeyev.net

 Your ORCA version has been built with support for libXC version: 5.1.0
 For citations please refer to: https://tddft.org/programs/libxc/

 This ORCA versions uses:
   CBLAS   interface :  Fast vector & matrix operations
   LAPACKE interface :  Fast linear algebra routines
   SCALAPACK package :  Parallel linear algebra routines
   Shared memory     :  Shared parallel matrices
   BLAS/LAPACK       :  OpenBLAS 0.3.15  USE64BITINT DYNAMIC_ARCH NO_AFFINITY SkylakeX SINGLE_THREADED
        Core in use  :  SkylakeX
   Copyright (c) 2011-2014, The OpenBLAS Project


================================================================================

----- Orbital basis set information -----
Your calculation utilizes the basis: cc-pVTZ 
       H, B-Ne : Obtained from the ccRepo (grant-hill.group.shef.ac.uk/ccrepo) Feb. 2017
                 T. H. Dunning, Jr., J. Chem. Phys. 90, 1007 (1989)
            He : Obtained from the ccRepo (grant-hill.group.shef.ac.uk/ccrepo) Feb. 2017
                 D. E. Woon, T. H. Dunning, Jr., J. Chem. Phys. 100, 2975 (1994)
  Li-Be, Na-Mg : Obtained from the ccRepo (grant-hill.group.shef.ac.uk/ccrepo) Feb. 2017
                 B. P. Prascher, D. E. Woon, K. A. Peterson, T. H. Dunning, Jr., A. K. Wilson, Theor. Chem. Acc. 128, 69 (2011)
         Al-Ar : Obtained from the ccRepo (grant-hill.group.shef.ac.uk/ccrepo) Feb. 2017
                 D. E. Woon, T. H. Dunning, Jr., J. Chem. Phys. 98, 1358 (1993)
            Ca : Obtained from the Peterson Research Group Website (tyr0.chem.wsu.edu/~kipeters) Feb. 2017
                 J. Koput, K. A. Peterson, J. Phys. Chem. 106, 9595 (2002)
         Sc-Zn : Obtained from the ccRepo (grant-hill.group.shef.ac.uk/ccrepo) Feb. 2017
                 N. B. Balabanov, K. A. Peterson, J. Chem. Phys. 123, 064107 (2005)
                 N. B. Balabanov, K. A. Peterson, J. Chem. Phys. 125, 074110 (2006)
         Ga-Kr : Obtained from the ccRepo (grant-hill.group.shef.ac.uk/ccrepo) Feb. 2017
                 A. K. Wilson, D. E. Woon, K. A. Peterson, T. H. Dunning, Jr., J. Chem. Phys. 110, 7667 (1999)
             Y : Obtained from the ccRepo (grant-hill.group.shef.ac.uk/ccrepo) Feb. 2017
                 K. A. Peterson, D. Figgen, M. Dolg, H. Stoll, J. Chem. Phys. 126, 124101 (2007)
        Ag, Au : Obtained from the Peterson Research Group Website (tyr0.chem.wsu.edu/~kipeters) Feb. 2017
                 K. A. Peterson, C. Puzzarini, Theor. Chem. Acc. 114, 283 (2005)

================================================================================
                                        WARNINGS
                       Please study these warnings very carefully!
================================================================================


INFO   : the flag for use of the SHARK integral package has been found!

================================================================================
                                       INPUT FILE
================================================================================
NAME = /scratch/FeH2O62+-B3LYP_923/FeH2O62+-B3LYP.inp
|  1> ! B3LYP/G cc-pVTZ TightSCF NoRI 
|  2> 
|  3> %pal
|  4>     nprocs 16
|  5> end
|  6> 
|  7> %scf
|  8>     STABPerform true
|  9> end
| 10> 
| 11> *xyz 2 1 
| 12>  Fe                 6.20397196    1.03714637    0.17096759
| 13>  O                  8.02343961    0.99562593    0.15635557
| 14>  O                  6.24694430   -0.78162449    0.11972374
| 15>  O                  6.22607513    1.15774049   -1.64489818
| 16>  O                  4.38440248    1.01816527    0.20570458
| 17>  O                  6.16557932    2.85626904    0.21242489
| 18>  O                  6.16850601    1.06001114    1.99047834
| 19>  H                  4.06545864    1.78648828    0.68482314
| 20>  H                  4.08101507    0.21943896    0.64341723
| 21>  H                  6.97846238    3.18466572    0.60354733
| 22>  H                  5.41693185    3.14865831    0.73743487
| 23>  H                  6.90726982    0.55047930    2.33136739
| 24>  H                  5.34491271    0.67543823    2.29934360
| 25>  H                  8.36474659    1.75961228    0.62692374
| 26>  H                  8.32866067    0.19290442    0.58539903
| 27>  H                  7.07410906   -1.09285932    0.49459883
| 28>  H                  5.51267410   -1.13351772    0.62826915
| 29>  H                  6.97521418    0.66593956   -1.98916919
| 30>  H                  5.41263500    0.79176715   -1.99983292
| 31> *
| 32> 
| 33> 
| 34>                          ****END OF INPUT****
================================================================================

                       ****************************
                       * Single Point Calculation *
                       ****************************

---------------------------------
CARTESIAN COORDINATES (ANGSTROEM)
---------------------------------
  Fe     6.203972    1.037146    0.170968
  O      8.023440    0.995626    0.156356
  O      6.246944   -0.781624    0.119724
  O      6.226075    1.157740   -1.644898
  O      4.384402    1.018165    0.205705
  O      6.165579    2.856269    0.212425
  O      6.168506    1.060011    1.990478
  H      4.065459    1.786488    0.684823
  H      4.081015    0.219439    0.643417
  H      6.978462    3.184666    0.603547
  H      5.416932    3.148658    0.737435
  H      6.907270    0.550479    2.331367
  H      5.344913    0.675438    2.299344
  H      8.364747    1.759612    0.626924
  H      8.328661    0.192904    0.585399
  H      7.074109   -1.092859    0.494599
  H      5.512674   -1.133518    0.628269
  H      6.975214    0.665940   -1.989169
  H      5.412635    0.791767   -1.999833

----------------------------
CARTESIAN COORDINATES (A.U.)
----------------------------
  NO LB      ZA    FRAG     MASS         X           Y           Z
   0 Fe   26.0000    0    55.850   11.723808    1.959923    0.323082
   1 O     8.0000    0    15.999   15.162104    1.881460    0.295469
   2 O     8.0000    0    15.999   11.805014   -1.477056    0.226245
   3 O     8.0000    0    15.999   11.765577    2.187812   -3.108407
   4 O     8.0000    0    15.999    8.285320    1.924054    0.388725
   5 O     8.0000    0    15.999   11.651256    5.397566    0.401425
   6 O     8.0000    0    15.999   11.656787    2.003131    3.761459
   7 H     1.0000    0     1.008    7.682603    3.375974    1.294128
   8 H     1.0000    0     1.008    7.712001    0.414680    1.215882
   9 H     1.0000    0     1.008   13.187383    6.018146    1.140539
  10 H     1.0000    0     1.008   10.236518    5.950102    1.393550
  11 H     1.0000    0     1.008   13.052848    1.040255    4.405646
  12 H     1.0000    0     1.008   10.100421    1.276393    4.345130
  13 H     1.0000    0     1.008   15.807080    3.325185    1.184714
  14 H     1.0000    0     1.008   15.738888    0.364537    1.106244
  15 H     1.0000    0     1.008   13.368129   -2.065205    0.934656
  16 H     1.0000    0     1.008   10.417444   -2.142038    1.187257
  17 H     1.0000    0     1.008   13.181245    1.258443   -3.758985
  18 H     1.0000    0     1.008   10.228398    1.496223   -3.779137

--------------------------------
INTERNAL COORDINATES (ANGSTROEM)
--------------------------------
 Fe     0   0   0     0.000000000000     0.00000000     0.00000000
 O      1   0   0     1.819999996556     0.00000000     0.00000000
 O      1   2   0     1.819999998723    87.32742365     0.00000000
 O      1   2   3     1.819999996308    88.93195843   267.77894440
 O      1   2   3     1.820000009115   177.99262569    20.00473223
 O      1   2   3     1.819999997538    92.52607242   180.30750819
 O      1   2   3     1.820000000187    91.59269068    92.28819468
 H      5   1   4     0.960000007972   109.47122029   242.27991320
 H      5   1   4     0.960000001460   109.47122035   122.27991362
 H      6   1   2     0.960000006115   109.47122050   334.49762204
 H      6   1   2     0.959999999296   109.47122063   214.49762256
 H      7   1   2     0.960000003828   109.47122063   326.71556765
 H      7   1   2     0.959999997784   109.47122098   206.71556775
 H      2   1   3     0.960000000104   109.47122095   209.92412478
 H      2   1   3     0.960000004507   109.47122070   329.92412509
 H      3   1   2     0.959999996195   109.47122079    25.49205148
 H      3   1   2     0.960000003104   109.47122125   145.49205180
 H      4   1   2     0.959999999641   109.47122034    33.23261025
 H      4   1   2     0.960000000179   109.47122090   153.23260990

---------------------------
INTERNAL COORDINATES (A.U.)
---------------------------
 Fe     0   0   0     0.000000000000     0.00000000     0.00000000
 O      1   0   0     3.439301557228     0.00000000     0.00000000
 O      1   2   0     3.439301561324    87.32742365     0.00000000
 O      1   2   3     3.439301556759    88.93195843   267.77894440
 O      1   2   3     3.439301580962   177.99262569    20.00473223
 O      1   2   3     3.439301559084    92.52607242   180.30750819
 O      1   2   3     3.439301564091    91.59269068    92.28819468
 H      5   1   4     1.814137103629   109.47122029   242.27991320
 H      5   1   4     1.814137091323   109.47122035   122.27991362
 H      6   1   2     1.814137100121   109.47122050   334.49762204
 H      6   1   2     1.814137087234   109.47122063   214.49762256
 H      7   1   2     1.814137095798   109.47122063   326.71556765
 H      7   1   2     1.814137084377   109.47122098   206.71556775
 H      2   1   3     1.814137088761   109.47122095   209.92412478
 H      2   1   3     1.814137097081   109.47122070   329.92412509
 H      3   1   2     1.814137081373   109.47122079    25.49205148
 H      3   1   2     1.814137094430   109.47122125   145.49205180
 H      4   1   2     1.814137087885   109.47122034    33.23261025
 H      4   1   2     1.814137088903   109.47122090   153.23260990

---------------------
BASIS SET INFORMATION
---------------------
There are 3 groups of distinct atoms

 Group   1 Type Fe  : 115s76p22d2f1g contracted to 7s6p4d2f1g pattern {1919191919191/15151515151/7771/11/1}
 Group   2 Type O   : 18s5p2d1f contracted to 4s3p2d1f pattern {8811/311/11/1}
 Group   3 Type H   : 5s2p1d contracted to 3s2p1d pattern {311/11/1}

Atom   0Fe   basis set group =>   1
Atom   1O    basis set group =>   2
Atom   2O    basis set group =>   2
Atom   3O    basis set group =>   2
Atom   4O    basis set group =>   2
Atom   5O    basis set group =>   2
Atom   6O    basis set group =>   2
Atom   7H    basis set group =>   3
Atom   8H    basis set group =>   3
Atom   9H    basis set group =>   3
Atom  10H    basis set group =>   3
Atom  11H    basis set group =>   3
Atom  12H    basis set group =>   3
Atom  13H    basis set group =>   3
Atom  14H    basis set group =>   3
Atom  15H    basis set group =>   3
Atom  16H    basis set group =>   3
Atom  17H    basis set group =>   3
Atom  18H    basis set group =>   3
--------------------------------------------------------------------------
WARNING: There was an error initializing an OpenFabrics device.

  Local host:   cnode08
  Local device: mlx5_0
--------------------------------------------------------------------------


           ************************************************************
           *        Program running with 16 parallel MPI-processes    *
           *              working on a common directory               *
           ************************************************************
------------------------------------------------------------------------------
                           ORCA GTO INTEGRAL CALCULATION
------------------------------------------------------------------------------
------------------------------------------------------------------------------
                   ___                                                        
                  /   \      - P O W E R E D   B Y -                         
                 /     \                                                     
                 |  |  |   _    _      __       _____    __    __             
                 |  |  |  | |  | |    /  \     |  _  \  |  |  /  |          
                  \  \/   | |  | |   /    \    | | | |  |  | /  /          
                 / \  \   | |__| |  /  /\  \   | |_| |  |  |/  /          
                |  |  |   |  __  | /  /__\  \  |    /   |      \           
                |  |  |   | |  | | |   __   |  |    \   |  |\   \          
                \     /   | |  | | |  |  |  |  | |\  \  |  | \   \       
                 \___/    |_|  |_| |__|  |__|  |_| \__\ |__|  \__/        
                                                                              
                      - O R C A' S   B I G   F R I E N D -                    
                                      &                                       
                       - I N T E G R A L  F E E D E R -                       
                                                                              
 v1 FN, 2020, v2 2021                                                         
------------------------------------------------------------------------------


Reading SHARK input file /scratch/FeH2O62+-B3LYP_923/FeH2O62+-B3LYP.SHARKINP.tmp ... ok
----------------------
SHARK INTEGRAL PACKAGE
----------------------

Number of atoms                             ...     19
Number of basis functions                   ...    416
Number of shells                            ...    152
Maximum angular momentum                    ...      4
Integral batch strategy                     ... SHARK/LIBINT Hybrid
RI-J (if used) integral strategy            ... SPLIT-RIJ (Revised 2003 algorithm where possible)
Printlevel                                  ...      1
Contraction scheme used                     ... SEGMENTED contraction
Coulomb Range Separation                    ... NOT USED
Exchange Range Separation                   ... NOT USED
Finite Nucleus Model                        ... NOT USED
Auxiliary Coulomb fitting basis             ... NOT available
Auxiliary J/K fitting basis                 ... NOT available
Auxiliary Correlation fitting basis         ... NOT available
Auxiliary 'external' fitting basis          ... NOT available
Integral threshold                          ...     2.500000e-11
Primitive cut-off                           ...     2.500000e-12
Primitive pair pre-selection threshold      ...     2.500000e-12

Calculating pre-screening integrals         ... done (  2.7 sec) Dimension = 152
Organizing shell pair data                  ... done (  0.1 sec)
Shell pair information
Total number of shell pairs                 ...     11628
Shell pairs after pre-screening             ...     11083
Total number of primitive shell pairs       ...    111750
Primitive shell pairs kept                  ...     80711
          la=0 lb=0:   2206 shell pairs
          la=1 lb=0:   3076 shell pairs
          la=1 lb=1:   1109 shell pairs
          la=2 lb=0:   1785 shell pairs
          la=2 lb=1:   1250 shell pairs
          la=2 lb=2:    379 shell pairs
          la=3 lb=0:    518 shell pairs
          la=3 lb=1:    366 shell pairs
          la=3 lb=2:    206 shell pairs
          la=3 lb=3:     36 shell pairs
          la=4 lb=0:     67 shell pairs
          la=4 lb=1:     48 shell pairs
          la=4 lb=2:     28 shell pairs
          la=4 lb=3:      8 shell pairs
          la=4 lb=4:      1 shell pairs

Calculating one electron integrals          ... done (  0.0 sec)
Calculating Nuclear repulsion               ... done (  0.0 sec) ENN=    767.815501670606 Eh

SHARK setup successfully completed in   2.9 seconds

Maximum memory used throughout the entire GTOINT-calculation: 184.0 MB
[cnode08:319679] 15 more processes have sent help message help-mpi-btl-openib.txt / error in device init
[cnode08:319679] Set MCA parameter "orte_base_help_aggregate" to 0 to see all help / error messages
--------------------------------------------------------------------------
WARNING: There was an error initializing an OpenFabrics device.

  Local host:   cnode08
  Local device: mlx5_0
--------------------------------------------------------------------------


           ************************************************************
           *        Program running with 16 parallel MPI-processes    *
           *              working on a common directory               *
           ************************************************************
-------------------------------------------------------------------------------
                                 ORCA SCF
-------------------------------------------------------------------------------

------------
SCF SETTINGS
------------
Hamiltonian:
 Density Functional     Method          .... DFT(GTOs)
 Exchange Functional    Exchange        .... B88
   X-Alpha parameter    XAlpha          ....  0.666667
   Becke's b parameter  XBeta           ....  0.004200
 Correlation Functional Correlation     .... LYP
 LDA part of GGA corr.  LDAOpt          .... VWN-3
 Gradients option       PostSCFGGA      .... off
 Hybrid DFT is turned on
   Fraction HF Exchange ScalHFX         ....  0.200000
   Scaling of DF-GGA-X  ScalDFX         ....  0.720000
   Scaling of DF-GGA-C  ScalDFC         ....  0.810000
   Scaling of DF-LDA-C  ScalLDAC        ....  1.000000
   Perturbative correction              ....  0.000000
   Density functional embedding theory  .... OFF
   NL short-range parameter             ....  4.800000


General Settings:
 Integral files         IntName         .... /scratch/FeH2O62+-B3LYP_923/FeH2O62+-B3LYP
 Hartree-Fock type      HFTyp           .... RHF
 Total Charge           Charge          ....    2
 Multiplicity           Mult            ....    1
 Number of Electrons    NEL             ....   84
 Basis Dimension        Dim             ....  416
 Nuclear Repulsion      ENuc            ....    767.8155016706 Eh

Convergence Acceleration:
 DIIS                   CNVDIIS         .... on
   Start iteration      DIISMaxIt       ....    12
   Startup error        DIISStart       ....  0.200000
   # of expansion vecs  DIISMaxEq       ....     5
   Bias factor          DIISBfac        ....   1.050
   Max. coefficient     DIISMaxC        ....  10.000
 Trust-Rad. Augm. Hess. CNVTRAH         .... auto
   Auto Start mean grad. ratio tolernc. ....  1.125000
   Auto Start start iteration           ....    20
   Auto Start num. interpolation iter.  ....    10
   Max. Number of Micro iterations      ....    16
   Max. Number of Macro iterations      .... Maxiter - #DIIS iter
   Number of Davidson start vectors     ....     2
   Converg. threshold I  (grad. norm)   ....   1.000e-05
   Converg. threshold II (energy diff.) ....   1.000e-08
   Grad. Scal. Fac. for Micro threshold ....   0.100
   Minimum threshold for Micro iter.    ....   0.010
   NR start threshold (gradient norm)   ....   0.001
   Initial trust radius                 ....   0.400
   Minimum AH scaling param. (alpha)    ....   1.000
   Maximum AH scaling param. (alpha)    .... 1000.000
   Orbital update algorithm             .... Taylor
   White noise on init. David. guess    .... on
   Maximum white noise                  ....   0.010
   Quad. conv. algorithm                .... NR
 SOSCF                  CNVSOSCF        .... off
 Level Shifting         CNVShift        .... on
   Level shift para.    LevelShift      ....    0.2500
   Turn off err/grad.   ShiftErr        ....    0.0010
 Zerner damping         CNVZerner       .... off
 Static damping         CNVDamp         .... on
   Fraction old density DampFac         ....    0.7000
   Max. Damping (<1)    DampMax         ....    0.9800
   Min. Damping (>=0)   DampMin         ....    0.0000
   Turn off err/grad.   DampErr         ....    0.1000
 Fernandez-Rico         CNVRico         .... off

SCF Procedure:
 Maximum # iterations   MaxIter         ....   125
 SCF integral mode      SCFMode         .... Direct
   Integral package                     .... SHARK and LIBINT hybrid scheme
 Reset frequency        DirectResetFreq ....    20
 Integral Threshold     Thresh          ....  2.500e-11 Eh
 Primitive CutOff       TCut            ....  2.500e-12 Eh

Convergence Tolerance:
 Convergence Check Mode ConvCheckMode   .... Total+1el-Energy
 Convergence forced     ConvForced      .... 0
 Energy Change          TolE            ....  1.000e-08 Eh
 1-El. energy change                    ....  1.000e-05 Eh
 DIIS Error             TolErr          ....  5.000e-07


Diagonalization of the overlap matrix:
Smallest eigenvalue                        ... 5.405e-05
Time for diagonalization                   ...    0.019 sec
Threshold for overlap eigenvalues          ... 1.000e-08
Number of eigenvalues below threshold      ... 0
Time for construction of square roots      ...    0.014 sec
Total time needed                          ...    0.035 sec

Time for model grid setup =    0.071 sec

------------------------------
INITIAL GUESS: MODEL POTENTIAL
------------------------------
Loading Hartree-Fock densities                     ... done
Calculating cut-offs                               ... done
Initializing the effective Hamiltonian             ... done
Setting up the integral package (SHARK)            ... done
Starting the Coulomb interaction                   ... done (   0.1 sec)
Reading the grid                                   ... done
Mapping shells                                     ... done
Starting the XC term evaluation                    ... done (   0.1 sec)
  promolecular density results
     # of electrons  =     86.003809820
     EX              =   -107.556948993
     EC              =     -3.333705818
     EX+EC           =   -110.890654811
Transforming the Hamiltonian                       ... done (   0.0 sec)
Diagonalizing the Hamiltonian                      ... done (   0.0 sec)
Back transforming the eigenvectors                 ... done (   0.0 sec)
Now organizing SCF variables                       ... done
                      ------------------
                      INITIAL GUESS DONE (   0.3 sec)
                      ------------------
-------------------
DFT GRID GENERATION
-------------------

General Integration Accuracy     IntAcc      ... 4.388
Radial Grid Type                 RadialGrid  ... OptM3 with GC (2021)
Angular Grid (max. ang.)         AngularGrid ... 4 (Lebedev-302)
Angular grid pruning method      GridPruning ... 4 (adaptive)
Weight generation scheme         WeightScheme... Becke
Basis function cutoff            BFCut       ... 1.0000e-11
Integration weight cutoff        WCut        ... 1.0000e-14
Angular grids for H and He will be reduced by one unit
Partially contracted basis set               ... off
Rotationally invariant grid construction     ... off

Total number of grid points                  ...    85524
Total number of batches                      ...     1346
Average number of points per batch           ...       63
Average number of grid points per atom       ...     4501
Time for grid setup =    0.347 sec

--------------
SCF ITERATIONS
--------------
ITER       Energy         Delta-E        Max-DP      RMS-DP      [F,P]     Damp
               ***  Starting incremental Fock matrix formation  ***
[cnode08:319804] 15 more processes have sent help message help-mpi-btl-openib.txt / error in device init
[cnode08:319804] Set MCA parameter "orte_base_help_aggregate" to 0 to see all help / error messages
  0  -1721.4463379915   0.000000000000 0.13085091  0.00163665  0.3200372 0.7000
  1  -1721.6789641671  -0.232626175629 0.09164862  0.00103048  0.1343082 0.7000
                               ***Turning on DIIS***
  2  -1721.7538275646  -0.074863397494 0.06686970  0.00108223  0.0379185 0.0000
  3  -1721.8925792444  -0.138751679737 0.09487541  0.00093378  0.0702956 0.0000
  4  -1721.9171803666  -0.024601122238 0.04055507  0.00038287  0.0154764 0.0000
  5  -1721.9177351273  -0.000554760706 0.01790098  0.00014683  0.0173752 0.0000
  6  -1721.9180010971  -0.000265969823 0.00545435  0.00004958  0.0035657 0.0000
  7  -1721.9180297817  -0.000028684598 0.00380840  0.00003183  0.0009245 0.0000
  8  -1721.9180379503  -0.000008168579 0.00061302  0.00000777  0.0008413 0.0000
  9  -1721.9180392845  -0.000001334212 0.00015728  0.00000243  0.0001938 0.0000
 10  -1721.9180393832  -0.000000098696 0.00009301  0.00000074  0.0000282 0.0000
 11  -1721.9180393879  -0.000000004653 0.00002883  0.00000024  0.0000256 0.0000
 12  -1721.9180393914  -0.000000003567 0.00001083  0.00000012  0.0000065 0.0000
 13  -1721.9180393903   0.000000001131 0.00000363  0.00000005  0.0000044 0.0000
 14  -1721.9180393935  -0.000000003213 0.00000443  0.00000003  0.0000021 0.0000
 15  -1721.9180393967  -0.000000003129 0.00000477  0.00000004  0.0000013 0.0000
 16  -1721.9180394009  -0.000000004230 0.00000144  0.00000001  0.0000013 0.0000
                 **** Energy Check signals convergence ****

               *****************************************************
               *                     SUCCESS                       *
               *           SCF CONVERGED AFTER  17 CYCLES          *
               *****************************************************


------------------------------------------------------------------------------
                          SCF STABILITY ANALYSIS                              
------------------------------------------------------------------------------


---------------
TD-DFT XC SETUP
---------------

DFT calculation                         ... on
Name of the grid file                   ... /scratch/FeH2O62+-B3LYP_923/FeH2O62+-B3LYP.grid.tmp
Exchange functional (SCF)               ... B88
Exchange functional (TD-DFT)            ... B88
   X-Alpha parameter    XAlpha (SCF)    ...  0.666667
   X-Alpha parameter    XAlpha (TD-DFT) ...  0.666667
   Becke's b parameter  XBeta (SCF)     ...  0.004200
   Becke's b parameter  XBeta (TD-DFT)  ...  0.004200
Correlation functional (SCF)            ... LYP
Correlation functional (TD-DFT)         ... LYP
 LDA part of GGA corr.  LDAOpt (SCF)    ... VWN-3
 LDA part of GGA corr.  LDAOpt (TD-DFT) ... VWN-3
Hybrid DFT                              ... on
   Exchange mixing (SCF)                ...  0.200
   Exchange mixing (TD-DFT)             ...  0.200
   GGA exch. scaling(SCF)               ...  0.720
   GGA exch. scaling (TD-DFT)           ...  0.720
   GGA corr. scaling (SCF)              ...  0.810
   GGA corr. scaling (TD-DFT)           ...  0.810

Electron density on the grid   ... found on disk
Building xc-kernel on the grid ... done
                    *** TD-DFT CALCULATION INITIALIZED ***

                       ****Iteration    0****

   Memory handling for direct AO based CIS:
   Memory per vector needed      ...     3 MB
   Memory needed                 ...    23 MB
   Memory available              ...  1024 MB
   Number of vectors per batch   ...   258
   Number of batches             ...     1
   Time for densities:     0.012
   Time for XC-Integration:     1.023
   Using LibInt in JK Direct
   Time for K (Direct):    47.481
   Time for Sigma-Completion:     0.020
   Lowest Energy          :     0.097591430140
   Maximum Energy change  :     0.122289810470 (vector 2)
   Maximum residual norm  :     0.000606261637

                       ****Iteration    1****
   Time for densities:     0.007
   Time for XC-Integration:     0.597
   Using LibInt in JK Direct
   Time for K (Direct):    37.662
   Time for Sigma-Completion:     0.007
   Lowest Energy          :     0.096107759139
   Maximum Energy change  :     0.001660033299 (vector 1)
   Maximum residual norm  :     0.000212600553

                       ****Iteration    2****
   Time for densities:     0.006
   Time for XC-Integration:     0.566
   Using LibInt in JK Direct
   Time for K (Direct):    37.641
   Time for Sigma-Completion:     0.027
   Lowest Energy          :     0.043787714161
   Maximum Energy change  :     0.059317919076 (vector 1)
   Maximum residual norm  :     0.008740547040

                       ****Iteration    3****
   Time for densities:     0.006
   Time for XC-Integration:     0.606
   Using LibInt in JK Direct
   Time for K (Direct):    37.939
   Time for Sigma-Completion:     0.008
   Lowest Energy          :     0.035120938312
   Maximum Energy change  :     0.011247476599 (vector 2)
   Maximum residual norm  :     0.000350523708

                       ****Iteration    4****
   Time for densities:     0.006
   Time for XC-Integration:     0.579
   Using LibInt in JK Direct
   Time for K (Direct):    37.799
   Time for Sigma-Completion:     0.026
   Lowest Energy          :     0.034805948277
   Maximum Energy change  :     0.004692232840 (vector 2)
   Maximum residual norm  :     0.003763353008

                       ****Iteration    5****
   Time for densities:     0.006
   Time for XC-Integration:     0.596
   Using LibInt in JK Direct
   Time for K (Direct):    38.215
   Time for Sigma-Completion:     0.017
   Lowest Energy          :     0.032981408234
   Maximum Energy change  :     0.016481591758 (vector 2)
   Maximum residual norm  :     0.006381190607

                       ****Iteration    6****
   Time for densities:     0.006
   Time for XC-Integration:     0.597
   Using LibInt in JK Direct
   Time for K (Direct):    38.245
   Time for Sigma-Completion:     0.009
   Lowest Energy          :     0.029139773097
   Maximum Energy change  :     0.003841635137 (vector 0)
   Maximum residual norm  :     0.000107935055

                       ****Iteration    7****
   Time for densities:     0.006
   Time for XC-Integration:     0.605
   Using LibInt in JK Direct
   Time for K (Direct):    38.241
   Time for Sigma-Completion:     0.024
   Lowest Energy          :     0.029053288165
   Maximum Energy change  :     0.000086484932 (vector 0)

         *** CONVERGENCE OF ENERGIES REACHED ***

----------------------------- 
SCF STABILITY ANALYSIS RESULT 
----------------------------- 

RHF/RKS->UHF/UKS - triplet - external

   Root    Eigenvalue (au) 
     0       0.029053 
     1       0.036109 
     2       0.038275 

Stability Analysis indicates a stable HF/KS wave function.


Total time for performing the stability analysis:   318.745sec


----------------
TOTAL SCF ENERGY
----------------

Total Energy       :        -1721.91803940 Eh          -46855.77195 eV

Components:
Nuclear Repulsion  :          767.81550167 Eh           20893.32200 eV
Electronic Energy  :        -2489.73354107 Eh          -67749.09395 eV
One Electron Energy:        -3878.35858466 Eh         -105535.50241 eV
Two Electron Energy:         1388.62504360 Eh           37786.40846 eV

Virial components:
Potential Energy   :        -3441.37140795 Eh          -93644.47680 eV
Kinetic Energy     :         1719.45336856 Eh           46788.70485 eV
Virial Ratio       :            2.00143340


DFT components:
N(Alpha)           :       42.000439301478 electrons
N(Beta)            :       42.000439301478 electrons
N(Total)           :       84.000878602955 electrons
E(X)               :      -85.955587896334 Eh       
E(C)               :       -4.160837497289 Eh       
E(XC)              :      -90.116425393624 Eh       
DFET-embed. en.    :        0.000000000000 Eh       

---------------
SCF CONVERGENCE
---------------

  Last Energy change         ...    3.8101e-09  Tolerance :   1.0000e-08
  Last MAX-Density change    ...    1.7981e-06  Tolerance :   1.0000e-07
  Last RMS-Density change    ...    1.4817e-08  Tolerance :   5.0000e-09
  Last DIIS Error            ...    4.9278e-07  Tolerance :   5.0000e-07

             **** THE GBW FILE WAS UPDATED (/scratch/FeH2O62+-B3LYP_923/FeH2O62+-B3LYP.gbw) ****
             **** DENSITY /scratch/FeH2O62+-B3LYP_923/FeH2O62+-B3LYP.scfp WAS UPDATED ****
             **** ENERGY FILE WAS UPDATED (/scratch/FeH2O62+-B3LYP_923/FeH2O62+-B3LYP.en.tmp) ****
             **** THE GBW FILE WAS UPDATED (/scratch/FeH2O62+-B3LYP_923/FeH2O62+-B3LYP.gbw) ****
             **** DENSITY /scratch/FeH2O62+-B3LYP_923/FeH2O62+-B3LYP.scfp WAS UPDATED ****
----------------
ORBITAL ENERGIES
----------------

  NO   OCC          E(Eh)            E(eV) 
   0   2.0000    -256.322015     -6974.8766 
   1   2.0000     -30.270735      -823.7086 
   2   2.0000     -26.131913      -711.0855 
   3   2.0000     -26.130343      -711.0428 
   4   2.0000     -26.128818      -711.0013 
   5   2.0000     -19.543931      -531.8174 
   6   2.0000     -19.543603      -531.8085 
   7   2.0000     -19.543288      -531.7999 
   8   2.0000     -19.542946      -531.7906 
   9   2.0000     -19.512849      -530.9716 
  10   2.0000     -19.483194      -530.1647 
  11   2.0000      -3.718368      -101.1820 
  12   2.0000      -2.497235       -67.9532 
  13   2.0000      -2.493646       -67.8555 
  14   2.0000      -2.490493       -67.7698 
  15   2.0000      -1.456969       -39.6462 
  16   2.0000      -1.435451       -39.0606 
  17   2.0000      -1.430707       -38.9315 
  18   2.0000      -1.428624       -38.8748 
  19   2.0000      -1.404786       -38.2262 
  20   2.0000      -1.374697       -37.4074 
  21   2.0000      -0.993648       -27.0385 
  22   2.0000      -0.966467       -26.2989 
  23   2.0000      -0.959875       -26.1195 
  24   2.0000      -0.944775       -25.7086 
  25   2.0000      -0.913511       -24.8579 
  26   2.0000      -0.902914       -24.5695 
  27   2.0000      -0.867837       -23.6151 
  28   2.0000      -0.844141       -22.9702 
  29   2.0000      -0.832064       -22.6416 
  30   2.0000      -0.817590       -22.2478 
  31   2.0000      -0.811929       -22.0937 
  32   2.0000      -0.782249       -21.2861 
  33   2.0000      -0.773326       -21.0433 
  34   2.0000      -0.742616       -20.2076 
  35   2.0000      -0.741324       -20.1724 
  36   2.0000      -0.727535       -19.7972 
  37   2.0000      -0.706491       -19.2246 
  38   2.0000      -0.681904       -18.5555 
  39   2.0000      -0.547395       -14.8954 
  40   2.0000      -0.534007       -14.5311 
  41   2.0000      -0.521869       -14.2008 
  42   0.0000      -0.383025       -10.4226 
  43   0.0000      -0.332818        -9.0564 
  44   0.0000      -0.316077        -8.6009 
  45   0.0000      -0.299002        -8.1363 
  46   0.0000      -0.295214        -8.0332 
  47   0.0000      -0.283326        -7.7097 
  48   0.0000      -0.277410        -7.5487 
  49   0.0000      -0.243258        -6.6194 
  50   0.0000      -0.225230        -6.1288 
  51   0.0000      -0.214633        -5.8405 
  52   0.0000      -0.199619        -5.4319 
  53   0.0000      -0.190925        -5.1953 
  54   0.0000      -0.177183        -4.8214 
  55   0.0000      -0.162569        -4.4237 
  56   0.0000      -0.140994        -3.8366 
  57   0.0000      -0.132187        -3.5970 
  58   0.0000      -0.127257        -3.4628 
  59   0.0000      -0.121106        -3.2955 
  60   0.0000      -0.066882        -1.8200 
  61   0.0000      -0.057030        -1.5519 
  62   0.0000      -0.044121        -1.2006 
  63   0.0000      -0.032496        -0.8843 
  64   0.0000      -0.028550        -0.7769 
  65   0.0000      -0.007458        -0.2030 
  66   0.0000      -0.000705        -0.0192 
  67   0.0000       0.010215         0.2780 
  68   0.0000       0.018738         0.5099 
  69   0.0000       0.025359         0.6901 
  70   0.0000       0.065435         1.7806 
  71   0.0000       0.074020         2.0142 
  72   0.0000       0.083515         2.2726 
  73   0.0000       0.095708         2.6043 
  74   0.0000       0.115923         3.1544 
  75   0.0000       0.121863         3.3160 
  76   0.0000       0.128311         3.4915 
  77   0.0000       0.139220         3.7884 
  78   0.0000       0.140023         3.8102 
  79   0.0000       0.162883         4.4323 
  80   0.0000       0.181244         4.9319 
  81   0.0000       0.186164         5.0658 
  82   0.0000       0.214142         5.8271 
  83   0.0000       0.225011         6.1229 
  84   0.0000       0.265029         7.2118 
  85   0.0000       0.266698         7.2572 
  86   0.0000       0.284225         7.7341 
  87   0.0000       0.301850         8.2138 
  88   0.0000       0.315259         8.5786 
  89   0.0000       0.321948         8.7606 
  90   0.0000       0.322378         8.7724 
  91   0.0000       0.328588         8.9413 
  92   0.0000       0.332738         9.0543 
  93   0.0000       0.361894         9.8476 
  94   0.0000       0.371840        10.1183 
  95   0.0000       0.377928        10.2839 
  96   0.0000       0.381700        10.3866 
  97   0.0000       0.386306        10.5119 
  98   0.0000       0.411297        11.1920 
  99   0.0000       0.412956        11.2371 
 100   0.0000       0.430454        11.7133 
 101   0.0000       0.487938        13.2775 
 102   0.0000       0.527819        14.3627 
 103   0.0000       0.540291        14.7021 
 104   0.0000       0.555194        15.1076 
 105   0.0000       0.570725        15.5302 
 106   0.0000       0.594528        16.1779 
 107   0.0000       0.600963        16.3530 
 108   0.0000       0.606440        16.5021 
 109   0.0000       0.619337        16.8530 
 110   0.0000       0.633155        17.2290 
 111   0.0000       0.644214        17.5299 
 112   0.0000       0.652936        17.7673 
 113   0.0000       0.673018        18.3138 
 114   0.0000       0.698406        19.0046 
 115   0.0000       0.719671        19.5832 
 116   0.0000       0.747907        20.3516 
 117   0.0000       0.772205        21.0128 
 118   0.0000       0.781447        21.2642 
 119   0.0000       0.816602        22.2209 
 120   0.0000       0.838386        22.8136 
 121   0.0000       0.852786        23.2055 
 122   0.0000       0.859185        23.3796 
 123   0.0000       0.891482        24.2584 
 124   0.0000       0.898678        24.4543 
 125   0.0000       0.911940        24.8151 
 126   0.0000       0.933756        25.4088 
 127   0.0000       0.950950        25.8767 
 128   0.0000       0.953627        25.9495 
 129   0.0000       0.967121        26.3167 
 130   0.0000       0.977730        26.6054 
 131   0.0000       0.988844        26.9078 
 132   0.0000       1.005100        27.3502 
 133   0.0000       1.016867        27.6704 
 134   0.0000       1.028473        27.9862 
 135   0.0000       1.039997        28.2997 
 136   0.0000       1.051040        28.6003 
 137   0.0000       1.062795        28.9201 
 138   0.0000       1.069478        29.1020 
 139   0.0000       1.097629        29.8680 
 140   0.0000       1.116181        30.3728 
 141   0.0000       1.132310        30.8117 
 142   0.0000       1.155134        31.4328 
 143   0.0000       1.184478        32.2313 
 144   0.0000       1.244112        33.8540 
 145   0.0000       1.283360        34.9220 
 146   0.0000       1.308560        35.6077 
 147   0.0000       1.311406        35.6852 
 148   0.0000       1.332251        36.2524 
 149   0.0000       1.340595        36.4794 
 150   0.0000       1.362066        37.0637 
 151   0.0000       1.381747        37.5993 
 152   0.0000       1.400298        38.1040 
 153   0.0000       1.419592        38.6291 
 154   0.0000       1.444936        39.3187 
 155   0.0000       1.453768        39.5590 
 156   0.0000       1.467103        39.9219 
 157   0.0000       1.494940        40.6794 
 158   0.0000       1.527300        41.5600 
 159   0.0000       1.554554        42.3016 
 160   0.0000       1.570727        42.7417 
 161   0.0000       1.589191        43.2441 
 162   0.0000       1.598664        43.5019 
 163   0.0000       1.602162        43.5970 
 164   0.0000       1.644130        44.7390 
 165   0.0000       1.666726        45.3539 
 166   0.0000       1.696439        46.1625 
 167   0.0000       1.729620        47.0653 
 168   0.0000       1.760329        47.9010 
 169   0.0000       1.764293        48.0089 
 170   0.0000       1.780629        48.4534 
 171   0.0000       1.800366        48.9905 
 172   0.0000       1.860929        50.6385 
 173   0.0000       1.875008        51.0216 
 174   0.0000       1.907020        51.8926 
 175   0.0000       1.917127        52.1677 
 176   0.0000       1.971562        53.6489 
 177   0.0000       1.992979        54.2317 
 178   0.0000       2.031709        55.2856 
 179   0.0000       2.114822        57.5472 
 180   0.0000       2.162035        58.8320 
 181   0.0000       2.185364        59.4668 
 182   0.0000       2.191983        59.6469 
 183   0.0000       2.217198        60.3330 
 184   0.0000       2.239994        60.9533 
 185   0.0000       2.244955        61.0883 
 186   0.0000       2.250714        61.2450 
 187   0.0000       2.281917        62.0941 
 188   0.0000       2.295308        62.4585 
 189   0.0000       2.325703        63.2856 
 190   0.0000       2.331584        63.4456 
 191   0.0000       2.353458        64.0409 
 192   0.0000       2.373350        64.5821 
 193   0.0000       2.399548        65.2950 
 194   0.0000       2.415875        65.7393 
 195   0.0000       2.422631        65.9231 
 196   0.0000       2.442158        66.4545 
 197   0.0000       2.449508        66.6545 
 198   0.0000       2.617485        71.2254 
 199   0.0000       2.652192        72.1698 
 200   0.0000       2.699615        73.4603 
 201   0.0000       2.719625        74.0048 
 202   0.0000       2.763234        75.1914 
 203   0.0000       2.789324        75.9014 
 204   0.0000       2.824750        76.8654 
 205   0.0000       2.866287        77.9956 
 206   0.0000       2.886090        78.5345 
 207   0.0000       2.910418        79.1965 
 208   0.0000       2.931846        79.7796 
 209   0.0000       2.943521        80.0973 
 210   0.0000       2.951128        80.3043 
 211   0.0000       2.958664        80.5093 
 212   0.0000       2.978413        81.0467 
 213   0.0000       2.982281        81.1520 
 214   0.0000       2.987801        81.3022 
 215   0.0000       2.999916        81.6319 
 216   0.0000       3.004558        81.7582 
 217   0.0000       3.012116        81.9639 
 218   0.0000       3.033426        82.5437 
 219   0.0000       3.055321        83.1395 
 220   0.0000       3.078796        83.7783 
 221   0.0000       3.088485        84.0419 
 222   0.0000       3.099682        84.3466 
 223   0.0000       3.158624        85.9505 
 224   0.0000       3.163770        86.0905 
 225   0.0000       3.177079        86.4527 
 226   0.0000       3.186638        86.7128 
 227   0.0000       3.196120        86.9709 
 228   0.0000       3.208945        87.3198 
 229   0.0000       3.227681        87.8297 
 230   0.0000       3.241673        88.2104 
 231   0.0000       3.257543        88.6423 
 232   0.0000       3.314744        90.1988 
 233   0.0000       3.319417        90.3259 
 234   0.0000       3.345167        91.0266 
 235   0.0000       3.354016        91.2674 
 236   0.0000       3.370659        91.7203 
 237   0.0000       3.387938        92.1905 
 238   0.0000       3.388163        92.1966 
 239   0.0000       3.418502        93.0222 
 240   0.0000       3.427203        93.2589 
 241   0.0000       3.435259        93.4782 
 242   0.0000       3.454045        93.9893 
 243   0.0000       3.463946        94.2588 
 244   0.0000       3.483147        94.7813 
 245   0.0000       3.487905        94.9107 
 246   0.0000       3.494105        95.0794 
 247   0.0000       3.511928        95.5644 
 248   0.0000       3.518960        95.7558 
 249   0.0000       3.530377        96.0664 
 250   0.0000       3.540092        96.3308 
 251   0.0000       3.546290        96.4995 
 252   0.0000       3.551821        96.6500 
 253   0.0000       3.567518        97.0771 
 254   0.0000       3.574863        97.2770 
 255   0.0000       3.584951        97.5515 
 256   0.0000       3.592420        97.7547 
 257   0.0000       3.620974        98.5317 
 258   0.0000       3.645981        99.2122 
 259   0.0000       3.662702        99.6672 
 260   0.0000       3.694978       100.5455 
 261   0.0000       3.705789       100.8397 
 262   0.0000       3.737081       101.6911 
 263   0.0000       3.738641       101.7336 
 264   0.0000       3.752592       102.1132 
 265   0.0000       3.763438       102.4084 
 266   0.0000       3.777424       102.7889 
 267   0.0000       3.798856       103.3721 
 268   0.0000       3.817273       103.8733 
 269   0.0000       3.823912       104.0539 
 270   0.0000       3.832339       104.2832 
 271   0.0000       3.850710       104.7831 
 272   0.0000       3.855268       104.9072 
 273   0.0000       3.869816       105.3031 
 274   0.0000       3.881498       105.6209 
 275   0.0000       3.889595       105.8413 
 276   0.0000       3.904800       106.2550 
 277   0.0000       3.906112       106.2907 
 278   0.0000       3.920218       106.6746 
 279   0.0000       3.927252       106.8660 
 280   0.0000       3.938436       107.1703 
 281   0.0000       3.946798       107.3978 
 282   0.0000       3.950305       107.4933 
 283   0.0000       3.976286       108.2002 
 284   0.0000       3.994553       108.6973 
 285   0.0000       4.017746       109.3284 
 286   0.0000       4.040398       109.9448 
 287   0.0000       4.080180       111.0273 
 288   0.0000       4.109052       111.8130 
 289   0.0000       4.138615       112.6175 
 290   0.0000       4.150953       112.9532 
 291   0.0000       4.163995       113.3081 
 292   0.0000       4.215845       114.7190 
 293   0.0000       4.228860       115.0731 
 294   0.0000       4.273417       116.2856 
 295   0.0000       4.280866       116.4883 
 296   0.0000       4.302004       117.0635 
 297   0.0000       4.326154       117.7206 
 298   0.0000       4.354941       118.5040 
 299   0.0000       4.425885       120.4345 
 300   0.0000       4.480950       121.9328 
 301   0.0000       4.524278       123.1119 
 302   0.0000       4.531612       123.3114 
 303   0.0000       4.543015       123.6217 
 304   0.0000       4.553259       123.9005 
 305   0.0000       4.678862       127.3183 
 306   0.0000       4.699838       127.8891 
 307   0.0000       4.722214       128.4980 
 308   0.0000       4.730072       128.7118 
 309   0.0000       4.759611       129.5156 
 310   0.0000       4.809410       130.8707 
 311   0.0000       4.831445       131.4703 
 312   0.0000       4.836121       131.5975 
 313   0.0000       4.851198       132.0078 
 314   0.0000       4.867078       132.4399 
 315   0.0000       4.884579       132.9162 
 316   0.0000       4.916736       133.7912 
 317   0.0000       4.925893       134.0404 
 318   0.0000       4.947106       134.6176 
 319   0.0000       4.987859       135.7265 
 320   0.0000       5.205278       141.6428 
 321   0.0000       5.233744       142.4174 
 322   0.0000       5.264223       143.2468 
 323   0.0000       5.272451       143.4707 
 324   0.0000       5.294647       144.0747 
 325   0.0000       5.321712       144.8112 
 326   0.0000       5.623803       153.0314 
 327   0.0000       5.694342       154.9509 
 328   0.0000       5.747065       156.3856 
 329   0.0000       5.759495       156.7238 
 330   0.0000       5.771704       157.0560 
 331   0.0000       5.784751       157.4111 
 332   0.0000       5.789994       157.5537 
 333   0.0000       5.800682       157.8446 
 334   0.0000       6.061443       164.9402 
 335   0.0000       6.078408       165.4019 
 336   0.0000       6.091099       165.7472 
 337   0.0000       6.101155       166.0209 
 338   0.0000       6.112017       166.3164 
 339   0.0000       6.124823       166.6649 
 340   0.0000       6.136351       166.9786 
 341   0.0000       6.142992       167.1593 
 342   0.0000       6.160860       167.6455 
 343   0.0000       6.165882       167.7822 
 344   0.0000       6.185693       168.3213 
 345   0.0000       6.207205       168.9066 
 346   0.0000       6.217494       169.1866 
 347   0.0000       6.227369       169.4553 
 348   0.0000       6.240696       169.8180 
 349   0.0000       6.275872       170.7752 
 350   0.0000       6.296009       171.3231 
 351   0.0000       6.307360       171.6320 
 352   0.0000       6.317711       171.9136 
 353   0.0000       6.320748       171.9963 
 354   0.0000       6.329809       172.2429 
 355   0.0000       6.335567       172.3996 
 356   0.0000       6.346728       172.7033 
 357   0.0000       6.360173       173.0691 
 358   0.0000       6.369316       173.3179 
 359   0.0000       6.382582       173.6789 
 360   0.0000       6.386338       173.7811 
 361   0.0000       6.407064       174.3451 
 362   0.0000       6.416306       174.5966 
 363   0.0000       6.434746       175.0984 
 364   0.0000       6.440303       175.2496 
 365   0.0000       6.458605       175.7476 
 366   0.0000       6.486717       176.5125 
 367   0.0000       6.497304       176.8006 
 368   0.0000       6.545423       178.1100 
 369   0.0000       6.585964       179.2132 
 370   0.0000       6.718277       182.8136 
 371   0.0000       6.746546       183.5829 
 372   0.0000       6.759405       183.9328 
 373   0.0000       6.784433       184.6138 
 374   0.0000       6.800069       185.0393 
 375   0.0000       6.813670       185.4094 
 376   0.0000       6.855695       186.5529 
 377   0.0000       6.863162       186.7561 
 378   0.0000       6.885923       187.3755 
 379   0.0000       6.909530       188.0179 
 380   0.0000       6.914775       188.1606 
 381   0.0000       6.923617       188.4012 
 382   0.0000       6.945815       189.0052 
 383   0.0000       6.962521       189.4598 
 384   0.0000       7.019522       191.0109 
 385   0.0000       7.032364       191.3604 
 386   0.0000       7.071033       192.4126 
 387   0.0000       7.143016       194.3714 
 388   0.0000       7.299757       198.6365 
 389   0.0000       7.474354       203.3875 
 390   0.0000       7.481167       203.5729 
 391   0.0000       7.495639       203.9667 
 392   0.0000       7.519099       204.6051 
 393   0.0000       7.558548       205.6785 
 394   0.0000       8.125419       221.1039 
 395   0.0000       8.131845       221.2788 
 396   0.0000       8.147297       221.6992 
 397   0.0000       8.188740       222.8269 
 398   0.0000       8.206397       223.3074 
 399   0.0000       8.219740       223.6705 
 400   0.0000       8.400658       228.5935 
 401   0.0000       8.416193       229.0163 
 402   0.0000       8.497096       231.2177 
 403   0.0000       8.517780       231.7806 
 404   0.0000       8.704654       236.8657 
 405   0.0000       8.726628       237.4636 
 406   0.0000       8.752869       238.1777 
 407   0.0000       9.211740       250.6642 
 408   0.0000       9.235423       251.3086 
 409   0.0000       9.248852       251.6741 
 410   0.0000      13.154653       357.9563 
 411   0.0000      13.392671       364.4331 
 412   0.0000      13.572179       369.3178 
 413   0.0000      13.595012       369.9391 
 414   0.0000      13.769303       374.6818 
 415   0.0000      13.876323       377.5939 

                    ********************************
                    * MULLIKEN POPULATION ANALYSIS *
                    ********************************

-----------------------
MULLIKEN ATOMIC CHARGES
-----------------------
   0 Fe:    0.407639
   1 O :   -0.214451
   2 O :   -0.181686
   3 O :   -0.207504
   4 O :   -0.215568
   5 O :   -0.165106
   6 O :   -0.186052
   7 H :    0.237906
   8 H :    0.223005
   9 H :    0.225267
  10 H :    0.219827
  11 H :    0.234201
  12 H :    0.219184
  13 H :    0.245841
  14 H :    0.214992
  15 H :    0.217715
  16 H :    0.225851
  17 H :    0.248956
  18 H :    0.249985
Sum of atomic charges:    2.0000000

--------------------------------
MULLIKEN REDUCED ORBITAL CHARGES
--------------------------------
  0 Fes       :     6.260458  s :     6.260458
      pz      :     4.187495  p :    12.477323
      px      :     4.120530
      py      :     4.169298
      dz2     :     0.399702  d :     6.827217
      dxz     :     2.009926
      dyz     :     2.068307
      dx2y2   :     0.384488
      dxy     :     1.964794
      f0      :     0.007510  f :     0.027188
      f+1     :     0.003522
      f-1     :     0.004523
      f+2     :     0.002417
      f-2     :     0.000029
      f+3     :     0.004607
      f-3     :     0.004579
      g0      :     0.000036  g :     0.000176
      g+1     :     0.000021
      g-1     :     0.000028
      g+2     :     0.000025
      g-2     :     0.000003
      g+3     :     0.000006
      g-3     :     0.000007
      g+4     :     0.000032
      g-4     :     0.000019
  1 O s       :     3.721020  s :     3.721020
      pz      :     1.659227  p :     4.472987
      px      :     1.619394
      py      :     1.194367
      dz2     :     0.001441  d :     0.019594
      dxz     :     0.005440
      dyz     :     0.005293
      dx2y2   :     0.002141
      dxy     :     0.005279
      f0      :     0.000186  f :     0.000850
      f+1     :     0.000077
      f-1     :     0.000013
      f+2     :     0.000187
      f-2     :     0.000065
      f+3     :     0.000128
      f-3     :     0.000195
  2 O s       :     3.719456  s :     3.719456
      pz      :     1.631146  p :     4.442165
      px      :     1.195318
      py      :     1.615701
      dz2     :     0.001596  d :     0.019210
      dxz     :     0.005172
      dyz     :     0.005034
      dx2y2   :     0.002063
      dxy     :     0.005345
      f0      :     0.000188  f :     0.000854
      f+1     :     0.000028
      f-1     :     0.000081
      f+2     :     0.000170
      f-2     :     0.000068
      f+3     :     0.000193
      f-3     :     0.000127
  3 O s       :     3.724926  s :     3.724926
      pz      :     1.581544  p :     4.464482
      px      :     1.215553
      py      :     1.667384
      dz2     :     0.002559  d :     0.017313
      dxz     :     0.003972
      dyz     :     0.004886
      dx2y2   :     0.000875
      dxy     :     0.005022
      f0      :     0.000143  f :     0.000783
      f+1     :     0.000148
      f-1     :     0.000121
      f+2     :     0.000071
      f-2     :     0.000051
      f+3     :     0.000042
      f-3     :     0.000207
  4 O s       :     3.725701  s :     3.725701
      pz      :     1.651482  p :     4.469466
      px      :     1.627967
      py      :     1.190017
      dz2     :     0.001508  d :     0.019563
      dxz     :     0.005266
      dyz     :     0.005388
      dx2y2   :     0.002256
      dxy     :     0.005145
      f0      :     0.000181  f :     0.000839
      f+1     :     0.000072
      f-1     :     0.000006
      f+2     :     0.000198
      f-2     :     0.000060
      f+3     :     0.000122
      f-3     :     0.000199
  5 O s       :     3.713520  s :     3.713520
      pz      :     1.630167  p :     4.431947
      px      :     1.186220
      py      :     1.615560
      dz2     :     0.001765  d :     0.018792
      dxz     :     0.005535
      dyz     :     0.004819
      dx2y2   :     0.002191
      dxy     :     0.004481
      f0      :     0.000196  f :     0.000847
      f+1     :     0.000020
      f-1     :     0.000084
      f+2     :     0.000183
      f-2     :     0.000058
      f+3     :     0.000190
      f-3     :     0.000117
  6 O s       :     3.708022  s :     3.708022
      pz      :     1.624335  p :     4.459316
      px      :     1.202013
      py      :     1.632968
      dz2     :     0.002627  d :     0.017879
      dxz     :     0.004641
      dyz     :     0.004790
      dx2y2   :     0.000825
      dxy     :     0.004997
      f0      :     0.000152  f :     0.000834
      f+1     :     0.000177
      f-1     :     0.000156
      f+2     :     0.000059
      f-2     :     0.000063
      f+3     :     0.000033
      f-3     :     0.000194
  7 H s       :     0.669499  s :     0.669499
      pz      :     0.031389  p :     0.084203
      px      :     0.029141
      py      :     0.023673
      dz2     :     0.001341  d :     0.008391
      dxz     :     0.000881
      dyz     :     0.002527
      dx2y2   :     0.001707
      dxy     :     0.001935
  8 H s       :     0.682165  s :     0.682165
      pz      :     0.031265  p :     0.086439
      px      :     0.030746
      py      :     0.024427
      dz2     :     0.001197  d :     0.008391
      dxz     :     0.000731
      dyz     :     0.002554
      dx2y2   :     0.001787
      dxy     :     0.002121
  9 H s       :     0.677489  s :     0.677489
      pz      :     0.031622  p :     0.088700
      px      :     0.025323
      py      :     0.031755
      dz2     :     0.001239  d :     0.008544
      dxz     :     0.002616
      dyz     :     0.000734
      dx2y2   :     0.001805
      dxy     :     0.002150
 10 H s       :     0.684139  s :     0.684139
      pz      :     0.032065  p :     0.087552
      px      :     0.024535
      py      :     0.030952
      dz2     :     0.001776  d :     0.008482
      dxz     :     0.002378
      dyz     :     0.001045
      dx2y2   :     0.001462
      dxy     :     0.001821
 11 H s       :     0.675877  s :     0.675877
      pz      :     0.028053  p :     0.081640
      px      :     0.024325
      py      :     0.029262
      dz2     :     0.001269  d :     0.008282
      dxz     :     0.001839
      dyz     :     0.000930
      dx2y2   :     0.001963
      dxy     :     0.002281
 12 H s       :     0.689801  s :     0.689801
      pz      :     0.028922  p :     0.082641
      px      :     0.025181
      py      :     0.028539
      dz2     :     0.001194  d :     0.008374
      dxz     :     0.002251
      dyz     :     0.000575
      dx2y2   :     0.001828
      dxy     :     0.002527
 13 H s       :     0.661584  s :     0.661584
      pz      :     0.031097  p :     0.084196
      px      :     0.028949
      py      :     0.024150
      dz2     :     0.001352  d :     0.008380
      dxz     :     0.000908
      dyz     :     0.002495
      dx2y2   :     0.001732
      dxy     :     0.001893
 14 H s       :     0.689265  s :     0.689265
      pz      :     0.030859  p :     0.087336
      px      :     0.031419
      py      :     0.025059
      dz2     :     0.001278  d :     0.008408
      dxz     :     0.000726
      dyz     :     0.002488
      dx2y2   :     0.001789
      dxy     :     0.002127
 15 H s       :     0.686904  s :     0.686904
      pz      :     0.030499  p :     0.086910
      px      :     0.025445
      py      :     0.030966
      dz2     :     0.001171  d :     0.008471
      dxz     :     0.002572
      dyz     :     0.000607
      dx2y2   :     0.001886
      dxy     :     0.002236
 16 H s       :     0.680911  s :     0.680911
      pz      :     0.030141  p :     0.084830
      px      :     0.024500
      py      :     0.030189
      dz2     :     0.001629  d :     0.008408
      dxz     :     0.002256
      dyz     :     0.001024
      dx2y2   :     0.001667
      dxy     :     0.001832
 17 H s       :     0.660378  s :     0.660378
      pz      :     0.027548  p :     0.082338
      px      :     0.025447
      py      :     0.029343
      dz2     :     0.001090  d :     0.008327
      dxz     :     0.001964
      dyz     :     0.000907
      dx2y2   :     0.002025
      dxy     :     0.002341
 18 H s       :     0.658461  s :     0.658461
      pz      :     0.027886  p :     0.083195
      px      :     0.026087
      py      :     0.029222
      dz2     :     0.001126  d :     0.008359
      dxz     :     0.002247
      dyz     :     0.000646
      dx2y2   :     0.001768
      dxy     :     0.002573


                     *******************************
                     * LOEWDIN POPULATION ANALYSIS *
                     *******************************

----------------------
LOEWDIN ATOMIC CHARGES
----------------------
   0 Fe:   -0.723770
   1 O :    0.658718
   2 O :    0.655757
   3 O :    0.652851
   4 O :    0.660120
   5 O :    0.661097
   6 O :    0.641596
   7 H :   -0.095088
   8 H :   -0.106522
   9 H :   -0.097320
  10 H :   -0.102851
  11 H :   -0.101776
  12 H :   -0.108333
  13 H :   -0.090044
  14 H :   -0.111988
  15 H :   -0.108177
  16 H :   -0.102599
  17 H :   -0.092063
  18 H :   -0.089609

-------------------------------
LOEWDIN REDUCED ORBITAL CHARGES
-------------------------------
  0 Fes       :     6.295847  s :     6.295847
      pz      :     4.359335  p :    13.030556
      px      :     4.325648
      py      :     4.345573
      dz2     :     0.626339  d :     7.319271
      dxz     :     2.030273
      dyz     :     2.084503
      dx2y2   :     0.610701
      dxy     :     1.967454
      f0      :     0.022577  f :     0.077650
      f+1     :     0.009513
      f-1     :     0.012222
      f+2     :     0.005644
      f-2     :     0.000064
      f+3     :     0.013900
      f-3     :     0.013730
      g0      :     0.000105  g :     0.000446
      g+1     :     0.000048
      g-1     :     0.000064
      g+2     :     0.000052
      g-2     :     0.000006
      g+3     :     0.000017
      g-3     :     0.000017
      g+4     :     0.000093
      g-4     :     0.000043
  1 O s       :     3.045613  s :     3.045613
      pz      :     1.515300  p :     4.204953
      px      :     1.478113
      py      :     1.211540
      dz2     :     0.004614  d :     0.085295
      dxz     :     0.017924
      dyz     :     0.018079
      dx2y2   :     0.018885
      dxy     :     0.025793
      f0      :     0.000652  f :     0.005421
      f+1     :     0.000309
      f-1     :     0.000208
      f+2     :     0.001422
      f-2     :     0.000956
      f+3     :     0.000939
      f-3     :     0.000935
  2 O s       :     3.047864  s :     3.047864
      pz      :     1.517158  p :     4.204091
      px      :     1.210469
      py      :     1.476464
      dz2     :     0.005205  d :     0.086787
      dxz     :     0.017378
      dyz     :     0.018801
      dx2y2   :     0.018850
      dxy     :     0.026553
      f0      :     0.000631  f :     0.005502
      f+1     :     0.000219
      f-1     :     0.000346
      f+2     :     0.001416
      f-2     :     0.000982
      f+3     :     0.000953
      f-3     :     0.000954
  3 O s       :     3.048031  s :     3.048031
      pz      :     1.453655  p :     4.214340
      px      :     1.226796
      py      :     1.533890
      dz2     :     0.017224  d :     0.079514
      dxz     :     0.024592
      dyz     :     0.015543
      dx2y2   :     0.006411
      dxy     :     0.015743
      f0      :     0.000764  f :     0.005264
      f+1     :     0.000878
      f-1     :     0.001078
      f+2     :     0.000607
      f-2     :     0.001028
      f+3     :     0.000130
      f-3     :     0.000780
  4 O s       :     3.045086  s :     3.045086
      pz      :     1.507504  p :     4.203874
      px      :     1.484064
      py      :     1.212305
      dz2     :     0.004467  d :     0.085515
      dxz     :     0.017555
      dyz     :     0.019111
      dx2y2   :     0.019030
      dxy     :     0.025351
      f0      :     0.000658  f :     0.005405
      f+1     :     0.000300
      f-1     :     0.000251
      f+2     :     0.001434
      f-2     :     0.000915
      f+3     :     0.000907
      f-3     :     0.000940
  5 O s       :     3.047360  s :     3.047360
      pz      :     1.516669  p :     4.203387
      px      :     1.211529
      py      :     1.475189
      dz2     :     0.004886  d :     0.082787
      dxz     :     0.018874
      dyz     :     0.015959
      dx2y2   :     0.018894
      dxy     :     0.024173
      f0      :     0.000681  f :     0.005369
      f+1     :     0.000270
      f-1     :     0.000312
      f+2     :     0.001362
      f-2     :     0.000900
      f+3     :     0.000910
      f-3     :     0.000934
  6 O s       :     3.048311  s :     3.048311
      pz      :     1.481457  p :     4.217755
      px      :     1.219597
      py      :     1.516702
      dz2     :     0.017452  d :     0.086759
      dxz     :     0.026709
      dyz     :     0.018596
      dx2y2   :     0.007092
      dxy     :     0.016911
      f0      :     0.000774  f :     0.005579
      f+1     :     0.001047
      f-1     :     0.001204
      f+2     :     0.000553
      f-2     :     0.000964
      f+3     :     0.000176
      f-3     :     0.000861
  7 H s       :     0.656934  s :     0.656934
      pz      :     0.122393  p :     0.338858
      px      :     0.103584
      py      :     0.112882
      dz2     :     0.017675  d :     0.099295
      dxz     :     0.010103
      dyz     :     0.027327
      dx2y2   :     0.019814
      dxy     :     0.024376
  8 H s       :     0.664711  s :     0.664711
      pz      :     0.121216  p :     0.342736
      px      :     0.104239
      py      :     0.117281
      dz2     :     0.015887  d :     0.099075
      dxz     :     0.008588
      dyz     :     0.028433
      dx2y2   :     0.020561
      dxy     :     0.025605
  9 H s       :     0.660184  s :     0.660184
      pz      :     0.115191  p :     0.338139
      px      :     0.118615
      py      :     0.104333
      dz2     :     0.014229  d :     0.098998
      dxz     :     0.028824
      dyz     :     0.007900
      dx2y2   :     0.021898
      dxy     :     0.026147
 10 H s       :     0.663975  s :     0.663975
      pz      :     0.129470  p :     0.339713
      px      :     0.108329
      py      :     0.101914
      dz2     :     0.020372  d :     0.099163
      dxz     :     0.026407
      dyz     :     0.011261
      dx2y2   :     0.018268
      dxy     :     0.022855
 11 H s       :     0.660655  s :     0.660655
      pz      :     0.105995  p :     0.341728
      px      :     0.108326
      py      :     0.127407
      dz2     :     0.014412  d :     0.099392
      dxz     :     0.023139
      dyz     :     0.011601
      dx2y2   :     0.024413
      dxy     :     0.025827
 12 H s       :     0.663975  s :     0.663975
      pz      :     0.103780  p :     0.344671
      px      :     0.125222
      py      :     0.115669
      dz2     :     0.013317  d :     0.099686
      dxz     :     0.027543
      dyz     :     0.007351
      dx2y2   :     0.022252
      dxy     :     0.029223
 13 H s       :     0.653658  s :     0.653658
      pz      :     0.121532  p :     0.337318
      px      :     0.104711
      py      :     0.111074
      dz2     :     0.017470  d :     0.099069
      dxz     :     0.010279
      dyz     :     0.026935
      dx2y2   :     0.020256
      dxy     :     0.024130
 14 H s       :     0.666272  s :     0.666272
      pz      :     0.121652  p :     0.346331
      px      :     0.104204
      py      :     0.120475
      dz2     :     0.015739  d :     0.099385
      dxz     :     0.008418
      dyz     :     0.028420
      dx2y2   :     0.020680
      dxy     :     0.026127
 15 H s       :     0.664130  s :     0.664130
      pz      :     0.115720  p :     0.344640
      px      :     0.124878
      py      :     0.104042
      dz2     :     0.013581  d :     0.099407
      dxz     :     0.029411
      dyz     :     0.007128
      dx2y2   :     0.021760
      dxy     :     0.027528
 16 H s       :     0.662287  s :     0.662287
      pz      :     0.128402  p :     0.341244
      px      :     0.106159
      py      :     0.106683
      dz2     :     0.019533  d :     0.099068
      dxz     :     0.025629
      dyz     :     0.011752
      dx2y2   :     0.019414
      dxy     :     0.022739
 17 H s       :     0.656611  s :     0.656611
      pz      :     0.100852  p :     0.336194
      px      :     0.109678
      py      :     0.125663
      dz2     :     0.014034  d :     0.099259
      dxz     :     0.023573
      dyz     :     0.010897
      dx2y2   :     0.024657
      dxy     :     0.026097
 18 H s       :     0.654744  s :     0.654744
      pz      :     0.101667  p :     0.335717
      px      :     0.120473
      py      :     0.113577
      dz2     :     0.014404  d :     0.099148
      dxz     :     0.026703
      dyz     :     0.007789
      dx2y2   :     0.021604
      dxy     :     0.028648


                      *****************************
                      * MAYER POPULATION ANALYSIS *
                      *****************************

  NA   - Mulliken gross atomic population
  ZA   - Total nuclear charge
  QA   - Mulliken gross atomic charge
  VA   - Mayer's total valence
  BVA  - Mayer's bonded valence
  FA   - Mayer's free valence

  ATOM       NA         ZA         QA         VA         BVA        FA
  0 Fe    25.5924    26.0000     0.4076     3.1178     3.1178     0.0000
  1 O      8.2145     8.0000    -0.2145     2.3832     2.3832     0.0000
  2 O      8.1817     8.0000    -0.1817     2.3955     2.3955     0.0000
  3 O      8.2075     8.0000    -0.2075     2.3913     2.3913     0.0000
  4 O      8.2156     8.0000    -0.2156     2.3813     2.3813     0.0000
  5 O      8.1651     8.0000    -0.1651     2.4102     2.4102     0.0000
  6 O      8.1861     8.0000    -0.1861     2.3644     2.3644     0.0000
  7 H      0.7621     1.0000     0.2379     1.0117     1.0117     0.0000
  8 H      0.7770     1.0000     0.2230     1.0241     1.0241    -0.0000
  9 H      0.7747     1.0000     0.2253     1.0223     1.0223     0.0000
 10 H      0.7802     1.0000     0.2198     1.0268     1.0268     0.0000
 11 H      0.7658     1.0000     0.2342     1.0142     1.0142    -0.0000
 12 H      0.7808     1.0000     0.2192     1.0291     1.0291     0.0000
 13 H      0.7542     1.0000     0.2458     1.0057     1.0057    -0.0000
 14 H      0.7850     1.0000     0.2150     1.0334     1.0334    -0.0000
 15 H      0.7823     1.0000     0.2177     1.0297     1.0297    -0.0000
 16 H      0.7741     1.0000     0.2259     1.0205     1.0205     0.0000
 17 H      0.7510     1.0000     0.2490     0.9989     0.9989     0.0000
 18 H      0.7500     1.0000     0.2500     0.9988     0.9988     0.0000

  Mayer bond orders larger than 0.100000
B(  0-Fe,  1-O ) :   0.4403 B(  0-Fe,  2-O ) :   0.4807 B(  0-Fe,  3-O ) :   0.4967 
B(  0-Fe,  4-O ) :   0.4289 B(  0-Fe,  5-O ) :   0.4764 B(  0-Fe,  6-O ) :   0.5161 
B(  1-O , 13-H ) :   0.9647 B(  1-O , 14-H ) :   0.9733 B(  2-O , 15-H ) :   0.9700 
B(  2-O , 16-H ) :   0.9661 B(  3-O , 17-H ) :   0.9645 B(  3-O , 18-H ) :   0.9679 
B(  4-O ,  7-H ) :   0.9645 B(  4-O ,  8-H ) :   0.9722 B(  5-O ,  9-H ) :   0.9835 
B(  5-O , 10-H ) :   0.9793 B(  6-O , 11-H ) :   0.9532 B(  6-O , 12-H ) :   0.9528 


-------
TIMINGS
-------

Total SCF time: 0 days 0 hours 11 min 52 sec 

Total time                  ....     712.892 sec
Sum of individual times     ....     712.369 sec  ( 99.9%)

Fock matrix formation       ....     391.960 sec  ( 55.0%)
  XC integration            ....       2.865 sec  (  0.7% of F)
    Basis function eval.    ....       0.986 sec  ( 34.4% of XC)
    Density eval.           ....       0.763 sec  ( 26.6% of XC)
    XC-Functional eval.     ....       0.093 sec  (  3.2% of XC)
    XC-Potential eval.      ....       0.723 sec  ( 25.2% of XC)
Diagonalization             ....       0.569 sec  (  0.1%)
Density matrix formation    ....       0.026 sec  (  0.0%)
Population analysis         ....       0.031 sec  (  0.0%)
Initial guess               ....       0.209 sec  (  0.0%)
Orbital Transformation      ....       0.000 sec  (  0.0%)
Orbital Orthonormalization  ....       0.000 sec  (  0.0%)
DIIS solution               ....       0.411 sec  (  0.1%)
Grid generation             ....       0.417 sec  (  0.1%)
SCF Stability Analysis      ....     318.745 sec  ( 44.7%)

Maximum memory used throughout the entire SCF-calculation: 286.5 MB

-------------------------   --------------------
FINAL SINGLE POINT ENERGY     -1721.918039397081
-------------------------   --------------------


                            ***************************************
                            *     ORCA property calculations      *
                            ***************************************

                                    ---------------------
                                    Active property flags
                                    ---------------------
   (+) Dipole Moment


------------------------------------------------------------------------------
                       ORCA ELECTRIC PROPERTIES CALCULATION
------------------------------------------------------------------------------

Dipole Moment Calculation                       ... on
Quadrupole Moment Calculation                   ... off
Polarizability Calculation                      ... off
GBWName                                         ... /scratch/FeH2O62+-B3LYP_923/FeH2O62+-B3LYP.gbw
Electron density file                           ... /scratch/FeH2O62+-B3LYP_923/FeH2O62+-B3LYP.scfp
The origin for moment calculation is the CENTER OF MASS  = (11.722337,  1.955572  0.367426)

-------------
DIPOLE MOMENT
-------------
                                X             Y             Z
Electronic contribution:      0.00483       0.47979      -1.07235
Nuclear contribution   :      0.01944      -1.57275       3.19046
                        -----------------------------------------
Total Dipole Moment    :      0.02427      -1.09296       2.11811
                        -----------------------------------------
Magnitude (a.u.)       :      2.38360
Magnitude (Debye)      :      6.05863



--------------------
Rotational spectrum 
--------------------
 
Rotational constants in cm-1:     0.067502     0.065853     0.064678 
Rotational constants in MHz :  2023.652591  1974.224213  1938.985718 

 Dipole components along the rotational axes: 
x,y,z [a.u.] :     0.308130     2.173880    -0.927825 
x,y,z [Debye]:     0.783204     5.525563    -2.358345 

 
--------------------------------------------------------------------------
WARNING: There was an error initializing an OpenFabrics device.

  Local host:   cnode08
  Local device: mlx5_0
--------------------------------------------------------------------------
[cnode08:321529] 15 more processes have sent help message help-mpi-btl-openib.txt / error in device init
[cnode08:321529] Set MCA parameter "orte_base_help_aggregate" to 0 to see all help / error messages

Timings for individual modules:

Sum of individual times         ...      717.145 sec (=  11.952 min)
GTO integral calculation        ...        3.578 sec (=   0.060 min)   0.5 %
SCF iterations                  ...      713.568 sec (=  11.893 min)  99.5 %
                             ****ORCA TERMINATED NORMALLY****
TOTAL RUN TIME: 0 days 0 hours 11 minutes 57 seconds 951 msec

Sender: Unischeduler System <lcz@mgt01>
Subject: Job 131995: <#!/bin/bash
#BSUB -J intel
#BSUB -o FeH2O62+-B3LYP.out
#BSUB -n 16
#BSUB -q cqueue
export LD_LIBRARY_PATH=/apps/software/openmpi-4.1.1/lib:/apps/software/orca_5_0_0:$LD_LIBRARY_PATH
export PATH=/apps/software/openmpi-4.1.1/bin:/apps/software/orca_5_0_0:$PATH
mkdir /scratch/FeH2O62+-B3LYP_923
scp $USER@mgt01:/apps/users/lcz/exe5/task2/anotherStabilityTest/ORCA/FeH2O62+-B3LYP.inp /scratch/FeH2O62+-B3LYP_923
/apps/software/orca_5_0_0/orca /scratch/FeH2O62+-B3LYP_923/FeH2O62+-B3LYP.inp >& FeH2O62+-B3LYP.out
scp /scratch/FeH2O62+-B3LYP_923/*.gbw $USER@mgt01:/apps/users/lcz/exe5/task2/anotherStabilityTest/ORCA
scp /scratch/FeH2O62+-B3LYP_923/*.xyz $USER@mgt01:/apps/users/lcz/exe5/task2/anotherStabilityTest/ORCA
scp /scratch/FeH2O62+-B3LYP_923/*.trj $USER@mgt01:/apps/users/lcz/exe5/task2/anotherStabilityTest/ORCA> Exited

Job <#!/bin/bash
#BSUB -J intel
#BSUB -o FeH2O62+-B3LYP.out
#BSUB -n 16
#BSUB -q cqueue
export LD_LIBRARY_PATH=/apps/software/openmpi-4.1.1/lib:/apps/software/orca_5_0_0:$LD_LIBRARY_PATH
export PATH=/apps/software/openmpi-4.1.1/bin:/apps/software/orca_5_0_0:$PATH
mkdir /scratch/FeH2O62+-B3LYP_923
scp $USER@mgt01:/apps/users/lcz/exe5/task2/anotherStabilityTest/ORCA/FeH2O62+-B3LYP.inp /scratch/FeH2O62+-B3LYP_923
/apps/software/orca_5_0_0/orca /scratch/FeH2O62+-B3LYP_923/FeH2O62+-B3LYP.inp >& FeH2O62+-B3LYP.out
scp /scratch/FeH2O62+-B3LYP_923/*.gbw $USER@mgt01:/apps/users/lcz/exe5/task2/anotherStabilityTest/ORCA
scp /scratch/FeH2O62+-B3LYP_923/*.xyz $USER@mgt01:/apps/users/lcz/exe5/task2/anotherStabilityTest/ORCA
scp /scratch/FeH2O62+-B3LYP_923/*.trj $USER@mgt01:/apps/users/lcz/exe5/task2/anotherStabilityTest/ORCA> was submitted from host <mgt01> by user <lcz>.
Job was executed on host(s) <16*cnode08>, in queue <cqueue>, as user <lcz>.
</apps/users/lcz> was used as the home directory.
</apps/users/lcz/exe5/task2/anotherStabilityTest/ORCA> was used as the working directory.
Started at 2022-05-14 11:50:55
Results reported at 2022-05-14 12:02:55

Your job looked like:

------------------------------------------------------------
# User input
#!/bin/bash
#BSUB -J intel
#BSUB -o FeH2O62+-B3LYP.out
#BSUB -n 16
#BSUB -q cqueue
export LD_LIBRARY_PATH=/apps/software/openmpi-4.1.1/lib:/apps/software/orca_5_0_0:$LD_LIBRARY_PATH
export PATH=/apps/software/openmpi-4.1.1/bin:/apps/software/orca_5_0_0:$PATH
mkdir /scratch/FeH2O62+-B3LYP_923
scp $USER@mgt01:/apps/users/lcz/exe5/task2/anotherStabilityTest/ORCA/FeH2O62+-B3LYP.inp /scratch/FeH2O62+-B3LYP_923
/apps/software/orca_5_0_0/orca /scratch/FeH2O62+-B3LYP_923/FeH2O62+-B3LYP.inp >& FeH2O62+-B3LYP.out
scp /scratch/FeH2O62+-B3LYP_923/*.gbw $USER@mgt01:/apps/users/lcz/exe5/task2/anotherStabilityTest/ORCA
scp /scratch/FeH2O62+-B3LYP_923/*.xyz $USER@mgt01:/apps/users/lcz/exe5/task2/anotherStabilityTest/ORCA
scp /scratch/FeH2O62+-B3LYP_923/*.trj $USER@mgt01:/apps/users/lcz/exe5/task2/anotherStabilityTest/ORCA
------------------------------------------------------------

Exited with exit code 1.

Resource usage summary:

    CPU time   :        11351.81 sec.
    Max Memory :              6783 MB
    Max Processes  :              21


The output (if any) follows:

/scratch/FeH2O62+-B3LYP_923/*.xyz: No such file or directory
/scratch/FeH2O62+-B3LYP_923/*.trj: No such file or directory
