
                                 *****************
                                 * O   R   C   A *
                                 *****************

           --- An Ab Initio, DFT and Semiempirical electronic structure package ---

                  #######################################################
                  #                        -***-                        #
                  #          Department of theory and spectroscopy      #
                  #               Directorship: Frank Neese             #
                  #        Max Planck Institute fuer Kohlenforschung    #
                  #                Kaiser Wilhelm Platz 1               #
                  #                 D-45470 Muelheim/Ruhr               #
                  #                      Germany                        #
                  #                                                     #
                  #                  All rights reserved                #
                  #                        -***-                        #
                  #######################################################


                         Program Version 4.1.1  - RELEASE  -


 With contributions from (in alphabetic order):
   Daniel Aravena         : Magnetic Properties
   Michael Atanasov       : Ab Initio Ligand Field Theory
   Alexander A. Auer      : GIAO ZORA
   Ute Becker             : Parallelization
   Giovanni Bistoni       : ED, Open-shell LED
   Martin Brehm           : Molecular dynamics
   Dmytro Bykov           : SCF Hessian
   Vijay G. Chilkuri      : MRCI spin determinant printing
   Dipayan Datta          : RHF DLPNO-CCSD density
   Achintya Kumar Dutta   : EOM-CC, STEOM-CC
   Dmitry Ganyushin       : Spin-Orbit,Spin-Spin,Magnetic field MRCI
   Miquel Garcia          : C-PCM Hessian
   Yang Guo               : DLPNO-NEVPT2, CIM, IAO-localization
   Andreas Hansen         : Spin unrestricted coupled pair/coupled cluster methods
   Benjamin Helmich-Paris : CASSCF linear response (MC-RPA)
   Lee Huntington         : MR-EOM, pCC
   Robert Izsak           : Overlap fitted RIJCOSX, COSX-SCS-MP3, EOM
   Christian Kollmar      : KDIIS, OOCD, Brueckner-CCSD(T), CCSD density
   Simone Kossmann        : Meta GGA functionals, TD-DFT gradient, OOMP2, MP2 Hessian
   Martin Krupicka        : AUTO-CI
   Lucas Lang             : DCDCAS
   Dagmar Lenk            : GEPOL surface, SMD
   Dimitrios Liakos       : Extrapolation schemes; parallel MDCI
   Dimitrios Manganas     : ROCIS; embedding schemes
   Dimitrios Pantazis     : SARC Basis sets
   Taras Petrenko         : DFT Hessian,TD-DFT gradient, ASA, ECA, R-Raman, ABS, FL, XAS/XES, NRVS
   Peter Pinski           : DLPNO-MP2, DLPNO-MP2 Gradient
   Christoph Reimann      : Effective Core Potentials
   Marius Retegan         : Local ZFS, SOC
   Christoph Riplinger    : Optimizer, TS searches, QM/MM, DLPNO-CCSD(T), (RO)-DLPNO pert. Triples
   Tobias Risthaus        : Range-separated hybrids, TD-DFT gradient, RPA, STAB
   Michael Roemelt        : Restricted open shell CIS
   Masaaki Saitow         : Open-shell DLPNO
   Barbara Sandhoefer     : DKH picture change effects
   Avijit Sen             : IP-ROCIS
   Kantharuban Sivalingam : CASSCF convergence, NEVPT2, FIC-MRCI
   Bernardo de Souza      : ESD, SOC TD-DFT
   Georgi Stoychev        : AutoAux, RI-MP2 NMR
   Willem Van den Heuvel  : Paramagnetic NMR
   Boris Wezisla          : Elementary symmetry handling
   Frank Wennmohs         : Technical directorship


 We gratefully acknowledge several colleagues who have allowed us to
 interface, adapt or use parts of their codes:
   Stefan Grimme, W. Hujo, H. Kruse,             : VdW corrections, initial TS optimization,
                  C. Bannwarth                     DFT functionals, gCP, sTDA/sTD-DF
   Ed Valeev                                     : LibInt (2-el integral package), F12 methods
   Garnet Chan, S. Sharma, J. Yang, R. Olivares  : DMRG
   Ulf Ekstrom                                   : XCFun DFT Library
   Mihaly Kallay                                 : mrcc  (arbitrary order and MRCC methods)
   Andreas Klamt, Michael Diedenhofen            : otool_cosmo (COSMO solvation model)
   Jiri Pittner, Ondrej Demel                    : Mk-CCSD
   Frank Weinhold                                : gennbo (NPA and NBO analysis)
   Christopher J. Cramer and Donald G. Truhlar   : smd solvation model
   Lars Goerigk                                  : TD-DFT with DH, B97 family of functionals
   V. Asgeirsson, H. Jonsson                     : NEB implementation
   FAccTs GmbH                                   : IRC, NEB, NEB-TS, Multilevel


 Your calculation uses the libint2 library for the computation of 2-el integrals
 For citations please refer to: http://libint.valeyev.net

 This ORCA versions uses:
   CBLAS   interface :  Fast vector & matrix operations
   LAPACKE interface :  Fast linear algebra routines


Your calculation utilizes the atom-pairwise dispersion correction
with the Becke-Johnson damping scheme (D3BJ)
Cite in your paper:
S.Grimme, S.Ehrlich, L.Goerigk, J Comput Chem, (2011), 32, 1456???1465 
S.Grimme, J.Antony, S.Ehrlich and H.Krieg, J.Chem.Phys., 132, (2010), 154104 
   

Your calculation employs the composite approach B97-3c by Grimme and coworkers.
For the correct reference, please check the publication list of the Grimme group:
http://www.thch.uni-bonn.de/tc/index.php?section=publikationen&subsection=grimme#2017
   

XCFun DFT library Copyright 2009-2010 Ulf Ekstrom and contributors.
See http://admol.org/xcfun for more information. This is free soft-
ware; see the source code for copying conditions. There is ABSOLUTELY
NO WARRANTY; not even for MERCHANTABILITY or FITNESS FOR A PARTICULAR
PURPOSE. For details see the documentation. Scientific users of this 
library should cite U. Ekstrom, L. Visscher, R. Bast, A. J. Thorvald-
sen and K. Ruud; J.Chem.Theor.Comp. 2010, DOI: 10.1021/ct100117s
XCFun Version 0.99 
----- Orbital basis set information -----
Your calculation utilizes the basis: def2-mTZVP
----- AuxJ basis set information -----
Your calculation utilizes the basis: def2-mTZVP/J
================================================================================
                                        WARNINGS
                       Please study these warnings very carefully!
================================================================================


INFO   : the flag for use of LIBINT has been found!

================================================================================
                                       INPUT FILE
================================================================================
NAME = C2H2.inp
|  1> ! B97-3c freq tightSCF noautostart miniprint nopop
|  2> %maxcore 1000
|  3> %pal nprocs  4 end
|  4> * xyz   0   1
|  5>   C   -0.00000001105265      0.00000000379637     -0.59991814149605
|  6>   H   0.00000001025557     -0.00000000549355     -1.66126806122059
|  7>   C   -0.00000000866140      0.00000000888790      0.59991814013281
|  8>   H   0.00000000945848     -0.00000000719072      1.66126806258383
|  9>  *
| 10> 
| 11>                          ****END OF INPUT****
================================================================================

                       ****************************
                       * Single Point Calculation *
                       ****************************

---------------------------------
CARTESIAN COORDINATES (ANGSTROEM)
---------------------------------
  C     -0.000000    0.000000   -0.599918
  H      0.000000   -0.000000   -1.661268
  C     -0.000000    0.000000    0.599918
  H      0.000000   -0.000000    1.661268

----------------------------
CARTESIAN COORDINATES (A.U.)
----------------------------
  NO LB      ZA    FRAG     MASS         X           Y           Z
   0 C     6.0000    0    12.011   -0.000000    0.000000   -1.133681
   1 H     1.0000    0     1.008    0.000000   -0.000000   -3.139342
   2 C     6.0000    0    12.011   -0.000000    0.000000    1.133681
   3 H     1.0000    0     1.008    0.000000   -0.000000    3.139342



           ************************************************************
           *        Program running with 4 parallel MPI-processes     *
           *              working on a common directory               *
           ************************************************************
 One Electron integrals                  ... done
 Pre-screening matrix                    ... done


           ************************************************************
           *        Program running with 4 parallel MPI-processes     *
           *              working on a common directory               *
           ************************************************************

Diagonalization of the overlap matrix:
Smallest eigenvalue                        ... 6.514e-05
Time for diagonalization                   ...    0.003 sec
Threshold for overlap eigenvalues          ... 1.000e-08
Number of eigenvalues below threshold      ... 0
Time for construction of square roots      ...    0.006 sec
Total time needed                          ...    0.009 sec

-------------------
DFT GRID GENERATION
-------------------

General Integration Accuracy     IntAcc      ...  4.340
Radial Grid Type                 RadialGrid  ... Gauss-Chebyshev
Angular Grid (max. acc.)         AngularGrid ... Lebedev-194
Angular grid pruning method      GridPruning ... 3 (G Style)
Weight generation scheme         WeightScheme... Becke
Basis function cutoff            BFCut       ...    1.0000e-11
Integration weight cutoff        WCut        ...    1.0000e-14
Grids for H and He will be reduced by one unit

# of grid points (after initial pruning)     ...   9608 (   0.0 sec)
# of grid points (after weights+screening)   ...   9426 (   0.0 sec)
nearest neighbour list constructed           ...    0.0 sec
Grid point re-assignment to atoms done       ...    0.0 sec
Grid point division into batches done        ...    0.0 sec
Reduced shell lists constructed in    0.0 sec

Total number of grid points                  ...     9426
Total number of batches                      ...      150
Average number of points per batch           ...       62
Average number of grid points per atom       ...     2357
Average number of shells per batch           ...    21.26 (88.57%)
Average number of basis functions per batch  ...    40.23 (91.43%)
Average number of large shells per batch     ...    19.44 (91.44%)
Average number of large basis fcns per batch ...    37.28 (92.67%)
Maximum spatial batch extension              ...  21.21, 21.21, 17.04 au
Average spatial batch extension              ...   1.03,  1.04,  0.47 au

Time for grid setup =    0.046 sec

--------------
SCF ITERATIONS
--------------
ITER       Energy         Delta-E        Max-DP      RMS-DP      [F,P]     Damp
               ***  Starting incremental Fock matrix formation  ***
  0    -76.9303665197   0.000000000000 0.04088983  0.00569789  0.6863134 0.7000
  1    -77.0326703098  -0.102303790119 0.02991174  0.00410340  0.4828643 0.7000
  2    -77.1040697501  -0.071399440255 0.02196163  0.00289689  0.3366311 0.7000
  3    -77.1538250141  -0.049755263971 0.01584062  0.00204137  0.2347356 0.7000
                               ***Turning on DIIS***
  4    -77.1886170088  -0.034791994685 0.01135558  0.00144326  0.1637795 0.7000
  5    -77.2129726237  -0.024355614989 0.00821258  0.00104331  0.1143303 0.7000
  6    -77.2300265253  -0.017053901564 0.01935712  0.00248211  0.0800192 0.0000
                      *** Initiating the SOSCF procedure ***
                           *** Shutting down DIIS ***
                      *** Re-Reading the Fockian *** 
                      *** Removing any level shift *** 
ITER      Energy       Delta-E        Grad      Rot      Max-DP    RMS-DP
  7    -77.26984533  -0.0398188050  0.000224  0.000224  0.000477  0.000053
               *** Restarting incremental Fock matrix formation ***
  8    -77.26984583  -0.0000004991  0.000091  0.000175  0.000111  0.000015
  9    -77.26984581   0.0000000240  0.000101  0.000092  0.000073  0.000007
 10    -77.26984591  -0.0000001084  0.000003  0.000004  0.000005  0.000001
                 **** Energy Check signals convergence ****
              ***Rediagonalizing the Fockian in SOSCF/NRSCF***

               *****************************************************
               *                     SUCCESS                       *
               *           SCF CONVERGED AFTER  11 CYCLES          *
               *****************************************************

Setting up the final grid:

General Integration Accuracy     IntAcc      ...  4.670
Radial Grid Type                 RadialGrid  ... Gauss-Chebyshev
Angular Grid (max. acc.)         AngularGrid ... Lebedev-302
Angular grid pruning method      GridPruning ... 3 (G Style)
Weight generation scheme         WeightScheme... Becke
Basis function cutoff            BFCut       ...    1.0000e-11
Integration weight cutoff        WCut        ...    1.0000e-14
Grids for H and He will be reduced by one unit

# of grid points (after initial pruning)     ...  19212 (   0.0 sec)
# of grid points (after weights+screening)   ...  18848 (   0.0 sec)
nearest neighbour list constructed           ...    0.0 sec
Grid point re-assignment to atoms done       ...    0.0 sec
Grid point division into batches done        ...    0.1 sec
Reduced shell lists constructed in    0.1 sec

Total number of grid points                  ...    18848
Total number of batches                      ...      296
Average number of points per batch           ...       63
Average number of grid points per atom       ...     4712
Average number of shells per batch           ...    19.80 (82.50%)
Average number of basis functions per batch  ...    37.59 (85.42%)
Average number of large shells per batch     ...    18.17 (91.78%)
Average number of large basis fcns per batch ...    35.11 (93.40%)
Maximum spatial batch extension              ...  18.61, 18.61, 18.88 au
Average spatial batch extension              ...   1.03,  1.02,  0.60 au

Final grid set up in    0.1 sec
Final integration                            ... done (   0.0 sec)
Change in XC energy                          ...    -0.000190873
Integrated number of electrons               ...    13.999994285
Previous integrated no of electrons          ...    14.000197380
Total Energy       :          -77.27003679 Eh           -2102.62460 eV
  Last Energy change         ...    1.1927e-10  Tolerance :   1.0000e-08
  Last MAX-Density change    ...    1.5251e-06  Tolerance :   1.0000e-07
             **** THE GBW FILE WAS UPDATED (C2H2.gbw) ****
             **** DENSITY FILE WAS UPDATED (C2H2.scfp.tmp) ****
             **** ENERGY FILE WAS UPDATED (C2H2.en.tmp) ****
----------------
ORBITAL ENERGIES
----------------

  NO   OCC          E(Eh)            E(eV) 
   0   2.0000      -9.900953      -269.4186 
   1   2.0000      -9.898781      -269.3595 
   2   2.0000      -0.687255       -18.7012 
   3   2.0000      -0.520909       -14.1747 
   4   2.0000      -0.452381       -12.3099 
   5   2.0000      -0.259711        -7.0671 
   6   2.0000      -0.259711        -7.0671 
   7   0.0000      -0.000004        -0.0001 
   8   0.0000      -0.000004        -0.0001 
   9   0.0000       0.049500         1.3470 
  10   0.0000       0.083087         2.2609 
  11   0.0000       0.122353         3.3294 
  12   0.0000       0.197843         5.3836 
  13   0.0000       0.203562         5.5392 
  14   0.0000       0.203562         5.5392 
  15   0.0000       0.305034         8.3004 
  16   0.0000       0.305034         8.3004 
  17   0.0000       0.350267         9.5313 
  18   0.0000       0.382166        10.3993 
  19   0.0000       0.521851        14.2003 
  20   0.0000       0.610481        16.6120 
  21   0.0000       0.871156        23.7054 
  22   0.0000       1.132208        30.8089 
  23   0.0000       1.335664        36.3453 
  24   0.0000       1.335664        36.3453 
  25   0.0000       1.403140        38.1814 
  26   0.0000       1.429377        38.8953 
  27   0.0000       1.429377        38.8953 
  28   0.0000       1.455322        39.6013 
  29   0.0000       1.455322        39.6013 
  30   0.0000       1.466434        39.9037 
  31   0.0000       1.466548        39.9068 
  32   0.0000       1.557513        42.3821 
  33   0.0000       1.726885        46.9909 
  34   0.0000       1.856918        50.5293 
  35   0.0000       1.857071        50.5335 
  36   0.0000       2.059931        56.0536 
  37   0.0000       2.356946        64.1358 
  38   0.0000       2.476325        67.3842 
  39   0.0000       2.476325        67.3842 
  40   0.0000       2.897987        78.8582 
  41   0.0000       3.523695        95.8846 
  42   0.0000      21.104059       574.2706 
  43   0.0000      22.004914       598.7841 
Total SCF time: 0 days 0 hours 0 min 3 sec 


-------------------------------------------------------------------------------
                          DFT DISPERSION CORRECTION                            
                                                                               
                              DFTD3 V3.1  Rev 1                                
                          USING Becke-Johnson damping                          
-------------------------------------------------------------------------------
-------------------------   ----------------
Dispersion correction           -0.003251987
-------------------------   ----------------

------------------   -----------------
SRB correction            -0.012957318
------------------   -----------------

-------------------------   --------------------
FINAL SINGLE POINT ENERGY       -77.286246091182
-------------------------   --------------------


                            ***************************************
                            *     ORCA property calculations      *
                            ***************************************

                                    ---------------------
                                    Active property flags
                                    ---------------------
   (+) Dipole Moment


------------------------------------------------------------------------------
                       ORCA ELECTRIC PROPERTIES CALCULATION
------------------------------------------------------------------------------

Dipole Moment Calculation                       ... on
Quadrupole Moment Calculation                   ... off
Polarizability Calculation                      ... off
GBWName                                         ... C2H2.gbw
Electron density file                           ... C2H2.scfp.tmp
The origin for moment calculation is the CENTER OF MASS  = (-0.000000,  0.000000 -0.000000)

-------------
DIPOLE MOMENT
-------------
                                X             Y             Z
Electronic contribution:     -0.00000       0.00000      -0.00000
Nuclear contribution   :      0.00000      -0.00000       0.00000
                        -----------------------------------------
Total Dipole Moment    :      0.00000      -0.00000      -0.00000
                        -----------------------------------------
Magnitude (a.u.)       :      0.00000
Magnitude (Debye)      :      0.00000



--------------------
Rotational spectrum 
--------------------
 
Rotational constants in cm-1:     0.000000     1.186378     1.186378 
Rotational constants in MHz :     0.000000 35566.708854 35566.708854 

 Dipole components along the rotational axes: 
x,y,z [a.u.] :     0.000000     0.000000    -0.000000 
x,y,z [Debye]:     0.000000     0.000000    -0.000000 

 


           ************************************************************
           *        Program running with 4 parallel MPI-processes     *
           *              working on a common directory               *
           ************************************************************

-------------------------------------------------------------------------------
                               ORCA SCF HESSIAN
-------------------------------------------------------------------------------

Hessian of the Kohn-Sham DFT energy:
Kohn-Sham wavefunction type                      ... RKS
Hartree-Fock exchange scaling                    ...    0.000
Number of operators                              ...    1
Number of atoms                                  ...    4
Basis set dimensions                             ...   44
Integral neglect threshold                       ... 2.5e-11
Integral primitive cutoff                        ... 2.5e-12

Setting up DFT Hessian calculations              ... 
Electron density on the grid                     ... found on disk
Electron density on the final grid               ... found on disk
Building xc-kernel on the grid                   ... done   (      0.0 sec)
Building xc-kernel on the final grid             ... done   (      0.1 sec)
                                                     done   (      0.1 sec)

Nuclear repulsion Hessian                        ... done   (      0.0 sec)

----------------------------------------------
Forming right-hand sides of CP-SCF equations     ...
----------------------------------------------
One electron integral derivatives                ... done   (      0.3 sec)
Transforming the overlap derivative matrices     ... done   (      0.0 sec)
Making the Q(x) pseudodensities                  ... done   (      0.0 sec)
Adding the E*S(x)*S(y) terms to the Hessian      ... done   (      0.0 sec)
Calculating energy weighted overlap derivatives  ... done   (      0.0 sec)
Two electron integral derivatives (RI)           ... done   (      0.6 sec)
Exchange-correlation integral derivatives        ... done   (      0.9 sec)
tr(F(y)Q(x)) contribution to the Hessian         ... done   (      0.0 sec)
Response fock operator R(S(x)) (RI)              ... done   (      0.5 sec)
XC Response fock operator R(S(x))                ... done   (      0.2 sec)
tr(F(y)S(x)) contribution to the Hessian         ... done   (      0.0 sec)
Transforming and finalizing RHSs                 ... done   (      0.0 sec)

----------------------------------------------
Solving the CP-SCF equations (RI)                ...
----------------------------------------------
     CP-SCF ITERATION   0: 
     CP-SCF ITERATION   1:      0.010361666267
     CP-SCF ITERATION   2:      0.000132764144
     CP-SCF ITERATION   3:      0.000001235598
     CP-SCF ITERATION   4:      0.000000022318
     CP-SCF ITERATION   5:      0.000000000273

                                                 ... done   (      2.5 sec)
Forming perturbed density Hessian contributions  ... done   (      0.0 sec)
Making the perturbed densities                   ... done   (      0.0 sec)
2nd integral derivative contribs (RI)            ... done   (      0.6 sec)
Exchange-correlation Hessian                     ... done   (      0.7 sec)
Dispersion correction in the Hessian             ... done   (      0.4 sec)
SRB correction in the Hessian                    ... done   (      0.1 sec)
Dipol derivatives                                ... done   (      0.3 sec)

Total SCF Hessian time: 0 days 0 hours 0 min 7 sec 

Writing the Hessian file to the disk             ... done


Maximum memory used throughout the entire calculation: 120.4 MB
Warning: T+R mode no 5 is zero 

-----------------------
VIBRATIONAL FREQUENCIES
-----------------------

Scaling factor for frequencies =  1.000000000  (already applied!)

   0:         0.00 cm**-1
   1:         0.00 cm**-1
   2:         0.00 cm**-1
   3:         0.00 cm**-1
   4:         0.00 cm**-1
   5:       507.42 cm**-1
   6:       507.42 cm**-1
   7:       741.31 cm**-1
   8:       741.31 cm**-1
   9:      2045.57 cm**-1
  10:      3372.13 cm**-1
  11:      3473.31 cm**-1


------------
NORMAL MODES
------------

These modes are the Cartesian displacements weighted by the diagonal matrix
M(i,i)=1/sqrt(m[i]) where m[i] is the mass of the displaced atom
Thus, these vectors are normalized but *not* orthogonal

                  0          1          2          3          4          5    
      0       0.000000   0.000000   0.000000   0.000000   0.000000  -0.132945
      1       0.000000   0.000000   0.000000   0.000000   0.000000  -0.089139
      2       0.000000   0.000000   0.000000   0.000000   0.000000  -0.000000
      3       0.000000   0.000000   0.000000   0.000000   0.000000   0.572064
      4       0.000000   0.000000   0.000000   0.000000   0.000000   0.383566
      5       0.000000   0.000000   0.000000   0.000000   0.000000   0.000000
      6       0.000000   0.000000   0.000000   0.000000   0.000000   0.132945
      7       0.000000   0.000000   0.000000   0.000000   0.000000   0.089139
      8       0.000000   0.000000   0.000000   0.000000   0.000000  -0.000000
      9       0.000000   0.000000   0.000000   0.000000   0.000000  -0.572064
     10       0.000000   0.000000   0.000000   0.000000   0.000000  -0.383566
     11       0.000000   0.000000   0.000000   0.000000   0.000000   0.000000
                  6          7          8          9         10         11    
      0      -0.089139  -0.030125   0.050886   0.000000  -0.000000   0.000000
      1       0.132945  -0.050886  -0.030125   0.000000   0.000000  -0.000000
      2      -0.000000  -0.000000   0.000000   0.356166   0.059135  -0.100740
      3       0.383566   0.358955  -0.606345  -0.000000   0.000000  -0.000000
      4      -0.572064   0.606345   0.358955   0.000000  -0.000000   0.000000
      5       0.000000   0.000000  -0.000000   0.610856  -0.704630   0.699894
      6       0.089139  -0.030125   0.050886   0.000000   0.000000   0.000000
      7      -0.132945  -0.050886  -0.030125  -0.000000  -0.000000  -0.000000
      8      -0.000000  -0.000000  -0.000000  -0.356166   0.059135   0.100740
      9      -0.383566   0.358955  -0.606345  -0.000000  -0.000000  -0.000000
     10       0.572064   0.606345   0.358955   0.000000   0.000000   0.000000
     11       0.000000   0.000000   0.000000  -0.610856  -0.704630  -0.699894


-----------
IR SPECTRUM
-----------

 Mode    freq (cm**-1)   T**2         TX         TY         TZ
-------------------------------------------------------------------
   5:       507.42    0.000000  (  0.000002   0.000001   0.000004)
   6:       507.42    0.000000  (  0.000002  -0.000002   0.000008)
   7:       741.31  117.919583  (  5.531868   9.344411   0.000006)
   8:       741.31  117.919583  ( -9.344411   5.531868   0.000002)
   9:      2045.57    0.000000  ( -0.000000   0.000000  -0.000000)
  10:      3372.13   59.893600  (  0.000000   0.000000  -7.739096)
  11:      3473.31    0.000000  ( -0.000000   0.000000   0.000001)

The first frequency considered to be a vibration is 5
The total number of vibrations considered is 7


--------------------------
THERMOCHEMISTRY AT 298.15K
--------------------------

Temperature         ... 298.15 K
Pressure            ... 1.00 atm
Total Mass          ... 26.04 AMU
The molecule is recognized as being linear

Throughout the following assumptions are being made:
  (1) The electronic state is orbitally nondegenerate
  (2) There are no thermally accessible electronically excited states
  (3) Hindered rotations indicated by low frequency modes are not
      treated as such but are treated as vibrations and this may
      cause some error
  (4) All equations used are the standard statistical mechanics
      equations for an ideal gas
  (5) All vibrations are strictly harmonic

freq.     507.42  E(vib)   ...       0.14 
freq.     507.42  E(vib)   ...       0.14 
freq.     741.31  E(vib)   ...       0.06 
freq.     741.31  E(vib)   ...       0.06 
freq.    2045.57  E(vib)   ...       0.00 
freq.    3372.13  E(vib)   ...       0.00 
freq.    3473.31  E(vib)   ...       0.00 

------------
INNER ENERGY
------------

The inner energy is: U= E(el) + E(ZPE) + E(vib) + E(rot) + E(trans)
    E(el)   - is the total energy from the electronic structure calculation
              = E(kin-el) + E(nuc-el) + E(el-el) + E(nuc-nuc)
    E(ZPE)  - the the zero temperature vibrational energy from the frequency calculation
    E(vib)  - the the finite temperature correction to E(ZPE) due to population
              of excited vibrational states
    E(rot)  - is the rotational thermal energy
    E(trans)- is the translational thermal energy

Summary of contributions to the inner energy U:
Electronic energy                ...    -77.28624609 Eh
Zero point energy                ...      0.02594484 Eh      16.28 kcal/mol
Thermal vibrational correction   ...      0.00063212 Eh       0.40 kcal/mol
Thermal rotational correction    ...      0.00094418 Eh       0.59 kcal/mol
Thermal translational correction ...      0.00141627 Eh       0.89 kcal/mol
-----------------------------------------------------------------------
Total thermal energy                    -77.25730867 Eh


Summary of corrections to the electronic energy:
(perhaps to be used in another calculation)
Total thermal correction                  0.00299257 Eh       1.88 kcal/mol
Non-thermal (ZPE) correction              0.02594484 Eh      16.28 kcal/mol
-----------------------------------------------------------------------
Total correction                          0.02893742 Eh      18.16 kcal/mol


--------
ENTHALPY
--------

The enthalpy is H = U + kB*T
                kB is Boltzmann's constant
Total free energy                 ...    -77.25730867 Eh 
Thermal Enthalpy correction       ...      0.00094421 Eh       0.59 kcal/mol
-----------------------------------------------------------------------
Total Enthalpy                    ...    -77.25636446 Eh


Note: Rotational entropy computed according to Herzberg 
Infrared and Raman Spectra, Chapter V,1, Van Nostrand Reinhold, 1945 
Point Group:  Dinfh, Symmetry Number:   2  
Rotational constants in cm-1:     0.000000     1.186378     1.186378 

Vibrational entropy computed according to the QRRHO of S. Grimme
Chem.Eur.J. 2012 18 9955


-------
ENTROPY
-------

The entropy contributions are T*S = T*(S(el)+S(vib)+S(rot)+S(trans))
     S(el)   - electronic entropy
     S(vib)  - vibrational entropy
     S(rot)  - rotational entropy
     S(trans)- translational entropy
The entropies will be listed as mutliplied by the temperature to get
units of energy

Electronic entropy                ...      0.00000000 Eh      0.00 kcal/mol
Vibrational entropy               ...      0.00085741 Eh      0.54 kcal/mol
Rotational entropy                ...      0.00516444 Eh      3.24 kcal/mol
Translational entropy             ...      0.01696549 Eh     10.65 kcal/mol
-----------------------------------------------------------------------
Final entropy term                ...      0.02298734 Eh     14.42 kcal/mol


-------------------
GIBBS FREE ENTHALPY
-------------------

The Gibbs free enthalpy is G = H - T*S

Total enthalpy                    ...    -77.25636446 Eh 
Total entropy correction          ...     -0.02298734 Eh    -14.42 kcal/mol
-----------------------------------------------------------------------
Final Gibbs free enthalpy         ...    -77.27935180 Eh

For completeness - the Gibbs free enthalpy minus the electronic energy
G-E(el)                           ...      0.00689429 Eh      4.33 kcal/mol


Timings for individual modules:

Sum of individual times         ...       12.592 sec (=   0.210 min)
GTO integral calculation        ...        0.355 sec (=   0.006 min)   2.8 %
SCF iterations                  ...        4.086 sec (=   0.068 min)  32.4 %
Analytical frequency calculation...        8.151 sec (=   0.136 min)  64.7 %
                             ****ORCA TERMINATED NORMALLY****
TOTAL RUN TIME: 0 days 0 hours 0 minutes 13 seconds 235 msec
