
                                 *****************
                                 * O   R   C   A *
                                 *****************

                                            #,                                       
                                            ###                                      
                                            ####                                     
                                            #####                                    
                                            ######                                   
                                           ########,                                 
                                     ,,################,,,,,                         
                               ,,#################################,,                 
                          ,,##########################################,,             
                       ,#########################################, ''#####,          
                    ,#############################################,,   '####,        
                  ,##################################################,,,,####,       
                ,###########''''           ''''###############################       
              ,#####''   ,,,,##########,,,,          '''####'''          '####       
            ,##' ,,,,###########################,,,                        '##       
           ' ,,###''''                  '''############,,,                           
         ,,##''                                '''############,,,,        ,,,,,,###''
      ,#''                                            '''#######################'''  
     '                                                          ''''####''''         
             ,#######,   #######,   ,#######,      ##                                
            ,#'     '#,  ##    ##  ,#'     '#,    #''#        ######   ,####,        
            ##       ##  ##   ,#'  ##            #'  '#       #        #'  '#        
            ##       ##  #######   ##           ,######,      #####,   #    #        
            '#,     ,#'  ##    ##  '#,     ,#' ,#      #,         ##   #,  ,#        
             '#######'   ##     ##  '#######'  #'      '#     #####' # '####'        



                  #######################################################
                  #                        -***-                        #
                  #          Department of theory and spectroscopy      #
                  #    Directorship and core code : Frank Neese         #
                  #        Max Planck Institute fuer Kohlenforschung    #
                  #                Kaiser Wilhelm Platz 1               #
                  #                 D-45470 Muelheim/Ruhr               #
                  #                      Germany                        #
                  #                                                     #
                  #                  All rights reserved                #
                  #                        -***-                        #
                  #######################################################


                         Program Version 5.0.1  -   Release   -


 With contributions from (in alphabetic order):
   Daniel Aravena         : Magnetic Suceptibility
   Michael Atanasov       : Ab Initio Ligand Field Theory (pilot matlab implementation)
   Alexander A. Auer      : GIAO ZORA, VPT2 properties, NMR spectrum
   Ute Becker             : Parallelization
   Giovanni Bistoni       : ED, misc. LED, open-shell LED, HFLD
   Martin Brehm           : Molecular dynamics
   Dmytro Bykov           : SCF Hessian
   Vijay G. Chilkuri      : MRCI spin determinant printing, contributions to CSF-ICE
   Dipayan Datta          : RHF DLPNO-CCSD density
   Achintya Kumar Dutta   : EOM-CC, STEOM-CC
   Dmitry Ganyushin       : Spin-Orbit,Spin-Spin,Magnetic field MRCI
   Miquel Garcia          : C-PCM and meta-GGA Hessian, CC/C-PCM, Gaussian charge scheme
   Yang Guo               : DLPNO-NEVPT2, F12-NEVPT2, CIM, IAO-localization
   Andreas Hansen         : Spin unrestricted coupled pair/coupled cluster methods
   Benjamin Helmich-Paris : MC-RPA, TRAH-SCF, COSX integrals
   Lee Huntington         : MR-EOM, pCC
   Robert Izsak           : Overlap fitted RIJCOSX, COSX-SCS-MP3, EOM
   Marcus Kettner         : VPT2
   Christian Kollmar      : KDIIS, OOCD, Brueckner-CCSD(T), CCSD density, CASPT2, CASPT2-K
   Simone Kossmann        : Meta GGA functionals, TD-DFT gradient, OOMP2, MP2 Hessian
   Martin Krupicka        : Initial AUTO-CI
   Lucas Lang             : DCDCAS
   Marvin Lechner         : AUTO-CI (C++ implementation), FIC-MRCC
   Dagmar Lenk            : GEPOL surface, SMD
   Dimitrios Liakos       : Extrapolation schemes; Compound Job, initial MDCI parallelization
   Dimitrios Manganas     : Further ROCIS development; embedding schemes
   Dimitrios Pantazis     : SARC Basis sets
   Anastasios Papadopoulos: AUTO-CI, single reference methods and gradients
   Taras Petrenko         : DFT Hessian,TD-DFT gradient, ASA, ECA, R-Raman, ABS, FL, XAS/XES, NRVS
   Peter Pinski           : DLPNO-MP2, DLPNO-MP2 Gradient
   Christoph Reimann      : Effective Core Potentials
   Marius Retegan         : Local ZFS, SOC
   Christoph Riplinger    : Optimizer, TS searches, QM/MM, DLPNO-CCSD(T), (RO)-DLPNO pert. Triples
   Tobias Risthaus        : Range-separated hybrids, TD-DFT gradient, RPA, STAB
   Michael Roemelt        : Original ROCIS implementation
   Masaaki Saitow         : Open-shell DLPNO-CCSD energy and density
   Barbara Sandhoefer     : DKH picture change effects
   Avijit Sen             : IP-ROCIS
   Kantharuban Sivalingam : CASSCF convergence, NEVPT2, FIC-MRCI
   Bernardo de Souza      : ESD, SOC TD-DFT
   Georgi Stoychev        : AutoAux, RI-MP2 NMR, DLPNO-MP2 response
   Willem Van den Heuvel  : Paramagnetic NMR
   Boris Wezisla          : Elementary symmetry handling
   Frank Wennmohs         : Technical directorship


 We gratefully acknowledge several colleagues who have allowed us to
 interface, adapt or use parts of their codes:
   Stefan Grimme, W. Hujo, H. Kruse, P. Pracht,  : VdW corrections, initial TS optimization,
                  C. Bannwarth, S. Ehlert          DFT functionals, gCP, sTDA/sTD-DF
   Ed Valeev, F. Pavosevic, A. Kumar             : LibInt (2-el integral package), F12 methods
   Garnet Chan, S. Sharma, J. Yang, R. Olivares  : DMRG
   Ulf Ekstrom                                   : XCFun DFT Library
   Mihaly Kallay                                 : mrcc  (arbitrary order and MRCC methods)
   Jiri Pittner, Ondrej Demel                    : Mk-CCSD
   Frank Weinhold                                : gennbo (NPA and NBO analysis)
   Christopher J. Cramer and Donald G. Truhlar   : smd solvation model
   Lars Goerigk                                  : TD-DFT with DH, B97 family of functionals
   V. Asgeirsson, H. Jonsson                     : NEB implementation
   FAccTs GmbH                                   : IRC, NEB, NEB-TS, DLPNO-Multilevel, CI-OPT
                                                   MM, QMMM, 2- and 3-layer-ONIOM, Crystal-QMMM,
                                                   LR-CPCM, SF, NACMEs, symmetry and pop. for TD-DFT,
                                                   nearIR, NL-DFT gradient (VV10), updates on ESD,
                                                   ML-optimized integration grids
   S Lehtola, MJT Oliveira, MAL Marques          : LibXC Library
   Liviu Ungur et al                             : ANISO software


 Your calculation uses the libint2 library for the computation of 2-el integrals
 For citations please refer to: http://libint.valeyev.net

 Your ORCA version has been built with support for libXC version: 5.1.0
 For citations please refer to: https://tddft.org/programs/libxc/

 This ORCA versions uses:
   CBLAS   interface :  Fast vector & matrix operations
   LAPACKE interface :  Fast linear algebra routines
   Shared memory     :  Shared parallel matrices


Your calculation utilizes the geometrical counterpoise correction gCP
Please cite in your paper:
H.Kruse, S. Grimme J.Chem.Phys., 136, (2012), 154101 
   

Your calculation utilizes the atom-pairwise dispersion correction
based on tight binding partial charges (D4)
Cite in your paper:
E.Caldeweyher, C.Bannwarth, S.Grimme, J.Chem.Phys., (2017), 147, 034112.
E.Caldeweyher, S.Ehlert, A.Hansen, H.Neugebauer, S.Grimme, J.Chem.Phys., (2018), in progress.
   

================================================================================

----- Orbital basis set information -----
Your calculation utilizes the basis: def2-mTZVPP
   Stefan Grimme, Andreas Hansen, Sebastian Ehlert, and Jan-Michael Mewes 
   J. Chem. Phys. 154, 000000 (2021). DOI: 10.1063/5.0040021

----- AuxJ basis set information -----
Your calculation utilizes the basis: def2-mTZVPP/J
   Stefan Grimme, Andreas Hansen, Sebastian Ehlert, and Jan-Michael Mewes 
   J. Chem. Phys. 154, 000000 (2021). DOI: 10.1063/5.0040021

================================================================================
                                        WARNINGS
                       Please study these warnings very carefully!
================================================================================

Using LibXC functional ID 497 : Re-regularized SCAN exchange by Furness et al
[ 1]  J. W. Furness, A. D. Kaplan, J. Ning, J. P. Perdew, and J. Sun, J. Phys. Chem. Lett. 11, 8208 (2020)
[ 2]  J. W. Furness, A. D. Kaplan, J. Ning, J. P. Perdew, and J. Sun, J. Phys. Chem. Lett. 11, 9248 (2020)
Using LibXC functional ID 498 : Re-regularized SCAN correlation by Furness et al
[ 1]  J. W. Furness, A. D. Kaplan, J. Ning, J. P. Perdew, and J. Sun, J. Phys. Chem. Lett. 11, 8208 (2020)
[ 2]  J. W. Furness, A. D. Kaplan, J. Ning, J. P. Perdew, and J. Sun, J. Phys. Chem. Lett. 11, 9248 (2020)
Using LibXC functional ID 497 : Re-regularized SCAN exchange by Furness et al
[ 1]  J. W. Furness, A. D. Kaplan, J. Ning, J. P. Perdew, and J. Sun, J. Phys. Chem. Lett. 11, 8208 (2020)
[ 2]  J. W. Furness, A. D. Kaplan, J. Ning, J. P. Perdew, and J. Sun, J. Phys. Chem. Lett. 11, 9248 (2020)
Using LibXC functional ID 498 : Re-regularized SCAN correlation by Furness et al
[ 1]  J. W. Furness, A. D. Kaplan, J. Ning, J. P. Perdew, and J. Sun, J. Phys. Chem. Lett. 11, 8208 (2020)
[ 2]  J. W. Furness, A. D. Kaplan, J. Ning, J. P. Perdew, and J. Sun, J. Phys. Chem. Lett. 11, 9248 (2020)

INFO   : the flag for use of the SHARK integral package has been found!

================================================================================
                                       INPUT FILE
================================================================================
NAME = TS3-4.inp
|  1> ! r2SCAN-3c optTS freq tightSCF noautostart miniprint nopop
|  2> %maxcore  1000
|  3> %pal nprocs   4 end
|  4> %geom Calc_Hess true end
|  5> * xyz   0   1
|  6> C -3.32752400 0.35254300 -0.71558500
|  7> C -2.65169100 -0.83506700 -0.03653200
|  8> H -3.43352200 1.18790500 -0.02483000
|  9> H -2.77847600 0.66592300 -1.60277700
| 10> H -2.61744700 -1.68312300 -0.73358100
| 11> H -3.24463200 -1.13776900 0.83468900
| 12> O -1.35450000 -0.46154000 0.35576200
| 13> H 4.28410900 0.72544700 -0.56159400
| 14> C 3.29265600 1.13509800 -0.47228300
| 15> C 2.89615100 2.43225000 -0.38194000
| 16> H 3.46045800 3.34892000 -0.37672300
| 17> C 1.10197600 1.14164000 -0.32362200
| 18> N 1.51315600 2.41530900 -0.29058000
| 19> N 2.16103600 0.33426300 -0.43804700
| 20> H 0.07096100 0.80503000 -0.22908000
| 21> C -1.08977800 -0.10564200 2.25470400
| 22> O 0.05841500 0.21381700 2.27422100
| 23> O -2.13359300 -0.30493000 2.76843400
| 24> Cl -5.01317300 -0.06117300 -1.28143400
| 25> C 0.64423400 3.57898900 -0.12064400
| 26> H 0.86520300 4.07037700 0.82751800
| 27> H 0.79221000 4.27782000 -0.94466200
| 28> H -0.39024800 3.24189200 -0.11325900
| 29> C 2.70219500 -1.98484600 1.30478700
| 30> H 2.65365000 -3.06813100 1.45161500
| 31> H 3.74642000 -1.67931500 1.42437400
| 32> H 2.10618200 -1.50766700 2.08653300
| 33> C 3.08280800 -2.14461300 -1.78527700
| 34> H 3.03461400 -3.23655000 -1.83504400
| 35> H 2.72281300 -1.75469600 -2.74052100
| 36> H 4.13546500 -1.86959100 -1.66849000
| 37> Si 2.02004200 -1.54285300 -0.37371600
| 38> O 0.46078000 -1.83446400 -0.62954300
| 39> H -0.33872000 -1.31876000 -0.17000500
| 40>  *
| 41> 
| 42>                          ****END OF INPUT****
================================================================================

                       *****************************
                       * Geometry Optimization Run *
                       *****************************

Geometry optimization settings:
Update method            Update   .... Bofill
Choice of coordinates    CoordSys .... Z-matrix Internals
Initial Hessian          InHess   .... Almoef's Model

Convergence Tolerances:
Energy Change            TolE     ....  5.0000e-06 Eh
Max. Gradient            TolMAXG  ....  3.0000e-04 Eh/bohr
RMS Gradient             TolRMSG  ....  1.0000e-04 Eh/bohr
Max. Displacement        TolMAXD  ....  4.0000e-03 bohr
RMS Displacement         TolRMSD  ....  2.0000e-03 bohr
Strict Convergence                ....  False
------------------------------------------------------------------------------
                        ORCA OPTIMIZATION COORDINATE SETUP
------------------------------------------------------------------------------

The optimization will be done in new redundant internal coordinates
Making redundant internal coordinates   ...  (new redundants) done
Following TS mode number                ...     0
Evaluating the initial hessian          ...  (Is done on the fly) done
Evaluating the coordinates              ...  done
Calculating the B-matrix                .... done
Calculating the G-matrix                .... done
Diagonalizing the G-matrix              .... done
Small eigenvalue found = 4.604e-03
Small eigenvalue found = 7.591e-03
Small eigenvalue found = 1.927e-02
Small eigenvalue found = 2.836e-02
The first mode is                       ....   73
The number of degrees of freedom        ....   96

    -----------------------------------------------------------------
                    Redundant Internal Coordinates


    -----------------------------------------------------------------
         Definition                    Initial Value    d2E/dq (diagonal element)
    -----------------------------------------------------------------
      1. B(C   1,C   0)                  1.5259         0.000000   
      2. B(H   2,C   0)                  1.0891         0.000000   
      3. B(H   3,C   0)                  1.0894         0.000000   
      4. B(H   4,C   1)                  1.0983         0.000000   
      5. B(H   5,C   1)                  1.0965         0.000000   
      6. B(O   6,C   1)                  1.4057         0.000000   
      7. B(C   8,H   7)                  1.0765         0.000000   
      8. B(C   9,C   8)                  1.3594         0.000000   
      9. B(H  10,C   9)                  1.0765         0.000000   
     10. B(N  12,C  11)                  1.3388         0.000000   
     11. B(N  12,C   9)                  1.3861         0.000000   
     12. B(N  13,C  11)                  1.3366         0.000000   
     13. B(N  13,C   8)                  1.3867         0.000000   
     14. B(H  14,C  11)                  1.0887         0.000000   
     15. B(C  15,O   6)                  1.9501         0.000000   
     16. B(O  16,C  15)                  1.1920         0.000000   
     17. B(O  17,C  15)                  1.1803         0.000000   
     18. B(Cl 18,C   0)                  1.8256         0.000000   
     19. B(C  19,N  12)                  1.4622         0.000000   
     20. B(H  20,C  19)                  1.0906         0.000000   
     21. B(H  21,C  19)                  1.0905         0.000000   
     22. B(H  22,C  19)                  1.0880         0.000000   
     23. B(H  22,H   2)                  3.6726         0.000000   
     24. B(H  24,C  23)                  1.0943         0.000000   
     25. B(H  25,C  23)                  1.0946         0.000000   
     26. B(H  26,C  23)                  1.0927         0.000000   
     27. B(H  28,C  27)                  1.0941         0.000000   
     28. B(H  29,C  27)                  1.0928         0.000000   
     29. B(H  30,C  27)                  1.0942         0.000000   
     30. B(Si 31,C  27)                  1.8666         0.000000   
     31. B(Si 31,C  23)                  1.8650         0.000000   
     32. B(Si 31,N  13)                  1.8835         0.000000   
     33. B(O  32,Si 31)                  1.6068         0.000000   
     34. B(H  33,O   6)                  1.4294         0.000000   
     35. B(H  33,O  32)                  1.0566         0.000000   
     36. A(H   2,C   0,Cl 18)          106.2922         0.000000   
     37. A(C   1,C   0,Cl 18)          111.7478         0.000000   
     38. A(C   1,C   0,H   3)          111.2903         0.000000   
     39. A(H   3,C   0,Cl 18)          106.1486         0.000000   
     40. A(C   1,C   0,H   2)          110.9668         0.000000   
     41. A(H   2,C   0,H   3)          110.1770         0.000000   
     42. A(C   0,C   1,O   6)          109.0319         0.000000   
     43. A(H   4,C   1,H   5)          107.9375         0.000000   
     44. A(C   0,C   1,H   4)          109.4115         0.000000   
     45. A(H   4,C   1,O   6)          110.7024         0.000000   
     46. A(C   0,C   1,H   5)          109.2056         0.000000   
     47. A(H   5,C   1,O   6)          110.5261         0.000000   
     48. A(C   1,O   6,H  33)          113.1894         0.000000   
     49. A(C   1,O   6,C  15)          116.4561         0.000000   
     50. A(C  15,O   6,H  33)          111.7880         0.000000   
     51. A(H   7,C   8,N  13)          122.2669         0.000000   
     52. A(H   7,C   8,C   9)          129.5894         0.000000   
     53. A(C   9,C   8,N  13)          108.1430         0.000000   
     54. A(H  10,C   9,N  12)          122.2176         0.000000   
     55. A(C   8,C   9,N  12)          106.4834         0.000000   
     56. A(C   8,C   9,H  10)          131.2988         0.000000   
     57. A(N  13,C  11,H  14)          124.8227         0.000000   
     58. A(N  12,C  11,H  14)          125.6519         0.000000   
     59. A(N  12,C  11,N  13)          109.4765         0.000000   
     60. A(C   9,N  12,C  11)          108.4475         0.000000   
     61. A(C   9,N  12,C  19)          126.2173         0.000000   
     62. A(C  11,N  12,C  19)          125.2733         0.000000   
     63. A(C  11,N  13,Si 31)          122.6672         0.000000   
     64. A(C   8,N  13,Si 31)          129.6028         0.000000   
     65. A(C   8,N  13,C  11)          107.4488         0.000000   
     66. A(O   6,C  15,O  17)          105.8410         0.000000   
     67. A(O  16,C  15,O  17)          152.8718         0.000000   
     68. A(O   6,C  15,O  16)          101.2812         0.000000   
     69. A(N  12,C  19,H  21)          109.9703         0.000000   
     70. A(N  12,C  19,H  20)          109.8300         0.000000   
     71. A(H  21,C  19,H  22)          109.4313         0.000000   
     72. A(H  20,C  19,H  22)          109.0471         0.000000   
     73. A(N  12,C  19,H  22)          108.6159         0.000000   
     74. A(H  20,C  19,H  21)          109.9205         0.000000   
     75. A(H  26,C  23,Si 31)          109.9306         0.000000   
     76. A(H  25,C  23,Si 31)          112.4038         0.000000   
     77. A(H  24,C  23,Si 31)          109.8256         0.000000   
     78. A(H  25,C  23,H  26)          108.6808         0.000000   
     79. A(H  24,C  23,H  26)          108.1866         0.000000   
     80. A(H  24,C  23,H  25)          107.6979         0.000000   
     81. A(H  30,C  27,Si 31)          112.7053         0.000000   
     82. A(H  29,C  27,Si 31)          111.0057         0.000000   
     83. A(H  28,C  27,Si 31)          109.3331         0.000000   
     84. A(H  29,C  27,H  30)          108.6952         0.000000   
     85. A(H  28,C  27,H  30)          107.3411         0.000000   
     86. A(H  28,C  27,H  29)          107.5676         0.000000   
     87. A(C  27,Si 31,O  32)          111.9386         0.000000   
     88. A(C  23,Si 31,O  32)          117.0804         0.000000   
     89. A(N  13,Si 31,O  32)          104.3637         0.000000   
     90. A(C  23,Si 31,C  27)          113.3259         0.000000   
     91. A(N  13,Si 31,C  27)          104.6459         0.000000   
     92. A(N  13,Si 31,C  23)          103.8603         0.000000   
     93. A(Si 31,O  32,H  33)          125.2036         0.000000   
     94. A(O   6,H  33,O  32)          172.0787         0.000000   
     95. D(H   5,C   1,C   0,Cl 18)    -60.0809         0.000000   
     96. D(H   4,C   1,C   0,H   2)    176.3032         0.000000   
     97. D(O   6,C   1,C   0,H   3)     60.5814         0.000000   
     98. D(O   6,C   1,C   0,Cl 18)    179.0598         0.000000   
     99. D(H   4,C   1,C   0,H   3)    -60.6201         0.000000   
    100. D(H   5,C   1,C   0,H   3)   -178.5593         0.000000   
    101. D(H   4,C   1,C   0,Cl 18)     57.8584         0.000000   
    102. D(H   5,C   1,C   0,H   2)     58.3639         0.000000   
    103. D(O   6,C   1,C   0,H   2)    -62.4953         0.000000   
    104. D(H  33,O   6,C   1,H   4)     -3.8691         0.000000   
    105. D(C  15,O   6,C   1,H   5)    -15.9491         0.000000   
    106. D(C  15,O   6,C   1,H   4)   -135.4904         0.000000   
    107. D(H  33,O   6,C   1,C   0)   -124.2800         0.000000   
    108. D(H  33,O   6,C   1,H   5)    115.6722         0.000000   
    109. D(C  15,O   6,C   1,C   0)    104.0986         0.000000   
    110. D(N  12,C   9,C   8,N  13)      0.0756         0.000000   
    111. D(N  12,C   9,C   8,H   7)    179.7912         0.000000   
    112. D(H  10,C   9,C   8,N  13)   -179.7600         0.000000   
    113. D(H  10,C   9,C   8,H   7)     -0.0444         0.000000   
    114. D(C  19,N  12,C  11,N  13)   -177.5323         0.000000   
    115. D(C   9,N  12,C  11,H  14)    177.3002         0.000000   
    116. D(C   9,N  12,C  11,N  13)     -0.2508         0.000000   
    117. D(C  19,N  12,C   9,H  10)     -2.7935         0.000000   
    118. D(C  19,N  12,C   9,C   8)    177.3526         0.000000   
    119. D(C  11,N  12,C   9,H  10)    179.9574         0.000000   
    120. D(C  19,N  12,C  11,H  14)      0.0186         0.000000   
    121. D(C  11,N  12,C   9,C   8)      0.1035         0.000000   
    122. D(C  11,N  13,C   8,H   7)   -179.9680         0.000000   
    123. D(C  11,N  13,C   8,C   9)     -0.2273         0.000000   
    124. D(Si 31,N  13,C   8,H   7)      6.1057         0.000000   
    125. D(Si 31,N  13,C   8,C   9)   -174.1535         0.000000   
    126. D(Si 31,N  13,C  11,H  14)     -2.8384         0.000000   
    127. D(Si 31,N  13,C  11,N  12)    174.7374         0.000000   
    128. D(C   8,N  13,C  11,H  14)   -177.2810         0.000000   
    129. D(C   8,N  13,C  11,N  12)      0.2948         0.000000   
    130. D(O  17,C  15,O   6,H  33)   -130.9935         0.000000   
    131. D(O  17,C  15,O   6,C   1)      1.2734         0.000000   
    132. D(O  16,C  15,O   6,H  33)     49.5818         0.000000   
    133. D(O  16,C  15,O   6,C   1)   -178.1513         0.000000   
    134. D(H  22,C  19,N  12,C  11)     -4.8451         0.000000   
    135. D(H  22,C  19,N  12,C   9)    178.3517         0.000000   
    136. D(H  21,C  19,N  12,C  11)   -124.5747         0.000000   
    137. D(H  21,C  19,N  12,C   9)     58.6221         0.000000   
    138. D(H  20,C  19,N  12,C  11)    114.3339         0.000000   
    139. D(H  20,C  19,N  12,C   9)    -62.4693         0.000000   
    140. D(N  13,Si 31,C  27,H  29)    -60.0121         0.000000   
    141. D(N  13,Si 31,C  27,H  28)   -178.5249         0.000000   
    142. D(O  32,Si 31,C  23,H  26)    -54.0570         0.000000   
    143. D(O  32,Si 31,C  23,H  24)     64.8666         0.000000   
    144. D(C  27,Si 31,C  23,H  26)    173.2995         0.000000   
    145. D(C  27,Si 31,C  23,H  25)     52.1014         0.000000   
    146. D(C  27,Si 31,C  23,H  24)    -67.7770         0.000000   
    147. D(N  13,Si 31,C  23,H  26)     60.3449         0.000000   
    148. D(N  13,Si 31,C  23,H  25)    -60.8532         0.000000   
    149. D(N  13,Si 31,C  23,H  24)    179.2684         0.000000   
    150. D(O  32,Si 31,N  13,C  11)     17.0777         0.000000   
    151. D(O  32,Si 31,N  13,C   8)   -169.8091         0.000000   
    152. D(O  32,Si 31,C  23,H  25)   -175.2551         0.000000   
    153. D(C  27,Si 31,N  13,C  11)    134.8231         0.000000   
    154. D(C  27,Si 31,N  13,C   8)    -52.0637         0.000000   
    155. D(C  23,Si 31,N  13,C  11)   -106.0980         0.000000   
    156. D(N  13,Si 31,C  27,H  30)     62.1867         0.000000   
    157. D(C  23,Si 31,N  13,C   8)     67.0152         0.000000   
    158. D(O  32,Si 31,C  27,H  30)    174.6248         0.000000   
    159. D(O  32,Si 31,C  27,H  29)     52.4260         0.000000   
    160. D(O  32,Si 31,C  27,H  28)    -66.0868         0.000000   
    161. D(C  23,Si 31,C  27,H  30)    -50.2912         0.000000   
    162. D(C  23,Si 31,C  27,H  29)   -172.4900         0.000000   
    163. D(C  23,Si 31,C  27,H  28)     68.9972         0.000000   
    164. D(H  33,O  32,Si 31,C  27)   -157.7950         0.000000   
    165. D(H  33,O  32,Si 31,C  23)     68.9402         0.000000   
    166. D(H  33,O  32,Si 31,N  13)    -45.1809         0.000000   
    167. D(O   6,H  33,O  32,Si 31)     64.3435         0.000000   
    168. D(O  32,H  33,O   6,C  15)   -109.2840         0.000000   
    169. D(O  32,H  33,O   6,C   1)    116.8326         0.000000   
    -----------------------------------------------------------------

Number of atoms                         .... 34
Number of degrees of freedom            .... 169

         *************************************************************
         *                GEOMETRY OPTIMIZATION CYCLE   1            *
         *************************************************************
---------------------------------
CARTESIAN COORDINATES (ANGSTROEM)
---------------------------------
  C     -3.327524    0.352543   -0.715585
  C     -2.651691   -0.835067   -0.036532
  H     -3.433522    1.187905   -0.024830
  H     -2.778476    0.665923   -1.602777
  H     -2.617447   -1.683123   -0.733581
  H     -3.244632   -1.137769    0.834689
  O     -1.354500   -0.461540    0.355762
  H      4.284109    0.725447   -0.561594
  C      3.292656    1.135098   -0.472283
  C      2.896151    2.432250   -0.381940
  H      3.460458    3.348920   -0.376723
  C      1.101976    1.141640   -0.323622
  N      1.513156    2.415309   -0.290580
  N      2.161036    0.334263   -0.438047
  H      0.070961    0.805030   -0.229080
  C     -1.089778   -0.105642    2.254704
  O      0.058415    0.213817    2.274221
  O     -2.133593   -0.304930    2.768434
  Cl    -5.013173   -0.061173   -1.281434
  C      0.644234    3.578989   -0.120644
  H      0.865203    4.070377    0.827518
  H      0.792210    4.277820   -0.944662
  H     -0.390248    3.241892   -0.113259
  C      2.702195   -1.984846    1.304787
  H      2.653650   -3.068131    1.451615
  H      3.746420   -1.679315    1.424374
  H      2.106182   -1.507667    2.086533
  C      3.082808   -2.144613   -1.785277
  H      3.034614   -3.236550   -1.835044
  H      2.722813   -1.754696   -2.740521
  H      4.135465   -1.869591   -1.668490
  Si     2.020042   -1.542853   -0.373716
  O      0.460780   -1.834464   -0.629543
  H     -0.338720   -1.318760   -0.170005

----------------------------
CARTESIAN COORDINATES (A.U.)
----------------------------
  NO LB      ZA    FRAG     MASS         X           Y           Z
   0 C     6.0000    0    12.011   -6.288109    0.666210   -1.352260
   1 C     6.0000    0    12.011   -5.010970   -1.578048   -0.069035
   2 H     1.0000    0     1.008   -6.488416    2.244815   -0.046922
   3 H     1.0000    0     1.008   -5.250559    1.258412   -3.028810
   4 H     1.0000    0     1.008   -4.946258   -3.180642   -1.386267
   5 H     1.0000    0     1.008   -6.131466   -2.150072    1.577334
   6 O     8.0000    0    15.999   -2.559634   -0.872184    0.672293
   7 H     1.0000    0     1.008    8.095793    1.370896   -1.061259
   8 C     6.0000    0    12.011    6.222218    2.145024   -0.892486
   9 C     6.0000    0    12.011    5.472932    4.596286   -0.721762
  10 H     1.0000    0     1.008    6.539318    6.328542   -0.711903
  11 C     6.0000    0    12.011    2.082433    2.157387   -0.611557
  12 N     7.0000    0    14.007    2.859450    4.564273   -0.549117
  13 N     7.0000    0    14.007    4.083766    0.631666   -0.827789
  14 H     1.0000    0     1.008    0.134097    1.521286   -0.432898
  15 C     6.0000    0    12.011   -2.059382   -0.199634    4.260773
  16 O     8.0000    0    15.999    0.110388    0.404056    4.297655
  17 O     8.0000    0    15.999   -4.031906   -0.576234    5.231582
  18 Cl   17.0000    0    35.453   -9.473524   -0.115600   -2.421559
  19 C     6.0000    0    12.011    1.217426    6.763309   -0.227984
  20 H     1.0000    0     1.008    1.634997    7.691898    1.563782
  21 H     1.0000    0     1.008    1.497060    8.083908   -1.785152
  22 H     1.0000    0     1.008   -0.737462    6.126288   -0.214028
  23 C     6.0000    0    12.011    5.106409   -3.750815    2.465690
  24 H     1.0000    0     1.008    5.014672   -5.797927    2.743155
  25 H     1.0000    0     1.008    7.079708   -3.173445    2.691677
  26 H     1.0000    0     1.008    3.980107   -2.849078    3.942976
  27 C     6.0000    0    12.011    5.825663   -4.052731   -3.373685
  28 H     1.0000    0     1.008    5.734589   -6.116193   -3.467731
  29 H     1.0000    0     1.008    5.145371   -3.315895   -5.178834
  30 H     1.0000    0     1.008    7.814896   -3.533015   -3.152989
  31 Si   14.0000    0    28.086    3.817326   -2.915570   -0.706221
  32 O     8.0000    0    15.999    0.870748   -3.466635   -1.189664
  33 H     1.0000    0     1.008   -0.640088   -2.492095   -0.321263



           ************************************************************
           *        Program running with 4 parallel MPI-processes     *
           *              working on a common directory               *
           ************************************************************
------------------------------------------------------------------------------
                   ___                                                        
                  /   \      - P O W E R E D   B Y -                         
                 /     \                                                     
                 |  |  |   _    _      __       _____    __    __             
                 |  |  |  | |  | |    /  \     |  _  \  |  |  /  |          
                  \  \/   | |  | |   /    \    | | | |  |  | /  /          
                 / \  \   | |__| |  /  /\  \   | |_| |  |  |/  /          
                |  |  |   |  __  | /  /__\  \  |    /   |      \           
                |  |  |   | |  | | |   __   |  |    \   |  |\   \          
                \     /   | |  | | |  |  |  |  | |\  \  |  | \   \       
                 \___/    |_|  |_| |__|  |__|  |_| \__\ |__|  \__/        
                                                                              
                      - O R C A' S   B I G   F R I E N D -                    
                                      &                                       
                       - I N T E G R A L  F E E D E R -                       
                                                                              
 v1 FN, 2020, v2 2021                                                         
------------------------------------------------------------------------------


Reading SHARK input file TS3-4.SHARKINP.tmp ... ok
----------------------
SHARK INTEGRAL PACKAGE
----------------------

Number of atoms                             ...     34
Number of basis functions                   ...    454
Number of shells                            ...    214
Maximum angular momentum                    ...      2
Integral batch strategy                     ... SHARK/LIBINT Hybrid
RI-J (if used) integral strategy            ... SPLIT-RIJ (Revised 2003 algorithm where possible)
Printlevel                                  ...      1
Contraction scheme used                     ... SEGMENTED contraction
Coulomb Range Separation                    ... NOT USED
Exchange Range Separation                   ... NOT USED
Finite Nucleus Model                        ... NOT USED
Auxiliary Coulomb fitting basis             ... AVAILABLE
   # of basis functions in Aux-J            ...    721
   # of shells in Aux-J                     ...    297
   Maximum angular momentum in Aux-J        ...      3
Auxiliary J/K fitting basis                 ... NOT available
Auxiliary Correlation fitting basis         ... NOT available
Auxiliary 'external' fitting basis          ... NOT available
Integral threshold                          ...     2.500000e-11
Primitive cut-off                           ...     2.500000e-12
Primitive pair pre-selection threshold      ...     2.500000e-12

Calculating pre-screening integrals         ... done (  0.1 sec) Dimension = 214
Organizing shell pair data                  ... done (  0.1 sec)
Shell pair information
Total number of shell pairs                 ...     23005
Shell pairs after pre-screening             ...     17049
Total number of primitive shell pairs       ...     85127
Primitive shell pairs kept                  ...     39575
          la=0 lb=0:   5091 shell pairs
          la=1 lb=0:   6188 shell pairs
          la=1 lb=1:   1936 shell pairs
          la=2 lb=0:   2218 shell pairs
          la=2 lb=1:   1358 shell pairs
          la=2 lb=2:    258 shell pairs

Calculating one electron integrals          ... done (  0.0 sec)
Calculating RI/J V-Matrix + Cholesky decomp.... done (  0.0 sec)
Calculating Nuclear repulsion               ... done (  0.0 sec) ENN=   1532.255563552232 Eh

SHARK setup successfully completed in   0.3 seconds

Maximum memory used throughout the entire GTOINT-calculation: 24.3 MB


           ************************************************************
           *        Program running with 4 parallel MPI-processes     *
           *              working on a common directory               *
           ************************************************************

Diagonalization of the overlap matrix:
Smallest eigenvalue                        ... 1.164e-04
Time for diagonalization                   ...    0.020 sec
Threshold for overlap eigenvalues          ... 1.000e-08
Number of eigenvalues below threshold      ... 0
Time for construction of square roots      ...    0.020 sec
Total time needed                          ...    0.041 sec

Time for model grid setup =    0.242 sec

Loading Hartree-Fock densities                     ... done
Calculating cut-offs                               ... done
Initializing the effective Hamiltonian             ... done
Setting up the integral package (SHARK)            ... done
Starting the Coulomb interaction                   ... done (   0.3 sec)
Reading the grid                                   ... done
Mapping shells                                     ... done
Starting the XC term evaluation                    ... done (   0.2 sec)
  promolecular density results
     # of electrons  =    147.993354808
     EX              =   -144.375174045
     EC              =     -5.091376482
     EX+EC           =   -149.466550527
Transforming the Hamiltonian                       ... done (   0.0 sec)
Diagonalizing the Hamiltonian                      ... done (   0.0 sec)
Back transforming the eigenvectors                 ... done (   0.0 sec)
Now organizing SCF variables                       ... done
-------------------
DFT GRID GENERATION
-------------------

General Integration Accuracy     IntAcc      ... 4.388
Radial Grid Type                 RadialGrid  ... OptM3 with GC (2021)
Angular Grid (max. ang.)         AngularGrid ... 4 (Lebedev-302)
Angular grid pruning method      GridPruning ... 4 (adaptive)
Weight generation scheme         WeightScheme... Becke
Basis function cutoff            BFCut       ... 1.0000e-11
Integration weight cutoff        WCut        ... 1.0000e-14
Angular grids for H and He will be reduced by one unit
Partially contracted basis set               ... off
Rotationally invariant grid construction     ... off

Total number of grid points                  ...   160023
Total number of batches                      ...     2518
Average number of points per batch           ...       63
Average number of grid points per atom       ...     4707
Time for grid setup =    1.343 sec

--------------
SCF ITERATIONS
--------------
ITER       Energy         Delta-E        Max-DP      RMS-DP      [F,P]     Damp
               ***  Starting incremental Fock matrix formation  ***
  0  -1512.6851639351   0.000000000000 0.06411757  0.00116023  0.3368770 0.7000
  1  -1512.9545795304  -0.269415595235 0.04244155  0.00079845  0.1230945 0.7000
                               ***Turning on DIIS***
  2  -1513.0452905704  -0.090711039998 0.06058764  0.00118457  0.0389753 0.0000
  3  -1513.1970770210  -0.151786450609 0.03144776  0.00058097  0.0675461 0.0000
  4  -1513.2308245324  -0.033747511453 0.00967720  0.00018748  0.0157350 0.0000
  5  -1513.2333879856  -0.002563453197 0.00375798  0.00006965  0.0046227 0.0000
                      *** Initiating the SOSCF procedure ***
                           *** Shutting down DIIS ***
                      *** Re-Reading the Fockian *** 
                      *** Removing any level shift *** 
ITER      Energy       Delta-E        Grad      Rot      Max-DP    RMS-DP
  6  -1513.23351245  -0.0001244598  0.000369  0.000369  0.001361  0.000025
               *** Restarting incremental Fock matrix formation ***
  7  -1513.23352669  -0.0000142406  0.000208  0.000646  0.000778  0.000016
  8  -1513.23352325   0.0000034346  0.000662  0.000651  0.000454  0.000007
  9  -1513.23352901  -0.0000057592  0.000160  0.000265  0.000217  0.000006
 10  -1513.23352832   0.0000006953  0.000168  0.000233  0.000181  0.000003
 11  -1513.23352940  -0.0000010891  0.000026  0.000106  0.000063  0.000002
 12  -1513.23352934   0.0000000642  0.000052  0.000075  0.000040  0.000001
 13  -1513.23352944  -0.0000001004  0.000008  0.000046  0.000026  0.000001
 14  -1513.23352943   0.0000000114  0.000018  0.000035  0.000016  0.000000
 15  -1513.23352944  -0.0000000158  0.000003  0.000010  0.000007  0.000000
 16  -1513.23352945  -0.0000000043  0.000005  0.000007  0.000004  0.000000
                  ***Gradient check signals convergence***
              ***Rediagonalizing the Fockian in SOSCF/NRSCF***

               *****************************************************
               *                     SUCCESS                       *
               *           SCF CONVERGED AFTER  17 CYCLES          *
               *****************************************************

Total Energy       :        -1513.23352945 Eh          -41177.17774 eV
  Last Energy change         ...   -2.2073e-09  Tolerance :   1.0000e-08
  Last MAX-Density change    ...    3.3736e-06  Tolerance :   1.0000e-07
             **** THE GBW FILE WAS UPDATED (TS3-4.gbw) ****
             **** DENSITY TS3-4.scfp WAS UPDATED ****
             **** ENERGY FILE WAS UPDATED (TS3-4.en.tmp) ****
             **** THE GBW FILE WAS UPDATED (TS3-4.gbw) ****
             **** DENSITY TS3-4.scfp WAS UPDATED ****
----------------
ORBITAL ENERGIES
----------------

  NO   OCC          E(Eh)            E(eV) 
   0   2.0000    -101.179682     -2753.2391 
   1   2.0000     -65.876603     -1792.5935 
   2   2.0000     -18.941429      -515.4225 
   3   2.0000     -18.940336      -515.3927 
   4   2.0000     -18.916164      -514.7350 
   5   2.0000     -18.901816      -514.3446 
   6   2.0000     -14.285357      -388.7243 
   7   2.0000     -14.245208      -387.6318 
   8   2.0000     -10.153189      -276.2823 
   9   2.0000     -10.143754      -276.0256 
  10   2.0000     -10.122116      -275.4368 
  11   2.0000     -10.117957      -275.3236 
  12   2.0000     -10.115991      -275.2701 
  13   2.0000     -10.067888      -273.9612 
  14   2.0000     -10.048568      -273.4354 
  15   2.0000     -10.029039      -272.9040 
  16   2.0000     -10.019894      -272.6552 
  17   2.0000      -9.335155      -254.0225 
  18   2.0000      -7.081703      -192.7029 
  19   2.0000      -7.071106      -192.4146 
  20   2.0000      -7.071088      -192.4141 
  21   2.0000      -5.233156      -142.4014 
  22   2.0000      -3.579621       -97.4064 
  23   2.0000      -3.573517       -97.2404 
  24   2.0000      -3.572552       -97.2141 
  25   2.0000      -1.054110       -28.6838 
  26   2.0000      -1.041379       -28.3374 
  27   2.0000      -0.985042       -26.8044 
  28   2.0000      -0.935123       -25.4460 
  29   2.0000      -0.923805       -25.1380 
  30   2.0000      -0.902002       -24.5447 
  31   2.0000      -0.786033       -21.3890 
  32   2.0000      -0.784230       -21.3400 
  33   2.0000      -0.743310       -20.2265 
  34   2.0000      -0.687714       -18.7137 
  35   2.0000      -0.663628       -18.0582 
  36   2.0000      -0.652626       -17.7589 
  37   2.0000      -0.637669       -17.3519 
  38   2.0000      -0.608501       -16.5581 
  39   2.0000      -0.570611       -15.5271 
  40   2.0000      -0.550197       -14.9716 
  41   2.0000      -0.496434       -13.5087 
  42   2.0000      -0.496162       -13.5012 
  43   2.0000      -0.474015       -12.8986 
  44   2.0000      -0.469404       -12.7731 
  45   2.0000      -0.463580       -12.6146 
  46   2.0000      -0.449538       -12.2326 
  47   2.0000      -0.445483       -12.1222 
  48   2.0000      -0.436923       -11.8893 
  49   2.0000      -0.430601       -11.7172 
  50   2.0000      -0.416233       -11.3263 
  51   2.0000      -0.411138       -11.1876 
  52   2.0000      -0.408893       -11.1265 
  53   2.0000      -0.401539       -10.9264 
  54   2.0000      -0.396008       -10.7759 
  55   2.0000      -0.387618       -10.5476 
  56   2.0000      -0.379563       -10.3284 
  57   2.0000      -0.376717       -10.2510 
  58   2.0000      -0.370620       -10.0851 
  59   2.0000      -0.367553       -10.0016 
  60   2.0000      -0.350147        -9.5280 
  61   2.0000      -0.333723        -9.0811 
  62   2.0000      -0.328939        -8.9509 
  63   2.0000      -0.317465        -8.6387 
  64   2.0000      -0.306538        -8.3413 
  65   2.0000      -0.288162        -7.8413 
  66   2.0000      -0.275228        -7.4893 
  67   2.0000      -0.264675        -7.2022 
  68   2.0000      -0.260982        -7.1017 
  69   2.0000      -0.254644        -6.9292 
  70   2.0000      -0.249283        -6.7833 
  71   2.0000      -0.245227        -6.6730 
  72   2.0000      -0.210909        -5.7391 
  73   2.0000      -0.206434        -5.6174 
  74   0.0000      -0.062380        -1.6974 
  75   0.0000      -0.046334        -1.2608 
  76   0.0000       0.011320         0.3080 
  77   0.0000       0.030799         0.8381 
  78   0.0000       0.039953         1.0872 
  79   0.0000       0.048232         1.3125 
  80   0.0000       0.050355         1.3702 
  81   0.0000       0.057752         1.5715 
  82   0.0000       0.060465         1.6453 
  83   0.0000       0.066916         1.8209 
  84   0.0000       0.078382         2.1329 
  85   0.0000       0.083334         2.2676 
  86   0.0000       0.090284         2.4567 
  87   0.0000       0.093834         2.5534 
  88   0.0000       0.096305         2.6206 
  89   0.0000       0.116963         3.1827 
  90   0.0000       0.118421         3.2224 
  91   0.0000       0.122758         3.3404 
  92   0.0000       0.127836         3.4786 
  93   0.0000       0.133536         3.6337 
  94   0.0000       0.139525         3.7967 
  95   0.0000       0.144726         3.9382 
  96   0.0000       0.149304         4.0628 
  97   0.0000       0.152899         4.1606 
  98   0.0000       0.157143         4.2761 
  99   0.0000       0.163024         4.4361 
 100   0.0000       0.167886         4.5684 
 101   0.0000       0.176177         4.7940 
 102   0.0000       0.178273         4.8510 
 103   0.0000       0.186514         5.0753 
 104   0.0000       0.188127         5.1192 
 105   0.0000       0.189714         5.1624 
 106   0.0000       0.193911         5.2766 
 107   0.0000       0.206530         5.6200 
 108   0.0000       0.209467         5.6999 
 109   0.0000       0.212086         5.7712 
 110   0.0000       0.216445         5.8898 
 111   0.0000       0.224139         6.0991 
 112   0.0000       0.226889         6.1740 
 113   0.0000       0.231364         6.2957 
 114   0.0000       0.233471         6.3531 
 115   0.0000       0.241470         6.5707 
 116   0.0000       0.247816         6.7434 
 117   0.0000       0.252030         6.8581 
 118   0.0000       0.256056         6.9676 
 119   0.0000       0.265546         7.2259 
 120   0.0000       0.272153         7.4057 
 121   0.0000       0.273972         7.4552 
 122   0.0000       0.285955         7.7812 
 123   0.0000       0.290374         7.9015 
 124   0.0000       0.293844         7.9959 
 125   0.0000       0.299912         8.1610 
 126   0.0000       0.312637         8.5073 
 127   0.0000       0.319161         8.6848 
 128   0.0000       0.322795         8.7837 
 129   0.0000       0.329744         8.9728 
 130   0.0000       0.334421         9.1001 
 131   0.0000       0.339897         9.2491 
 132   0.0000       0.354261         9.6399 
 133   0.0000       0.354401         9.6437 
 134   0.0000       0.364978         9.9315 
 135   0.0000       0.370012        10.0685 
 136   0.0000       0.373897        10.1743 
 137   0.0000       0.387166        10.5353 
 138   0.0000       0.392849        10.6900 
 139   0.0000       0.399025        10.8580 
 140   0.0000       0.402850        10.9621 
 141   0.0000       0.412218        11.2170 
 142   0.0000       0.420414        11.4401 
 143   0.0000       0.423275        11.5179 
 144   0.0000       0.439884        11.9698 
 145   0.0000       0.442094        12.0300 
 146   0.0000       0.447499        12.1771 
 147   0.0000       0.451036        12.2733 
 148   0.0000       0.460021        12.5178 
 149   0.0000       0.464222        12.6321 
 150   0.0000       0.472839        12.8666 
 151   0.0000       0.478511        13.0209 
 152   0.0000       0.488047        13.2804 
 153   0.0000       0.489988        13.3333 
 154   0.0000       0.496028        13.4976 
 155   0.0000       0.499110        13.5815 
 156   0.0000       0.513245        13.9661 
 157   0.0000       0.520486        14.1631 
 158   0.0000       0.526164        14.3176 
 159   0.0000       0.541867        14.7450 
 160   0.0000       0.547326        14.8935 
 161   0.0000       0.555473        15.1152 
 162   0.0000       0.564435        15.3591 
 163   0.0000       0.573889        15.6163 
 164   0.0000       0.575915        15.6714 
 165   0.0000       0.589543        16.0423 
 166   0.0000       0.592831        16.1318 
 167   0.0000       0.598840        16.2953 
 168   0.0000       0.604006        16.4358 
 169   0.0000       0.615192        16.7402 
 170   0.0000       0.627631        17.0787 
 171   0.0000       0.636529        17.3208 
 172   0.0000       0.640626        17.4323 
 173   0.0000       0.648212        17.6387 
 174   0.0000       0.659067        17.9341 
 175   0.0000       0.668002        18.1773 
 176   0.0000       0.676348        18.4044 
 177   0.0000       0.680981        18.5304 
 178   0.0000       0.689772        18.7697 
 179   0.0000       0.705153        19.1882 
 180   0.0000       0.706753        19.2317 
 181   0.0000       0.712370        19.3846 
 182   0.0000       0.728752        19.8303 
 183   0.0000       0.731258        19.8985 
 184   0.0000       0.741010        20.1639 
 185   0.0000       0.751808        20.4577 
 186   0.0000       0.762152        20.7392 
 187   0.0000       0.766323        20.8527 
 188   0.0000       0.781741        21.2722 
 189   0.0000       0.796903        21.6848 
 190   0.0000       0.803983        21.8775 
 191   0.0000       0.809107        22.0169 
 192   0.0000       0.812924        22.1208 
 193   0.0000       0.842244        22.9186 
 194   0.0000       0.856281        23.3006 
 195   0.0000       0.861046        23.4302 
 196   0.0000       0.865991        23.5648 
 197   0.0000       0.873547        23.7704 
 198   0.0000       0.876657        23.8550 
 199   0.0000       0.902790        24.5662 
 200   0.0000       0.914342        24.8805 
 201   0.0000       0.919914        25.0321 
 202   0.0000       0.932177        25.3658 
 203   0.0000       0.959281        26.1034 
 204   0.0000       0.968963        26.3668 
 205   0.0000       0.992081        26.9959 
 206   0.0000       1.003399        27.3039 
 207   0.0000       1.016511        27.6607 
 208   0.0000       1.024868        27.8881 
 209   0.0000       1.057212        28.7682 
 210   0.0000       1.063256        28.9327 
 211   0.0000       1.068574        29.0774 
 212   0.0000       1.072879        29.1945 
 213   0.0000       1.083100        29.4727 
 214   0.0000       1.095894        29.8208 
 215   0.0000       1.098340        29.8874 
 216   0.0000       1.104472        30.0542 
 217   0.0000       1.107436        30.1349 
 218   0.0000       1.115184        30.3457 
 219   0.0000       1.132620        30.8202 
 220   0.0000       1.142376        31.0856 
 221   0.0000       1.143306        31.1109 
 222   0.0000       1.149280        31.2735 
 223   0.0000       1.166783        31.7498 
 224   0.0000       1.175388        31.9839 
 225   0.0000       1.183390        32.2017 
 226   0.0000       1.210345        32.9352 
 227   0.0000       1.217972        33.1427 
 228   0.0000       1.224822        33.3291 
 229   0.0000       1.243554        33.8388 
 230   0.0000       1.249944        34.0127 
 231   0.0000       1.268191        34.5092 
 232   0.0000       1.278189        34.7813 
 233   0.0000       1.286428        35.0055 
 234   0.0000       1.289699        35.0945 
 235   0.0000       1.302608        35.4458 
 236   0.0000       1.309192        35.6249 
 237   0.0000       1.323276        36.0082 
 238   0.0000       1.329497        36.1775 
 239   0.0000       1.335525        36.3415 
 240   0.0000       1.348942        36.7066 
 241   0.0000       1.355196        36.8768 
 242   0.0000       1.363969        37.1155 
 243   0.0000       1.370725        37.2993 
 244   0.0000       1.373343        37.3706 
 245   0.0000       1.375347        37.4251 
 246   0.0000       1.386634        37.7322 
 247   0.0000       1.411506        38.4090 
 248   0.0000       1.418049        38.5871 
 249   0.0000       1.420799        38.6619 
 250   0.0000       1.437881        39.1267 
 251   0.0000       1.447822        39.3972 
 252   0.0000       1.457847        39.6700 
 253   0.0000       1.462644        39.8006 
 254   0.0000       1.467769        39.9400 
 255   0.0000       1.482369        40.3373 
 256   0.0000       1.495382        40.6914 
 257   0.0000       1.509684        41.0806 
 258   0.0000       1.519604        41.3505 
 259   0.0000       1.534612        41.7589 
 260   0.0000       1.544922        42.0395 
 261   0.0000       1.559954        42.4485 
 262   0.0000       1.600925        43.5634 
 263   0.0000       1.627715        44.2924 
 264   0.0000       1.635678        44.5091 
 265   0.0000       1.643698        44.7273 
 266   0.0000       1.653189        44.9856 
 267   0.0000       1.663434        45.2643 
 268   0.0000       1.665999        45.3341 
 269   0.0000       1.676597        45.6225 
 270   0.0000       1.695989        46.1502 
 271   0.0000       1.704101        46.3709 
 272   0.0000       1.716115        46.6979 
 273   0.0000       1.722177        46.8628 
 274   0.0000       1.732015        47.1305 
 275   0.0000       1.741580        47.3908 
 276   0.0000       1.752910        47.6991 
 277   0.0000       1.759637        47.8822 
 278   0.0000       1.779334        48.4182 
 279   0.0000       1.792337        48.7720 
 280   0.0000       1.804484        49.1025 
 281   0.0000       1.807178        49.1758 
 282   0.0000       1.818197        49.4757 
 283   0.0000       1.821691        49.5707 
 284   0.0000       1.838957        50.0406 
 285   0.0000       1.848739        50.3068 
 286   0.0000       1.860516        50.6272 
 287   0.0000       1.870392        50.8959 
 288   0.0000       1.882119        51.2151 
 289   0.0000       1.885579        51.3092 
 290   0.0000       1.904417        51.8218 
 291   0.0000       1.913003        52.0554 
 292   0.0000       1.922652        52.3180 
 293   0.0000       1.947963        53.0068 
 294   0.0000       1.952553        53.1317 
 295   0.0000       1.955443        53.2103 
 296   0.0000       1.963636        53.4332 
 297   0.0000       1.975021        53.7431 
 298   0.0000       1.988226        54.1024 
 299   0.0000       2.012195        54.7546 
 300   0.0000       2.030499        55.2527 
 301   0.0000       2.046193        55.6797 
 302   0.0000       2.053582        55.8808 
 303   0.0000       2.080518        56.6138 
 304   0.0000       2.093981        56.9801 
 305   0.0000       2.119392        57.6716 
 306   0.0000       2.128189        57.9110 
 307   0.0000       2.134509        58.0829 
 308   0.0000       2.157642        58.7124 
 309   0.0000       2.181581        59.3638 
 310   0.0000       2.185256        59.4638 
 311   0.0000       2.193424        59.6861 
 312   0.0000       2.198900        59.8351 
 313   0.0000       2.219699        60.4011 
 314   0.0000       2.234967        60.8166 
 315   0.0000       2.239438        60.9382 
 316   0.0000       2.245214        61.0954 
 317   0.0000       2.259309        61.4789 
 318   0.0000       2.269517        61.7567 
 319   0.0000       2.278942        62.0132 
 320   0.0000       2.289320        62.2956 
 321   0.0000       2.296133        62.4810 
 322   0.0000       2.301083        62.6157 
 323   0.0000       2.321316        63.1662 
 324   0.0000       2.323879        63.2360 
 325   0.0000       2.333427        63.4958 
 326   0.0000       2.347564        63.8805 
 327   0.0000       2.349115        63.9227 
 328   0.0000       2.354776        64.0767 
 329   0.0000       2.365434        64.3667 
 330   0.0000       2.373818        64.5949 
 331   0.0000       2.376131        64.6578 
 332   0.0000       2.383075        64.8468 
 333   0.0000       2.393903        65.1414 
 334   0.0000       2.404005        65.4163 
 335   0.0000       2.417661        65.7879 
 336   0.0000       2.428250        66.0760 
 337   0.0000       2.432288        66.1859 
 338   0.0000       2.454274        66.7842 
 339   0.0000       2.458747        66.9059 
 340   0.0000       2.474855        67.3442 
 341   0.0000       2.487009        67.6750 
 342   0.0000       2.496184        67.9246 
 343   0.0000       2.506190        68.1969 
 344   0.0000       2.513874        68.4060 
 345   0.0000       2.533002        68.9265 
 346   0.0000       2.546489        69.2935 
 347   0.0000       2.556989        69.5792 
 348   0.0000       2.564573        69.7856 
 349   0.0000       2.566613        69.8411 
 350   0.0000       2.588687        70.4417 
 351   0.0000       2.611758        71.0695 
 352   0.0000       2.619610        71.2832 
 353   0.0000       2.637428        71.7681 
 354   0.0000       2.652016        72.1650 
 355   0.0000       2.659030        72.3559 
 356   0.0000       2.702840        73.5480 
 357   0.0000       2.703914        73.5772 
 358   0.0000       2.717511        73.9472 
 359   0.0000       2.719817        74.0100 
 360   0.0000       2.744228        74.6743 
 361   0.0000       2.755380        74.9777 
 362   0.0000       2.757699        75.0408 
 363   0.0000       2.762149        75.1619 
 364   0.0000       2.763484        75.1982 
 365   0.0000       2.766670        75.2849 
 366   0.0000       2.771729        75.4226 
 367   0.0000       2.784827        75.7790 
 368   0.0000       2.787904        75.8627 
 369   0.0000       2.796044        76.0842 
 370   0.0000       2.806072        76.3571 
 371   0.0000       2.830091        77.0107 
 372   0.0000       2.840255        77.2873 
 373   0.0000       2.861092        77.8543 
 374   0.0000       2.876847        78.2830 
 375   0.0000       2.883094        78.4530 
 376   0.0000       2.889548        78.6286 
 377   0.0000       2.898749        78.8790 
 378   0.0000       2.912368        79.2496 
 379   0.0000       2.924849        79.5892 
 380   0.0000       2.927165        79.6522 
 381   0.0000       2.939637        79.9916 
 382   0.0000       2.944691        80.1291 
 383   0.0000       2.952565        80.3434 
 384   0.0000       2.970892        80.8421 
 385   0.0000       2.974176        80.9315 
 386   0.0000       2.979991        81.0897 
 387   0.0000       2.995944        81.5238 
 388   0.0000       3.006418        81.8088 
 389   0.0000       3.028628        82.4132 
 390   0.0000       3.036946        82.6395 
 391   0.0000       3.040174        82.7273 
 392   0.0000       3.072999        83.6206 
 393   0.0000       3.076664        83.7203 
 394   0.0000       3.103934        84.4623 
 395   0.0000       3.117153        84.8220 
 396   0.0000       3.156158        85.8834 
 397   0.0000       3.173730        86.3616 
 398   0.0000       3.187669        86.7409 
 399   0.0000       3.223830        87.7249 
 400   0.0000       3.228185        87.8434 
 401   0.0000       3.250862        88.4605 
 402   0.0000       3.268741        88.9470 
 403   0.0000       3.288727        89.4908 
 404   0.0000       3.291928        89.5779 
 405   0.0000       3.295705        89.6807 
 406   0.0000       3.301731        89.8447 
 407   0.0000       3.342321        90.9492 
 408   0.0000       3.378098        91.9227 
 409   0.0000       3.396855        92.4331 
 410   0.0000       3.426816        93.2484 
 411   0.0000       3.445258        93.7502 
 412   0.0000       3.474285        94.5401 
 413   0.0000       3.510467        95.5247 
 414   0.0000       3.530711        96.0755 
 415   0.0000       3.537196        96.2520 
 416   0.0000       3.555625        96.7535 
 417   0.0000       3.562121        96.9302 
 418   0.0000       3.588458        97.6469 
 419   0.0000       3.597238        97.8858 
 420   0.0000       3.601445        98.0003 
 421   0.0000       3.613568        98.3302 
 422   0.0000       3.656333        99.4939 
 423   0.0000       3.676920       100.0541 
 424   0.0000       3.683631       100.2367 
 425   0.0000       3.700192       100.6873 
 426   0.0000       3.712411       101.0198 
 427   0.0000       3.750309       102.0511 
 428   0.0000       3.804476       103.5251 
 429   0.0000       3.861006       105.0633 
 430   0.0000       3.894832       105.9838 
 431   0.0000       3.968389       107.9854 
 432   0.0000       4.139623       112.6449 
 433   0.0000       4.221807       114.8812 
 434   0.0000       4.586689       124.8102 
 435   0.0000       4.729208       128.6883 
 436   0.0000       4.882965       132.8722 
 437   0.0000      11.140389       303.1454 
 438   0.0000      21.850079       594.5709 
 439   0.0000      21.883692       595.4855 
 440   0.0000      21.994147       598.4912 
 441   0.0000      22.025709       599.3500 
 442   0.0000      22.076714       600.7379 
 443   0.0000      22.127182       602.1112 
 444   0.0000      22.212820       604.4416 
 445   0.0000      22.249374       605.4363 
 446   0.0000      22.688699       617.3909 
 447   0.0000      25.107659       683.2141 
 448   0.0000      31.882788       867.5748 
 449   0.0000      32.050623       872.1418 
 450   0.0000      43.650455      1187.7893 
 451   0.0000      43.794951      1191.7212 
 452   0.0000      43.923288      1195.2134 
 453   0.0000      44.117690      1200.5034 
Total SCF time: 0 days 0 hours 0 min 37 sec 

Maximum memory used throughout the entire SCF-calculation: 68.6 MB


-------------------------------------------------------------------------------
                          DFT DISPERSION CORRECTION                            
                                                                               
                                 DFTD4 V2.5                                    
-------------------------------------------------------------------------------
Starting D4
-------------------------   ----------------
Dispersion correction           -0.013936854
-------------------------   ----------------

------------------   -----------------
gCP correction             0.031905117
------------------   -----------------

-------------------------   --------------------
FINAL SINGLE POINT ENERGY     -1513.215561187786
-------------------------   --------------------



           ************************************************************
           *        Program running with 4 parallel MPI-processes     *
           *              working on a common directory               *
           ************************************************************
------------------------------------------------------------------------------
                         ORCA SCF GRADIENT CALCULATION
------------------------------------------------------------------------------

Gradient of the Kohn-Sham DFT energy:
Kohn-Sham wavefunction type      ... RKS
Hartree-Fock exchange scaling    ...    0.000
Number of operators              ...    1
Number of atoms                  ...   34
Basis set dimensions             ...  454
Integral neglect threshold       ... 2.5e-11
Integral primitive cutoff        ... 2.5e-12
SHARK Integral package           ... ON

Nuc. rep. gradient       (SHARK) ... done (  0.0 sec)
HCore & Overlap gradient (SHARK) ... done (  0.4 sec)
RI-J gradient            (SHARK) ... done (  1.4 sec)
Exchange-correlation gradient    ... done
Dispersion correction            ... 
Starting D4
Starting D4
Starting D4


------------------- 
Dispersion Gradient 
------------------- 
   1  :   -0.000121330    0.000017678   -0.000056073
   2  :   -0.000133908   -0.000049184   -0.000019060
   3  :   -0.000056056    0.000016998   -0.000010293
   4  :   -0.000053021    0.000008184   -0.000043423
   5  :   -0.000038795   -0.000033594   -0.000025764
   6  :   -0.000035319   -0.000014049    0.000016999
   7  :   -0.000056445   -0.000056048    0.000079875
   8  :    0.000058481    0.000025552   -0.000008467
   9  :    0.000135722    0.000113769   -0.000032429
  10  :    0.000106207    0.000131297   -0.000023351
  11  :    0.000030734    0.000035304   -0.000002432
  12  :    0.000043614    0.000188864   -0.000040729
Starting D4
  13  :    0.000023826    0.000164532   -0.000029336
  14  :    0.000091988    0.000093850   -0.000049926
  15  :   -0.000010104    0.000020219   -0.000006901
  16  :   -0.000084082    0.000001018    0.000266695
  17  :   -0.000041828    0.000004021    0.000181598
  18  :   -0.000052405   -0.000008554    0.000130006
  19  :   -0.000143853    0.000012861   -0.000077524
  20  :   -0.000016584    0.000158097   -0.000010772
  21  :   -0.000006401    0.000055244    0.000015078
  22  :   -0.000010717    0.000047409   -0.000013341
  23  :   -0.000012385    0.000076089   -0.000006689
  24  :    0.000104540   -0.000126609    0.000135112
  25  :    0.000021030   -0.000053908    0.000037885
  26  :    0.000047045   -0.000033948    0.000046597
  27  :    0.000027127   -0.000039578    0.000064895
  28  :    0.000089239   -0.000109286   -0.000128400
  29  :    0.000014350   -0.000044358   -0.000034121
  30  :    0.000013769   -0.000032463   -0.000059929
  31  :    0.000040908   -0.000030968   -0.000035785
  32  :    0.000161423   -0.000057583   -0.000056724
  33  :   -0.000055219   -0.000104446   -0.000047355
  34  :   -0.000010354   -0.000060909   -0.000017027

  |G| =    0.005785872

done
gCP correction                   ... done

------------------
CARTESIAN GRADIENT
------------------

   1   C   :   -0.000922680    0.002460466   -0.001214011
   2   C   :   -0.000867364   -0.001524433   -0.000148670
   3   H   :   -0.000762493   -0.002104094   -0.002278026
   4   H   :   -0.002401826   -0.000899737    0.001754364
   5   H   :    0.000288733    0.001664974    0.001713745
   6   H   :    0.001690846    0.000742522   -0.001697677
   7   O   :   -0.000577478   -0.001075748    0.001044225
   8   H   :   -0.001803704    0.000972798    0.000178276
   9   C   :    0.002940999    0.000510713   -0.000458606
  10   C   :    0.002182382    0.001293123   -0.000137440
  11   H   :   -0.000906008   -0.001628256   -0.000006974
  12   C   :   -0.000966632    0.000345975    0.000057301
  13   N   :   -0.002289686    0.000796527   -0.000110947
  14   N   :   -0.001692893    0.001716796   -0.000199948
  15   H   :    0.003410547    0.000964568   -0.000149621
  16   C   :    0.000550797    0.001039080    0.006184019
  17   O   :   -0.006093031   -0.001628580    0.000050128
  18   O   :    0.005364144    0.000783700   -0.003236735
  19   Cl  :    0.000923521    0.001355343   -0.000037246
  20   C   :   -0.001673632    0.002623417    0.000443270
  21   H   :   -0.000455784   -0.000815679   -0.001649155
  22   H   :   -0.000332925   -0.001185130    0.001393011
  23   H   :    0.001957864    0.000895168   -0.000117451
  24   C   :    0.000228381   -0.000923738    0.003063076
  25   H   :    0.000231313    0.000907006    0.000143475
  26   H   :   -0.000923122   -0.000447469    0.000098206
  27   H   :    0.001041958   -0.000738183   -0.000729095
  28   C   :    0.001235901   -0.001373442   -0.002327981
  29   H   :    0.000157626    0.000987522   -0.000238522
  30   H   :    0.000605986   -0.000611521    0.000774736
  31   H   :   -0.000790837   -0.000294774   -0.000325892
  32   Si  :    0.007103827   -0.002830662   -0.000257851
  33   O   :   -0.008428181    0.001189652    0.001546147
  34   H   :    0.002044651   -0.002852403   -0.002983242

Difference to translation invariance:
           :    0.0000712004    0.0003155015    0.0001388907

Difference to rotation invariance:
           :   -0.0002763366    0.0006848631    0.0008507327

Norm of the cartesian gradient     ...    0.0204757637
RMS gradient                       ...    0.0020274027
MAX gradient                       ...    0.0084281807

-------
TIMINGS
-------

Total SCF gradient time            ...        8.477 sec

One electron gradient       ....       0.409 sec  (  4.8%)
RI-J Coulomb gradient       ....       1.430 sec  ( 16.9%)
XC gradient                 ....       5.852 sec  ( 69.0%)

Maximum memory used throughout the entire SCFGRAD-calculation: 57.4 MB


           ************************************************************
           *        Program running with 4 parallel MPI-processes     *
           *              working on a common directory               *
           ************************************************************

-------------------------------------------------------------------------------
                               ORCA SCF HESSIAN
-------------------------------------------------------------------------------

Hessian of the Kohn-Sham DFT energy:
Kohn-Sham wavefunction type                      ... RKS
Hartree-Fock exchange scaling                    ...    0.000
Number of operators                              ...    1
Number of atoms                                  ...   34
Basis set dimensions                             ...  454
Integral neglect threshold                       ... 2.5e-11
Integral primitive cutoff                        ... 2.5e-12

Setting up DFT Hessian calculations              ... 

HESS GRID
---------

General Integration Accuracy     IntAcc      ... 4.629
Radial Grid Type                 RadialGrid  ... OptM3 with GC (2021)
Angular Grid (max. ang.)         AngularGrid ... 5 (Lebedev-434)
Angular grid pruning method      GridPruning ... 4 (adaptive)
Weight generation scheme         WeightScheme... Becke
Basis function cutoff            BFCut       ... 1.0000e-11
Integration weight cutoff        WCut        ... 1.0000e-14
Angular grids for H and He will be reduced by one unit
Partially contracted basis set               ... off
Rotationally invariant grid construction     ... off

Total number of grid points                  ...   245649
Total number of batches                      ...     3855
Average number of points per batch           ...       63
Average number of grid points per atom       ...     7225

Building densities                               ... done   (      0.0 sec)
Calculating rho(r) on the grid                   ... done   (      1.8 sec)
Building xc-kernel on the grid                   ... done   (      0.4 sec)
                                                     done   (      4.3 sec)

Nuclear repulsion Hessian  (SHARK)               ... done   (      0.0 sec)

----------------------------------------------
Forming right-hand sides of CP-SCF equations     ...
----------------------------------------------
One electron integral derivatives  (SHARK)       ... done   (      0.8 sec)
Transforming the overlap derivative matrices     ... done   (      0.7 sec)
Making the Q(x) pseudodensities                  ... done   (      0.4 sec)
Adding the E*S(x)*S(y) terms to the Hessian      ... done   (      0.3 sec)
Calculating energy weighted overlap derivatives  ... done   (      0.1 sec)
Two electron integral derivatives (SHARK-RI)     ... done   (     12.1 sec)
Exchange-correlation integral derivatives        ... done   (    359.4 sec)
tr(F(y)Q(x)) contribution to the Hessian         ... done   (      0.2 sec)
Response fock operator R(S(x)) (SHARK-RI)        ... done   (      4.6 sec)
XC Response fock operator R(S(x))                ... done   (    126.4 sec)
tr(F(y)S(x)) contribution to the Hessian         ... done   (      0.1 sec)
Transforming and finalizing RHSs                 ... done   (      1.0 sec)

----------------------------------------------
Solving the CP-SCF equations (RI)                ...
----------------------------------------------
     CP-SCF ITERATION   0:   1.1023e+00 (  30.3 sec   0/102 done)
     CP-SCF ITERATION   1:   5.6254e-02 (  32.1 sec   0/102 done)
     CP-SCF ITERATION   2:   2.2608e-02 (  32.6 sec   0/102 done)
     CP-SCF ITERATION   3:   6.5307e-03 (  33.0 sec   0/102 done)
     CP-SCF ITERATION   4:   2.2555e-03 (  33.3 sec   0/102 done)
     CP-SCF ITERATION   5:   8.7283e-04 (  33.4 sec  13/102 done)
     CP-SCF ITERATION   6:   2.7450e-04 (  28.3 sec  60/102 done)
     CP-SCF ITERATION   7:   8.7332e-05 (  13.5 sec 102/102 done)
                    *** THE CP-SCF HAS CONVERGED ***

                                                 ... done   (    237.1 sec)
Forming perturbed density Hessian contributions  ... done   (      0.3 sec)
2nd integral derivative contribs (SHARK-RI)      ... done   (     41.7 sec)
Exchange-correlation Hessian                     ... done   (     94.4 sec)
Dispersion correction in the Hessian             ... 
Starting D4
Starting D4
Starting D4
Starting D4


------------------- 
Dispersion Gradient 
------------------- 
   1  :   -0.000121526    0.000017628   -0.000056084
   2  :   -0.000133890   -0.000049188   -0.000019051
   3  :   -0.000056045    0.000017008   -0.000010284
   4  :   -0.000053041    0.000008164   -0.000043368
   5  :   -0.000038795   -0.000033583   -0.000025762
   6  :   -0.000035315   -0.000014046    0.000016995
   7  :   -0.000056458   -0.000056049    0.000079886
   8  :    0.000058481    0.000025552   -0.000008467
   9  :    0.000135732    0.000113771   -0.000032429
  10  :    0.000106217    0.000131301   -0.000023350
  11  :    0.000030734    0.000035304   -0.000002432
  12  :    0.000043637    0.000188872   -0.000040727
  13  :    0.000023844    0.000164542   -0.000029334
  14  :    0.000092008    0.000093851   -0.000049924
  15  :   -0.000010114    0.000020220   -0.000006901
  16  :   -0.000084094    0.000001021    0.000266708
  17  :   -0.000041818    0.000004019    0.000181614
  18  :   -0.000052416   -0.000008555    0.000130008
  19  :   -0.000143994    0.000012834   -0.000077559
  20  :   -0.000016573    0.000158110   -0.000010770
  21  :   -0.000006398    0.000055247    0.000015079
  22  :   -0.000010714    0.000047413   -0.000013341
  23  :   -0.000012383    0.000076096   -0.000006688
  24  :    0.000104543   -0.000126611    0.000135114
  25  :    0.000021031   -0.000053908    0.000037885
  26  :    0.000047045   -0.000033948    0.000046597
  27  :    0.000027129   -0.000039579    0.000064897
  28  :    0.000089242   -0.000109287   -0.000128401
  29  :    0.000014350   -0.000044358   -0.000034121
  30  :    0.000013771   -0.000032463   -0.000059930
  31  :    0.000040908   -0.000030968   -0.000035785
  32  :    0.000161451   -0.000057593   -0.000056722
  33  :   -0.000055208   -0.000104458   -0.000047353
  34  :   -0.000010356   -0.000060914   -0.000017032

  |G| =    0.005786313

Starting D4
Starting D4
Starting D4
Starting D4


------------------- 
Dispersion Gradient 
------------------- 
   1  :   -0.000121136    0.000017728   -0.000056063
   2  :   -0.000133926   -0.000049180   -0.000019068
   3  :   -0.000056067    0.000016989   -0.000010301
   4  :   -0.000053001    0.000008206   -0.000043479
   5  :   -0.000038795   -0.000033604   -0.000025767
   6  :   -0.000035324   -0.000014051    0.000017003
   7  :   -0.000056432   -0.000056047    0.000079865
   8  :    0.000058482    0.000025552   -0.000008467
   9  :    0.000135713    0.000113768   -0.000032430
  10  :    0.000106198    0.000131294   -0.000023352
  11  :    0.000030734    0.000035305   -0.000002432
  12  :    0.000043590    0.000188856   -0.000040731
  13  :    0.000023809    0.000164523   -0.000029338
  14  :    0.000091969    0.000093848   -0.000049927
  15  :   -0.000010093    0.000020219   -0.000006900
  16  :   -0.000084070    0.000001016    0.000266682
  17  :   -0.000041837    0.000004022    0.000181582
  18  :   -0.000052394   -0.000008554    0.000130004
  19  :   -0.000143716    0.000012888   -0.000077489
  20  :   -0.000016594    0.000158084   -0.000010774
  21  :   -0.000006403    0.000055241    0.000015076
  22  :   -0.000010720    0.000047406   -0.000013341
  23  :   -0.000012387    0.000076083   -0.000006690
  24  :    0.000104536   -0.000126608    0.000135110
  25  :    0.000021030   -0.000053908    0.000037885
  26  :    0.000047045   -0.000033948    0.000046597
  27  :    0.000027125   -0.000039577    0.000064894
  28  :    0.000089236   -0.000109285   -0.000128400
  29  :    0.000014349   -0.000044358   -0.000034121
  30  :    0.000013768   -0.000032463   -0.000059929
  31  :    0.000040908   -0.000030968   -0.000035785
  32  :    0.000161396   -0.000057573   -0.000056726
  33  :   -0.000055230   -0.000104434   -0.000047357
  34  :   -0.000010352   -0.000060905   -0.000017023

  |G| =    0.005785442

Starting D4
Starting D4
Starting D4
Starting D4


------------------- 
Dispersion Gradient 
------------------- 
   1  :   -0.000121308    0.000017640   -0.000056054
   2  :   -0.000133993   -0.000049220   -0.000019111
   3  :   -0.000056051    0.000016986   -0.000010296
   4  :   -0.000053024    0.000008179   -0.000043414
   5  :   -0.000038794   -0.000033732   -0.000025873
   6  :   -0.000035359   -0.000014072    0.000017052
   7  :   -0.000056419   -0.000056072    0.000079899
   8  :    0.000058481    0.000025552   -0.000008467
   9  :    0.000135728    0.000113770   -0.000032430
  10  :    0.000106214    0.000131300   -0.000023352
  11  :    0.000030734    0.000035304   -0.000002432
  12  :    0.000043626    0.000188858   -0.000040730
  13  :    0.000023839    0.000164538   -0.000029337
  14  :    0.000091995    0.000093845   -0.000049926
  15  :   -0.000010108    0.000020211   -0.000006899
  16  :   -0.000084081    0.000001018    0.000266726
  17  :   -0.000041826    0.000004008    0.000181599
  18  :   -0.000052406   -0.000008566    0.000130003
  19  :   -0.000143901    0.000012857   -0.000077552
  20  :   -0.000016574    0.000158109   -0.000010772
  21  :   -0.000006398    0.000055247    0.000015079
  22  :   -0.000010715    0.000047412   -0.000013341
  23  :   -0.000012378    0.000076098   -0.000006689
  24  :    0.000104536   -0.000126612    0.000135111
  25  :    0.000021029   -0.000053908    0.000037885
  26  :    0.000047045   -0.000033948    0.000046597
  27  :    0.000027126   -0.000039579    0.000064895
  28  :    0.000089237   -0.000109287   -0.000128400
  29  :    0.000014348   -0.000044358   -0.000034121
  30  :    0.000013769   -0.000032463   -0.000059929
  31  :    0.000040908   -0.000030968   -0.000035785
  32  :    0.000161416   -0.000057598   -0.000056724
  33  :   -0.000055217   -0.000104461   -0.000047356
  34  :   -0.000010328   -0.000060924   -0.000017037

  |G| =    0.005786477

Starting D4
Starting D4
Starting D4
Starting D4


------------------- 
Dispersion Gradient 
------------------- 
   1  :   -0.000121353    0.000017716   -0.000056092
   2  :   -0.000133824   -0.000049154   -0.000019011
   3  :   -0.000056061    0.000017010   -0.000010289
   4  :   -0.000053019    0.000008190   -0.000043431
   5  :   -0.000038796   -0.000033460   -0.000025659
   6  :   -0.000035280   -0.000014026    0.000016947
   7  :   -0.000056471   -0.000056025    0.000079850
   8  :    0.000058481    0.000025552   -0.000008467
   9  :    0.000135717    0.000113769   -0.000032429
  10  :    0.000106201    0.000131294   -0.000023351
  11  :    0.000030734    0.000035305   -0.000002432
  12  :    0.000043602    0.000188870   -0.000040728
  13  :    0.000023814    0.000164526   -0.000029335
[...]
     80       0.001738   0.000540  -0.000425   0.001147  -0.000774   0.000349
     81      -0.000085   0.000056   0.000030  -0.000186  -0.000331   0.000230
     82       0.000200  -0.000042   0.000065  -0.000394  -0.000156   0.000122
     83      -0.000167   0.000066  -0.000007   0.000073  -0.000102   0.000046
     84      -0.000047   0.000025   0.000023  -0.000099   0.000212  -0.000158
     85      -0.001653   0.000342  -0.000696   0.004205   0.000737  -0.000743
     86      -0.000118   0.000037  -0.000047   0.000258  -0.000084   0.000085
     87       0.000657  -0.000208   0.000076  -0.000530   0.000066   0.000055
     88      -0.000707   0.000285  -0.000056   0.000335  -0.000298   0.000150
     89       0.002039  -0.000798   0.000241  -0.001758   0.000823  -0.000275
     90       0.000384  -0.000377  -0.000548   0.003225   0.004250  -0.003258
     91       0.000165  -0.000120  -0.000123   0.000640   0.001060  -0.000833
     92       0.000022  -0.000053  -0.000071   0.000350   0.000706  -0.000573
     93       0.000004   0.000013   0.000002   0.000007  -0.000093   0.000071
     94      -0.000004  -0.000007   0.000044  -0.000297   0.000108  -0.000058
     95      -0.000023   0.000009  -0.000004   0.000039  -0.000025   0.000028
     96      -0.000015   0.000076  -0.000128   0.000954  -0.000052   0.000019
     97       0.000014  -0.000053   0.000020  -0.000144  -0.000059   0.000044
     98       0.000008  -0.000062   0.000043  -0.000335   0.000004  -0.000005
     99       0.000269  -0.001231   0.002252  -0.018126   0.000486  -0.000169
    100      -0.000173   0.001295  -0.002116   0.016138  -0.000164   0.000056
    101      -0.000168   0.000880  -0.000609   0.005112  -0.000136   0.000122


-----------
IR SPECTRUM
-----------

 Mode   freq       eps      Int      T**2         TX        TY        TZ
       cm**-1   L/(mol*cm) km/mol    a.u.
----------------------------------------------------------------------------
  7:     19.03   0.000296    1.50  0.004858  ( 0.006790 -0.036617  0.058914)
  8:     23.78   0.000095    0.48  0.001249  ( 0.007917  0.034192  0.004093)
  9:     36.35   0.000509    2.57  0.004374  (-0.058835 -0.018738  0.023684)
 10:     44.41   0.000161    0.82  0.001134  ( 0.014249  0.030506 -0.000843)
 11:     51.59   0.000222    1.12  0.001344  (-0.007692  0.027597 -0.022869)
 12:     61.54   0.000272    1.38  0.001381  (-0.001696 -0.002775  0.037018)
 13:     71.97   0.001049    5.30  0.004550  (-0.040376  0.027295  0.046635)
 14:     80.01   0.000224    1.13  0.000873  ( 0.014174  0.005722 -0.025292)
 15:     83.42   0.000613    3.10  0.002294  ( 0.021053  0.003906 -0.042838)
 16:    105.84   0.000797    4.03  0.002351  ( 0.025215 -0.023656 -0.033994)
 17:    118.42   0.001599    8.08  0.004214  ( 0.035941 -0.024810 -0.048024)
 18:    120.47   0.000714    3.61  0.001850  (-0.004058 -0.032653  0.027695)
 19:    138.68   0.000062    0.31  0.000139  ( 0.003958 -0.011085 -0.000657)
 20:    158.85   0.000172    0.87  0.000337  ( 0.014332 -0.002002 -0.011302)
 21:    183.35   0.002049   10.36  0.003488  ( 0.042683 -0.019666 -0.035766)
 22:    190.17   0.000310    1.57  0.000509  ( 0.016308  0.007026 -0.013917)
 23:    209.62   0.001463    7.39  0.002177  (-0.040946  0.021063  0.007549)
 24:    241.29   0.002937   14.84  0.003798  (-0.045984 -0.017015  0.037338)
 25:    248.12   0.002619   13.23  0.003294  ( 0.006570  0.007078  0.056572)
 26:    254.61   0.020701  104.61  0.025373  (-0.148821  0.036504  0.043502)
 27:    267.16   0.004626   23.38  0.005404  ( 0.044700 -0.049243 -0.031318)
 28:    303.94   0.005065   25.60  0.005201  ( 0.007443 -0.009010 -0.071164)
 29:    324.42   0.003365   17.01  0.003237  ( 0.056145  0.007662 -0.005077)
 30:    363.36   0.010265   51.87  0.008816  (-0.083434 -0.023388 -0.036158)
 31:    368.65   0.005732   28.97  0.004852  (-0.031185  0.057845 -0.023106)
 32:    411.64   0.003059   15.46  0.002319  ( 0.027986  0.039079 -0.002974)
 33:    509.96   0.041911  211.80  0.025647  (-0.109562  0.064799  0.097181)
 34:    614.35   0.017093   86.38  0.008682  (-0.021011 -0.049967 -0.075790)
 35:    628.35   0.001751    8.85  0.000870  (-0.002673 -0.012062  0.026775)
 36:    657.88   0.014166   71.59  0.006720  (-0.065985  0.036256 -0.032420)
 37:    659.68   0.004229   21.37  0.002001  ( 0.017724  0.008181 -0.040243)
 38:    690.83   0.003529   17.83  0.001594  (-0.010720 -0.038459  0.000405)
 39:    691.06   0.001952    9.86  0.000881  (-0.013540  0.026393  0.001248)
 40:    694.25   0.001887    9.54  0.000848  (-0.019152  0.021933 -0.000558)
 41:    722.68   0.056255  284.29  0.024292  ( 0.155206 -0.009848  0.010301)
 42:    726.28   0.007538   38.09  0.003239  ( 0.000255  0.003970 -0.056771)
 43:    742.95   0.001593    8.05  0.000669  ( 0.024514 -0.000318 -0.008257)
 44:    787.85   0.013207   66.74  0.005231  (-0.067949 -0.006654 -0.023872)
 45:    789.80   0.027736  140.16  0.010959  (-0.098717 -0.018365 -0.029604)
 46:    808.42   0.025969  131.24  0.010024  (-0.041007 -0.016948  0.089753)
 47:    833.01   0.000390    1.97  0.000146  (-0.001371 -0.001944  0.011850)
 48:    846.01   0.026665  134.75  0.009836  ( 0.052003 -0.084214 -0.006276)
 49:    894.50   0.005179   26.17  0.001807  (-0.012432  0.035441 -0.019906)
 50:    998.74   0.009814   49.60  0.003067  (-0.014847  0.053248  0.003292)
 51:   1029.23   0.222192  1122.87  0.067369  ( 0.253663 -0.050981 -0.020604)
 52:   1045.04   0.037142  187.70  0.011091  (-0.104781  0.000010  0.010596)
 53:   1060.30   0.009110   46.04  0.002681  (-0.051666 -0.002849 -0.001896)
 54:   1064.03   0.001571    7.94  0.000461  ( 0.012984  0.008050  0.015080)
 55:   1090.54   0.003679   18.59  0.001053  (-0.027838 -0.003819  0.016221)
 56:   1098.71   0.002296   11.60  0.000652  ( 0.007491  0.021001  0.012446)
 57:   1122.38   0.010553   53.33  0.002934  ( 0.041133 -0.032221 -0.014286)
 58:   1139.55   0.019939  100.76  0.005460  ( 0.033529  0.064138 -0.014911)
 59:   1146.69   0.002031   10.26  0.000553  ( 0.015609 -0.015938 -0.007411)
 60:   1157.21   0.118153  597.09  0.031862  (-0.130884  0.109656  0.052026)
 61:   1205.28   0.002310   11.67  0.000598  ( 0.022009 -0.006557 -0.008408)
 62:   1247.49   0.162033  818.85  0.040533  (-0.154077  0.080086  0.101880)
 63:   1270.15   0.008787   44.41  0.002159  (-0.040303 -0.015362 -0.017281)
 64:   1278.53   0.008808   44.51  0.002150  (-0.012713  0.005748 -0.044218)
 65:   1283.74   0.008636   43.64  0.002099  (-0.041595  0.018299  0.005854)
 66:   1302.34   0.013165   66.53  0.003155  ( 0.047894 -0.029246 -0.002331)
 67:   1309.12   0.001224    6.18  0.000292  ( 0.014304  0.002839  0.008890)
 68:   1314.79   0.002477   12.52  0.000588  ( 0.015973  0.011479  0.014175)
 69:   1329.33   0.116292  587.69  0.027300  (-0.156488  0.052049  0.010111)
 70:   1368.43   0.002896   14.64  0.000661  (-0.024921  0.006260  0.000516)
 71:   1406.15   0.009507   48.05  0.002110  ( 0.036579 -0.025234 -0.011626)
 72:   1421.10   0.055724  281.60  0.012236  (-0.100828  0.035807  0.028071)
 73:   1439.73   0.000898    4.54  0.000195  ( 0.012643 -0.005891  0.000378)
 74:   1443.63   0.000790    3.99  0.000171  ( 0.012774  0.000462  0.002715)
 75:   1449.51   0.000499    2.52  0.000107  ( 0.005350  0.001179 -0.008793)
 76:   1451.21   0.009476   47.89  0.002038  ( 0.032557 -0.030526 -0.006776)
 77:   1459.20   0.005743   29.03  0.001228  (-0.034732  0.000578  0.004654)
 78:   1472.51   0.001749    8.84  0.000371  ( 0.017067 -0.003337  0.008259)
 79:   1477.24   0.003097   15.65  0.000654  (-0.009400 -0.004097  0.023432)
 80:   1494.85   0.014923   75.41  0.003115  ( 0.053999 -0.007398 -0.012026)
 81:   1503.92   0.008141   41.14  0.001689  (-0.040231 -0.008407 -0.000184)
 82:   1523.72   0.034414  173.92  0.007048  ( 0.083712 -0.004943 -0.004014)
 83:   1566.38   0.021930  110.83  0.004369  (-0.044067  0.048782  0.006888)
 84:   1589.30   0.006689   33.80  0.001313  ( 0.003326 -0.035845 -0.004174)
 85:   2195.32   0.155741  787.05  0.022139  (-0.138267 -0.033979  0.043199)
 86:   2982.20   0.007470   37.75  0.000782  (-0.012533 -0.023172 -0.009361)
 87:   3014.58   0.000366    1.85  0.000038  (-0.005435  0.002258 -0.001803)
 88:   3016.74   0.000789    3.99  0.000082  (-0.008926  0.000570  0.001275)
 89:   3031.85   0.001866    9.43  0.000192  (-0.005970  0.000132  0.012508)
 90:   3036.51   0.003865   19.53  0.000397  ( 0.006430 -0.018850  0.000756)
 91:   3058.63   0.004439   22.43  0.000453  ( 0.012660  0.016856 -0.002910)
 92:   3103.47   0.000007    0.04  0.000001  ( 0.000499  0.000441 -0.000531)
 93:   3106.14   0.002189   11.06  0.000220  ( 0.011086  0.009691  0.001765)
 94:   3118.21   0.000765    3.87  0.000077  (-0.005224  0.004107 -0.005691)
 95:   3119.75   0.000116    0.59  0.000012  ( 0.002750 -0.001914 -0.000640)
 96:   3122.66   0.000580    2.93  0.000058  ( 0.001467  0.003497 -0.006598)
 97:   3134.66   0.001232    6.23  0.000123  (-0.003740 -0.000430  0.010417)
 98:   3150.68   0.001694    8.56  0.000168  ( 0.010888  0.006943 -0.001011)
 99:   3159.48   0.052405  264.83  0.005176  (-0.065941 -0.026682  0.010767)
100:   3261.99   0.000886    4.48  0.000085  ( 0.001488 -0.009070 -0.000574)
101:   3280.50   0.000232    1.17  0.000022  (-0.004173 -0.001660 -0.001370)

* The epsilon (eps) is given for a Dirac delta lineshape.
** The dipole moment derivative (T) already includes vibrational overlap.

The first frequency considered to be a vibration is 7
The total number of vibrations considered is 95


--------------------------
THERMOCHEMISTRY AT 298.15K
--------------------------

Temperature         ... 298.15 K
Pressure            ... 1.00 atm
Total Mass          ... 280.78 AMU

Throughout the following assumptions are being made:
  (1) The electronic state is orbitally nondegenerate
  (2) There are no thermally accessible electronically excited states
  (3) Hindered rotations indicated by low frequency modes are not
      treated as such but are treated as vibrations and this may
      cause some error
  (4) All equations used are the standard statistical mechanics
      equations for an ideal gas
  (5) All vibrations are strictly harmonic

freq.      19.03  E(vib)   ...       0.57 
freq.      23.78  E(vib)   ...       0.56 
freq.      36.35  E(vib)   ...       0.54 
freq.      44.41  E(vib)   ...       0.53 
freq.      51.59  E(vib)   ...       0.52 
freq.      61.54  E(vib)   ...       0.51 
freq.      71.97  E(vib)   ...       0.50 
freq.      80.01  E(vib)   ...       0.49 
freq.      83.42  E(vib)   ...       0.48 
freq.     105.84  E(vib)   ...       0.45 
freq.     118.42  E(vib)   ...       0.44 
freq.     120.47  E(vib)   ...       0.44 
freq.     138.68  E(vib)   ...       0.42 
freq.     158.85  E(vib)   ...       0.39 
freq.     183.35  E(vib)   ...       0.37 
freq.     190.17  E(vib)   ...       0.36 
freq.     209.62  E(vib)   ...       0.34 
freq.     241.29  E(vib)   ...       0.31 
freq.     248.12  E(vib)   ...       0.31 
freq.     254.61  E(vib)   ...       0.30 
freq.     267.16  E(vib)   ...       0.29 
freq.     303.94  E(vib)   ...       0.26 
freq.     324.42  E(vib)   ...       0.25 
freq.     363.36  E(vib)   ...       0.22 
freq.     368.65  E(vib)   ...       0.21 
freq.     411.64  E(vib)   ...       0.19 
freq.     509.96  E(vib)   ...       0.14 
freq.     614.35  E(vib)   ...       0.10 
freq.     628.35  E(vib)   ...       0.09 
freq.     657.88  E(vib)   ...       0.08 
freq.     659.68  E(vib)   ...       0.08 
freq.     690.83  E(vib)   ...       0.07 
freq.     691.06  E(vib)   ...       0.07 
freq.     694.25  E(vib)   ...       0.07 
freq.     722.68  E(vib)   ...       0.07 
freq.     726.28  E(vib)   ...       0.06 
freq.     742.95  E(vib)   ...       0.06 
freq.     787.85  E(vib)   ...       0.05 
freq.     789.80  E(vib)   ...       0.05 
freq.     808.42  E(vib)   ...       0.05 
freq.     833.01  E(vib)   ...       0.04 
freq.     846.01  E(vib)   ...       0.04 
freq.     894.50  E(vib)   ...       0.03 
freq.     998.74  E(vib)   ...       0.02 
freq.    1029.23  E(vib)   ...       0.02 
freq.    1045.04  E(vib)   ...       0.02 
freq.    1060.30  E(vib)   ...       0.02 
freq.    1064.03  E(vib)   ...       0.02 
freq.    1090.54  E(vib)   ...       0.02 
freq.    1098.71  E(vib)   ...       0.02 
freq.    1122.38  E(vib)   ...       0.01 
freq.    1139.55  E(vib)   ...       0.01 
freq.    1146.69  E(vib)   ...       0.01 
freq.    1157.21  E(vib)   ...       0.01 
freq.    1205.28  E(vib)   ...       0.01 
freq.    1247.49  E(vib)   ...       0.01 
freq.    1270.15  E(vib)   ...       0.01 
freq.    1278.53  E(vib)   ...       0.01 
freq.    1283.74  E(vib)   ...       0.01 
freq.    1302.34  E(vib)   ...       0.01 
freq.    1309.12  E(vib)   ...       0.01 
freq.    1314.79  E(vib)   ...       0.01 
freq.    1329.33  E(vib)   ...       0.01 
freq.    1368.43  E(vib)   ...       0.01 
freq.    1406.15  E(vib)   ...       0.00 
freq.    1421.10  E(vib)   ...       0.00 
freq.    1439.73  E(vib)   ...       0.00 
freq.    1443.63  E(vib)   ...       0.00 
freq.    1449.51  E(vib)   ...       0.00 
freq.    1451.21  E(vib)   ...       0.00 
freq.    1459.20  E(vib)   ...       0.00 
freq.    1472.51  E(vib)   ...       0.00 
freq.    1477.24  E(vib)   ...       0.00 
freq.    1494.85  E(vib)   ...       0.00 
freq.    1503.92  E(vib)   ...       0.00 
freq.    1523.72  E(vib)   ...       0.00 
freq.    1566.38  E(vib)   ...       0.00 
freq.    1589.30  E(vib)   ...       0.00 
freq.    2195.32  E(vib)   ...       0.00 
freq.    2982.20  E(vib)   ...       0.00 
freq.    3014.58  E(vib)   ...       0.00 
freq.    3016.74  E(vib)   ...       0.00 
freq.    3031.85  E(vib)   ...       0.00 
freq.    3036.51  E(vib)   ...       0.00 
freq.    3058.63  E(vib)   ...       0.00 
freq.    3103.47  E(vib)   ...       0.00 
freq.    3106.14  E(vib)   ...       0.00 
freq.    3118.21  E(vib)   ...       0.00 
freq.    3119.75  E(vib)   ...       0.00 
freq.    3122.66  E(vib)   ...       0.00 
freq.    3134.66  E(vib)   ...       0.00 
freq.    3150.68  E(vib)   ...       0.00 
freq.    3159.48  E(vib)   ...       0.00 
freq.    3261.99  E(vib)   ...       0.00 
freq.    3280.50  E(vib)   ...       0.00 

------------
INNER ENERGY
------------

The inner energy is: U= E(el) + E(ZPE) + E(vib) + E(rot) + E(trans)
    E(el)   - is the total energy from the electronic structure calculation
              = E(kin-el) + E(nuc-el) + E(el-el) + E(nuc-nuc)
    E(ZPE)  - the the zero temperature vibrational energy from the frequency calculation
    E(vib)  - the the finite temperature correction to E(ZPE) due to population
              of excited vibrational states
    E(rot)  - is the rotational thermal energy
    E(trans)- is the translational thermal energy

Summary of contributions to the inner energy U:
Electronic energy                ...  -1513.21680647 Eh
Zero point energy                ...      0.26023964 Eh     163.30 kcal/mol
Thermal vibrational correction   ...      0.01866425 Eh      11.71 kcal/mol
Thermal rotational correction    ...      0.00141627 Eh       0.89 kcal/mol
Thermal translational correction ...      0.00141627 Eh       0.89 kcal/mol
-----------------------------------------------------------------------
Total thermal energy                  -1512.93507005 Eh


Summary of corrections to the electronic energy:
(perhaps to be used in another calculation)
Total thermal correction                  0.02149679 Eh      13.49 kcal/mol
Non-thermal (ZPE) correction              0.26023964 Eh     163.30 kcal/mol
-----------------------------------------------------------------------
Total correction                          0.28173642 Eh     176.79 kcal/mol


--------
ENTHALPY
--------

The enthalpy is H = U + kB*T
                kB is Boltzmann's constant
Total free energy                 ...  -1512.93507005 Eh 
Thermal Enthalpy correction       ...      0.00094421 Eh       0.59 kcal/mol
-----------------------------------------------------------------------
Total Enthalpy                    ...  -1512.93412584 Eh


Note: Only C1 symmetry has been detected, increase convergence thresholds 
      if your molecule has a higher symmetry. Symmetry factor of 1.0 is   
      used for the rotational entropy correction. 
 

Note: Rotational entropy computed according to Herzberg 
Infrared and Raman Spectra, Chapter V,1, Van Nostrand Reinhold, 1945 
Point Group:  C1, Symmetry Number:   1  
Rotational constants in cm-1:     0.016416     0.006819     0.006027 

Vibrational entropy computed according to the QRRHO of S. Grimme
Chem.Eur.J. 2012 18 9955


-------
ENTROPY
-------

The entropy contributions are T*S = T*(S(el)+S(vib)+S(rot)+S(trans))
     S(el)   - electronic entropy
     S(vib)  - vibrational entropy
     S(rot)  - rotational entropy
     S(trans)- translational entropy
The entropies will be listed as multiplied by the temperature to get
units of energy

Electronic entropy                ...      0.00000000 Eh      0.00 kcal/mol
Vibrational entropy               ...      0.03483703 Eh     21.86 kcal/mol
Rotational entropy                ...      0.01621878 Eh     10.18 kcal/mol
Translational entropy             ...      0.02033342 Eh     12.76 kcal/mol
-----------------------------------------------------------------------
Final entropy term                ...      0.07138923 Eh     44.80 kcal/mol

In case the symmetry of your molecule has not been determined correctly
or in case you have a reason to use a different symmetry number we print 
out the resulting rotational entropy values for sn=1,12 :
 --------------------------------------------------------
|  sn= 1 | S(rot)=       0.01621878 Eh     10.18 kcal/mol|
|  sn= 2 | S(rot)=       0.01556432 Eh      9.77 kcal/mol|
|  sn= 3 | S(rot)=       0.01518149 Eh      9.53 kcal/mol|
|  sn= 4 | S(rot)=       0.01490987 Eh      9.36 kcal/mol|
|  sn= 5 | S(rot)=       0.01469918 Eh      9.22 kcal/mol|
|  sn= 6 | S(rot)=       0.01452704 Eh      9.12 kcal/mol|
|  sn= 7 | S(rot)=       0.01438149 Eh      9.02 kcal/mol|
|  sn= 8 | S(rot)=       0.01425541 Eh      8.95 kcal/mol|
|  sn= 9 | S(rot)=       0.01414420 Eh      8.88 kcal/mol|
|  sn=10 | S(rot)=       0.01404472 Eh      8.81 kcal/mol|
|  sn=11 | S(rot)=       0.01395473 Eh      8.76 kcal/mol|
|  sn=12 | S(rot)=       0.01387258 Eh      8.71 kcal/mol|
 --------------------------------------------------------


-------------------
GIBBS FREE ENERGY
-------------------

The Gibbs free energy is G = H - T*S

Total enthalpy                    ...  -1512.93412584 Eh 
Total entropy correction          ...     -0.07138923 Eh    -44.80 kcal/mol
-----------------------------------------------------------------------
Final Gibbs free energy         ...  -1513.00551507 Eh

For completeness - the Gibbs free energy minus the electronic energy
G-E(el)                           ...      0.21129140 Eh    132.59 kcal/mol


Timings for individual modules:

Sum of individual times         ...     3018.144 sec (=  50.302 min)
GTO integral calculation        ...       58.915 sec (=   0.982 min)   2.0 %
SCF iterations                  ...      855.612 sec (=  14.260 min)  28.3 %
SCF Gradient evaluation         ...      318.463 sec (=   5.308 min)  10.6 %
Geometry relaxation             ...       24.722 sec (=   0.412 min)   0.8 %
Analytical frequency calculation...     1760.432 sec (=  29.341 min)  58.3 %
                             ****ORCA TERMINATED NORMALLY****
TOTAL RUN TIME: 0 days 0 hours 51 minutes 48 seconds 650 msec
