[Molden Format]
[N_ATOMS]
           12
[Atoms]  AU
C     1    6      -2.642573        0.000000        0.000000
C     2    6      -1.321260        2.288425        0.000000
C     3    6       1.321260        2.288425        0.000000
C     4    6       2.642573       -0.000000        0.000000
C     5    6       1.321260       -2.288425        0.000000
C     6    6      -1.321260       -2.288425        0.000000
H     7    1      -4.707329        0.000000        0.000000
H     8    1      -2.353615        4.076583        0.000000
H     9    1       2.353615        4.076583        0.000000
H    10    1       4.707329       -0.000000        0.000000
H    11    1       2.353615       -4.076583        0.000000
H    12    1      -2.353615       -4.076583        0.000000
[5D7F9G]
[GTO]
    1
    s    8
   0.823600000E+04   0.542430189E-03
   0.123500000E+04   0.419642790E-02
   0.280800000E+03   0.215409141E-01
   0.792700000E+02   0.836149496E-01
   0.255900000E+02   0.239871619E+00
   0.899700000E+01   0.443751820E+00
   0.331900000E+01   0.353579696E+00
   0.364300000E+00  -0.917636608E-02
    s    8
   0.823600000E+04  -0.196392234E-03
   0.123500000E+04  -0.152595027E-02
   0.280800000E+03  -0.789044903E-02
   0.792700000E+02  -0.315148705E-01
   0.255900000E+02  -0.969100083E-01
   0.899700000E+01  -0.220541526E+00
   0.331900000E+01  -0.296069113E+00
   0.364300000E+00   0.104050343E+01
    s    1
   0.905900000E+00   0.100000000E+01
    s    1
   0.128500000E+00   0.100000000E+01
    p    3
   0.187100000E+02   0.394263872E-01
   0.413300000E+01   0.244088985E+00
   0.120000000E+01   0.815492009E+00
    p    1
   0.382700000E+00   0.100000000E+01
    p    1
   0.120900000E+00   0.100000000E+01
    d    1
   0.109700000E+01   0.100000000E+01
    d    1
   0.318000000E+00   0.100000000E+01
    f    1
   0.761000000E+00   0.100000000E+01
 
    2
    s    8
   0.823600000E+04   0.542430189E-03
   0.123500000E+04   0.419642790E-02
   0.280800000E+03   0.215409141E-01
   0.792700000E+02   0.836149496E-01
   0.255900000E+02   0.239871619E+00
   0.899700000E+01   0.443751820E+00
   0.331900000E+01   0.353579696E+00
   0.364300000E+00  -0.917636608E-02
    s    8
   0.823600000E+04  -0.196392234E-03
   0.123500000E+04  -0.152595027E-02
   0.280800000E+03  -0.789044903E-02
   0.792700000E+02  -0.315148705E-01
   0.255900000E+02  -0.969100083E-01
   0.899700000E+01  -0.220541526E+00
   0.331900000E+01  -0.296069113E+00
   0.364300000E+00   0.104050343E+01
    s    1
   0.905900000E+00   0.100000000E+01
    s    1
   0.128500000E+00   0.100000000E+01
    p    3
   0.187100000E+02   0.394263872E-01
   0.413300000E+01   0.244088985E+00
   0.120000000E+01   0.815492009E+00
    p    1
   0.382700000E+00   0.100000000E+01
    p    1
   0.120900000E+00   0.100000000E+01
    d    1
   0.109700000E+01   0.100000000E+01
    d    1
   0.318000000E+00   0.100000000E+01
    f    1
   0.761000000E+00   0.100000000E+01
 
    3
    s    8
   0.823600000E+04   0.542430189E-03
   0.123500000E+04   0.419642790E-02
   0.280800000E+03   0.215409141E-01
   0.792700000E+02   0.836149496E-01
   0.255900000E+02   0.239871619E+00
   0.899700000E+01   0.443751820E+00
   0.331900000E+01   0.353579696E+00
   0.364300000E+00  -0.917636608E-02
    s    8
   0.823600000E+04  -0.196392234E-03
   0.123500000E+04  -0.152595027E-02
   0.280800000E+03  -0.789044903E-02
   0.792700000E+02  -0.315148705E-01
   0.255900000E+02  -0.969100083E-01
   0.899700000E+01  -0.220541526E+00
   0.331900000E+01  -0.296069113E+00
   0.364300000E+00   0.104050343E+01
    s    1
   0.905900000E+00   0.100000000E+01
    s    1
   0.128500000E+00   0.100000000E+01
    p    3
   0.187100000E+02   0.394263872E-01
   0.413300000E+01   0.244088985E+00
   0.120000000E+01   0.815492009E+00
    p    1
   0.382700000E+00   0.100000000E+01
    p    1
   0.120900000E+00   0.100000000E+01
    d    1
   0.109700000E+01   0.100000000E+01
    d    1
   0.318000000E+00   0.100000000E+01
    f    1
   0.761000000E+00   0.100000000E+01
 
    4
    s    8
   0.823600000E+04   0.542430189E-03
   0.123500000E+04   0.419642790E-02
   0.280800000E+03   0.215409141E-01
   0.792700000E+02   0.836149496E-01
   0.255900000E+02   0.239871619E+00
   0.899700000E+01   0.443751820E+00
   0.331900000E+01   0.353579696E+00
   0.364300000E+00  -0.917636608E-02
    s    8
   0.823600000E+04  -0.196392234E-03
   0.123500000E+04  -0.152595027E-02
   0.280800000E+03  -0.789044903E-02
   0.792700000E+02  -0.315148705E-01
   0.255900000E+02  -0.969100083E-01
   0.899700000E+01  -0.220541526E+00
   0.331900000E+01  -0.296069113E+00
   0.364300000E+00   0.104050343E+01
    s    1
   0.905900000E+00   0.100000000E+01
    s    1
   0.128500000E+00   0.100000000E+01
    p    3
   0.187100000E+02   0.394263872E-01
   0.413300000E+01   0.244088985E+00
   0.120000000E+01   0.815492009E+00
    p    1
   0.382700000E+00   0.100000000E+01
    p    1
   0.120900000E+00   0.100000000E+01
    d    1
   0.109700000E+01   0.100000000E+01
    d    1
   0.318000000E+00   0.100000000E+01
    f    1
   0.761000000E+00   0.100000000E+01
 
    5
    s    8
   0.823600000E+04   0.542430189E-03
   0.123500000E+04   0.419642790E-02
   0.280800000E+03   0.215409141E-01
   0.792700000E+02   0.836149496E-01
   0.255900000E+02   0.239871619E+00
   0.899700000E+01   0.443751820E+00
   0.331900000E+01   0.353579696E+00
   0.364300000E+00  -0.917636608E-02
    s    8
   0.823600000E+04  -0.196392234E-03
   0.123500000E+04  -0.152595027E-02
   0.280800000E+03  -0.789044903E-02
   0.792700000E+02  -0.315148705E-01
   0.255900000E+02  -0.969100083E-01
   0.899700000E+01  -0.220541526E+00
   0.331900000E+01  -0.296069113E+00
   0.364300000E+00   0.104050343E+01
    s    1
   0.905900000E+00   0.100000000E+01
    s    1
   0.128500000E+00   0.100000000E+01
    p    3
   0.187100000E+02   0.394263872E-01
   0.413300000E+01   0.244088985E+00
   0.120000000E+01   0.815492009E+00
    p    1
   0.382700000E+00   0.100000000E+01
    p    1
   0.120900000E+00   0.100000000E+01
    d    1
   0.109700000E+01   0.100000000E+01
    d    1
   0.318000000E+00   0.100000000E+01
    f    1
   0.761000000E+00   0.100000000E+01
 
    6
    s    8
   0.823600000E+04   0.542430189E-03
   0.123500000E+04   0.419642790E-02
   0.280800000E+03   0.215409141E-01
   0.792700000E+02   0.836149496E-01
   0.255900000E+02   0.239871619E+00
   0.899700000E+01   0.443751820E+00
   0.331900000E+01   0.353579696E+00
   0.364300000E+00  -0.917636608E-02
    s    8
   0.823600000E+04  -0.196392234E-03
   0.123500000E+04  -0.152595027E-02
   0.280800000E+03  -0.789044903E-02
   0.792700000E+02  -0.315148705E-01
   0.255900000E+02  -0.969100083E-01
   0.899700000E+01  -0.220541526E+00
   0.331900000E+01  -0.296069113E+00
   0.364300000E+00   0.104050343E+01
    s    1
   0.905900000E+00   0.100000000E+01
    s    1
   0.128500000E+00   0.100000000E+01
    p    3
   0.187100000E+02   0.394263872E-01
   0.413300000E+01   0.244088985E+00
   0.120000000E+01   0.815492009E+00
    p    1
   0.382700000E+00   0.100000000E+01
    p    1
   0.120900000E+00   0.100000000E+01
    d    1
   0.109700000E+01   0.100000000E+01
    d    1
   0.318000000E+00   0.100000000E+01
    f    1
   0.761000000E+00   0.100000000E+01
 
    7
    s    3
   0.338700000E+02   0.254948632E-01
   0.509500000E+01   0.190362766E+00
   0.115900000E+01   0.852162022E+00
    s    1
   0.325800000E+00   0.100000000E+01
    s    1
   0.102700000E+00   0.100000000E+01
    p    1
   0.140700000E+01   0.100000000E+01
    p    1
   0.388000000E+00   0.100000000E+01
    d    1
   0.105700000E+01   0.100000000E+01
 
    8
    s    3
   0.338700000E+02   0.254948632E-01
   0.509500000E+01   0.190362766E+00
   0.115900000E+01   0.852162022E+00
    s    1
   0.325800000E+00   0.100000000E+01
    s    1
   0.102700000E+00   0.100000000E+01
    p    1
   0.140700000E+01   0.100000000E+01
    p    1
   0.388000000E+00   0.100000000E+01
    d    1
   0.105700000E+01   0.100000000E+01
 
    9
    s    3
   0.338700000E+02   0.254948632E-01
   0.509500000E+01   0.190362766E+00
   0.115900000E+01   0.852162022E+00
    s    1
   0.325800000E+00   0.100000000E+01
    s    1
   0.102700000E+00   0.100000000E+01
    p    1
   0.140700000E+01   0.100000000E+01
    p    1
   0.388000000E+00   0.100000000E+01
    d    1
   0.105700000E+01   0.100000000E+01
 
   10
    s    3
   0.338700000E+02   0.254948632E-01
   0.509500000E+01   0.190362766E+00
   0.115900000E+01   0.852162022E+00
    s    1
   0.325800000E+00   0.100000000E+01
    s    1
   0.102700000E+00   0.100000000E+01
    p    1
   0.140700000E+01   0.100000000E+01
    p    1
   0.388000000E+00   0.100000000E+01
    d    1
   0.105700000E+01   0.100000000E+01
 
   11
    s    3
   0.338700000E+02   0.254948632E-01
   0.509500000E+01   0.190362766E+00
   0.115900000E+01   0.852162022E+00
    s    1
   0.325800000E+00   0.100000000E+01
    s    1
   0.102700000E+00   0.100000000E+01
    p    1
   0.140700000E+01   0.100000000E+01
    p    1
   0.388000000E+00   0.100000000E+01
    d    1
   0.105700000E+01   0.100000000E+01
 
   12
    s    3
   0.338700000E+02   0.254948632E-01
   0.509500000E+01   0.190362766E+00
   0.115900000E+01   0.852162022E+00
    s    1
   0.325800000E+00   0.100000000E+01
    s    1
   0.102700000E+00   0.100000000E+01
    p    1
   0.140700000E+01   0.100000000E+01
    p    1
   0.388000000E+00   0.100000000E+01
    d    1
   0.105700000E+01   0.100000000E+01
 
[MO]
 Sym= Ag  
 Ene=         0.000000
 Spin= Alpha
 Occup=       0.000000
   1       -0.399142463
   2       -0.000603240
   3       -0.017056166
   4       -0.001397367
   5       -0.000068093
   6        0.000000000
   7        0.000000000
   8        0.000232177
   9        0.000000000
  10        0.000000000
  11        0.000281481
  12        0.000000000
  13        0.000000000
  14        0.000169961
  15        0.000000000
  16        0.000000000
  17       -0.000016253
  18        0.000000000
  19        0.000078327
  20        0.000000000
  21        0.000000000
  22       -0.000179798
  23        0.000000000
  24        0.000000000
  25       -0.000088026
  26        0.000000000
  27        0.000000000
  28        0.000000000
  29        0.000075865
  30        0.000000000
  31       -0.399364313
  32       -0.000603572
  33       -0.017065484
  34       -0.001399223
  35       -0.000034071
  36        0.000058878
  37        0.000000000
  38        0.000115874
  39       -0.000200900
  40        0.000000000
  41        0.000140481
  42       -0.000243137
  43        0.000000000
  44        0.000170136
  45        0.000000000
  46        0.000000000
  47        0.000008100
  48        0.000014002
  49        0.000078364
  50        0.000000000
  51        0.000000000
  52        0.000090470
  53        0.000156142
  54        0.000000000
  55       -0.000044041
  56        0.000076195
  57        0.000000000
  58        0.000000000
  59       -0.000076066
  60       -0.000000018
  61       -0.399364313
  62       -0.000603572
  63       -0.017065484
  64       -0.001399223
  65        0.000034071
  66        0.000058878
  67        0.000000000
  68       -0.000115874
  69       -0.000200900
  70        0.000000000
  71       -0.000140481
  72       -0.000243137
  73        0.000000000
  74        0.000170136
  75        0.000000000
  76        0.000000000
  77        0.000008100
  78       -0.000014002
  79        0.000078364
  80        0.000000000
  81        0.000000000
  82        0.000090470
  83       -0.000156142
  84        0.000000000
  85        0.000044041
  86        0.000076195
  87        0.000000000
  88        0.000000000
  89        0.000076066
  90       -0.000000018
  91       -0.399142463
  92       -0.000603240
  93       -0.017056166
  94       -0.001397367
  95        0.000068093
  96        0.000000000
  97        0.000000000
  98       -0.000232177
  99        0.000000000
 100        0.000000000
 101       -0.000281481
 102        0.000000000
 103        0.000000000
 104        0.000169961
 105        0.000000000
 106        0.000000000
 107       -0.000016253
 108        0.000000000
 109        0.000078327
 110        0.000000000
 111        0.000000000
 112       -0.000179798
 113        0.000000000
 114        0.000000000
 115        0.000088026
 116        0.000000000
 117        0.000000000
 118        0.000000000
 119       -0.000075865
 120        0.000000000
 121       -0.399364313
 122       -0.000603572
 123       -0.017065484
 124       -0.001399223
 125        0.000034071
 126       -0.000058878
 127        0.000000000
 128       -0.000115874
 129        0.000200900
 130        0.000000000
 131       -0.000140481
 132        0.000243137
 133        0.000000000
 134        0.000170136
 135        0.000000000
 136        0.000000000
 137        0.000008100
 138        0.000014002
 139        0.000078364
 140        0.000000000
 141        0.000000000
 142        0.000090470
 143        0.000156142
 144        0.000000000
 145        0.000044041
 146       -0.000076195
 147        0.000000000
 148        0.000000000
 149        0.000076066
 150        0.000000018
 151       -0.399364313
 152       -0.000603572
 153       -0.017065484
 154       -0.001399223
 155       -0.000034071
 156       -0.000058878
 157        0.000000000
 158        0.000115874
 159        0.000200900
 160        0.000000000
 161        0.000140481
 162        0.000243137
 163        0.000000000
 164        0.000170136
 165        0.000000000
 166        0.000000000
 167        0.000008100
 168       -0.000014002
 169        0.000078364
 170        0.000000000
 171        0.000000000
 172        0.000090470
 173       -0.000156142
 174        0.000000000
 175       -0.000044041
 176       -0.000076195
 177        0.000000000
 178        0.000000000
 179       -0.000076066
 180        0.000000018
 181       -0.000074978
 182        0.000457573
 183        0.000477153
 184        0.000125357
 185        0.000000000
 186        0.000000000
 187        0.000231006
 188        0.000000000
 189        0.000000000
 190       -0.000056552
 191        0.000000000
 192        0.000000000
 193        0.000107829
 194        0.000000000
 195       -0.000074964
 196        0.000457839
 197        0.000477012
 198        0.000062714
 199       -0.000108625
 200        0.000000000
 201        0.000115631
 202       -0.000200075
 203        0.000000000
 204       -0.000056544
 205        0.000000000
 206        0.000000000
 207       -0.000053932
 208       -0.000093452
 209       -0.000074964
 210        0.000457839
 211        0.000477012
 212       -0.000062714
 213       -0.000108625
 214        0.000000000
 215       -0.000115631
 216       -0.000200075
 217        0.000000000
 218       -0.000056544
 219        0.000000000
 220        0.000000000
 221       -0.000053932
 222        0.000093452
 223       -0.000074978
 224        0.000457573
 225        0.000477153
 226       -0.000125357
 227        0.000000000
 228        0.000000000
 229       -0.000231006
 230        0.000000000
 231        0.000000000
 232       -0.000056552
 233        0.000000000
 234        0.000000000
 235        0.000107829
 236        0.000000000
 237       -0.000074964
 238        0.000457839
 239        0.000477012
 240       -0.000062714
 241        0.000108625
 242        0.000000000
 243       -0.000115631
 244        0.000200075
 245        0.000000000
 246       -0.000056544
 247        0.000000000
 248        0.000000000
 249       -0.000053932
 250       -0.000093452
 251       -0.000074964
 252        0.000457839
 253        0.000477012
 254        0.000062714
 255        0.000108625
 256        0.000000000
 257        0.000115631
 258        0.000200075
 259        0.000000000
 260       -0.000056544
 261        0.000000000
 262        0.000000000
 263       -0.000053932
 264        0.000093452
 Sym= Ag  
 Ene=         0.000000
 Spin= Alpha
 Occup=       0.000000
   1       -0.565109216
   2       -0.000874869
   3       -0.023816182
   4       -0.003100575
   5        0.000222322
   6        0.000000000
   7        0.000000000
   8       -0.001488451
   9        0.000000000
  10        0.000000000
  11       -0.001026695
  12        0.000000000
  13        0.000000000
  14        0.000529700
  15        0.000000000
  16        0.000000000
  17        0.000001873
  18        0.000000000
  19       -0.000197583
  20        0.000000000
  21        0.000000000
  22        0.001494118
  23        0.000000000
  24        0.000000000
  25        0.000040930
  26        0.000000000
  27        0.000000000
  28        0.000000000
  29        0.000633235
  30        0.000000000
  31        0.282397895
  32        0.000437276
  33        0.011901346
  34        0.001549915
  35        0.000145114
  36        0.000212143
  37        0.000000000
  38       -0.000252303
  39       -0.001004849
  40        0.000000000
  41       -0.000123200
  42       -0.000663928
  43        0.000000000
  44       -0.000264772
  45        0.000000000
  46        0.000000000
  47       -0.000087950
  48        0.000051919
  49        0.000098757
  50        0.000000000
  51        0.000000000
  52       -0.000023699
  53        0.000876332
  54        0.000000000
  55        0.000078698
  56        0.000069098
  57        0.000000000
  58        0.000000000
  59        0.000316577
  60       -0.000065577
  61        0.282397895
  62        0.000437276
  63        0.011901346
  64        0.001549915
  65       -0.000145114
  66        0.000212143
  67        0.000000000
  68        0.000252303
  69       -0.001004849
  70        0.000000000
  71        0.000123200
  72       -0.000663928
  73        0.000000000
  74       -0.000264772
  75        0.000000000
  76        0.000000000
  77       -0.000087950
  78       -0.000051919
  79        0.000098757
  80        0.000000000
  81        0.000000000
  82       -0.000023699
  83       -0.000876332
  84        0.000000000
  85       -0.000078698
  86        0.000069098
  87        0.000000000
  88        0.000000000
  89       -0.000316577
  90       -0.000065577
  91       -0.565109216
  92       -0.000874869
  93       -0.023816182
  94       -0.003100575
  95       -0.000222322
  96        0.000000000
  97        0.000000000
  98        0.001488451
  99        0.000000000
 100        0.000000000
 101        0.001026695
 102        0.000000000
 103        0.000000000
 104        0.000529700
 105        0.000000000
 106        0.000000000
 107        0.000001873
 108        0.000000000
 109       -0.000197583
 110        0.000000000
 111        0.000000000
 112        0.001494118
 113        0.000000000
 114        0.000000000
 115       -0.000040930
 116        0.000000000
 117        0.000000000
 118        0.000000000
 119       -0.000633235
 120        0.000000000
 121        0.282397895
 122        0.000437276
 123        0.011901346
 124        0.001549915
 125       -0.000145114
 126       -0.000212143
 127        0.000000000
 128        0.000252303
 129        0.001004849
 130        0.000000000
 131        0.000123200
 132        0.000663928
 133        0.000000000
 134       -0.000264772
 135        0.000000000
 136        0.000000000
 137       -0.000087950
 138        0.000051919
 139        0.000098757
 140        0.000000000
 141        0.000000000
 142       -0.000023699
 143        0.000876332
 144        0.000000000
 145       -0.000078698
 146       -0.000069098
 147        0.000000000
 148        0.000000000
 149       -0.000316577
 150        0.000065577
 151        0.282397895
 152        0.000437276
 153        0.011901346
 154        0.001549915
 155        0.000145114
 156       -0.000212143
 157        0.000000000
 158       -0.000252303
 159        0.001004849
 160        0.000000000
 161       -0.000123200
 162        0.000663928
 163        0.000000000
 164       -0.000264772
 165        0.000000000
 166        0.000000000
 167       -0.000087950
 168       -0.000051919
 169        0.000098757
 170        0.000000000
 171        0.000000000
 172       -0.000023699
 173       -0.000876332
 174        0.000000000
 175        0.000078698
 176       -0.000069098
 177        0.000000000
 178        0.000000000
 179        0.000316577
 180        0.000065577
 181       -0.000064676
 182       -0.002042351
 183       -0.000130720
 184        0.000195177
 185        0.000000000
 186        0.000000000
 187       -0.000738489
 188        0.000000000
 189        0.000000000
 190       -0.000053182
 191        0.000000000
 192        0.000000000
 193        0.000148823
 194        0.000000000
 195        0.000032318
 196        0.001021081
 197        0.000065486
 198       -0.000063117
 199        0.000076184
 200        0.000000000
 201        0.000051446
 202       -0.000396630
 203        0.000000000
 204        0.000026575
 205        0.000000000
 206        0.000000000
 207       -0.000020889
 208        0.000097939
 209        0.000032318
 210        0.001021081
 211        0.000065486
 212        0.000063117
 213        0.000076184
 214        0.000000000
 215       -0.000051446
 216       -0.000396630
 217        0.000000000
 218        0.000026575
 219        0.000000000
 220        0.000000000
 221       -0.000020889
 222       -0.000097939
 223       -0.000064676
 224       -0.002042351
 225       -0.000130720
 226       -0.000195177
 227        0.000000000
 228        0.000000000
 229        0.000738489
 230        0.000000000
 231        0.000000000
 232       -0.000053182
 233        0.000000000
 234        0.000000000
 235        0.000148823
 236        0.000000000
 237        0.000032318
 238        0.001021081
 239        0.000065486
 240        0.000063117
 241       -0.000076184
 242        0.000000000
 243       -0.000051446
 244        0.000396630
 245        0.000000000
 246        0.000026575
 247        0.000000000
 248        0.000000000
 249       -0.000020889
 250        0.000097939
 251        0.000032318
 252        0.001021081
 253        0.000065486
 254       -0.000063117
 255       -0.000076184
 256        0.000000000
 257        0.000051446
 258        0.000396630
 259        0.000000000
 260        0.000026575
 261        0.000000000
 262        0.000000000
 263       -0.000020889
 264       -0.000097939
 Sym= Ag  
 Ene=         0.000000
 Spin= Alpha
 Occup=       0.000000
   1        0.011103646
   2       -0.205225034
   3       -0.040940350
   4       -0.056401818
   5       -0.033499793
   6        0.000000000
   7        0.000000000
   8       -0.031122178
   9        0.000000000
  10        0.000000000
  11       -0.000669052
  12        0.000000000
  13        0.000000000
  14        0.007565470
  15        0.000000000
  16        0.000000000
  17        0.001436913
  18        0.000000000
  19        0.006651652
  20        0.000000000
  21        0.000000000
  22       -0.001548302
  23        0.000000000
  24        0.000000000
  25        0.000891358
  26        0.000000000
  27        0.000000000
  28        0.000000000
  29        0.004795454
  30        0.000000000
  31        0.011103453
  32       -0.205223907
  33       -0.040940352
  34       -0.056393852
  35       -0.016747168
  36        0.029011139
  37        0.000000000
  38       -0.015559335
  39        0.026953666
  40        0.000000000
  41       -0.000333408
  42        0.000576867
  43        0.000000000
  44        0.007565497
  45        0.000000000
  46        0.000000000
  47       -0.000718474
  48       -0.001244907
  49        0.006650661
  50        0.000000000
  51        0.000000000
  52        0.000772412
  53        0.001338019
  54        0.000000000
  55        0.000445603
  56       -0.000771866
  57        0.000000000
  58        0.000000000
  59       -0.004795584
  60        0.000000256
  61        0.011103453
  62       -0.205223907
  63       -0.040940352
  64       -0.056393852
  65        0.016747168
  66        0.029011139
  67        0.000000000
  68        0.015559335
  69        0.026953666
  70        0.000000000
  71        0.000333408
  72        0.000576867
  73        0.000000000
  74        0.007565497
  75        0.000000000
  76        0.000000000
  77       -0.000718474
  78        0.001244907
  79        0.006650661
  80        0.000000000
  81        0.000000000
  82        0.000772412
  83       -0.001338019
  84        0.000000000
  85       -0.000445603
  86       -0.000771866
  87        0.000000000
  88        0.000000000
  89        0.004795584
  90        0.000000256
  91        0.011103646
  92       -0.205225034
  93       -0.040940350
  94       -0.056401818
  95        0.033499793
  96        0.000000000
  97        0.000000000
  98        0.031122178
  99        0.000000000
 100        0.000000000
 101        0.000669052
 102        0.000000000
 103        0.000000000
 104        0.007565470
 105        0.000000000
 106        0.000000000
 107        0.001436913
 108        0.000000000
 109        0.006651652
 110        0.000000000
 111        0.000000000
 112       -0.001548302
 113        0.000000000
 114        0.000000000
 115       -0.000891358
 116        0.000000000
 117        0.000000000
 118        0.000000000
 119       -0.004795454
 120        0.000000000
 121        0.011103453
 122       -0.205223907
 123       -0.040940352
 124       -0.056393852
 125        0.016747168
 126       -0.029011139
 127        0.000000000
 128        0.015559335
 129       -0.026953666
 130        0.000000000
 131        0.000333408
 132       -0.000576867
 133        0.000000000
 134        0.007565497
 135        0.000000000
 136        0.000000000
 137       -0.000718474
 138       -0.001244907
 139        0.006650661
 140        0.000000000
 141        0.000000000
 142        0.000772412
 143        0.001338019
 144        0.000000000
 145       -0.000445603
 146        0.000771866
 147        0.000000000
 148        0.000000000
 149        0.004795584
 150       -0.000000256
 151        0.011103453
 152       -0.205223907
 153       -0.040940352
 154       -0.056393852
 155       -0.016747168
 156       -0.029011139
 157        0.000000000
 158       -0.015559335
 159       -0.026953666
 160        0.000000000
 161       -0.000333408
 162       -0.000576867
 163        0.000000000
 164        0.007565497
 165        0.000000000
 166        0.000000000
 167       -0.000718474
 168        0.001244907
 169        0.006650661
 170        0.000000000
 171        0.000000000
 172        0.000772412
 173       -0.001338019
 174        0.000000000
 175        0.000445603
 176        0.000771866
 177        0.000000000
 178        0.000000000
 179       -0.004795584
 180       -0.000000256
 181       -0.020736155
 182       -0.010855583
 183        0.001155751
 184       -0.001602756
 185        0.000000000
 186        0.000000000
 187        0.003615296
 188        0.000000000
 189        0.000000000
 190        0.000013772
 191        0.000000000
 192        0.000000000
 193        0.000657212
 194        0.000000000
 195       -0.020736085
 196       -0.010859502
 197        0.001156281
 198       -0.000801351
 199        0.001388050
 200        0.000000000
 201        0.001806778
 202       -0.003129561
 203        0.000000000
 204        0.000013772
 205        0.000000000
 206        0.000000000
 207       -0.000328565
 208       -0.000569095
 209       -0.020736085
 210       -0.010859502
 211        0.001156281
 212        0.000801351
 213        0.001388050
 214        0.000000000
 215       -0.001806778
 216       -0.003129561
 217        0.000000000
 218        0.000013772
 219        0.000000000
 220        0.000000000
 221       -0.000328565
 222        0.000569095
 223       -0.020736155
 224       -0.010855583
 225        0.001155751
 226        0.001602756
 227        0.000000000
 228        0.000000000
 229       -0.003615296
 230        0.000000000
 231        0.000000000
 232        0.000013772
 233        0.000000000
 234        0.000000000
 235        0.000657212
 236        0.000000000
 237       -0.020736085
 238       -0.010859502
 239        0.001156281
 240        0.000801351
 241       -0.001388050
 242        0.000000000
 243       -0.001806778
 244        0.003129561
 245        0.000000000
 246        0.000013772
 247        0.000000000
 248        0.000000000
 249       -0.000328565
 250       -0.000569095
 251       -0.020736085
 252       -0.010859502
 253        0.001156281
 254       -0.000801351
 255       -0.001388050
 256        0.000000000
 257        0.001806778
 258        0.003129561
 259        0.000000000
 260        0.000013772
 261        0.000000000
 262        0.000000000
 263       -0.000328565
 264        0.000569095
 Sym= Ag  
 Ene=         0.000000
 Spin= Alpha
 Occup=       0.000000
   1       -0.005412370
   2        0.239260561
   3        0.046466051
   4        0.157654757
   5       -0.032919272
   6        0.000000000
   7        0.000000000
   8       -0.040134555
   9        0.000000000
  10        0.000000000
  11       -0.005051013
  12        0.000000000
  13        0.000000000
  14       -0.006985081
  15        0.000000000
  16        0.000000000
  17        0.000280594
  18        0.000000000
  19       -0.013922909
  20        0.000000000
  21        0.000000000
  22        0.001656688
  23        0.000000000
  24        0.000000000
  25       -0.000258142
  26        0.000000000
  27        0.000000000
  28        0.000000000
  29       -0.006850723
  30        0.000000000
  31        0.002706030
  32       -0.119629450
  33       -0.023232773
  34       -0.078827370
  35       -0.076104247
  36       -0.062940435
  37        0.000000000
  38       -0.084233266
  39       -0.071797617
  40        0.000000000
  41       -0.013955784
  42       -0.010972802
  43        0.000000000
  44        0.003492499
  45        0.000000000
  46        0.000000000
  47       -0.006236083
  48        0.003762443
  49        0.006961503
  50        0.000000000