[Molden Format]
[N_ATOMS]
           12
[Atoms]  AU
C     1    6      -2.642573        0.000000        0.000000
C     2    6      -1.321260        2.288425        0.000000
C     3    6       1.321260        2.288425        0.000000
C     4    6       2.642573       -0.000000        0.000000
C     5    6       1.321260       -2.288425        0.000000
C     6    6      -1.321260       -2.288425        0.000000
H     7    1      -4.707329        0.000000        0.000000
H     8    1      -2.353615        4.076583        0.000000
H     9    1       2.353615        4.076583        0.000000
H    10    1       4.707329       -0.000000        0.000000
H    11    1       2.353615       -4.076583        0.000000
H    12    1      -2.353615       -4.076583        0.000000
[5D7F9G]
[GTO]
    1
    s    8
   0.823600000E+04   0.542430189E-03
   0.123500000E+04   0.419642790E-02
   0.280800000E+03   0.215409141E-01
   0.792700000E+02   0.836149496E-01
   0.255900000E+02   0.239871619E+00
   0.899700000E+01   0.443751820E+00
   0.331900000E+01   0.353579696E+00
   0.364300000E+00  -0.917636608E-02
    s    8
   0.823600000E+04  -0.196392234E-03
   0.123500000E+04  -0.152595027E-02
   0.280800000E+03  -0.789044903E-02
   0.792700000E+02  -0.315148705E-01
   0.255900000E+02  -0.969100083E-01
   0.899700000E+01  -0.220541526E+00
   0.331900000E+01  -0.296069113E+00
   0.364300000E+00   0.104050343E+01
    s    1
   0.905900000E+00   0.100000000E+01
    s    1
   0.128500000E+00   0.100000000E+01
    p    3
   0.187100000E+02   0.394263872E-01
   0.413300000E+01   0.244088985E+00
   0.120000000E+01   0.815492009E+00
    p    1
   0.382700000E+00   0.100000000E+01
    p    1
   0.120900000E+00   0.100000000E+01
    d    1
   0.109700000E+01   0.100000000E+01
    d    1
   0.318000000E+00   0.100000000E+01
    f    1
   0.761000000E+00   0.100000000E+01
 
    2
    s    8
   0.823600000E+04   0.542430189E-03
   0.123500000E+04   0.419642790E-02
   0.280800000E+03   0.215409141E-01
   0.792700000E+02   0.836149496E-01
   0.255900000E+02   0.239871619E+00
   0.899700000E+01   0.443751820E+00
   0.331900000E+01   0.353579696E+00
   0.364300000E+00  -0.917636608E-02
    s    8
   0.823600000E+04  -0.196392234E-03
   0.123500000E+04  -0.152595027E-02
   0.280800000E+03  -0.789044903E-02
   0.792700000E+02  -0.315148705E-01
   0.255900000E+02  -0.969100083E-01
   0.899700000E+01  -0.220541526E+00
   0.331900000E+01  -0.296069113E+00
   0.364300000E+00   0.104050343E+01
    s    1
   0.905900000E+00   0.100000000E+01
    s    1
   0.128500000E+00   0.100000000E+01
    p    3
   0.187100000E+02   0.394263872E-01
   0.413300000E+01   0.244088985E+00
   0.120000000E+01   0.815492009E+00
    p    1
   0.382700000E+00   0.100000000E+01
    p    1
   0.120900000E+00   0.100000000E+01
    d    1
   0.109700000E+01   0.100000000E+01
    d    1
   0.318000000E+00   0.100000000E+01
    f    1
   0.761000000E+00   0.100000000E+01
 
    3
    s    8
   0.823600000E+04   0.542430189E-03
   0.123500000E+04   0.419642790E-02
   0.280800000E+03   0.215409141E-01
   0.792700000E+02   0.836149496E-01
   0.255900000E+02   0.239871619E+00
   0.899700000E+01   0.443751820E+00
   0.331900000E+01   0.353579696E+00
   0.364300000E+00  -0.917636608E-02
    s    8
   0.823600000E+04  -0.196392234E-03
   0.123500000E+04  -0.152595027E-02
   0.280800000E+03  -0.789044903E-02
   0.792700000E+02  -0.315148705E-01
   0.255900000E+02  -0.969100083E-01
   0.899700000E+01  -0.220541526E+00
   0.331900000E+01  -0.296069113E+00
   0.364300000E+00   0.104050343E+01
    s    1
   0.905900000E+00   0.100000000E+01
    s    1
   0.128500000E+00   0.100000000E+01
    p    3
   0.187100000E+02   0.394263872E-01
   0.413300000E+01   0.244088985E+00
   0.120000000E+01   0.815492009E+00
    p    1
   0.382700000E+00   0.100000000E+01
    p    1
   0.120900000E+00   0.100000000E+01
    d    1
   0.109700000E+01   0.100000000E+01
    d    1
   0.318000000E+00   0.100000000E+01
    f    1
   0.761000000E+00   0.100000000E+01
 
    4
    s    8
   0.823600000E+04   0.542430189E-03
   0.123500000E+04   0.419642790E-02
   0.280800000E+03   0.215409141E-01
   0.792700000E+02   0.836149496E-01
   0.255900000E+02   0.239871619E+00
   0.899700000E+01   0.443751820E+00
   0.331900000E+01   0.353579696E+00
   0.364300000E+00  -0.917636608E-02
    s    8
   0.823600000E+04  -0.196392234E-03
   0.123500000E+04  -0.152595027E-02
   0.280800000E+03  -0.789044903E-02
   0.792700000E+02  -0.315148705E-01
   0.255900000E+02  -0.969100083E-01
   0.899700000E+01  -0.220541526E+00
   0.331900000E+01  -0.296069113E+00
   0.364300000E+00   0.104050343E+01
    s    1
   0.905900000E+00   0.100000000E+01
    s    1
   0.128500000E+00   0.100000000E+01
    p    3
   0.187100000E+02   0.394263872E-01
   0.413300000E+01   0.244088985E+00
   0.120000000E+01   0.815492009E+00
    p    1
   0.382700000E+00   0.100000000E+01
    p    1
   0.120900000E+00   0.100000000E+01
    d    1
   0.109700000E+01   0.100000000E+01
    d    1
   0.318000000E+00   0.100000000E+01
    f    1
   0.761000000E+00   0.100000000E+01
 
    5
    s    8
   0.823600000E+04   0.542430189E-03
   0.123500000E+04   0.419642790E-02
   0.280800000E+03   0.215409141E-01
   0.792700000E+02   0.836149496E-01
   0.255900000E+02   0.239871619E+00
   0.899700000E+01   0.443751820E+00
   0.331900000E+01   0.353579696E+00
   0.364300000E+00  -0.917636608E-02
    s    8
   0.823600000E+04  -0.196392234E-03
   0.123500000E+04  -0.152595027E-02
   0.280800000E+03  -0.789044903E-02
   0.792700000E+02  -0.315148705E-01
   0.255900000E+02  -0.969100083E-01
   0.899700000E+01  -0.220541526E+00
   0.331900000E+01  -0.296069113E+00
   0.364300000E+00   0.104050343E+01
    s    1
   0.905900000E+00   0.100000000E+01
    s    1
   0.128500000E+00   0.100000000E+01
    p    3
   0.187100000E+02   0.394263872E-01
   0.413300000E+01   0.244088985E+00
   0.120000000E+01   0.815492009E+00
    p    1
   0.382700000E+00   0.100000000E+01
    p    1
   0.120900000E+00   0.100000000E+01
    d    1
   0.109700000E+01   0.100000000E+01
    d    1
   0.318000000E+00   0.100000000E+01
    f    1
   0.761000000E+00   0.100000000E+01
 
    6
    s    8
   0.823600000E+04   0.542430189E-03
   0.123500000E+04   0.419642790E-02
   0.280800000E+03   0.215409141E-01
   0.792700000E+02   0.836149496E-01
   0.255900000E+02   0.239871619E+00
   0.899700000E+01   0.443751820E+00
   0.331900000E+01   0.353579696E+00
   0.364300000E+00  -0.917636608E-02
    s    8
   0.823600000E+04  -0.196392234E-03
   0.123500000E+04  -0.152595027E-02
   0.280800000E+03  -0.789044903E-02
   0.792700000E+02  -0.315148705E-01
   0.255900000E+02  -0.969100083E-01
   0.899700000E+01  -0.220541526E+00
   0.331900000E+01  -0.296069113E+00
   0.364300000E+00   0.104050343E+01
    s    1
   0.905900000E+00   0.100000000E+01
    s    1
   0.128500000E+00   0.100000000E+01
    p    3
   0.187100000E+02   0.394263872E-01
   0.413300000E+01   0.244088985E+00
   0.120000000E+01   0.815492009E+00
    p    1
   0.382700000E+00   0.100000000E+01
    p    1
   0.120900000E+00   0.100000000E+01
    d    1
   0.109700000E+01   0.100000000E+01
    d    1
   0.318000000E+00   0.100000000E+01
    f    1
   0.761000000E+00   0.100000000E+01
 
    7
    s    3
   0.338700000E+02   0.254948632E-01
   0.509500000E+01   0.190362766E+00
   0.115900000E+01   0.852162022E+00
    s    1
   0.325800000E+00   0.100000000E+01
    s    1
   0.102700000E+00   0.100000000E+01
    p    1
   0.140700000E+01   0.100000000E+01
    p    1
   0.388000000E+00   0.100000000E+01
    d    1
   0.105700000E+01   0.100000000E+01
 
    8
    s    3
   0.338700000E+02   0.254948632E-01
   0.509500000E+01   0.190362766E+00
   0.115900000E+01   0.852162022E+00
    s    1
   0.325800000E+00   0.100000000E+01
    s    1
   0.102700000E+00   0.100000000E+01
    p    1
   0.140700000E+01   0.100000000E+01
    p    1
   0.388000000E+00   0.100000000E+01
    d    1
   0.105700000E+01   0.100000000E+01
 
    9
    s    3
   0.338700000E+02   0.254948632E-01
   0.509500000E+01   0.190362766E+00
   0.115900000E+01   0.852162022E+00
    s    1
   0.325800000E+00   0.100000000E+01
    s    1
   0.102700000E+00   0.100000000E+01
    p    1
   0.140700000E+01   0.100000000E+01
    p    1
   0.388000000E+00   0.100000000E+01
    d    1
   0.105700000E+01   0.100000000E+01
 
   10
    s    3
   0.338700000E+02   0.254948632E-01
   0.509500000E+01   0.190362766E+00
   0.115900000E+01   0.852162022E+00
    s    1
   0.325800000E+00   0.100000000E+01
    s    1
   0.102700000E+00   0.100000000E+01
    p    1
   0.140700000E+01   0.100000000E+01
    p    1
   0.388000000E+00   0.100000000E+01
    d    1
   0.105700000E+01   0.100000000E+01
 
   11
    s    3
   0.338700000E+02   0.254948632E-01
   0.509500000E+01   0.190362766E+00
   0.115900000E+01   0.852162022E+00
    s    1
   0.325800000E+00   0.100000000E+01
    s    1
   0.102700000E+00   0.100000000E+01
    p    1
   0.140700000E+01   0.100000000E+01
    p    1
   0.388000000E+00   0.100000000E+01
    d    1
   0.105700000E+01   0.100000000E+01
 
   12
    s    3
   0.338700000E+02   0.254948632E-01
   0.509500000E+01   0.190362766E+00
   0.115900000E+01   0.852162022E+00
    s    1
   0.325800000E+00   0.100000000E+01
    s    1
   0.102700000E+00   0.100000000E+01
    p    1
   0.140700000E+01   0.100000000E+01
    p    1
   0.388000000E+00   0.100000000E+01
    d    1
   0.105700000E+01   0.100000000E+01
 
[MO]
 Sym= Ag  
 Ene=       -11.226089
 Spin= Alpha
 Occup=       2.000000
   1        0.399209458
   2        0.000595363
   3        0.017115309
   4        0.001401553
   5        0.000073661
   6        0.000000000
   7        0.000000000
   8       -0.000239713
   9        0.000000000
  10        0.000000000
  11       -0.000283714
  12        0.000000000
  13        0.000000000
  14       -0.000160662
  15        0.000000000
  16        0.000000000
  17        0.000015676
  18        0.000000000
  19       -0.000078655
  20        0.000000000
  21        0.000000000
  22        0.000183752
  23        0.000000000
  24        0.000000000
  25        0.000087507
  26        0.000000000
  27        0.000000000
  28        0.000000000
  29       -0.000073244
  30        0.000000000
  31        0.399287201
  32        0.000595466
  33        0.017118570
  34        0.001402617
  35        0.000036849
  36       -0.000063771
  37        0.000000000
  38       -0.000119725
  39        0.000207823
  40        0.000000000
  41       -0.000141663
  42        0.000245336
  43        0.000000000
  44       -0.000160699
  45        0.000000000
  46        0.000000000
  47       -0.000007796
  48       -0.000013510
  49       -0.000078742
  50        0.000000000
  51        0.000000000
  52       -0.000092576
  53       -0.000159944
  54        0.000000000
  55        0.000043771
  56       -0.000075763
  57        0.000000000
  58        0.000000000
  59        0.000073285
  60        0.000000029
  61        0.399287201
  62        0.000595466
  63        0.017118570
  64        0.001402617
  65       -0.000036849
  66       -0.000063771
  67        0.000000000
  68        0.000119725
  69        0.000207823
  70        0.000000000
  71        0.000141663
  72        0.000245336
  73        0.000000000
  74       -0.000160699
  75        0.000000000
  76        0.000000000
  77       -0.000007796
  78        0.000013510
  79       -0.000078742
  80        0.000000000
  81        0.000000000
  82       -0.000092576
  83        0.000159944
  84        0.000000000
  85       -0.000043771
  86       -0.000075763
  87        0.000000000
  88        0.000000000
  89       -0.000073285
  90        0.000000029
  91        0.399209458
  92        0.000595363
  93        0.017115309
  94        0.001401553
  95       -0.000073661
  96        0.000000000
  97        0.000000000
  98        0.000239713
  99        0.000000000
 100        0.000000000
 101        0.000283714
 102        0.000000000
 103        0.000000000
 104       -0.000160662
 105        0.000000000
 106        0.000000000
 107        0.000015676
 108        0.000000000
 109       -0.000078655
 110        0.000000000
 111        0.000000000
 112        0.000183752
 113        0.000000000
 114        0.000000000
 115       -0.000087507
 116        0.000000000
 117        0.000000000
 118        0.000000000
 119        0.000073244
 120        0.000000000
 121        0.399287201
 122        0.000595466
 123        0.017118570
 124        0.001402617
 125       -0.000036849
 126        0.000063771
 127        0.000000000
 128        0.000119725
 129       -0.000207823
 130        0.000000000
 131        0.000141663
 132       -0.000245336
 133        0.000000000
 134       -0.000160699
 135        0.000000000
 136        0.000000000
 137       -0.000007796
 138       -0.000013510
 139       -0.000078742
 140        0.000000000
 141        0.000000000
 142       -0.000092576
 143       -0.000159944
 144        0.000000000
 145       -0.000043771
 146        0.000075763
 147        0.000000000
 148        0.000000000
 149       -0.000073285
 150       -0.000000029
 151        0.399287201
 152        0.000595466
 153        0.017118570
 154        0.001402617
 155        0.000036849
 156        0.000063771
 157        0.000000000
 158       -0.000119725
 159       -0.000207823
 160        0.000000000
 161       -0.000141663
 162       -0.000245336
 163        0.000000000
 164       -0.000160699
 165        0.000000000
 166        0.000000000
 167       -0.000007796
 168        0.000013510
 169       -0.000078742
 170        0.000000000
 171        0.000000000
 172       -0.000092576
 173        0.000159944
 174        0.000000000
 175        0.000043771
 176        0.000075763
 177        0.000000000
 178        0.000000000
 179        0.000073285
 180       -0.000000029
 181        0.000075161
 182       -0.000464089
 183       -0.000479410
 184       -0.000125693
 185        0.000000000
 186        0.000000000
 187       -0.000234286
 188        0.000000000
 189        0.000000000
 190        0.000057111
 191        0.000000000
 192        0.000000000
 193       -0.000108771
 194        0.000000000
 195        0.000075130
 196       -0.000464885
 197       -0.000479302
 198       -0.000062855
 199        0.000108874
 200        0.000000000
 201       -0.000117345
 202        0.000203095
 203        0.000000000
 204        0.000057089
 205        0.000000000
 206        0.000000000
 207        0.000054394
 208        0.000094230
 209        0.000075130
 210       -0.000464885
 211       -0.000479302
 212        0.000062855
 213        0.000108874
 214        0.000000000
 215        0.000117345
 216        0.000203095
 217        0.000000000
 218        0.000057089
 219        0.000000000
 220        0.000000000
 221        0.000054394
 222       -0.000094230
 223        0.000075161
 224       -0.000464089
 225       -0.000479410
 226        0.000125693
 227        0.000000000
 228        0.000000000
 229        0.000234286
 230        0.000000000
 231        0.000000000
 232        0.000057111
 233        0.000000000
 234        0.000000000
 235       -0.000108771
 236        0.000000000
 237        0.000075130
 238       -0.000464885
 239       -0.000479302
 240        0.000062855
 241       -0.000108874
 242        0.000000000
 243        0.000117345
 244       -0.000203095
 245        0.000000000
 246        0.000057089
 247        0.000000000
 248        0.000000000
 249        0.000054394
 250        0.000094230
 251        0.000075130
 252       -0.000464885
 253       -0.000479302
 254       -0.000062855
 255       -0.000108874
 256        0.000000000
 257       -0.000117345
 258       -0.000203095
 259        0.000000000
 260        0.000057089
 261        0.000000000
 262        0.000000000
 263        0.000054394
 264       -0.000094230
 Sym= Ag  
 Ene=       -11.224331
 Spin= Alpha
 Occup=       2.000000
   1        0.564996819
   2        0.000859194
   3        0.023889039
   4        0.003071913
   5       -0.000215357
   6        0.000000000
   7        0.000000000
   8        0.001480839
   9        0.000000000
  10        0.000000000
  11        0.001012999
  12        0.000000000
  13        0.000000000
  14       -0.000515299
  15        0.000000000
  16        0.000000000
  17       -0.000001259
  18        0.000000000
  19        0.000206520
  20        0.000000000
  21        0.000000000
  22       -0.001492833
  23        0.000000000
  24        0.000000000
  25       -0.000041356
  26        0.000000000
  27        0.000000000
  28        0.000000000
  29       -0.000633152
  30        0.000000000
  31       -0.282443532
  32       -0.000429593
  33       -0.011942122
  34       -0.001535941
  35       -0.000147027
  36       -0.000209207
  37        0.000000000
  38        0.000250317
  39        0.000999239
  40        0.000000000
  41        0.000124849
  42        0.000656891
  43        0.000000000
  44        0.000257616
  45        0.000000000
  46        0.000000000
  47        0.000087713
  48       -0.000051423
  49       -0.000103205
  50        0.000000000
  51        0.000000000
  52        0.000027217
  53       -0.000877567
  54        0.000000000
  55       -0.000078569
  56       -0.000069243
  57        0.000000000
  58        0.000000000
  59       -0.000316555
  60        0.000066238
  61       -0.282443532
  62       -0.000429593
  63       -0.011942122
  64       -0.001535941
  65        0.000147027
  66       -0.000209207
  67        0.000000000
  68       -0.000250317
  69        0.000999239
  70        0.000000000
  71       -0.000124849
  72        0.000656891
  73        0.000000000
  74        0.000257616
  75        0.000000000
  76        0.000000000
  77        0.000087713
  78        0.000051423
  79       -0.000103205
  80        0.000000000
  81        0.000000000
  82        0.000027217
  83        0.000877567
  84        0.000000000
  85        0.000078569
  86       -0.000069243
  87        0.000000000
  88        0.000000000
  89        0.000316555
  90        0.000066238
  91        0.564996819
  92        0.000859194
  93        0.023889039
  94        0.003071913
  95        0.000215357
  96        0.000000000
  97        0.000000000
  98       -0.001480839
  99        0.000000000
 100        0.000000000
 101       -0.001012999
 102        0.000000000
 103        0.000000000
 104       -0.000515299
 105        0.000000000
 106        0.000000000
 107       -0.000001259
 108        0.000000000
 109        0.000206520
 110        0.000000000
 111        0.000000000
 112       -0.001492833
 113        0.000000000
 114        0.000000000
 115        0.000041356
 116        0.000000000
 117        0.000000000
 118        0.000000000
 119        0.000633152
 120        0.000000000
 121       -0.282443532
 122       -0.000429593
 123       -0.011942122
 124       -0.001535941
 125        0.000147027
 126        0.000209207
 127        0.000000000
 128       -0.000250317
 129       -0.000999239
 130        0.000000000
 131       -0.000124849
 132       -0.000656891
 133        0.000000000
 134        0.000257616
 135        0.000000000
 136        0.000000000
 137        0.000087713
 138       -0.000051423
 139       -0.000103205
 140        0.000000000
 141        0.000000000
 142        0.000027217
 143       -0.000877567
 144        0.000000000
 145        0.000078569
 146        0.000069243
 147        0.000000000
 148        0.000000000
 149        0.000316555
 150       -0.000066238
 151       -0.282443532
 152       -0.000429593
 153       -0.011942122
 154       -0.001535941
 155       -0.000147027
 156        0.000209207
 157        0.000000000
 158        0.000250317
 159       -0.000999239
 160        0.000000000
 161        0.000124849
 162       -0.000656891
 163        0.000000000
 164        0.000257616
 165        0.000000000
 166        0.000000000
 167        0.000087713
 168        0.000051423
 169       -0.000103205
 170        0.000000000
 171        0.000000000
 172        0.000027217
 173        0.000877567
 174        0.000000000
 175       -0.000078569
 176        0.000069243
 177        0.000000000
 178        0.000000000
 179       -0.000316555
 180       -0.000066238
 181        0.000064446
 182        0.002042851
 183        0.000127113
 184       -0.000196266
 185        0.000000000
 186        0.000000000
 187        0.000737372
 188        0.000000000
 189        0.000000000
 190        0.000053806
 191        0.000000000
 192        0.000000000
 193       -0.000150586
 194        0.000000000
 195       -0.000032222
 196       -0.001021213
 197       -0.000063561
 198        0.000063607
 199       -0.000076567
 200        0.000000000
 201       -0.000049463
 202        0.000397061
 203        0.000000000
 204       -0.000026902
 205        0.000000000
 206        0.000000000
 207        0.000021057
 208       -0.000099085
 209       -0.000032222
 210       -0.001021213
 211       -0.000063561
 212       -0.000063607
 213       -0.000076567
 214        0.000000000
 215        0.000049463
 216        0.000397061
 217        0.000000000
 218       -0.000026902
 219        0.000000000
 220        0.000000000
 221        0.000021057
 222        0.000099085
 223        0.000064446
 224        0.002042851
 225        0.000127113
 226        0.000196266
 227        0.000000000
 228        0.000000000
 229       -0.000737372
 230        0.000000000
 231        0.000000000
 232        0.000053806
 233        0.000000000
 234        0.000000000
 235       -0.000150586
 236        0.000000000
 237       -0.000032222
 238       -0.001021213
 239       -0.000063561
 240       -0.000063607
 241        0.000076567
 242        0.000000000
 243        0.000049463
 244       -0.000397061
 245        0.000000000
 246       -0.000026902
 247        0.000000000
 248        0.000000000
 249        0.000021057
 250       -0.000099085
 251       -0.000032222
 252       -0.001021213
 253       -0.000063561
 254        0.000063607
 255        0.000076567
 256        0.000000000
 257       -0.000049463
 258       -0.000397061
 259        0.000000000
 260       -0.000026902
 261        0.000000000
 262        0.000000000
 263        0.000021057
 264        0.000099085
 Sym= Ag  
 Ene=        -1.139986
 Spin= Alpha
 Occup=       2.000000
   1        0.011108511
   2       -0.204912214
   3       -0.040575758
   4       -0.056354798
   5       -0.033494311
   6        0.000000000
   7        0.000000000
   8       -0.031449891
   9        0.000000000
  10        0.000000000
  11       -0.000829066
  12        0.000000000
  13        0.000000000
  14        0.007508738
  15        0.000000000
  16        0.000000000
  17        0.001436107
  18        0.000000000
  19        0.006727474
  20        0.000000000
  21        0.000000000
  22       -0.001612314
  23        0.000000000
  24        0.000000000
  25        0.000927592
  26        0.000000000
  27        0.000000000
  28        0.000000000
  29        0.004737489
  30        0.000000000
  31        0.011108328
  32       -0.204910974
  33       -0.040575698
  34       -0.056347269
  35       -0.016744425
  36        0.029006382
  37        0.000000000
  38       -0.015723197
  39        0.027237398
  40        0.000000000
  41       -0.000413541
  42        0.000715689
  43        0.000000000
  44        0.007508753
  45        0.000000000
  46        0.000000000
  47       -0.000718077
  48       -0.001244217
  49        0.006726509
  50        0.000000000
  51        0.000000000
  52        0.000804569
  53        0.001393661
  54        0.000000000
  55        0.000463717
  56       -0.000803244
  57        0.000000000
  58        0.000000000
  59       -0.004737611
  60        0.000000247
  61        0.011108328
  62       -0.204910974
  63       -0.040575698
  64       -0.056347269
  65        0.016744425
  66        0.029006382
  67        0.000000000
  68        0.015723197
  69        0.027237398
  70        0.000000000
  71        0.000413541
  72        0.000715689
  73        0.000000000
  74        0.007508753
  75        0.000000000
  76        0.000000000
  77       -0.000718077
  78        0.001244217
  79        0.006726509
  80        0.000000000
  81        0.000000000
  82        0.000804569
  83       -0.001393661
  84        0.000000000
  85       -0.000463717
  86       -0.000803244
  87        0.000000000
  88        0.000000000
  89        0.004737611
  90        0.000000247
  91        0.011108511
  92       -0.204912214
  93       -0.040575758
  94       -0.056354798
  95        0.033494311
  96        0.000000000
  97        0.000000000
  98        0.031449891
  99        0.000000000
 100        0.000000000
 101        0.000829066
 102        0.000000000
 103        0.000000000
 104        0.007508738
 105        0.000000000
 106        0.000000000
 107        0.001436107
 108        0.000000000
 109        0.006727474
 110        0.000000000
 111        0.000000000
 112       -0.001612314
 113        0.000000000
 114        0.000000000
 115       -0.000927592
 116        0.000000000
 117        0.000000000
 118        0.000000000
 119       -0.004737489
 120        0.000000000
 121        0.011108328
 122       -0.204910974
 123       -0.040575698
 124       -0.056347269
 125        0.016744425
 126       -0.029006382
 127        0.000000000
 128        0.015723197
 129       -0.027237398
 130        0.000000000
 131        0.000413541
 132       -0.000715689
 133        0.000000000
 134        0.007508753
 135        0.000000000
 136        0.000000000
 137       -0.000718077
 138       -0.001244217
 139        0.006726509
 140        0.000000000
 141        0.000000000
 142        0.000804569
 143        0.001393661
 144        0.000000000
 145       -0.000463717
 146        0.000803244
 147        0.000000000
 148        0.000000000
 149        0.004737611
 150       -0.000000247
 151        0.011108328
 152       -0.204910974
 153       -0.040575698
 154       -0.056347269
 155       -0.016744425
 156       -0.029006382
 157        0.000000000
 158       -0.015723197
 159       -0.027237398
 160        0.000000000
 161       -0.000413541
 162       -0.000715689
 163        0.000000000
 164        0.007508753
 165        0.000000000
 166        0.000000000
 167       -0.000718077
 168        0.001244217
 169        0.006726509
 170        0.000000000
 171        0.000000000
 172        0.000804569
 173       -0.001393661
 174        0.000000000
 175        0.000463717
 176        0.000803244
 177        0.000000000
 178        0.000000000
 179       -0.004737611
 180       -0.000000247
 181       -0.020713296
 182       -0.011215355
 183        0.001019469
 184       -0.001607997
 185        0.000000000
 186        0.000000000
 187        0.003469661
 188        0.000000000
 189        0.000000000
 190        0.000028139
 191        0.000000000
 192        0.000000000
 193        0.000634347
 194        0.000000000
 195       -0.020713207
 196       -0.011219055
 197        0.001019909
 198       -0.000803970
 199        0.001392586
 200        0.000000000
 201        0.001734011
 202       -0.003003505
 203        0.000000000
 204        0.000028143
 205        0.000000000
 206        0.000000000
 207       -0.000317133
 208       -0.000549296
 209       -0.020713207
 210       -0.011219055
 211        0.001019909
 212        0.000803970
 213        0.001392586
 214        0.000000000
 215       -0.001734011
 216       -0.003003505
 217        0.000000000
 218        0.000028143
 219        0.000000000
 220        0.000000000
 221       -0.000317133
 222        0.000549296
 223       -0.020713296
 224       -0.011215355
 225        0.001019469
 226        0.001607997
 227        0.000000000
 228        0.000000000
 229       -0.003469661
 230        0.000000000
 231        0.000000000
 232        0.000028139
 233        0.000000000
 234        0.000000000
 235        0.000634347
 236        0.000000000
 237       -0.020713207
 238       -0.011219055
 239        0.001019909
 240        0.000803970
 241       -0.001392586
 242        0.000000000
 243       -0.001734011
 244        0.003003505
 245        0.000000000
 246        0.000028143
 247        0.000000000
 248        0.000000000
 249       -0.000317133
 250       -0.000549296
 251       -0.020713207
 252       -0.011219055
 253        0.001019909
 254       -0.000803970
 255       -0.001392586
 256        0.000000000
 257        0.001734011
 258        0.003003505
 259        0.000000000
 260        0.000028143
 261        0.000000000
 262        0.000000000
 263       -0.000317133
 264        0.000549296
 Sym= Ag  
 Ene=        -0.814515
 Spin= Alpha
 Occup=       2.000000
   1       -0.005482918
   2        0.238783655
   3        0.045997385
   4        0.158046277
   5       -0.032805724
   6        0.000000000
   7        0.000000000
   8       -0.039604142
   9        0.000000000
  10        0.000000000
  11       -0.005176752
  12        0.000000000
  13        0.000000000
  14       -0.006882163
  15        0.000000000
  16        0.000000000
  17        0.000300177
  18        0.000000000
  19       -0.013561051
  20        0.000000000
  21        0.000000000
  22        0.001436029
  23        0.000000000
  24        0.000000000
  25       -0.000254926
  26        0.000000000
  27        0.000000000
  28        0.000000000
  29       -0.006787352
  30        0.000000000
  31        0.002741312
  32       -0.119390956
  33       -0.022998406
  34       -0.079023147
  35       -0.075669019
  36       -0.062623515
  37        0.000000000
  38       -0.084027436
  39       -0.071372467
  40        0.000000000
  41       -0.014038278
  42       -0.011092944
  43        0.000000000
  44        0.003441036
  45        0.000000000
  46        0.000000000
  47       -0.006218699
  48        0.003763718
  49        0.006780590
  50        0.000000000