[Molden Format]
[N_ATOMS]
           12
[Atoms]  AU
C     1    6      -2.642573        0.000000        0.000000
C     2    6      -1.321260        2.288425        0.000000
C     3    6       1.321260        2.288425        0.000000
C     4    6       2.642573       -0.000000        0.000000
C     5    6       1.321260       -2.288425        0.000000
C     6    6      -1.321260       -2.288425        0.000000
H     7    1      -4.707329        0.000000        0.000000
H     8    1      -2.353615        4.076583        0.000000
H     9    1       2.353615        4.076583        0.000000
H    10    1       4.707329       -0.000000        0.000000
H    11    1       2.353615       -4.076583        0.000000
H    12    1      -2.353615       -4.076583        0.000000
[5D7F9G]
[GTO]
    1
    s    8
   0.666500000E+04   0.691583963E-03
   0.100000000E+04   0.532579615E-02
   0.228000000E+03   0.270607210E-01
   0.647100000E+02   0.101656846E+00
   0.210600000E+02   0.274574824E+00
   0.749500000E+01   0.448294319E+00
   0.279700000E+01   0.284902611E+00
   0.521500000E+00   0.151948592E-01
    s    8
   0.666500000E+04  -0.293269653E-03
   0.100000000E+04  -0.231803547E-02
   0.228000000E+03  -0.114997860E-01
   0.647100000E+02  -0.468267270E-01
   0.210600000E+02  -0.128466169E+00
   0.749500000E+01  -0.301266272E+00
   0.279700000E+01  -0.255630702E+00
   0.521500000E+00   0.109379336E+01
    s    1
   0.159600000E+00   0.100000000E+01
    p    3
   0.943900000E+01   0.569792516E-01
   0.200200000E+01   0.313207212E+00
   0.545600000E+00   0.760376742E+00
    p    1
   0.151700000E+00   0.100000000E+01
    d    1
   0.550000000E+00   0.100000000E+01
 
    2
    s    8
   0.666500000E+04   0.691583963E-03
   0.100000000E+04   0.532579615E-02
   0.228000000E+03   0.270607210E-01
   0.647100000E+02   0.101656846E+00
   0.210600000E+02   0.274574824E+00
   0.749500000E+01   0.448294319E+00
   0.279700000E+01   0.284902611E+00
   0.521500000E+00   0.151948592E-01
    s    8
   0.666500000E+04  -0.293269653E-03
   0.100000000E+04  -0.231803547E-02
   0.228000000E+03  -0.114997860E-01
   0.647100000E+02  -0.468267270E-01
   0.210600000E+02  -0.128466169E+00
   0.749500000E+01  -0.301266272E+00
   0.279700000E+01  -0.255630702E+00
   0.521500000E+00   0.109379336E+01
    s    1
   0.159600000E+00   0.100000000E+01
    p    3
   0.943900000E+01   0.569792516E-01
   0.200200000E+01   0.313207212E+00
   0.545600000E+00   0.760376742E+00
    p    1
   0.151700000E+00   0.100000000E+01
    d    1
   0.550000000E+00   0.100000000E+01
 
    3
    s    8
   0.666500000E+04   0.691583963E-03
   0.100000000E+04   0.532579615E-02
   0.228000000E+03   0.270607210E-01
   0.647100000E+02   0.101656846E+00
   0.210600000E+02   0.274574824E+00
   0.749500000E+01   0.448294319E+00
   0.279700000E+01   0.284902611E+00
   0.521500000E+00   0.151948592E-01
    s    8
   0.666500000E+04  -0.293269653E-03
   0.100000000E+04  -0.231803547E-02
   0.228000000E+03  -0.114997860E-01
   0.647100000E+02  -0.468267270E-01
   0.210600000E+02  -0.128466169E+00
   0.749500000E+01  -0.301266272E+00
   0.279700000E+01  -0.255630702E+00
   0.521500000E+00   0.109379336E+01
    s    1
   0.159600000E+00   0.100000000E+01
    p    3
   0.943900000E+01   0.569792516E-01
   0.200200000E+01   0.313207212E+00
   0.545600000E+00   0.760376742E+00
    p    1
   0.151700000E+00   0.100000000E+01
    d    1
   0.550000000E+00   0.100000000E+01
 
    4
    s    8
   0.666500000E+04   0.691583963E-03
   0.100000000E+04   0.532579615E-02
   0.228000000E+03   0.270607210E-01
   0.647100000E+02   0.101656846E+00
   0.210600000E+02   0.274574824E+00
   0.749500000E+01   0.448294319E+00
   0.279700000E+01   0.284902611E+00
   0.521500000E+00   0.151948592E-01
    s    8
   0.666500000E+04  -0.293269653E-03
   0.100000000E+04  -0.231803547E-02
   0.228000000E+03  -0.114997860E-01
   0.647100000E+02  -0.468267270E-01
   0.210600000E+02  -0.128466169E+00
   0.749500000E+01  -0.301266272E+00
   0.279700000E+01  -0.255630702E+00
   0.521500000E+00   0.109379336E+01
    s    1
   0.159600000E+00   0.100000000E+01
    p    3
   0.943900000E+01   0.569792516E-01
   0.200200000E+01   0.313207212E+00
   0.545600000E+00   0.760376742E+00
    p    1
   0.151700000E+00   0.100000000E+01
    d    1
   0.550000000E+00   0.100000000E+01
 
    5
    s    8
   0.666500000E+04   0.691583963E-03
   0.100000000E+04   0.532579615E-02
   0.228000000E+03   0.270607210E-01
   0.647100000E+02   0.101656846E+00
   0.210600000E+02   0.274574824E+00
   0.749500000E+01   0.448294319E+00
   0.279700000E+01   0.284902611E+00
   0.521500000E+00   0.151948592E-01
    s    8
   0.666500000E+04  -0.293269653E-03
   0.100000000E+04  -0.231803547E-02
   0.228000000E+03  -0.114997860E-01
   0.647100000E+02  -0.468267270E-01
   0.210600000E+02  -0.128466169E+00
   0.749500000E+01  -0.301266272E+00
   0.279700000E+01  -0.255630702E+00
   0.521500000E+00   0.109379336E+01
    s    1
   0.159600000E+00   0.100000000E+01
    p    3
   0.943900000E+01   0.569792516E-01
   0.200200000E+01   0.313207212E+00
   0.545600000E+00   0.760376742E+00
    p    1
   0.151700000E+00   0.100000000E+01
    d    1
   0.550000000E+00   0.100000000E+01
 
    6
    s    8
   0.666500000E+04   0.691583963E-03
   0.100000000E+04   0.532579615E-02
   0.228000000E+03   0.270607210E-01
   0.647100000E+02   0.101656846E+00
   0.210600000E+02   0.274574824E+00
   0.749500000E+01   0.448294319E+00
   0.279700000E+01   0.284902611E+00
   0.521500000E+00   0.151948592E-01
    s    8
   0.666500000E+04  -0.293269653E-03
   0.100000000E+04  -0.231803547E-02
   0.228000000E+03  -0.114997860E-01
   0.647100000E+02  -0.468267270E-01
   0.210600000E+02  -0.128466169E+00
   0.749500000E+01  -0.301266272E+00
   0.279700000E+01  -0.255630702E+00
   0.521500000E+00   0.109379336E+01
    s    1
   0.159600000E+00   0.100000000E+01
    p    3
   0.943900000E+01   0.569792516E-01
   0.200200000E+01   0.313207212E+00
   0.545600000E+00   0.760376742E+00
    p    1
   0.151700000E+00   0.100000000E+01
    d    1
   0.550000000E+00   0.100000000E+01
 
    7
    s    3
   0.130100000E+02   0.334987264E-01
   0.196200000E+01   0.234800801E+00
   0.444600000E+00   0.813682958E+00
    s    1
   0.122000000E+00   0.100000000E+01
    p    1
   0.727000000E+00   0.100000000E+01
 
    8
    s    3
   0.130100000E+02   0.334987264E-01
   0.196200000E+01   0.234800801E+00
   0.444600000E+00   0.813682958E+00
    s    1
   0.122000000E+00   0.100000000E+01
    p    1
   0.727000000E+00   0.100000000E+01
 
    9
    s    3
   0.130100000E+02   0.334987264E-01
   0.196200000E+01   0.234800801E+00
   0.444600000E+00   0.813682958E+00
    s    1
   0.122000000E+00   0.100000000E+01
    p    1
   0.727000000E+00   0.100000000E+01
 
   10
    s    3
   0.130100000E+02   0.334987264E-01
   0.196200000E+01   0.234800801E+00
   0.444600000E+00   0.813682958E+00
    s    1
   0.122000000E+00   0.100000000E+01
    p    1
   0.727000000E+00   0.100000000E+01
 
   11
    s    3
   0.130100000E+02   0.334987264E-01
   0.196200000E+01   0.234800801E+00
   0.444600000E+00   0.813682958E+00
    s    1
   0.122000000E+00   0.100000000E+01
    p    1
   0.727000000E+00   0.100000000E+01
 
   12
    s    3
   0.130100000E+02   0.334987264E-01
   0.196200000E+01   0.234800801E+00
   0.444600000E+00   0.813682958E+00
    s    1
   0.122000000E+00   0.100000000E+01
    p    1
   0.727000000E+00   0.100000000E+01
 
[MO]
 Sym= Ag  
 Ene=       -11.230438
 Spin= Alpha
 Occup=       2.000000
   1        0.408822814
   2        0.001472571
   3       -0.001852738
   4       -0.000088834
   5        0.000000000
   6        0.000000000
   7        0.000225525
   8        0.000000000
   9        0.000000000
  10       -0.000054083
  11        0.000000000
  12        0.000000000
  13        0.000095566
  14        0.000000000
  15        0.408822861
  16        0.001472553
  17       -0.001852678
  18       -0.000044406
  19        0.000076906
  20        0.000000000
  21        0.000112756
  22       -0.000195339
  23        0.000000000
  24       -0.000054061
  25        0.000000000
  26        0.000000000
  27       -0.000047785
  28       -0.000082740
  29        0.408822861
  30        0.001472553
  31       -0.001852678
  32        0.000044406
  33        0.000076906
  34        0.000000000
  35       -0.000112756
  36       -0.000195339
  37        0.000000000
  38       -0.000054061
  39        0.000000000
  40        0.000000000
  41       -0.000047785
  42        0.000082740
  43        0.408822814
  44        0.001472571
  45       -0.001852738
  46        0.000088834
  47        0.000000000
  48        0.000000000
  49       -0.000225525
  50        0.000000000
  51        0.000000000
  52       -0.000054083
  53        0.000000000
  54        0.000000000
  55        0.000095566
  56        0.000000000
  57        0.408822861
  58        0.001472553
  59       -0.001852678
  60        0.000044406
  61       -0.000076906
  62        0.000000000
  63       -0.000112756
  64        0.000195339
  65        0.000000000
  66       -0.000054061
  67        0.000000000
  68        0.000000000
  69       -0.000047785
  70       -0.000082740
  71        0.408822861
  72        0.001472553
  73       -0.001852678
  74       -0.000044406
  75       -0.000076906
  76        0.000000000
  77        0.000112756
  78        0.000195339
  79        0.000000000
  80       -0.000054061
  81        0.000000000
  82        0.000000000
  83       -0.000047785
  84        0.000082740
  85       -0.000144286
  86        0.000687129
  87       -0.000145225
  88        0.000000000
  89        0.000000000
  90       -0.000144254
  91        0.000687135
  92       -0.000072603
  93        0.000125757
  94        0.000000000
  95       -0.000144254
  96        0.000687135
  97        0.000072603
  98        0.000125757
  99        0.000000000
 100       -0.000144286
 101        0.000687129
 102        0.000145225
 103        0.000000000
 104        0.000000000
 105       -0.000144254
 106        0.000687135
 107        0.000072603
 108       -0.000125757
 109        0.000000000
 110       -0.000144254
 111        0.000687135
 112       -0.000072603
 113       -0.000125757
 114        0.000000000
 Sym= Ag  
 Ene=       -11.228738
 Spin= Alpha
 Occup=       2.000000
   1        0.578775848
   2        0.002781538
   3       -0.006645699
   4       -0.000024591
   5        0.000000000
   6        0.000000000
   7       -0.001590137
   8        0.000000000
   9        0.000000000
  10       -0.000487078
  11        0.000000000
  12        0.000000000
  13        0.000045685
  14        0.000000000
  15       -0.289387879
  16       -0.001390729
  17        0.003322863
  18        0.000054509
  19        0.000017271
  20        0.000000000
  21       -0.000142069
  22       -0.000999994
  23        0.000000000
  24        0.000243543
  25        0.000000000
  26        0.000000000
  27        0.000122051
  28       -0.000044096
  29       -0.289387879
  30       -0.001390729
  31        0.003322863
  32       -0.000054509
  33        0.000017271
  34        0.000000000
  35        0.000142069
  36       -0.000999994
  37        0.000000000
  38        0.000243543
  39        0.000000000
  40        0.000000000
  41        0.000122051
  42        0.000044096
  43        0.578775848
  44        0.002781538
  45       -0.006645699
  46        0.000024591
  47        0.000000000
  48        0.000000000
  49        0.001590137
  50        0.000000000
  51        0.000000000
  52       -0.000487078
  53        0.000000000
  54        0.000000000
  55        0.000045685
  56        0.000000000
  57       -0.289387879
  58       -0.001390729
  59        0.003322863
  60       -0.000054509
  61       -0.000017271
  62        0.000000000
  63        0.000142069
  64        0.000999994
  65        0.000000000
  66        0.000243543
  67        0.000000000
  68        0.000000000
  69        0.000122051
  70       -0.000044096
  71       -0.289387879
  72       -0.001390729
  73        0.003322863
  74        0.000054509
  75       -0.000017271
  76        0.000000000
  77       -0.000142069
  78        0.000999994
  79        0.000000000
  80        0.000243543
  81        0.000000000
  82        0.000000000
  83        0.000122051
  84        0.000044096
  85       -0.000346211
  86        0.000235563
  87       -0.000397486
  88        0.000000000
  89        0.000000000
  90        0.000173092
  91       -0.000117799
  92        0.000109554
  93       -0.000166240
  94        0.000000000
  95        0.000173092
  96       -0.000117799
  97       -0.000109554
  98       -0.000166240
  99        0.000000000
 100       -0.000346211
 101        0.000235563
 102        0.000397486
 103        0.000000000
 104        0.000000000
 105        0.000173092
 106       -0.000117799
 107       -0.000109554
 108        0.000166240
 109        0.000000000
 110        0.000173092
 111       -0.000117799
 112        0.000109554
 113        0.000166240
 114        0.000000000
 Sym= Ag  
 Ene=        -1.141175
 Spin= Alpha
 Occup=       2.000000
   1        0.011776447
   2       -0.179499669
   3       -0.100465526
   4       -0.064900201
   5        0.000000000
   6        0.000000000
   7       -0.012305779
   8        0.000000000
   9        0.000000000
  10        0.009116333
  11        0.000000000
  12        0.000000000
  13        0.005537164
  14        0.000000000
  15        0.011776129
  16       -0.179498795
  17       -0.100464953
  18       -0.032445372
  19        0.056204342
  20        0.000000000
  21       -0.006152285
  22        0.010656840
  23        0.000000000
  24        0.009116583
  25        0.000000000
  26        0.000000000
  27       -0.002769337
  28       -0.004796513
  29        0.011776129
  30       -0.179498795
  31       -0.100464953
  32        0.032445372
  33        0.056204342
  34        0.000000000
  35        0.006152285
  36        0.010656840
  37        0.000000000
  38        0.009116583
  39        0.000000000
  40        0.000000000
  41       -0.002769337
  42        0.004796513
  43        0.011776447
  44       -0.179499669
  45       -0.100465526
  46        0.064900201
  47        0.000000000
  48        0.000000000
  49        0.012305779
  50        0.000000000
  51        0.000000000
  52        0.009116333
  53        0.000000000
  54        0.000000000
  55        0.005537164
  56        0.000000000
  57        0.011776129
  58       -0.179498795
  59       -0.100464953
  60        0.032445372
  61       -0.056204342
  62        0.000000000
  63        0.006152285
  64       -0.010656840
  65        0.000000000
  66        0.009116583
  67        0.000000000
  68        0.000000000
  69       -0.002769337
  70       -0.004796513
  71        0.011776129
  72       -0.179498795
  73       -0.100464953
  74       -0.032445372
  75       -0.056204342
  76        0.000000000
  77       -0.006152285
  78       -0.010656840
  79        0.000000000
  80        0.009116583
  81        0.000000000
  82        0.000000000
  83       -0.002769337
  84        0.004796513
  85       -0.046607634
  86       -0.000901372
  87       -0.008244450
  88        0.000000000
  89        0.000000000
  90       -0.046607430
  91       -0.000901106
  92       -0.004122111
  93        0.007139936
  94        0.000000000
  95       -0.046607430
  96       -0.000901106
  97        0.004122111
  98        0.007139936
  99        0.000000000
 100       -0.046607634
 101       -0.000901372
 102        0.008244450
 103        0.000000000
 104        0.000000000
 105       -0.046607430
 106       -0.000901106
 107        0.004122111
 108       -0.007139936
 109        0.000000000
 110       -0.046607430
 111       -0.000901106
 112       -0.004122111
 113       -0.007139936
 114        0.000000000
 Sym= Ag  
 Ene=        -0.814740
 Spin= Alpha
 Occup=       2.000000
   1       -0.010557571
   2        0.199588459
   3        0.167968655
   4       -0.058387541
   5        0.000000000
   6        0.000000000
   7        0.005975540
   8        0.000000000
   9        0.000000000
  10       -0.003803769
  11        0.000000000
  12        0.000000000
  13       -0.002574310
  14        0.000000000
  15        0.005278549
  16       -0.099793668
  17       -0.083985113
  18       -0.139480075
  19       -0.114230796
  20        0.000000000
  21       -0.047058828
  22       -0.023717188
  23        0.000000000
  24        0.001902065
  25        0.000000000
  26        0.000000000
  27       -0.012154403
  28        0.005532046
  29        0.005278549
  30       -0.099793668
  31       -0.083985113
  32        0.139480075
  33       -0.114230796
  34        0.000000000
  35        0.047058828
  36       -0.023717188
  37        0.000000000
  38        0.001902065
  39        0.000000000
  40        0.000000000
  41       -0.012154403
  42       -0.005532046
  43       -0.010557571
  44        0.199588459
  45        0.167968655
  46        0.058387541
  47        0.000000000
  48        0.000000000
  49       -0.005975540
  50        0.000000000
  51        0.000000000
  52       -0.003803769
  53        0.000000000
  54        0.000000000
  55       -0.002574310
  56        0.000000000
  57        0.005278549
  58       -0.099793668
  59       -0.083985113
  60        0.139480075
  61        0.114230796
  62        0.000000000
  63        0.047058828
  64        0.023717188
  65        0.000000000
  66        0.001902065
  67        0.000000000
  68        0.000000000
  69       -0.012154403
  70        0.005532046
  71        0.005278549
  72       -0.099793668
  73       -0.083985113
  74       -0.139480075
  75        0.114230796
  76        0.000000000
  77       -0.047058828
  78        0.023717188
  79        0.000000000
  80        0.001902065
  81        0.000000000
  82        0.000000000
  83       -0.012154403
  84       -0.005532046
  85        0.154781182
  86        0.034074073
  87        0.017636117
  88        0.000000000
  89        0.000000000
  90       -0.077386299
  91       -0.017036072
  92       -0.007225728
  93        0.006009863
  94        0.000000000
  95       -0.077386299
  96       -0.017036072
  97        0.007225728
  98        0.006009863
  99        0.000000000
 100        0.154781182
 101        0.034074073
 102       -0.017636117
 103        0.000000000
 104        0.000000000
 105       -0.077386299
 106       -0.017036072
 107        0.007225728
 108       -0.006009863
 109        0.000000000
 110       -0.077386299
 111       -0.017036072
 112       -0.007225728
 113       -0.006009863
 114        0.000000000
 Sym= Ag  
 Ene=        -0.697977
 Spin= Alpha
 Occup=       2.000000
   1        0.003593009
   2       -0.011309443
   3       -0.029604258
   4        0.188140303
   5        0.000000000
   6        0.000000000
   7        0.064281699
   8        0.000000000
   9        0.000000000
  10       -0.001520380
  11        0.000000000
  12        0.000000000
  13        0.004956255
  14        0.000000000
  15        0.003592272
  16       -0.011313873
  17       -0.029596663
  18        0.094058896
  19       -0.162937966
  20        0.000000000
  21        0.032141334
  22       -0.055678821
  23        0.000000000
  24       -0.001521044
  25        0.000000000
  26        0.000000000
  27       -0.002479013
  28       -0.004292447
  29        0.003592272
  30       -0.011313873
  31       -0.029596663
  32       -0.094058896
  33       -0.162937966
  34        0.000000000
  35       -0.032141334
  36       -0.055678821
  37        0.000000000
  38       -0.001521044
  39        0.000000000
  40        0.000000000
  41       -0.002479013
  42        0.004292447
  43        0.003593009
  44       -0.011309443
  45       -0.029604258
  46       -0.188140303
  47        0.000000000
  48        0.000000000
  49       -0.064281699
  50        0.000000000
  51        0.000000000
  52       -0.001520380
  53        0.000000000
  54        0.000000000
  55        0.004956255
  56        0.000000000
  57        0.003592272
  58       -0.011313873
  59       -0.029596663
  60       -0.094058896
  61        0.162937966
  62        0.000000000
  63       -0.032141334
  64        0.055678821
  65        0.000000000
  66       -0.001521044
  67        0.000000000
  68        0.000000000
  69       -0.002479013
  70       -0.004292447
  71        0.003592272
  72       -0.011313873
  73       -0.029596663
  74        0.094058896
  75        0.162937966
  76        0.000000000
  77        0.032141334
  78        0.055678821
  79        0.000000000
  80       -0.001521044
  81        0.000000000
  82        0.000000000
  83       -0.002479013
  84        0.004292447
  85       -0.149715036
  86       -0.037867491
  87       -0.013041401
  88        0.000000000
  89        0.000000000
  90       -0.149715243
  91       -0.037864755
  92       -0.006520945
  93        0.011294687
  94        0.000000000
  95       -0.149715243
  96       -0.037864755
  97        0.006520945
  98        0.011294687
  99        0.000000000
 100       -0.149715036
 101       -0.037867491
 102        0.013041401
 103        0.000000000
 104        0.000000000
 105       -0.149715243
 106       -0.037864755
 107        0.006520945
 108       -0.011294687
 109        0.000000000
 110       -0.149715243
 111       -0.037864755
 112       -0.006520945
 113       -0.011294687
 114        0.000000000
 Sym= Ag  
 Ene=        -0.484779
 Spin= Alpha
 Occup=       2.000000
   1        0.002531281
   2        0.014254664
   3        0.001482084
   4        0.218606752
   5        0.000000000
   6        0.000000000
   7        0.094799475
   8        0.000000000
   9        0.000000000
  10       -0.000192945
  11        0.000000000
  12        0.000000000
  13       -0.032792396
  14        0.000000000
  15       -0.001265228
  16       -0.007125987
  17       -0.000743052
  18       -0.245577499
  19       -0.015565607
  20        0.000000000
  21       -0.102677854
  22       -0.004542684
  23        0.000000000
  24        0.000096783
  25        0.000000000
  26        0.000000000
  27       -0.023918490
  28       -0.005121309
  29       -0.001265228
  30       -0.007125987
  31       -0.000743052
  32        0.245577499
  33       -0.015565607
  34        0.000000000
  35        0.102677854
  36       -0.004542684
  37        0.000000000
  38        0.000096783
  39        0.000000000
  40        0.000000000
  41       -0.023918490
  42        0.005121309
  43        0.002531281
  44        0.014254664
  45        0.001482084
  46       -0.218606752
  47        0.000000000
  48        0.000000000
  49       -0.094799475
  50        0.000000000
  51        0.000000000
  52       -0.000192945
  53        0.000000000
  54        0.000000000
  55       -0.032792396
  56        0.000000000
  57       -0.001265228
  58       -0.007125987
  59       -0.000743052
  60        0.245577499
  61        0.015565607
  62        0.000000000
  63        0.102677854
  64        0.004542684
  65        0.000000000
  66        0.000096783
  67        0.000000000
  68        0.000000000
  69       -0.023918490
  70       -0.005121309
  71       -0.001265228
  72       -0.007125987
  73       -0.000743052
  74       -0.245577499
  75        0.015565607
  76        0.000000000
  77       -0.102677854
  78        0.004542684
  79        0.000000000
  80        0.000096783
  81        0.000000000
  82        0.000000000
  83       -0.023918490
  84        0.005121309
  85       -0.218991106
  86       -0.116049718
  87       -0.010584981
  88        0.000000000
  89        0.000000000
  90        0.109496838
  91        0.058024798
  92       -0.003303730
  93       -0.008019007
  94        0.000000000
  95        0.109496838
  96        0.058024798
  97        0.003303730
  98       -0.008019007
  99        0.000000000
 100       -0.218991106
 101       -0.116049718
 102        0.010584981
 103        0.000000000
 104        0.000000000
 105        0.109496838
 106        0.058024798
 107        0.003303730
 108        0.008019007
 109        0.000000000
 110        0.109496838
 111        0.058024798
 112       -0.003303730
 113        0.008019007
 114        0.000000000
 Sym= Ag  
 Ene=         0.182737
 Spin= Alpha
 Occup=       0.000000
   1       -0.021938244
   2        0.031346118
   3        0.573915774
   4       -0.094798629
   5        0.000000000
   6        0.000000000
   7       -0.280483114
   8        0.000000000
   9        0.000000000
  10       -0.004871723
  11        0.000000000
  12        0.000000000
  13       -0.007913107
  14        0.000000000
  15       -0.021940179
  16        0.031336514
  17        0.573930788
  18       -0.047396630
  19        0.082104360
  20        0.000000000
  21       -0.140199578
  22        0.242848520
  23        0.000000000
  24       -0.004873874
  25        0.000000000
  26        0.000000000
  27        0.003956299
  28        0.006854142
  29       -0.021940179
  30        0.031336514
  31        0.573930788
  32        0.047396630
  33        0.082104360
  34        0.000000000
  35        0.140199578
  36        0.242848520
  37        0.000000000
  38       -0.004873874
  39        0.000000000
  40        0.000000000
  41        0.003956299
  42       -0.006854142
  43       -0.021938244
  44        0.031346118
  45        0.573915774
  46        0.094798629
  47        0.000000000
  48        0.000000000
  49        0.280483114
  50        0.000000000
  51        0.000000000
  52       -0.004871723
  53        0.000000000
  54        0.000000000
  55       -0.007913107
  56        0.000000000
  57       -0.021940179
  58        0.031336514
  59        0.573930788
  60        0.047396630
  61       -0.082104360
  62        0.000000000
  63        0.140199578
  64       -0.242848520
  65        0.000000000
  66       -0.004873874
  67        0.000000000
  68        0.000000000
  69        0.003956299
  70        0.006854142
  71       -0.021940179
  72        0.031336514
  73        0.573930788
  74       -0.047396630
  75       -0.082104360
  76        0.000000000
  77       -0.140199578
  78       -0.242848520
  79        0.000000000
  80       -0.004873874
  81        0.000000000
  82        0.000000000
  83        0.003956299
  84       -0.006854142
  85       -0.030713904
  86       -0.752152203
  87       -0.007747760
  88        0.000000000
  89        0.000000000
  90       -0.030714670
  91       -0.752092378
  92       -0.003873444
  93        0.006709830
  94        0.000000000
  95       -0.030714670
  96       -0.752092378
  97        0.003873444
  98        0.006709830
  99        0.000000000
 100       -0.030713904
 101       -0.752152203
 102        0.007747760
 103        0.000000000
 104        0.000000000
 105       -0.030714670
 106       -0.752092378
 107        0.003873444
 108       -0.006709830
 109        0.000000000
 110       -0.030714670
 111       -0.752092378
 112       -0.003873444
 113       -0.006709830
 114        0.000000000
 Sym= Ag  
 Ene=         0.256707
 Spin= Alpha
 Occup=       0.000000
   1        0.024076097
   2       -0.075345460
   3       -0.992030568
   4        0.094035084
   5        0.000000000
   6        0.000000000
   7        0.949746663
   8        0.000000000
   9        0.000000000
  10        0.005216535
  11        0.000000000
  12        0.000000000
  13       -0.016616917
  14        0.000000000
  15       -0.012041296
  16        0.037669540
  17        0.496013184
  18       -0.052332906
  19        0.024084121
  20        0.000000000
  21       -0.404743054
  22        0.314653959
  23        0.000000000
  24       -0.002609577
  25        0.000000000
  26        0.000000000
  27        0.004016178
  28       -0.011912376
  29       -0.012041296
  30        0.037669540
  31        0.496013184
  32        0.052332906
  33        0.024084121
  34        0.000000000
  35        0.404743054
  36        0.314653959
  37        0.000000000
  38       -0.002609577
  39        0.000000000
  40        0.000000000
  41        0.004016178
  42        0.011912376
  43        0.024076097
  44       -0.075345460
  45       -0.992030568
  46       -0.094035084
  47        0.000000000
  48        0.000000000
  49       -0.949746663
  50        0.000000000
  51        0.000000000
  52        0.005216535
  53        0.000000000
  54        0.000000000
  55       -0.016616917
  56        0.000000000
  57       -0.012041296
  58        0.037669540
  59        0.496013184
  60        0.052332906
  61       -0.024084121
  62        0.000000000
  63        0.404743054
  64       -0.314653959
  65        0.000000000
  66       -0.002609577
  67        0.000000000
  68        0.000000000
  69        0.004016178
  70       -0.011912376
  71       -0.012041296
  72        0.037669540
  73        0.496013184
  74       -0.052332906
  75       -0.024084121
  76        0.000000000
  77       -0.404743054
  78       -0.314653959
  79        0.000000000
  80       -0.002609577
  81        0.000000000
  82        0.000000000
  83        0.004016178
  84        0.011912376
  85       -0.000734969
  86        1.550286467
  87        0.021560777
  88        0.000000000
  89        0.000000000
  90        0.000365638
  91       -0.775140989
  92       -0.010823175
  93        0.006199417
  94        0.000000000
  95        0.000365638
  96       -0.775140989
  97        0.010823175
  98        0.006199417
  99        0.000000000
 100       -0.000734969
 101        1.550286467
 102       -0.021560777
 103        0.000000000
 104        0.000000000
 105        0.000365638
 106       -0.775140989
 107        0.010823175
 108       -0.006199417
 109        0.000000000
 110        0.000365638
 111       -0.775140989
 112       -0.010823175
 113       -0.006199417
 114        0.000000000
 Sym= Ag  
 Ene=         0.437780
 Spin= Alpha
 Occup=       0.000000