[Molden Format]
[N_ATOMS]
           12
[Atoms]  AU
C     1    6      -2.642573        0.000000        0.000000
C     2    6      -1.321260        2.288425        0.000000
C     3    6       1.321260        2.288425        0.000000
C     4    6       2.642573       -0.000000        0.000000
C     5    6       1.321260       -2.288425        0.000000
C     6    6      -1.321260       -2.288425        0.000000
H     7    1      -4.707329        0.000000        0.000000
H     8    1      -2.353615        4.076583        0.000000
H     9    1       2.353615        4.076583        0.000000
H    10    1       4.707329       -0.000000        0.000000
H    11    1       2.353615       -4.076583        0.000000
H    12    1      -2.353615       -4.076583        0.000000
[5D7F9G]
[GTO]
    1
    s    8
   0.666500000E+04   0.691583963E-03
   0.100000000E+04   0.532579615E-02
   0.228000000E+03   0.270607210E-01
   0.647100000E+02   0.101656846E+00
   0.210600000E+02   0.274574824E+00
   0.749500000E+01   0.448294319E+00
   0.279700000E+01   0.284902611E+00
   0.521500000E+00   0.151948592E-01
    s    8
   0.666500000E+04  -0.293269653E-03
   0.100000000E+04  -0.231803547E-02
   0.228000000E+03  -0.114997860E-01
   0.647100000E+02  -0.468267270E-01
   0.210600000E+02  -0.128466169E+00
   0.749500000E+01  -0.301266272E+00
   0.279700000E+01  -0.255630702E+00
   0.521500000E+00   0.109379336E+01
    s    1
   0.159600000E+00   0.100000000E+01
    p    3
   0.943900000E+01   0.569792516E-01
   0.200200000E+01   0.313207212E+00
   0.545600000E+00   0.760376742E+00
    p    1
   0.151700000E+00   0.100000000E+01
    d    1
   0.550000000E+00   0.100000000E+01
 
    2
    s    8
   0.666500000E+04   0.691583963E-03
   0.100000000E+04   0.532579615E-02
   0.228000000E+03   0.270607210E-01
   0.647100000E+02   0.101656846E+00
   0.210600000E+02   0.274574824E+00
   0.749500000E+01   0.448294319E+00
   0.279700000E+01   0.284902611E+00
   0.521500000E+00   0.151948592E-01
    s    8
   0.666500000E+04  -0.293269653E-03
   0.100000000E+04  -0.231803547E-02
   0.228000000E+03  -0.114997860E-01
   0.647100000E+02  -0.468267270E-01
   0.210600000E+02  -0.128466169E+00
   0.749500000E+01  -0.301266272E+00
   0.279700000E+01  -0.255630702E+00
   0.521500000E+00   0.109379336E+01
    s    1
   0.159600000E+00   0.100000000E+01
    p    3
   0.943900000E+01   0.569792516E-01
   0.200200000E+01   0.313207212E+00
   0.545600000E+00   0.760376742E+00
    p    1
   0.151700000E+00   0.100000000E+01
    d    1
   0.550000000E+00   0.100000000E+01
 
    3
    s    8
   0.666500000E+04   0.691583963E-03
   0.100000000E+04   0.532579615E-02
   0.228000000E+03   0.270607210E-01
   0.647100000E+02   0.101656846E+00
   0.210600000E+02   0.274574824E+00
   0.749500000E+01   0.448294319E+00
   0.279700000E+01   0.284902611E+00
   0.521500000E+00   0.151948592E-01
    s    8
   0.666500000E+04  -0.293269653E-03
   0.100000000E+04  -0.231803547E-02
   0.228000000E+03  -0.114997860E-01
   0.647100000E+02  -0.468267270E-01
   0.210600000E+02  -0.128466169E+00
   0.749500000E+01  -0.301266272E+00
   0.279700000E+01  -0.255630702E+00
   0.521500000E+00   0.109379336E+01
    s    1
   0.159600000E+00   0.100000000E+01
    p    3
   0.943900000E+01   0.569792516E-01
   0.200200000E+01   0.313207212E+00
   0.545600000E+00   0.760376742E+00
    p    1
   0.151700000E+00   0.100000000E+01
    d    1
   0.550000000E+00   0.100000000E+01
 
    4
    s    8
   0.666500000E+04   0.691583963E-03
   0.100000000E+04   0.532579615E-02
   0.228000000E+03   0.270607210E-01
   0.647100000E+02   0.101656846E+00
   0.210600000E+02   0.274574824E+00
   0.749500000E+01   0.448294319E+00
   0.279700000E+01   0.284902611E+00
   0.521500000E+00   0.151948592E-01
    s    8
   0.666500000E+04  -0.293269653E-03
   0.100000000E+04  -0.231803547E-02
   0.228000000E+03  -0.114997860E-01
   0.647100000E+02  -0.468267270E-01
   0.210600000E+02  -0.128466169E+00
   0.749500000E+01  -0.301266272E+00
   0.279700000E+01  -0.255630702E+00
   0.521500000E+00   0.109379336E+01
    s    1
   0.159600000E+00   0.100000000E+01
    p    3
   0.943900000E+01   0.569792516E-01
   0.200200000E+01   0.313207212E+00
   0.545600000E+00   0.760376742E+00
    p    1
   0.151700000E+00   0.100000000E+01
    d    1
   0.550000000E+00   0.100000000E+01
 
    5
    s    8
   0.666500000E+04   0.691583963E-03
   0.100000000E+04   0.532579615E-02
   0.228000000E+03   0.270607210E-01
   0.647100000E+02   0.101656846E+00
   0.210600000E+02   0.274574824E+00
   0.749500000E+01   0.448294319E+00
   0.279700000E+01   0.284902611E+00
   0.521500000E+00   0.151948592E-01
    s    8
   0.666500000E+04  -0.293269653E-03
   0.100000000E+04  -0.231803547E-02
   0.228000000E+03  -0.114997860E-01
   0.647100000E+02  -0.468267270E-01
   0.210600000E+02  -0.128466169E+00
   0.749500000E+01  -0.301266272E+00
   0.279700000E+01  -0.255630702E+00
   0.521500000E+00   0.109379336E+01
    s    1
   0.159600000E+00   0.100000000E+01
    p    3
   0.943900000E+01   0.569792516E-01
   0.200200000E+01   0.313207212E+00
   0.545600000E+00   0.760376742E+00
    p    1
   0.151700000E+00   0.100000000E+01
    d    1
   0.550000000E+00   0.100000000E+01
 
    6
    s    8
   0.666500000E+04   0.691583963E-03
   0.100000000E+04   0.532579615E-02
   0.228000000E+03   0.270607210E-01
   0.647100000E+02   0.101656846E+00
   0.210600000E+02   0.274574824E+00
   0.749500000E+01   0.448294319E+00
   0.279700000E+01   0.284902611E+00
   0.521500000E+00   0.151948592E-01
    s    8
   0.666500000E+04  -0.293269653E-03
   0.100000000E+04  -0.231803547E-02
   0.228000000E+03  -0.114997860E-01
   0.647100000E+02  -0.468267270E-01
   0.210600000E+02  -0.128466169E+00
   0.749500000E+01  -0.301266272E+00
   0.279700000E+01  -0.255630702E+00
   0.521500000E+00   0.109379336E+01
    s    1
   0.159600000E+00   0.100000000E+01
    p    3
   0.943900000E+01   0.569792516E-01
   0.200200000E+01   0.313207212E+00
   0.545600000E+00   0.760376742E+00
    p    1
   0.151700000E+00   0.100000000E+01
    d    1
   0.550000000E+00   0.100000000E+01
 
    7
    s    3
   0.130100000E+02   0.334987264E-01
   0.196200000E+01   0.234800801E+00
   0.444600000E+00   0.813682958E+00
    s    1
   0.122000000E+00   0.100000000E+01
    p    1
   0.727000000E+00   0.100000000E+01
 
    8
    s    3
   0.130100000E+02   0.334987264E-01
   0.196200000E+01   0.234800801E+00
   0.444600000E+00   0.813682958E+00
    s    1
   0.122000000E+00   0.100000000E+01
    p    1
   0.727000000E+00   0.100000000E+01
 
    9
    s    3
   0.130100000E+02   0.334987264E-01
   0.196200000E+01   0.234800801E+00
   0.444600000E+00   0.813682958E+00
    s    1
   0.122000000E+00   0.100000000E+01
    p    1
   0.727000000E+00   0.100000000E+01
 
   10
    s    3
   0.130100000E+02   0.334987264E-01
   0.196200000E+01   0.234800801E+00
   0.444600000E+00   0.813682958E+00
    s    1
   0.122000000E+00   0.100000000E+01
    p    1
   0.727000000E+00   0.100000000E+01
 
   11
    s    3
   0.130100000E+02   0.334987264E-01
   0.196200000E+01   0.234800801E+00
   0.444600000E+00   0.813682958E+00
    s    1
   0.122000000E+00   0.100000000E+01
    p    1
   0.727000000E+00   0.100000000E+01
 
   12
    s    3
   0.130100000E+02   0.334987264E-01
   0.196200000E+01   0.234800801E+00
   0.444600000E+00   0.813682958E+00
    s    1
   0.122000000E+00   0.100000000E+01
    p    1
   0.727000000E+00   0.100000000E+01
 
[MO]
 Sym= Ag  
 Ene=         0.000000
 Spin= Alpha
 Occup=       0.000000
   1       -0.408770013
   2       -0.001415577
   3        0.001833593
   4        0.000087641
   5        0.000000000
   6        0.000000000
   7       -0.000229164
   8        0.000000000
   9        0.000000000
  10        0.000061285
  11        0.000000000
  12        0.000000000
  13       -0.000089350
  14        0.000000000
  15       -0.408820877
  16       -0.001415792
  17        0.001834120
  18        0.000043813
  19       -0.000075875
  20        0.000000000
  21       -0.000114534
  22        0.000198345
  23        0.000000000
  24        0.000061307
  25        0.000000000
  26        0.000000000
  27        0.000044683
  28        0.000077355
  29       -0.408820877
  30       -0.001415792
  31        0.001834120
  32       -0.000043813
  33       -0.000075875
  34        0.000000000
  35        0.000114534
  36        0.000198345
  37        0.000000000
  38        0.000061307
  39        0.000000000
  40        0.000000000
  41        0.000044683
  42       -0.000077355
  43       -0.408770013
  44       -0.001415577
  45        0.001833593
  46       -0.000087641
  47        0.000000000
  48        0.000000000
  49        0.000229164
  50        0.000000000
  51        0.000000000
  52        0.000061285
  53        0.000000000
  54        0.000000000
  55       -0.000089350
  56        0.000000000
  57       -0.408820877
  58       -0.001415792
  59        0.001834120
  60       -0.000043813
  61        0.000075875
  62        0.000000000
  63        0.000114534
  64       -0.000198345
  65        0.000000000
  66        0.000061307
  67        0.000000000
  68        0.000000000
  69        0.000044683
  70        0.000077355
  71       -0.408820877
  72       -0.001415792
  73        0.001834120
  74        0.000043813
  75        0.000075875
  76        0.000000000
  77       -0.000114534
  78       -0.000198345
  79        0.000000000
  80        0.000061307
  81        0.000000000
  82        0.000000000
  83        0.000044683
  84       -0.000077355
  85        0.000137194
  86       -0.000683267
  87        0.000139114
  88        0.000000000
  89        0.000000000
  90        0.000137191
  91       -0.000683291
  92        0.000069564
  93       -0.000120492
  94        0.000000000
  95        0.000137191
  96       -0.000683291
  97       -0.000069564
  98       -0.000120492
  99        0.000000000
 100        0.000137194
 101       -0.000683267
 102       -0.000139114
 103        0.000000000
 104        0.000000000
 105        0.000137191
 106       -0.000683291
 107       -0.000069564
 108        0.000120492
 109        0.000000000
 110        0.000137191
 111       -0.000683291
 112        0.000069564
 113        0.000120492
 114        0.000000000
 Sym= Ag  
 Ene=         0.000000
 Spin= Alpha
 Occup=       0.000000
   1       -0.578767589
   2       -0.002684049
   3        0.006546211
   4        0.000036005
   5        0.000000000
   6        0.000000000
   7        0.001541368
   8        0.000000000
   9        0.000000000
  10        0.000499703
  11        0.000000000
  12        0.000000000
  13       -0.000047497
  14        0.000000000
  15        0.289347854
  16        0.001341859
  17       -0.003272956
  18       -0.000054586
  19       -0.000010735
  20        0.000000000
  21        0.000148728
  22        0.000975708
  23        0.000000000
  24       -0.000249850
  25        0.000000000
  26        0.000000000
  27       -0.000115691
  28        0.000039387
  29        0.289347854
  30        0.001341859
  31       -0.003272956
  32        0.000054586
  33       -0.000010735
  34        0.000000000
  35       -0.000148728
  36        0.000975708
  37        0.000000000
  38       -0.000249850
  39        0.000000000
  40        0.000000000
  41       -0.000115691
  42       -0.000039387
  43       -0.578767589
  44       -0.002684049
  45        0.006546211
  46       -0.000036005
  47        0.000000000
  48        0.000000000
  49       -0.001541368
  50        0.000000000
  51        0.000000000
  52        0.000499703
  53        0.000000000
  54        0.000000000
  55       -0.000047497
  56        0.000000000
  57        0.289347854
  58        0.001341859
  59       -0.003272956
  60        0.000054586
  61        0.000010735
  62        0.000000000
  63       -0.000148728
  64       -0.000975708
  65        0.000000000
  66       -0.000249850
  67        0.000000000
  68        0.000000000
  69       -0.000115691
  70        0.000039387
  71        0.289347854
  72        0.001341859
  73       -0.003272956
  74       -0.000054586
  75        0.000010735
  76        0.000000000
  77        0.000148728
  78       -0.000975708
  79        0.000000000
  80       -0.000249850
  81        0.000000000
  82        0.000000000
  83       -0.000115691
  84       -0.000039387
  85        0.000340936
  86       -0.000244641
  87        0.000391924
  88        0.000000000
  89        0.000000000
  90       -0.000170442
  91        0.000122277
  92       -0.000106742
  93        0.000164638
  94        0.000000000
  95       -0.000170442
  96        0.000122277
  97        0.000106742
  98        0.000164638
  99        0.000000000
 100        0.000340936
 101       -0.000244641
 102       -0.000391924
 103        0.000000000
 104        0.000000000
 105       -0.000170442
 106        0.000122277
 107        0.000106742
 108       -0.000164638
 109        0.000000000
 110       -0.000170442
 111        0.000122277
 112       -0.000106742
 113       -0.000164638
 114        0.000000000
 Sym= Ag  
 Ene=         0.000000
 Spin= Alpha
 Occup=       0.000000
   1        0.011548947
   2       -0.180040468
   3       -0.100378371
   4       -0.064812972
   5        0.000000000
   6        0.000000000
   7       -0.012021502
   8        0.000000000
   9        0.000000000
  10        0.009044179
  11        0.000000000
  12        0.000000000
  13        0.005667204
  14        0.000000000
  15        0.011548589
  16       -0.180039628
  17       -0.100377515
  18       -0.032401730
  19        0.056128828
  20        0.000000000
  21       -0.006010041
  22        0.010410441
  23        0.000000000
  24        0.009044426
  25        0.000000000
  26        0.000000000
  27       -0.002834371
  28       -0.004909145
  29        0.011548589
  30       -0.180039628
  31       -0.100377515
  32        0.032401730
  33        0.056128828
  34        0.000000000
  35        0.006010041
  36        0.010410441
  37        0.000000000
  38        0.009044426
  39        0.000000000
  40        0.000000000
  41       -0.002834371
  42        0.004909145
  43        0.011548947
  44       -0.180040468
  45       -0.100378371
  46        0.064812972
  47        0.000000000
  48        0.000000000
  49        0.012021502
  50        0.000000000
  51        0.000000000
  52        0.009044179
  53        0.000000000
  54        0.000000000
  55        0.005667204
  56        0.000000000
  57        0.011548589
  58       -0.180039628
  59       -0.100377515
  60        0.032401730
  61       -0.056128828
  62        0.000000000
  63        0.006010041
  64       -0.010410441
  65        0.000000000
  66        0.009044426
  67        0.000000000
  68        0.000000000
  69       -0.002834371
  70       -0.004909145
  71        0.011548589
  72       -0.180039628
  73       -0.100377515
  74       -0.032401730
  75       -0.056128828
  76        0.000000000
  77       -0.006010041
  78       -0.010410441
  79        0.000000000
  80        0.009044426
  81        0.000000000
  82        0.000000000
  83       -0.002834371
  84        0.004909145
  85       -0.046643098
  86       -0.000696526
  87       -0.008313073
  88        0.000000000
  89        0.000000000
  90       -0.046642863
  91       -0.000696170
  92       -0.004156422
  93        0.007199369
  94        0.000000000
  95       -0.046642863
  96       -0.000696170
  97        0.004156422
  98        0.007199369
  99        0.000000000
 100       -0.046643098
 101       -0.000696526
 102        0.008313073
 103        0.000000000
 104        0.000000000
 105       -0.046642863
 106       -0.000696170
 107        0.004156422
 108       -0.007199369
 109        0.000000000
 110       -0.046642863
 111       -0.000696170
 112       -0.004156422
 113       -0.007199369
 114        0.000000000
 Sym= Ag  
 Ene=         0.000000
 Spin= Alpha
 Occup=       0.000000
   1       -0.010105328
   2        0.200475593
   3        0.166344252
   4       -0.058729406
   5        0.000000000
   6        0.000000000
   7        0.005461320
   8        0.000000000
   9        0.000000000
  10       -0.004016752
  11        0.000000000
  12        0.000000000
  13       -0.002611948
  14        0.000000000
  15        0.005052415
  16       -0.100237329
  17       -0.083172938
  18       -0.140103735
  19       -0.114788236
  20        0.000000000
  21       -0.046829429
  22       -0.023881663
  23        0.000000000
  24        0.002008557
  25        0.000000000
  26        0.000000000
  27       -0.012135928
  28        0.005499646
  29        0.005052415
  30       -0.100237329
  31       -0.083172938
  32        0.140103735
  33       -0.114788236
  34        0.000000000
  35        0.046829429
  36       -0.023881663
  37        0.000000000
  38        0.002008557
  39        0.000000000
  40        0.000000000
  41       -0.012135928
  42       -0.005499646
  43       -0.010105328
  44        0.200475593
  45        0.166344252
  46        0.058729406
  47        0.000000000
  48        0.000000000
  49       -0.005461320
  50        0.000000000
  51        0.000000000
  52       -0.004016752
  53        0.000000000
  54        0.000000000
  55       -0.002611948
  56        0.000000000
  57        0.005052415
  58       -0.100237329
  59       -0.083172938
  60        0.140103735
  61        0.114788236
  62        0.000000000
  63        0.046829429
  64        0.023881663
  65        0.000000000
  66        0.002008557
  67        0.000000000
  68        0.000000000
  69       -0.012135928
  70        0.005499646
  71        0.005052415
  72       -0.100237329
  73       -0.083172938
  74       -0.140103735
  75        0.114788236
  76        0.000000000
  77       -0.046829429
  78        0.023881663
  79        0.000000000
  80        0.002008557
  81        0.000000000
  82        0.000000000
  83       -0.012135928
  84       -0.005499646
  85        0.154391535
  86        0.033199965
  87        0.017658011
  88        0.000000000
  89        0.000000000
  90       -0.077191507
  91       -0.016599022
  92       -0.007224178
  93        0.006023399
  94        0.000000000
  95       -0.077191507
  96       -0.016599022
  97        0.007224178
  98        0.006023399
  99        0.000000000
 100        0.154391535
 101        0.033199965
 102       -0.017658011
 103        0.000000000
 104        0.000000000
 105       -0.077191507
 106       -0.016599022
 107        0.007224178
 108       -0.006023399
 109        0.000000000
 110       -0.077191507
 111       -0.016599022
 112       -0.007224178
 113       -0.006023399
 114        0.000000000
 Sym= Ag  
 Ene=         0.000000
 Spin= Alpha
 Occup=       0.000000
   1       -0.003583677
   2        0.011274148
   3        0.029732864
   4       -0.189213394
   5        0.000000000
   6        0.000000000
   7       -0.063866314
   8        0.000000000
   9        0.000000000
  10        0.001405893
  11        0.000000000
  12        0.000000000
  13       -0.004834301
  14        0.000000000
  15       -0.003582938
  16        0.011278518
  17        0.029725244
  18       -0.094595324
  19        0.163867256
  20        0.000000000
  21       -0.031933613
  22        0.055319007
  23        0.000000000
  24        0.001406564
  25        0.000000000
  26        0.000000000
  27        0.002418043
  28        0.004186847
  29       -0.003582938
  30        0.011278518
  31        0.029725244
  32        0.094595324
  33        0.163867256
  34        0.000000000
  35        0.031933613
  36        0.055319007
  37        0.000000000
  38        0.001406564
  39        0.000000000
  40        0.000000000
  41        0.002418043
  42       -0.004186847
  43       -0.003583677
  44        0.011274148
  45        0.029732864
  46        0.189213394
  47        0.000000000
  48        0.000000000
  49        0.063866314
  50        0.000000000
  51        0.000000000
  52        0.001405893
  53        0.000000000
  54        0.000000000
  55       -0.004834301
  56        0.000000000
  57       -0.003582938
  58        0.011278518
  59        0.029725244
  60        0.094595324
  61       -0.163867256
  62        0.000000000
  63        0.031933613
  64       -0.055319007
  65        0.000000000
  66        0.001406564
  67        0.000000000
  68        0.000000000
  69        0.002418043
  70        0.004186847
  71       -0.003582938
  72        0.011278518
  73        0.029725244
  74       -0.094595324
  75       -0.163867256
  76        0.000000000
  77       -0.031933613
  78       -0.055319007
  79        0.000000000
  80        0.001406564
  81        0.000000000
  82        0.000000000
  83        0.002418043
  84       -0.004186847
  85        0.149528405
  86        0.037262066
  87        0.013030204
  88        0.000000000
  89        0.000000000
  90        0.149528427
  91        0.037259265
  92        0.006515342
  93       -0.011284981
  94        0.000000000
  95        0.149528427
  96        0.037259265
  97       -0.006515342
  98       -0.011284981
  99        0.000000000
 100        0.149528405
 101        0.037262066
 102       -0.013030204
 103        0.000000000
 104        0.000000000
 105        0.149528427
 106        0.037259265
 107       -0.006515342
 108        0.011284981
 109        0.000000000
 110        0.149528427
 111        0.037259265
 112        0.006515342
 113        0.011284981
 114        0.000000000
 Sym= Ag  
 Ene=         0.000000
 Spin= Alpha
 Occup=       0.000000
   1        0.002588034
   2        0.013534648
   3       -0.000802307
   4        0.219792114
   5        0.000000000
   6        0.000000000
   7        0.092967349
   8        0.000000000
   9        0.000000000
  10       -0.000046998
  11        0.000000000
  12        0.000000000
  13       -0.033064115
  14        0.000000000
  15       -0.001293611
  16       -0.006766024
  17        0.000399165
  18       -0.246212985
  19       -0.015247912
  20        0.000000000
  21       -0.101412640
  22       -0.004869975
  23        0.000000000
  24        0.000023812
  25        0.000000000
  26        0.000000000
  27       -0.023919460
  28       -0.005277635
  29       -0.001293611
  30       -0.006766024
  31        0.000399165
  32        0.246212985
  33       -0.015247912
  34        0.000000000
  35        0.101412640
  36       -0.004869975
  37        0.000000000
  38        0.000023812
  39        0.000000000
  40        0.000000000
  41       -0.023919460
  42        0.005277635
  43        0.002588034
  44        0.013534648
  45       -0.000802307
  46       -0.219792114
  47        0.000000000
  48        0.000000000
  49       -0.092967349
  50        0.000000000
  51        0.000000000
  52       -0.000046998
  53        0.000000000
  54        0.000000000
  55       -0.033064115
  56        0.000000000
  57       -0.001293611
  58       -0.006766024
  59        0.000399165
  60        0.246212985
  61        0.015247912
  62        0.000000000
  63        0.101412640
  64        0.004869975
  65        0.000000000
  66        0.000023812
  67        0.000000000
  68        0.000000000
  69       -0.023919460
  70       -0.005277635
  71       -0.001293611
  72       -0.006766024
  73        0.000399165
  74       -0.246212985
  75        0.015247912
  76        0.000000000
  77       -0.101412640
  78        0.004869975
  79        0.000000000
  80        0.000023812
  81        0.000000000
  82        0.000000000
  83       -0.023919460
  84        0.005277635
  85       -0.218984224
  86       -0.114676719
  87       -0.010586231
  88        0.000000000
  89        0.000000000
  90        0.109493488
  91        0.057338319
  92       -0.003304089
  93       -0.008019945
  94        0.000000000
  95        0.109493488
  96        0.057338319
  97        0.003304089
  98       -0.008019945
  99        0.000000000
 100       -0.218984224
 101       -0.114676719
 102        0.010586231
 103        0.000000000
 104        0.000000000
 105        0.109493488
 106        0.057338319
 107        0.003304089
 108        0.008019945
 109        0.000000000
 110        0.109493488
 111        0.057338319
 112       -0.003304089
 113        0.008019945
 114        0.000000000
 Sym= Ag  
 Ene=         0.000000
 Spin= Alpha
 Occup=       0.000000
   1        0.021760748
   2       -0.031557999
   3       -0.572290462
   4        0.095425683
   5        0.000000000
   6        0.000000000
   7        0.279195798
   8        0.000000000
   9        0.000000000
  10        0.004922838
  11        0.000000000
  12        0.000000000
  13        0.008066995
  14        0.000000000
  15        0.021762680
  16       -0.031548289
  17       -0.572304786
  18        0.047710127
  19       -0.082647377
  20        0.000000000
  21        0.139555734
  22       -0.241733367
  23        0.000000000
  24        0.004924968
  25        0.000000000
  26        0.000000000
  27       -0.004033241
  28       -0.006987414
  29        0.021762680
  30       -0.031548289
  31       -0.572304786
  32       -0.047710127
  33       -0.082647377
  34        0.000000000
  35       -0.139555734
  36       -0.241733367
  37        0.000000000
  38        0.004924968
  39        0.000000000
  40        0.000000000
  41       -0.004033241
  42        0.006987414
  43        0.021760748
  44       -0.031557999
  45       -0.572290462
  46       -0.095425683
  47        0.000000000
  48        0.000000000
  49       -0.279195798
  50        0.000000000
  51        0.000000000
  52        0.004922838
  53        0.000000000
  54        0.000000000
  55        0.008066995
  56        0.000000000
  57        0.021762680
  58       -0.031548289
  59       -0.572304786
  60       -0.047710127
  61        0.082647377
  62        0.000000000
  63       -0.139555734
  64        0.241733367
  65        0.000000000
  66        0.004924968
  67        0.000000000
  68        0.000000000
  69       -0.004033241
  70       -0.006987414
  71        0.021762680
  72       -0.031548289
  73       -0.572304786
  74        0.047710127
  75        0.082647377
  76        0.000000000
  77        0.139555734
  78        0.241733367
  79        0.000000000
  80        0.004924968
  81        0.000000000
  82        0.000000000
  83       -0.004033241
  84        0.006987414
  85        0.031387820
  86        0.750760515
  87        0.007608730
  88        0.000000000
  89        0.000000000
  90        0.031388571
  91        0.750699830
  92        0.003803930
  93       -0.006589425
  94        0.000000000
  95        0.031388571
  96        0.750699830
  97       -0.003803930
  98       -0.006589425
  99        0.000000000
 100        0.031387820
 101        0.750760515
 102       -0.007608730
 103        0.000000000
 104        0.000000000
 105        0.031388571
 106        0.750699830
 107       -0.003803930
 108        0.006589425
 109        0.000000000
 110        0.031388571
 111        0.750699830
 112        0.003803930
 113        0.006589425
 114        0.000000000
 Sym= Ag  
 Ene=         0.000000
 Spin= Alpha
 Occup=       0.000000
   1       -0.023720755
   2        0.076252955
   3        0.992554413
   4       -0.094361391
   5        0.000000000
   6        0.000000000
   7       -0.944457694
   8        0.000000000
   9        0.000000000
  10       -0.005353548
  11        0.000000000
  12        0.000000000
  13        0.016528001
  14        0.000000000
  15        0.011863617
  16       -0.038123326
  17       -0.496275498
  18        0.052479953
  19       -0.024187728
  20        0.000000000
  21        0.403326666
  22       -0.312418394
  23        0.000000000
  24        0.002678085
  25        0.000000000
  26        0.000000000
  27       -0.004091071
  28        0.011904268
  29        0.011863617
  30       -0.038123326
  31       -0.496275498
  32       -0.052479953
  33       -0.024187728
  34        0.000000000
  35       -0.403326666
  36       -0.312418394
  37        0.000000000
  38        0.002678085
  39        0.000000000
  40        0.000000000
  41       -0.004091071
  42       -0.011904268
  43       -0.023720755
  44        0.076252955
  45        0.992554413
  46        0.094361391
  47        0.000000000
  48        0.000000000
  49        0.944457694
  50        0.000000000
  51        0.000000000
  52       -0.005353548
  53        0.000000000
  54        0.000000000
  55        0.016528001
  56        0.000000000
  57        0.011863617
  58       -0.038123326
  59       -0.496275498
  60       -0.052479953
  61        0.024187728
  62        0.000000000
  63       -0.403326666
  64        0.312418394
  65        0.000000000
  66        0.002678085
  67        0.000000000
  68        0.000000000
  69       -0.004091071
  70        0.011904268
  71        0.011863617
  72       -0.038123326
  73       -0.496275498
  74        0.052479953
  75        0.024187728
  76        0.000000000
  77        0.403326666
  78        0.312418394
  79        0.000000000
  80        0.002678085
  81        0.000000000
  82        0.000000000
  83       -0.004091071
  84       -0.011904268
  85       -0.000470086
  86       -1.546876498
  87       -0.021326200
  88        0.000000000
  89        0.000000000
  90        0.000236928
  91        0.773436526
  92        0.010806074
  93       -0.006073867
  94        0.000000000
  95        0.000236928
  96        0.773436526
  97       -0.010806074
  98       -0.006073867
  99        0.000000000
 100       -0.000470086
 101       -1.546876498
 102        0.021326200
 103        0.000000000
 104        0.000000000
 105        0.000236928
 106        0.773436526
 107       -0.010806074
 108        0.006073867
 109        0.000000000
 110        0.000236928
 111        0.773436526
 112        0.010806074
 113        0.006073867
 114        0.000000000
 Sym= Ag  
 Ene=         0.000000
 Spin= Alpha
 Occup=       0.000000