[Molden Format]
[N_ATOMS]
           13
[Atoms]  AU
H     1    1       2.082473       -4.351385        0.000000
H     2    1       5.196379       -1.107575        0.000000
H     3    1       3.676965        3.412670        0.000000
H     4    1      -0.169457        6.092010        0.000000
H     5    1      -3.177743        4.744703        0.000000
C     6    6       3.209307       -0.594886        0.000000
C     7    6       2.374171        1.833288        0.000000
C     8    6      -0.323428        2.163417        0.000000
C     9    6      -1.146628       -2.174397        0.000000
O    10    8      -2.511304       -4.048706        0.000000
N    11    7      -1.977692        0.295025        0.000000
N    12    7       1.513853       -2.520846        0.000000
N    13    7      -1.278834        4.545064        0.000000
[5D7F9G]
[GTO]
    1
    s    3
   0.340613410E+02   0.254393168E-01
   0.512357460E+01   0.190085934E+00
   0.116466260E+01   0.852441139E+00
    s    1
   0.327230410E+00   0.100000000E+01
    s    1
   0.103072410E+00   0.100000000E+01
    p    1
   0.800000000E+00   0.100000000E+01
 
    2
    s    3
   0.340613410E+02   0.254393168E-01
   0.512357460E+01   0.190085934E+00
   0.116466260E+01   0.852441139E+00
    s    1
   0.327230410E+00   0.100000000E+01
    s    1
   0.103072410E+00   0.100000000E+01
    p    1
   0.800000000E+00   0.100000000E+01
 
    3
    s    3
   0.340613410E+02   0.254393168E-01
   0.512357460E+01   0.190085934E+00
   0.116466260E+01   0.852441139E+00
    s    1
   0.327230410E+00   0.100000000E+01
    s    1
   0.103072410E+00   0.100000000E+01
    p    1
   0.800000000E+00   0.100000000E+01
 
    4
    s    3
   0.340613410E+02   0.254393168E-01
   0.512357460E+01   0.190085934E+00
   0.116466260E+01   0.852441139E+00
    s    1
   0.327230410E+00   0.100000000E+01
    s    1
   0.103072410E+00   0.100000000E+01
    p    1
   0.800000000E+00   0.100000000E+01
 
    5
    s    3
   0.340613410E+02   0.254393168E-01
   0.512357460E+01   0.190085934E+00
   0.116466260E+01   0.852441139E+00
    s    1
   0.327230410E+00   0.100000000E+01
    s    1
   0.103072410E+00   0.100000000E+01
    p    1
   0.800000000E+00   0.100000000E+01
 
    6
    s    6
   0.135753497E+05   0.606460100E-03
   0.203523337E+04   0.469789850E-02
   0.463225624E+03   0.243324735E-01
   0.131200196E+03   0.973999560E-01
   0.428530159E+02   0.301955844E+00
   0.155841858E+02   0.662336101E+00
    s    2
   0.620671385E+01   0.655953079E+00
   0.257648965E+01   0.375856339E+00
    s    1
   0.576963394E+00   0.100000000E+01
    s    1
   0.229728314E+00   0.100000000E+01
    s    1
   0.951644400E-01   0.100000000E+01
    p    4
   0.346972322E+02   0.113272290E-01
   0.795826228E+01   0.761696612E-01
   0.237808269E+01   0.301922515E+00
   0.814332082E+00   0.727850277E+00
    p    1
   0.288875473E+00   0.100000000E+01
    p    1
   0.100568237E+00   0.100000000E+01
    d    1
   0.800000000E+00   0.100000000E+01
 
    7
    s    6
   0.135753497E+05   0.606460100E-03
   0.203523337E+04   0.469789850E-02
   0.463225624E+03   0.243324735E-01
   0.131200196E+03   0.973999560E-01
   0.428530159E+02   0.301955844E+00
   0.155841858E+02   0.662336101E+00
    s    2
   0.620671385E+01   0.655953079E+00
   0.257648965E+01   0.375856339E+00
    s    1
   0.576963394E+00   0.100000000E+01
    s    1
   0.229728314E+00   0.100000000E+01
    s    1
   0.951644400E-01   0.100000000E+01
    p    4
   0.346972322E+02   0.113272290E-01
   0.795826228E+01   0.761696612E-01
   0.237808269E+01   0.301922515E+00
   0.814332082E+00   0.727850277E+00
    p    1
   0.288875473E+00   0.100000000E+01
    p    1
   0.100568237E+00   0.100000000E+01
    d    1
   0.800000000E+00   0.100000000E+01
 
    8
    s    6
   0.135753497E+05   0.606460100E-03
   0.203523337E+04   0.469789850E-02
   0.463225624E+03   0.243324735E-01
   0.131200196E+03   0.973999560E-01
   0.428530159E+02   0.301955844E+00
   0.155841858E+02   0.662336101E+00
    s    2
   0.620671385E+01   0.655953079E+00
   0.257648965E+01   0.375856339E+00
    s    1
   0.576963394E+00   0.100000000E+01
    s    1
   0.229728314E+00   0.100000000E+01
    s    1
   0.951644400E-01   0.100000000E+01
    p    4
   0.346972322E+02   0.113272290E-01
   0.795826228E+01   0.761696612E-01
   0.237808269E+01   0.301922515E+00
   0.814332082E+00   0.727850277E+00
    p    1
   0.288875473E+00   0.100000000E+01
    p    1
   0.100568237E+00   0.100000000E+01
    d    1
   0.800000000E+00   0.100000000E+01
 
    9
    s    6
   0.135753497E+05   0.606460100E-03
   0.203523337E+04   0.469789850E-02
   0.463225624E+03   0.243324735E-01
   0.131200196E+03   0.973999560E-01
   0.428530159E+02   0.301955844E+00
   0.155841858E+02   0.662336101E+00
    s    2
   0.620671385E+01   0.655953079E+00
   0.257648965E+01   0.375856339E+00
    s    1
   0.576963394E+00   0.100000000E+01
    s    1
   0.229728314E+00   0.100000000E+01
    s    1
   0.951644400E-01   0.100000000E+01
    p    4
   0.346972322E+02   0.113272290E-01
   0.795826228E+01   0.761696612E-01
   0.237808269E+01   0.301922515E+00
   0.814332082E+00   0.727850277E+00
    p    1
   0.288875473E+00   0.100000000E+01
    p    1
   0.100568237E+00   0.100000000E+01
    d    1
   0.800000000E+00   0.100000000E+01
 
   10
    s    6
   0.270323826E+05   0.572265400E-03
   0.405238714E+04   0.443533330E-02
   0.922327227E+03   0.230201034E-01
   0.261240710E+03   0.928224938E-01
   0.853546414E+02   0.293784997E+00
   0.310350352E+02   0.674016046E+00
    s    2
   0.122608607E+02   0.638399375E+00
   0.499870760E+01   0.395345866E+00
    s    1
   0.117031082E+01   0.100000000E+01
    s    1
   0.464747410E+00   0.100000000E+01
    s    1
   0.185045364E+00   0.100000000E+01
    p    4
   0.632749548E+02   0.120183316E-01
   0.146270494E+02   0.830054304E-01
   0.445012235E+01   0.319917439E+00
   0.152757996E+01   0.707155425E+00
    p    1
   0.529351179E+00   0.100000000E+01
    p    1
   0.174784213E+00   0.100000000E+01
    d    1
   0.120000000E+01   0.100000000E+01
 
   11
    s    6
   0.197308006E+05   0.586264400E-03
   0.295789587E+04   0.454287970E-02
   0.673221336E+03   0.235584125E-01
   0.190682495E+03   0.947091862E-01
   0.622954419E+02   0.297197843E+00
   0.226541612E+02   0.669162480E+00
    s    2
   0.897914774E+01   0.645966837E+00
   0.368630024E+01   0.387005743E+00
    s    1
   0.846600768E+00   0.100000000E+01
    s    1
   0.336471338E+00   0.100000000E+01
    s    1
   0.136476537E+00   0.100000000E+01
    p    4
   0.492003805E+02   0.114488217E-01
   0.113467905E+02   0.784223390E-01
   0.342739724E+01   0.308180948E+00
   0.117855251E+01   0.720271963E+00
    p    1
   0.416422050E+00   0.100000000E+01
    p    1
   0.142608260E+00   0.100000000E+01
    d    1
   0.100000000E+01   0.100000000E+01
 
   12
    s    6
   0.197308006E+05   0.586264400E-03
   0.295789587E+04   0.454287970E-02
   0.673221336E+03   0.235584125E-01
   0.190682495E+03   0.947091862E-01
   0.622954419E+02   0.297197843E+00
   0.226541612E+02   0.669162480E+00
    s    2
   0.897914774E+01   0.645966837E+00
   0.368630024E+01   0.387005743E+00
    s    1
   0.846600768E+00   0.100000000E+01
    s    1
   0.336471338E+00   0.100000000E+01
    s    1
   0.136476537E+00   0.100000000E+01
    p    4
   0.492003805E+02   0.114488217E-01
   0.113467905E+02   0.784223390E-01
   0.342739724E+01   0.308180948E+00
   0.117855251E+01   0.720271963E+00
    p    1
   0.416422050E+00   0.100000000E+01
    p    1
   0.142608260E+00   0.100000000E+01
    d    1
   0.100000000E+01   0.100000000E+01
 
   13
    s    6
   0.197308006E+05   0.586264400E-03
   0.295789587E+04   0.454287970E-02
   0.673221336E+03   0.235584125E-01
   0.190682495E+03   0.947091862E-01
   0.622954419E+02   0.297197843E+00
   0.226541612E+02   0.669162480E+00
    s    2
   0.897914774E+01   0.645966837E+00
   0.368630024E+01   0.387005743E+00
    s    1
   0.846600768E+00   0.100000000E+01
    s    1
   0.336471338E+00   0.100000000E+01
    s    1
   0.136476537E+00   0.100000000E+01
    p    4
   0.492003805E+02   0.114488217E-01
   0.113467905E+02   0.784223390E-01
   0.342739724E+01   0.308180948E+00
   0.117855251E+01   0.720271963E+00
    p    1
   0.416422050E+00   0.100000000E+01
    p    1
   0.142608260E+00   0.100000000E+01
    d    1
   0.100000000E+01   0.100000000E+01
 
[MO]
 Sym= A'  
 Ene=       -20.541380
 Spin= Alpha
 Occup=       2.000000
   1       -0.000029439
   2       -0.000163582
   3       -0.000377891
   4        0.000033406
   5       -0.000030992
   6        0.000000000
   7        0.000011987
   8       -0.000057032
   9       -0.000032554
  10        0.000011114
  11        0.000015491
  12        0.000000000
  13       -0.000010529
  14        0.000040098
  15        0.000303348
  16        0.000000089
  17       -0.000003009
  18        0.000000000
  19       -0.000016213
  20        0.000049501
  21        0.000051573
  22        0.000000882
  23       -0.000004871
  24        0.000000000
  25       -0.000001374
  26        0.000055439
  27       -0.000013655
  28        0.000024663
  29       -0.000007290
  30        0.000000000
  31       -0.000000472
  32        0.000003876
  33       -0.000122833
  34        0.000685697
  35       -0.000747272
  36        0.000010805
  37        0.000006070
  38        0.000000000
  39       -0.000242852
  40       -0.000124194
  41        0.000000000
  42        0.000193172
  43       -0.000450426
  44        0.000000000
  45       -0.000031069
  46        0.000000000
  47        0.000000000
  48        0.000008384
  49        0.000029164
  50        0.000000694
  51       -0.000003251
  52        0.000027049
  53       -0.000155429
  54        0.001526755
  55       -0.000004456
  56       -0.000011991
  57        0.000000000
  58       -0.000041031
  59        0.000104997
  60        0.000000000
  61       -0.000364646
  62       -0.000790689
  63        0.000000000
  64       -0.000005216
  65        0.000000000
  66        0.000000000
  67        0.000020379
  68       -0.000008963
  69        0.000000707
  70       -0.000001600
  71       -0.000059770
  72        0.000391282
  73       -0.000498867
  74        0.000015268
  75       -0.000007777
  76        0.000000000
  77       -0.000204214
  78       -0.000125892
  79        0.000000000
  80       -0.000344055
  81        0.000303682
  82        0.000000000
  83       -0.000023758
  84        0.000000000
  85        0.000000000
  86       -0.000035263
  87        0.000019501
  88        0.000003584
  89        0.000081575
  90       -0.000537915
  91        0.000291189
  92        0.001750870
  93        0.000218321
  94        0.000270027
  95        0.000000000
  96        0.000354103
  97        0.000747193
  98        0.000000000
  99       -0.000740008
 100       -0.001561707
 101        0.000000000
 102        0.000113190
 103        0.000000000
 104        0.000000000
 105        0.000016760
 106       -0.000125761
 107       -0.435634831
 108       -0.642383184
 109       -0.022087514
 110        0.009622795
 111       -0.006226563
 112       -0.001175000
 113       -0.001466560
 114        0.000000000
 115        0.001029223
 116        0.001282039
 117        0.000000000
 118       -0.000898895
 119       -0.001062568
 120        0.000000000
 121        0.000113042
 122        0.000000000
 123        0.000000000
 124       -0.000044501
 125        0.000140592
 126       -0.000000009
 127       -0.000005443
 128        0.000059334
 129       -0.000382714
 130        0.000353232
 131        0.000048474
 132        0.000013019
 133        0.000000000
 134       -0.000276295
 135       -0.000044549
 136        0.000000000
 137        0.000166699
 138       -0.000383177
 139        0.000000000
 140        0.000003194
 141        0.000000000
 142        0.000000000
 143       -0.000042947
 144        0.000020821
 145       -0.000001160
 146        0.000001221
 147       -0.000057357
 148        0.000118064
 149       -0.000417793
 150        0.000024617
 151        0.000047026
 152        0.000000000
 153       -0.000179383
 154       -0.000285643
 155        0.000000000
 156       -0.000111670
 157       -0.000471696
 158        0.000000000
 159       -0.000018431
 160        0.000000000
 161        0.000000000
 162        0.000032949
 163        0.000027744
 164        0.000000457
 165       -0.000002963
 166        0.000045088
 167       -0.000154072
 168       -0.000127100
 169       -0.000004032
 170       -0.000013924
 171        0.000000000
 172        0.000038640
 173        0.000071352
 174        0.000000000
 175       -0.000014767
 176       -0.000079854
 177        0.000000000
 178        0.000008502
 179        0.000000000
 180        0.000000000
 181        0.000001491
 182        0.000002061
 Sym= A'  
 Ene=       -15.632812
 Spin= Alpha
 Occup=       2.000000
   1       -0.000227081
   2       -0.000206753
   3        0.000316440
   4       -0.000033946
   5        0.000049216
   6        0.000000000
   7       -0.000008632
   8        0.000300664
   9        0.000693696
  10       -0.000091537
  11       -0.000029054
  12        0.000000000
  13        0.000005207
  14        0.000027942
  15       -0.000314522
  16       -0.000005628
  17       -0.000021463
  18        0.000000000
  19       -0.000010492
  20        0.000082409
  21        0.000049919
  22       -0.000010103
  23        0.000004727
  24        0.000000000
  25        0.000013206
  26       -0.000098196
  27        0.000083325
  28       -0.000006086
  29        0.000005020
  30        0.000000000
  31       -0.000009036
  32        0.000021994
  33       -0.000325039
  34        0.000020191
  35        0.004946690
  36        0.000157703
  37        0.000179203
  38        0.000000000
  39        0.000018806
  40        0.000222785
  41        0.000000000
  42       -0.002951186
  43       -0.000368145
  44        0.000000000
  45        0.000031930
  46        0.000000000
  47        0.000000000
  48       -0.000024232
  49        0.000006851
  50       -0.000001447
  51        0.000003318
  52       -0.000099990
  53        0.000299513
  54       -0.005574616
  55        0.000029240
  56       -0.000014615
  57        0.000000000
  58       -0.000207585
  59       -0.000074278
  60        0.000000000
  61        0.002197869
  62        0.000861954
  63        0.000000000
  64       -0.000009744
  65        0.000000000
  66        0.000000000
  67       -0.000032720
  68        0.000012745
  69       -0.000000712
  70        0.000002514
  71       -0.000045799
  72       -0.000039392
  73        0.002385665
  74       -0.000010753
  75        0.000025667
  76        0.000000000
  77       -0.000007511
  78       -0.000175238
  79        0.000000000
  80        0.002235034
  81        0.000351745
  82        0.000000000
  83       -0.000011708
  84        0.000000000
  85        0.000000000
  86       -0.000016050
  87        0.000003975
  88       -0.000007344
  89        0.000034201
  90       -0.000304843
  91        0.000241136
  92        0.002242768
  93       -0.000240867
  94        0.000023857
  95        0.000000000
  96        0.000041514
  97        0.000185823
  98        0.000000000
  99        0.001437465
 100        0.000223265
 101        0.000000000
 102        0.000042884
 103        0.000000000
 104        0.000000000
 105       -0.000017522
 106       -0.000030826
 107       -0.000002508
 108       -0.000006208
 109       -0.000020806
 110        0.000074529
 111        0.000299191
 112       -0.000008210
 113        0.000002897
 114        0.000000000
 115        0.000167468
 116        0.000042833
 117        0.000000000
 118       -0.000146395
 119        0.000129841
 120        0.000000000
 121       -0.000018594
 122        0.000000000
 123        0.000000000
 124        0.000010656
 125        0.000028890
 126        0.000066334
 127        0.000083268
 128        0.000049259
 129       -0.000223662
 130        0.000797950
 131       -0.000016398
 132       -0.000003206
 133        0.000000000
 134        0.000118386
 135       -0.000066957
 136        0.000000000
 137       -0.000272015
 138        0.000356757
 139        0.000000000
 140       -0.000012766
 141        0.000000000
 142        0.000000000
 143        0.000009905
 144       -0.000033299
 145       -0.448905135
 146       -0.630072370
 147       -0.021276295
 148        0.010331439
 149       -0.010772108
 150       -0.000148732
 151       -0.000154843
 152        0.000000000
 153        0.000082025
 154        0.000392128
 155        0.000000000
 156        0.000335770
 157       -0.001758818
 158        0.000000000
 159        0.000066544
 160        0.000000000
 161        0.000000000
 162        0.000020926
 163       -0.000012492
 164       -0.000001393
 165       -0.000001021
 166       -0.000011160
 167        0.000041579
 168        0.000089291
 169       -0.000005408
 170        0.000000231
 171        0.000000000
 172        0.000020703
 173       -0.000019998
 174        0.000000000
 175       -0.000307139
 176       -0.000273912
 177        0.000000000
 178       -0.000005530
 179        0.000000000
 180        0.000000000
 181        0.000003586
 182       -0.000008997
 Sym= A'  
 Ene=       -15.598948
 Spin= Alpha
 Occup=       2.000000
   1       -0.000008422
   2        0.000057445
   3        0.000065888
   4       -0.000001171
   5        0.000011783
   6        0.000000000
   7       -0.000012954
   8        0.000081063
   9        0.000554944
  10       -0.000007563
  11       -0.000008852
  12        0.000000000
  13       -0.000033127
  14        0.000105194
  15        0.000436634
  16       -0.000006874
  17       -0.000007829
  18        0.000000000
  19       -0.000269797
  20        0.000186311
  21        0.000569101
  22       -0.000046530
  23       -0.000085069
  24        0.000000000
  25       -0.000241106
  26       -0.000014598
  27        0.000480560
  28        0.000065845
  29       -0.000027161
  30        0.000000000
  31        0.000000706
  32       -0.000002226
  33        0.000027282
  34       -0.000138185
  35        0.000171942
  36       -0.000006368
  37        0.000005764
  38        0.000000000
  39       -0.000023613
  40        0.000017979
  41        0.000000000
  42       -0.001122039
  43       -0.000007660
  44        0.000000000
  45       -0.000004582
  46        0.000000000
  47        0.000000000
  48       -0.000002526
  49       -0.000007745
  50       -0.000001633
  51        0.000004854
  52       -0.000097785
  53        0.000282822
  54       -0.002676090
  55       -0.000000025
  56       -0.000021971
  57        0.000000000
  58       -0.000127859
  59        0.000157897
  60        0.000000000
  61        0.001044447
  62       -0.001560103
  63        0.000000000
  64       -0.000008820
  65        0.000000000
  66        0.000000000
  67        0.000009320
  68       -0.000047898
  69       -0.000007041
  70        0.000016969
  71       -0.000278356
  72       -0.000088752
  73        0.004591633
  74        0.000074008
  75       -0.000195862
  76        0.000000000
  77        0.000135402
  78       -0.000420407
  79        0.000000000
  80        0.000829652
  81        0.006058235
  82        0.000000000
  83        0.000030096
  84        0.000000000
  85        0.000000000
  86        0.000022245
  87        0.000040209
  88        0.000001006
  89       -0.000003388
  90        0.000015098
  91       -0.000079570
  92        0.000818226
  93        0.000003356
  94        0.000003521
  95        0.000000000
  96       -0.000036581
  97        0.000029344
  98        0.000000000
  99       -0.000051575
 100        0.000547925
 101        0.000000000
 102       -0.000011364
 103        0.000000000
 104        0.000000000
 105       -0.000012288
 106       -0.000001903
 107        0.000000295
 108       -0.000003243
 109        0.000029797
 110       -0.000092208
 111        0.000166678
 112       -0.000000906
 113       -0.000000115
 114        0.000000000
 115       -0.000000683
 116       -0.000002662
 117        0.000000000
 118        0.000042427
 119       -0.000012210
 120        0.000000000
 121       -0.000002610
 122        0.000000000
 123        0.000000000
 124        0.000001356
 125       -0.000003319
 126        0.000080180
 127        0.000093113
 128        0.000133421
 129       -0.000551778
 130        0.002826569
 131        0.000018925
 132        0.000011395
 133        0.000000000
 134       -0.000114882
 135        0.000031602
 136        0.000000000
 137        0.000843247
 138        0.000739163
 139        0.000000000
 140       -0.000008329
 141        0.000000000
 142        0.000000000
 143       -0.000025692
 144        0.000007281
 145        0.000001014
 146        0.000003542
 147       -0.000018087
 148        0.000064569
 149       -0.000537088
 150       -0.000000735
 151        0.000000262
 152        0.000000000
 153       -0.000010933
 154        0.000020511
 155        0.000000000
 156       -0.000101223
 157       -0.000061641
 158        0.000000000
 159       -0.000003452
 160        0.000000000
 161        0.000000000
 162        0.000006643
 163        0.000002447
 164       -0.448888328
 165       -0.630064429
 166       -0.021300559
 167        0.010324667
 168       -0.011827239
 169       -0.000120587
 170        0.000065725
 171        0.000000000
 172        0.000258731
 173       -0.000439941
 174        0.000000000
 175       -0.001271202
 176        0.001682712
 177        0.000000000
 178        0.000055122
 179        0.000000000
 180        0.000000000
 181       -0.000017641
 182       -0.000047081
 Sym= A'  
 Ene=       -15.550270
 Spin= Alpha
 Occup=       2.000000
   1        0.000010500
   2       -0.000530805
   3       -0.000377753
   4        0.000045962
   5       -0.000109266
   6        0.000000000
   7       -0.000012711
   8        0.000317797
   9        0.000919389
  10       -0.000056869
  11        0.000013264
  12        0.000000000
  13        0.000001448
  14       -0.000273030
  15        0.000481497
  16        0.000069035
  17        0.000041873
  18        0.000000000
  19       -0.000017677
  20       -0.000055451
  21       -0.000224557
  22        0.000006647
  23        0.000048673
  24        0.000000000
  25       -0.000004695
  26        0.000051129
  27        0.000110313
  28       -0.000003472
  29        0.000007698
  30        0.000000000
  31        0.000001548
  32       -0.000006518
  33       -0.000000794
  34        0.000542739
  35        0.000342241
  36        0.000003989
  37        0.000004840
  38        0.000000000
  39       -0.000522943
  40        0.000201430
  41        0.000000000
  42       -0.001940550
  43       -0.000246781
  44        0.000000000
  45       -0.000011187
  46        0.000000000
  47        0.000000000
  48       -0.000026393
  49       -0.000002623
  50        0.000002973
  51       -0.000009719
  52        0.000253361
  53       -0.001016629
  54       -0.000032535
  55       -0.000007141
  56       -0.000073721
  57        0.000000000
  58        0.000365919
  59        0.000803075
  60        0.000000000
  61        0.000551431
  62       -0.001589172
  63        0.000000000
  64        0.000050297
  65        0.000000000
  66        0.000000000
  67       -0.000034483
  68       -0.000040479
  69        0.000009069
  70       -0.000011950
  71        0.000254670
  72        0.000759670
  73       -0.003133855
  74       -0.000203828
  75       -0.000173607
  76        0.000000000
  77       -0.000038846
  78       -0.000986480
  79        0.000000000
  80        0.001267007
  81        0.004546564
  82        0.000000000
  83       -0.000059960
  84        0.000000000
  85        0.000000000
  86       -0.000066238
  87        0.000032570
  88        0.000007217
  89       -0.000033325
  90        0.000203631
  91        0.000653762
  92       -0.001891766
  93       -0.000138512
  94        0.000222900
  95        0.000000000
  96        0.000429275
  97        0.000928976
  98        0.000000000
  99        0.000029837
 100       -0.001046675
 101        0.000000000
 102       -0.000091385
 103        0.000000000
 104        0.000000000
 105       -0.000075294
 106        0.000011372
 107        0.000001230
 108        0.000014583
 109       -0.000075310
 110        0.000279288
 111       -0.000050349
 112       -0.000022113
 113       -0.000014828
 114        0.000000000
 115        0.000133845
 116        0.000012149
 117        0.000000000
 118       -0.000078626
 119        0.000109462
 120        0.000000000
 121        0.000010278
 122        0.000000000
 123        0.000000000
 124        0.000024285
 125        0.000001558
 126        0.448953486
 127        0.630116027
 128        0.021431623
 129       -0.011774156
 130        0.011901678
 131        0.002304240
 132       -0.000341250
 133        0.000000000
 134       -0.002213527
 135        0.000320352
 136        0.000000000
 137        0.002588160
 138        0.000264470
 139        0.000000000
 140       -0.000111633
 141        0.000000000
 142        0.000000000
 143        0.000039565
 144        0.000015836
 145        0.000069806
 146        0.000093335
 147        0.000076018
 148       -0.000058007
 149       -0.001471144
 150       -0.000012742
 151        0.000052037
 152        0.000000000
 153        0.000264794
 154       -0.000447778
 155        0.000000000
 156        0.000098084
 157       -0.001238856
 158        0.000000000
 159        0.000024838
 160        0.000000000
 161        0.000000000
 162       -0.000049261
 163        0.000045013
 164        0.000078289
 165        0.000137590
 166       -0.000198857
 167        0.000789953
 168       -0.002405637
 169       -0.000019972
 170        0.000029190
 171        0.000000000
 172        0.000166545
 173       -0.000071326
 174        0.000000000
 175       -0.000312483
 176        0.000506910
 177        0.000000000
 178       -0.000010197
 179        0.000000000
 180        0.000000000
 181        0.000018300
 182        0.000001635
 Sym= A'  
 Ene=       -11.343629
 Spin= Alpha
 Occup=       2.000000
   1       -0.000065746
   2        0.000335930
   3        0.000121705
   4        0.000011324
   5        0.000060802
   6        0.000000000
   7        0.000043116
   8       -0.000511263
   9       -0.002049881
  10        0.000072761
  11       -0.000009746
  12        0.000000000
  13       -0.000036209
  14        0.000382283
  15        0.001769494
  16       -0.000040221
  17       -0.000031364
  18        0.000000000
  19       -0.000021775
  20        0.000164804
  21       -0.000071010
  22       -0.000007011
  23       -0.000025652
  24        0.000000000
  25       -0.000002653
  26       -0.000034121
  27       -0.000085935
  28       -0.000004938
  29        0.000007259
  30        0.000000000
  31       -0.000071658
  32       -0.000093399
  33       -0.000054956
  34        0.000235257
  35       -0.009843539
  36        0.000010495
  37        0.000020427
  38        0.000000000
  39        0.000303230
  40       -0.000196359
  41        0.000000000
  42        0.005560617
  43       -0.002829877
  44        0.000000000
  45       -0.000032102
  46        0.000000000
  47        0.000000000
  48        0.000026602
  49       -0.000010175
  50       -0.000018219
  51       -0.000024830
  52        0.000081711
  53       -0.000411026
  54        0.014103000
  55        0.000000822
  56        0.000000584
  57        0.000000000
  58       -0.000010424
  59       -0.000173500
  60        0.000000000
  61       -0.003856416
  62       -0.005598796
  63        0.000000000
  64        0.000022476
  65        0.000000000
  66        0.000000000
  67       -0.000001783
  68       -0.000048598
  69       -0.000076547
  70       -0.000095332
  71       -0.000130528
  72        0.000445030
  73       -0.009104159
  74       -0.000004145
  75       -0.000011916
  76        0.000000000
  77       -0.000014099
  78        0.000193858
  79        0.000000000
  80       -0.002547893
  81        0.005002790
  82        0.000000000
  83       -0.000037636
  84        0.000000000
  85        0.000000000
  86       -0.000042149
  87        0.000010282
  88        0.467586500
  89        0.612613763
  90        0.020102535
  91       -0.012569498
  92        0.004190129
  93        0.000519209
  94       -0.000140706
  95        0.000000000
  96       -0.000851348
  97       -0.000237711
  98        0.000000000
  99        0.001512044
 100        0.002227863
 101        0.000000000
 102       -0.000241958
 103        0.000000000
 104        0.000000000
 105       -0.000176221
 106        0.000196024
 107       -0.000140219
 108       -0.000318303
 109        0.000418247
 110       -0.000323836
 111        0.002619937
 112        0.000227264
 113        0.000323762
 114        0.000000000
 115        0.000177279
 116        0.000225978
 117        0.000000000
 118        0.000475994
 119        0.000598381
 120        0.000000000
 121       -0.000082940
 122        0.000000000
 123        0.000000000
 124       -0.000076835
 125        0.000205551
 126       -0.000110221
 127       -0.000208511
 128        0.000306059
 129       -0.000072661
 130        0.003342483
 131        0.000106371
 132       -0.000215311
 133        0.000000000
 134        0.000012714
 135       -0.000351423
 136        0.000000000
 137        0.001327440
 138       -0.000354587
 139        0.000000000
 140       -0.000009347
 141        0.000000000
 142        0.000000000
 143       -0.000056712
 144       -0.000058830
 145       -0.000090906
 146       -0.000187315
 147        0.000380309
 148       -0.000178182
 149        0.003414085
 150       -0.000258151
 151        0.000066319
 152        0.000000000
 153       -0.000376313
 154       -0.000025880
 155        0.000000000
 156       -0.001354036
 157        0.001535530