 Entering Gaussian System, Link 0=/apps/software/g16/g16
 Initial command:
 /apps/software/g16/l1.exe "/scratch/Gau-12126.inp" -scrdir="/scratch/"
 Entering Link 1 = /apps/software/g16/l1.exe PID=     12127.
  
 Copyright (c) 1988,1990,1992,1993,1995,1998,2003,2009,2016,
            Gaussian, Inc.  All Rights Reserved.
  
 This is part of the Gaussian(R) 16 program.  It is based on
 the Gaussian(R) 09 system (copyright 2009, Gaussian, Inc.),
 the Gaussian(R) 03 system (copyright 2003, Gaussian, Inc.),
 the Gaussian(R) 98 system (copyright 1998, Gaussian, Inc.),
 the Gaussian(R) 94 system (copyright 1995, Gaussian, Inc.),
 the Gaussian 92(TM) system (copyright 1992, Gaussian, Inc.),
 the Gaussian 90(TM) system (copyright 1990, Gaussian, Inc.),
 the Gaussian 88(TM) system (copyright 1988, Gaussian, Inc.),
 the Gaussian 86(TM) system (copyright 1986, Carnegie Mellon
 University), and the Gaussian 82(TM) system (copyright 1983,
 Carnegie Mellon University). Gaussian is a federally registered
 trademark of Gaussian, Inc.
  
 This software contains proprietary and confidential information,
 including trade secrets, belonging to Gaussian, Inc.
  
 This software is provided under written license and may be
 used, copied, transmitted, or stored only in accord with that
 written license.
  
 The following legend is applicable only to US Government
 contracts under FAR:
  
                    RESTRICTED RIGHTS LEGEND
  
 Use, reproduction and disclosure by the US Government is
 subject to restrictions as set forth in subparagraphs (a)
 and (c) of the Commercial Computer Software - Restricted
 Rights clause in FAR 52.227-19.
  
 Gaussian, Inc.
 340 Quinnipiac St., Bldg. 40, Wallingford CT 06492
  
  
 ---------------------------------------------------------------
 Warning -- This program may not be used in any manner that
 competes with the business of Gaussian, Inc. or will provide
 assistance to any competitor of Gaussian, Inc.  The licensee
 of this program is prohibited from giving any competitor of
 Gaussian, Inc. access to this program.  By using this program,
 the user acknowledges that Gaussian, Inc. is engaged in the
 business of creating and licensing software in the field of
 computational chemistry and represents and warrants to the
 licensee that it is not a competitor of Gaussian, Inc. and that
 it will not use this program in any manner prohibited above.
 ---------------------------------------------------------------
  

 Cite this work as:
 Gaussian 16, Revision A.03,
 M. J. Frisch, G. W. Trucks, H. B. Schlegel, G. E. Scuseria, 
 M. A. Robb, J. R. Cheeseman, G. Scalmani, V. Barone, 
 G. A. Petersson, H. Nakatsuji, X. Li, M. Caricato, A. V. Marenich, 
 J. Bloino, B. G. Janesko, R. Gomperts, B. Mennucci, H. P. Hratchian, 
 J. V. Ortiz, A. F. Izmaylov, J. L. Sonnenberg, D. Williams-Young, 
 F. Ding, F. Lipparini, F. Egidi, J. Goings, B. Peng, A. Petrone, 
 T. Henderson, D. Ranasinghe, V. G. Zakrzewski, J. Gao, N. Rega, 
 G. Zheng, W. Liang, M. Hada, M. Ehara, K. Toyota, R. Fukuda, 
 J. Hasegawa, M. Ishida, T. Nakajima, Y. Honda, O. Kitao, H. Nakai, 
 T. Vreven, K. Throssell, J. A. Montgomery, Jr., J. E. Peralta, 
 F. Ogliaro, M. J. Bearpark, J. J. Heyd, E. N. Brothers, K. N. Kudin, 
 V. N. Staroverov, T. A. Keith, R. Kobayashi, J. Normand, 
 K. Raghavachari, A. P. Rendell, J. C. Burant, S. S. Iyengar, 
 J. Tomasi, M. Cossi, J. M. Millam, M. Klene, C. Adamo, R. Cammi, 
 J. W. Ochterski, R. L. Martin, K. Morokuma, O. Farkas, 
 J. B. Foresman, and D. J. Fox, Gaussian, Inc., Wallingford CT, 2016.
 
 ******************************************
 Gaussian 16:  ES64L-G16RevA.03 25-Dec-2016
                 5-May-2022 
 ******************************************
 %chk=C60-nosym.chk
 %nproc=8
 Will use up to    8 processors via shared memory.
 %mem=20GB
 ---------------------
 #p RHF/cc-pVDZ nosymm
 ---------------------
 1/38=1,172=1/1;
 2/12=2,15=1,17=6,18=5,40=1/2;
 3/5=16,11=1,25=1,30=1,116=1/1,2,3;
 4//1;
 5/5=2,38=5/2;
 6/7=2,8=2,9=2,10=2,28=1/1;
 99/5=1,9=1/99;
 Leave Link    1 at Thu May  5 10:08:45 2022, MaxMem=  2684354560 cpu:               0.1 elap:               0.0
 (Enter /apps/software/g16/l101.exe)
 ------
 C60 SP
 ------
 Symbolic Z-matrix:
 Charge =  0 Multiplicity = 1
 C                     0.17823  -0.42164   0.09565 
 C                     1.71824  -0.4216    0.09557 
 C                     2.39581   0.75205   0.09552 
 C                     1.62578   2.08571   0.09554 
 C                     0.27057   2.08567   0.0956 
 C                    -0.49939   0.75198   0.09566 
 C                    -0.29764  -1.58554  -0.79344 
 C                     0.94824  -2.30482  -1.34299 
 C                     2.19412  -1.58547  -0.79355 
 C                     3.29047  -1.43603  -1.576 
 C                     3.64168   0.92187  -0.79363 
 C                     2.39573   3.0798   -0.7936 
 C                     1.71807   3.95455  -1.57601 
 C                     0.17807   3.9545   -1.57595 
 C                    -0.49948   3.07971  -0.7935 
 C                    -1.74537   2.36037  -1.34296 
 C                    -1.7453    0.92174  -0.79343 
 C                    -2.16407  -0.10248  -1.57584 
 C                    -1.39404  -1.43614  -1.57584 
 C                     0.94822  -2.78841  -2.60898 
 C                    -0.29771  -2.61864  -3.49806 
 C                    -1.39409  -1.98567  -3.01447 
 C                    -2.16415  -0.99163  -3.90357 
 C                    -2.64003   0.17224  -3.01445 
 C                    -2.64009   1.43823  -3.49803 
 C                    -2.16421   2.60213  -2.60894 
 C                    -1.39425   3.59619  -3.49809 
 C                    -0.29787   4.22922  -3.01457 
 C                     3.64162   2.3605   -1.34314 
 C                     2.19382   3.19618  -5.71927 
 C                     3.29022   3.04679  -4.93688 
 C                     4.06026   1.71313  -4.93688 
 C                     3.64149   0.6889   -5.71928 
 C                     2.39556   0.85866  -6.60837 
 C                     0.17794   2.03224  -6.6083 
 C                    -0.29794   3.19612  -5.71918 
 C                     0.94794   3.91547  -5.16973 
 C                     0.94798   4.39904  -3.90374 
 C                     2.1939    4.22929  -3.01466 
 C                     3.29027   3.59631  -3.49827 
 C                     4.53622   1.4384   -3.49827 
 C                     4.53628   0.17241  -3.01469 
 C                     4.0604   -0.99148  -3.90378 
 C                     3.64156  -0.74972  -5.16977 
 C                     2.39567  -1.46907  -5.71922 
 C                     1.6256   -0.47504  -6.60833 
 C                     0.27039  -0.47507  -6.60828 
 C                    -0.49963   0.85859  -6.60826 
 C                    -1.39429   3.04667  -4.93672 
 C                    -2.16426   1.71297  -4.93667 
 C                    -1.74548   0.68876  -5.7191 
 C                    -1.74543  -0.74986  -5.16957 
 C                    -0.49955  -1.46915  -5.71912 
 C                     0.17811  -2.34389  -4.9367 
 C                     1.71811  -2.34386  -4.93676 
 C                     2.19406  -2.61858  -3.49814 
 C                     3.29044  -1.98556  -3.01462 
 C                     4.06034   2.60227  -2.60915 
 C                     4.06045  -0.10234  -1.57606 
 C                     1.71794   2.03228  -6.60836 
 
 ITRead=  0  0  0  0  0  0  0  0  0  0  0  0  0  0  0  0  0  0  0  0
 ITRead=  0  0  0  0  0  0  0  0  0  0  0  0  0  0  0  0  0  0  0  0
 ITRead=  0  0  0  0  0  0  0  0  0  0  0  0  0  0  0  0  0  0  0  0
 MicOpt= -1 -1 -1 -1 -1 -1 -1 -1 -1 -1 -1 -1 -1 -1 -1 -1 -1 -1 -1 -1
 MicOpt= -1 -1 -1 -1 -1 -1 -1 -1 -1 -1 -1 -1 -1 -1 -1 -1 -1 -1 -1 -1
 MicOpt= -1 -1 -1 -1 -1 -1 -1 -1 -1 -1 -1 -1 -1 -1 -1 -1 -1 -1 -1 -1
 NAtoms=     60 NQM=       60 NQMF=       0 NMMI=      0 NMMIF=      0
                NMic=       0 NMicF=      0.
                    Isotopes and Nuclear Properties:
 (Nuclear quadrupole moments (NQMom) in fm**2, nuclear magnetic moments (NMagM)
  in nuclear magnetons)

  Atom         1           2           3           4           5           6           7           8           9          10
 IAtWgt=          12          12          12          12          12          12          12          12          12          12
 AtmWgt=  12.0000000  12.0000000  12.0000000  12.0000000  12.0000000  12.0000000  12.0000000  12.0000000  12.0000000  12.0000000
 NucSpn=           0           0           0           0           0           0           0           0           0           0
 AtZEff=  -0.0000000  -0.0000000  -0.0000000  -0.0000000  -0.0000000  -0.0000000  -0.0000000  -0.0000000  -0.0000000  -0.0000000
 NQMom=    0.0000000   0.0000000   0.0000000   0.0000000   0.0000000   0.0000000   0.0000000   0.0000000   0.0000000   0.0000000
 NMagM=    0.0000000   0.0000000   0.0000000   0.0000000   0.0000000   0.0000000   0.0000000   0.0000000   0.0000000   0.0000000
 AtZNuc=   6.0000000   6.0000000   6.0000000   6.0000000   6.0000000   6.0000000   6.0000000   6.0000000   6.0000000   6.0000000

  Atom        11          12          13          14          15          16          17          18          19          20
 IAtWgt=          12          12          12          12          12          12          12          12          12          12
 AtmWgt=  12.0000000  12.0000000  12.0000000  12.0000000  12.0000000  12.0000000  12.0000000  12.0000000  12.0000000  12.0000000
 NucSpn=           0           0           0           0           0           0           0           0           0           0
 AtZEff=  -0.0000000  -0.0000000  -0.0000000  -0.0000000  -0.0000000  -0.0000000  -0.0000000  -0.0000000  -0.0000000  -0.0000000
 NQMom=    0.0000000   0.0000000   0.0000000   0.0000000   0.0000000   0.0000000   0.0000000   0.0000000   0.0000000   0.0000000
 NMagM=    0.0000000   0.0000000   0.0000000   0.0000000   0.0000000   0.0000000   0.0000000   0.0000000   0.0000000   0.0000000
 AtZNuc=   6.0000000   6.0000000   6.0000000   6.0000000   6.0000000   6.0000000   6.0000000   6.0000000   6.0000000   6.0000000

  Atom        21          22          23          24          25          26          27          28          29          30
 IAtWgt=          12          12          12          12          12          12          12          12          12          12
 AtmWgt=  12.0000000  12.0000000  12.0000000  12.0000000  12.0000000  12.0000000  12.0000000  12.0000000  12.0000000  12.0000000
 NucSpn=           0           0           0           0           0           0           0           0           0           0
 AtZEff=  -0.0000000  -0.0000000  -0.0000000  -0.0000000  -0.0000000  -0.0000000  -0.0000000  -0.0000000  -0.0000000  -0.0000000
 NQMom=    0.0000000   0.0000000   0.0000000   0.0000000   0.0000000   0.0000000   0.0000000   0.0000000   0.0000000   0.0000000
 NMagM=    0.0000000   0.0000000   0.0000000   0.0000000   0.0000000   0.0000000   0.0000000   0.0000000   0.0000000   0.0000000
 AtZNuc=   6.0000000   6.0000000   6.0000000   6.0000000   6.0000000   6.0000000   6.0000000   6.0000000   6.0000000   6.0000000

  Atom        31          32          33          34          35          36          37          38          39          40
 IAtWgt=          12          12          12          12          12          12          12          12          12          12
 AtmWgt=  12.0000000  12.0000000  12.0000000  12.0000000  12.0000000  12.0000000  12.0000000  12.0000000  12.0000000  12.0000000
 NucSpn=           0           0           0           0           0           0           0           0           0           0
 AtZEff=  -0.0000000  -0.0000000  -0.0000000  -0.0000000  -0.0000000  -0.0000000  -0.0000000  -0.0000000  -0.0000000  -0.0000000
 NQMom=    0.0000000   0.0000000   0.0000000   0.0000000   0.0000000   0.0000000   0.0000000   0.0000000   0.0000000   0.0000000
 NMagM=    0.0000000   0.0000000   0.0000000   0.0000000   0.0000000   0.0000000   0.0000000   0.0000000   0.0000000   0.0000000
 AtZNuc=   6.0000000   6.0000000   6.0000000   6.0000000   6.0000000   6.0000000   6.0000000   6.0000000   6.0000000   6.0000000

  Atom        41          42          43          44          45          46          47          48          49          50
 IAtWgt=          12          12          12          12          12          12          12          12          12          12
 AtmWgt=  12.0000000  12.0000000  12.0000000  12.0000000  12.0000000  12.0000000  12.0000000  12.0000000  12.0000000  12.0000000
 NucSpn=           0           0           0           0           0           0           0           0           0           0
 AtZEff=  -0.0000000  -0.0000000  -0.0000000  -0.0000000  -0.0000000  -0.0000000  -0.0000000  -0.0000000  -0.0000000  -0.0000000
 NQMom=    0.0000000   0.0000000   0.0000000   0.0000000   0.0000000   0.0000000   0.0000000   0.0000000   0.0000000   0.0000000
 NMagM=    0.0000000   0.0000000   0.0000000   0.0000000   0.0000000   0.0000000   0.0000000   0.0000000   0.0000000   0.0000000
 AtZNuc=   6.0000000   6.0000000   6.0000000   6.0000000   6.0000000   6.0000000   6.0000000   6.0000000   6.0000000   6.0000000

  Atom        51          52          53          54          55          56          57          58          59          60
 IAtWgt=          12          12          12          12          12          12          12          12          12          12
 AtmWgt=  12.0000000  12.0000000  12.0000000  12.0000000  12.0000000  12.0000000  12.0000000  12.0000000  12.0000000  12.0000000
 NucSpn=           0           0           0           0           0           0           0           0           0           0
 AtZEff=  -0.0000000  -0.0000000  -0.0000000  -0.0000000  -0.0000000  -0.0000000  -0.0000000  -0.0000000  -0.0000000  -0.0000000
 NQMom=    0.0000000   0.0000000   0.0000000   0.0000000   0.0000000   0.0000000   0.0000000   0.0000000   0.0000000   0.0000000
 NMagM=    0.0000000   0.0000000   0.0000000   0.0000000   0.0000000   0.0000000   0.0000000   0.0000000   0.0000000   0.0000000
 AtZNuc=   6.0000000   6.0000000   6.0000000   6.0000000   6.0000000   6.0000000   6.0000000   6.0000000   6.0000000   6.0000000
 Leave Link  101 at Thu May  5 10:08:45 2022, MaxMem=  2684354560 cpu:               0.7 elap:               0.1
 (Enter /apps/software/g16/l202.exe)
 Symmetry turned off by external request.
 This structure is nearly, but not quite of a higher symmetry.
 Consider Symm=Loose if the higher symmetry is desired.
 Stoichiometry    C60
 Framework group  C1[X(C60)]
 Deg. of freedom   174
 Full point group                 C1      NOp   1
                          Input orientation:                          
 ---------------------------------------------------------------------
 Center     Atomic      Atomic             Coordinates (Angstroms)
 Number     Number       Type             X           Y           Z
 ---------------------------------------------------------------------
      1          6           0        0.178234   -0.421643    0.095651
      2          6           0        1.718235   -0.421599    0.095573
      3          6           0        2.395811    0.752053    0.095517
      4          6           0        1.625779    2.085711    0.095540
      5          6           0        0.270573    2.085675    0.095603
      6          6           0       -0.499390    0.751976    0.095660
      7          6           0       -0.297641   -1.585543   -0.793440
      8          6           0        0.948245   -2.304824   -1.342987
      9          6           0        2.194118   -1.585470   -0.793546
     10          6           0        3.290472   -1.436029   -1.576003
     11          6           0        3.641677    0.921872   -0.793633
     12          6           0        2.395733    3.079796   -0.793599
     13          6           0        1.718072    3.954550   -1.576011
     14          6           0        0.178073    3.954503   -1.575949
     15          6           0       -0.499483    3.079715   -0.793500
     16          6           0       -1.745366    2.360366   -1.342961
     17          6           0       -1.745302    0.921744   -0.793433
     18          6           0       -2.164072   -0.102481   -1.575838
     19          6           0       -1.394044   -1.436144   -1.575842
     20          6           0        0.948218   -2.788408   -2.608975
     21          6           0       -0.297709   -2.618640   -3.498062
     22          6           0       -1.394085   -1.985666   -3.014465
     23          6           0       -2.164149   -0.991631   -3.903570
     24          6           0       -2.640028    0.172242   -3.014449
     25          6           0       -2.640093    1.438231   -3.498035
     26          6           0       -2.164205    2.602126   -2.608940
     27          6           0       -1.394253    3.596191   -3.498089
     28          6           0       -0.297871    4.229219   -3.014568
     29          6           0        3.641625    2.360496   -1.343144
     30          6           0        2.193821    3.196185   -5.719274
     31          6           0        3.290222    3.046788   -4.936877
     32          6           0        4.060256    1.713129   -4.936877
     33          6           0        3.641489    0.688899   -5.719279
     34          6           0        2.395563    0.858664   -6.608366
     35          6           0        0.177942    2.032241   -6.608299
     36          6           0       -0.297938    3.196116   -5.719178
     37          6           0        0.947944    3.915470   -5.169732
     38          6           0        0.947981    4.399044   -3.903743
     39          6           0        2.193896    4.229288   -3.014664
     40          6           0        3.290265    3.596308   -3.498266
     41          6           0        4.536219    1.438397   -3.498269
     42          6           0        4.536284    0.172408   -3.014694
     43          6           0        4.060404   -0.991484   -3.903784
     44          6           0        3.641560   -0.749722   -5.169767
     45          6           0        2.395665   -1.469073   -5.719224
     46          6           0        1.625597   -0.475041   -6.608329
     47          6           0        0.270395   -0.475074   -6.608277
     48          6           0       -0.499630    0.858585   -6.608259
     49          6           0       -1.394291    3.046673   -4.936716
     50          6           0       -2.164262    1.712974   -4.936674
     51          6           0       -1.745484    0.688763   -5.719097
     52          6           0       -1.745426   -0.749858   -5.169573
     53          6           0       -0.499549   -1.469147   -5.719120
     54          6           0        0.178106   -2.343894   -4.936704
     55          6           0        1.718110   -2.343860   -4.936759
     56          6           0        2.194064   -2.618585   -3.498136
     57          6           0        3.290444   -1.985560   -3.014620
     58          6           0        4.060339    2.602271   -2.609151
     59          6           0        4.060453   -0.102337   -1.576057
     60          6           0        1.717936    2.032284   -6.608357
 ---------------------------------------------------------------------
 Rotational constants (GHZ):           0.0789617           0.0789616           0.0789614
 Leave Link  202 at Thu May  5 10:08:45 2022, MaxMem=  2684354560 cpu:               0.1 elap:               0.0
 (Enter /apps/software/g16/l301.exe)
 Standard basis: CC-pVDZ (5D, 7F)
 Ernie: Thresh=  0.10000D-02 Tol=  0.10000D-05 Strict=F.
 Ernie:  120 primitive shells out of 1320 were deleted.
   840 basis functions,  1980 primitive gaussians,   900 cartesian basis functions
   180 alpha electrons      180 beta electrons
       nuclear repulsion energy      8096.3219427777 Hartrees.
 IExCor=    0 DFT=F Ex=HF Corr=None ExCW=0 ScaHFX=  1.000000
 ScaDFX=  1.000000  1.000000  1.000000  1.000000 ScalE2=  1.000000  1.000000
 IRadAn=      5 IRanWt=     -1 IRanGd=            0 ICorTp=0 IEmpDi=  4
 NAtoms=   60 NActive=   60 NUniq=   60 SFac= 1.00D+00 NAtFMM=   60 NAOKFM=T Big=T
 Integral buffers will be    131072 words long.
 Raffenetti 1 integral format.
 Two-electron integral symmetry is turned off.
 Leave Link  301 at Thu May  5 10:08:46 2022, MaxMem=  2684354560 cpu:               0.4 elap:               0.1
 (Enter /apps/software/g16/l302.exe)
 NPDir=0 NMtPBC=     1 NCelOv=     1 NCel=       1 NClECP=     1 NCelD=      1
         NCelK=      1 NCelE2=     1 NClLst=     1 CellRange=     0.0.
 One-electron integrals computed using PRISM.
 NBasis=   840 RedAO= T EigKep=  1.96D-04  NBF=   840
 NBsUse=   840 1.00D-06 EigRej= -1.00D+00 NBFU=   840
 Leave Link  302 at Thu May  5 10:08:46 2022, MaxMem=  2684354560 cpu:               7.0 elap:               0.9
 (Enter /apps/software/g16/l303.exe)
 DipDrv:  MaxL=1.
 Leave Link  303 at Thu May  5 10:08:47 2022, MaxMem=  2684354560 cpu:               1.7 elap:               0.2
 (Enter /apps/software/g16/l401.exe)
 ExpMin= 1.52D-01 ExpMax= 6.67D+03 ExpMxC= 2.28D+02 IAcc=3 IRadAn=         5 AccDes= 0.00D+00
 Harris functional with IExCor=  205 and IRadAn=       5 diagonalized for initial guess.
 HarFok:  IExCor=  205 AccDes= 0.00D+00 IRadAn=         5 IDoV= 1 UseB2=F ITyADJ=14
 ICtDFT=  3500011 ScaDFX=  1.000000  1.000000  1.000000  1.000000
 FoFCou: FMM=F IPFlag=           0 FMFlag=      100000 FMFlg1=        2001
         NFxFlg=           0 DoJE=T BraDBF=F KetDBF=T FulRan=T
         wScrn=  0.000000 ICntrl=       500 IOpCl=  0 I1Cent=   200000004 NGrid=           0
         NMat0=    1 NMatS0=      1 NMatT0=    0 NMatD0=    1 NMtDS0=    0 NMtDT0=    0
 Symmetry not used in FoFCou.
 Harris En= -2273.36201910982    
 JPrj=0 DoOrth=F DoCkMO=F.
 Leave Link  401 at Thu May  5 10:08:52 2022, MaxMem=  2684354560 cpu:              38.9 elap:               4.9
 (Enter /apps/software/g16/l502.exe)
 Two-electron integral symmetry not used.
 Closed shell SCF:
 Using DIIS extrapolation, IDIIS=  1040.
 NGot=  2684354560 LenX=  2682720948 LenY=  2681910048
 Requested convergence on RMS density matrix=1.00D-08 within 128 cycles.
 Requested convergence on MAX density matrix=1.00D-06.
 Requested convergence on             energy=1.00D-06.
 No special actions if energy rises.
 Fock matrices will be formed incrementally for  20 cycles.
 Integral accuracy reduced to 1.0D-05 until final iterations.

 Cycle   1  Pass 0  IDiag  1:
 FoFJK:  IHMeth= 1 ICntrl=       0 DoSepK=F KAlg= 0 I1Cent=           0 FoldK=F
 IRaf= 990000000 NMat=       1 IRICut=       1 DoRegI=T DoRafI=F ISym2E= 0 IDoP0=0 IntGTp=1.
 FoFCou: FMM=T IPFlag=           0 FMFlag=      100000 FMFlg1=        2001
         NFxFlg=           0 DoJE=F BraDBF=F KetDBF=F FulRan=T
         wScrn=  0.000000 ICntrl=         0 IOpCl=  0 I1Cent=           0 NGrid=           0
         NMat0=    1 NMatS0=      1 NMatT0=    0 NMatD0=    1 NMtDS0=    0 NMtDT0=    0
 Symmetry not used in FoFCou.
 FMM levels:  10  Number of levels for PrismC:   9
 E= -2270.61705849655    
 DIIS: error= 3.50D-02 at cycle   1 NSaved=   1.
 NSaved= 1 IEnMin= 1 EnMin= -2270.61705849655     IErMin= 1 ErrMin= 3.50D-02
 ErrMax= 3.50D-02  0.00D+00 EMaxC= 1.00D-01 BMatC= 1.49D+00 BMatP= 1.49D+00
 IDIUse=3 WtCom= 6.50D-01 WtEn= 3.50D-01
 Coeff-Com:  0.100D+01
 Coeff-En:   0.100D+01
 Coeff:      0.100D+01
 Gap=     0.301 Goal=   None    Shift=    0.000
 GapD=    0.301 DampG=1.000 DampE=0.500 DampFc=0.5000 IDamp=-1.
 Damping current iteration by 5.00D-01
 RMSDP=2.28D-03 MaxDP=4.68D-02              OVMax= 9.99D-02

 Cycle   2  Pass 0  IDiag  1:
 RMSU=  1.12D-03    CP:  9.83D-01
 E= -2271.14048358516     Delta-E=       -0.523425088615 Rises=F Damp=T
 DIIS: error= 1.87D-02 at cycle   2 NSaved=   2.
 NSaved= 2 IEnMin= 2 EnMin= -2271.14048358516     IErMin= 2 ErrMin= 1.87D-02
 ErrMax= 1.87D-02  0.00D+00 EMaxC= 1.00D-01 BMatC= 3.79D-01 BMatP= 1.49D+00
 IDIUse=3 WtCom= 8.13D-01 WtEn= 1.87D-01
 Coeff-Com: -0.756D+00 0.176D+01
 Coeff-En:   0.000D+00 0.100D+01
 Coeff:     -0.615D+00 0.162D+01
 Gap=     0.307 Goal=   None    Shift=    0.000
 RMSDP=1.43D-03 MaxDP=2.08D-02 DE=-5.23D-01 OVMax= 3.53D-02

 Cycle   3  Pass 0  IDiag  1:
 RMSU=  7.52D-04    CP:  9.69D-01  2.08D+00
 E= -2271.65639345657     Delta-E=       -0.515909871405 Rises=F Damp=F
 DIIS: error= 8.51D-03 at cycle   3 NSaved=   3.
 NSaved= 3 IEnMin= 3 EnMin= -2271.65639345657     IErMin= 3 ErrMin= 8.51D-03
 ErrMax= 8.51D-03  0.00D+00 EMaxC= 1.00D-01 BMatC= 3.56D-02 BMatP= 3.79D-01
 IDIUse=3 WtCom= 9.15D-01 WtEn= 8.51D-02
 Coeff-Com: -0.337D+00 0.611D+00 0.725D+00
 Coeff-En:   0.000D+00 0.000D+00 0.100D+01
 Coeff:     -0.308D+00 0.559D+00 0.749D+00
 Gap=     0.306 Goal=   None    Shift=    0.000
 RMSDP=2.68D-04 MaxDP=5.37D-03 DE=-5.16D-01 OVMax= 1.49D-02

 Cycle   4  Pass 0  IDiag  1:
 RMSU=  1.96D-04    CP:  9.67D-01  2.09D+00  7.59D-01
 E= -2271.68681351012     Delta-E=       -0.030420053550 Rises=F Damp=F
 DIIS: error= 8.81D-04 at cycle   4 NSaved=   4.
 NSaved= 4 IEnMin= 4 EnMin= -2271.68681351012     IErMin= 4 ErrMin= 8.81D-04
 ErrMax= 8.81D-04  0.00D+00 EMaxC= 1.00D-01 BMatC= 5.51D-04 BMatP= 3.56D-02
 IDIUse=3 WtCom= 9.91D-01 WtEn= 8.81D-03
 Coeff-Com:  0.386D-01-0.822D-01 0.755D-02 0.104D+01
 Coeff-En:   0.000D+00 0.000D+00 0.000D+00 0.100D+01
 Coeff:      0.383D-01-0.815D-01 0.749D-02 0.104D+01
 Gap=     0.308 Goal=   None    Shift=    0.000
 RMSDP=9.70D-05 MaxDP=1.91D-03 DE=-3.04D-02 OVMax= 6.85D-03

 Cycle   5  Pass 0  IDiag  1:
 RMSU=  6.72D-05    CP:  9.67D-01  2.12D+00  8.38D-01  1.04D+00
 E= -2271.68825016229     Delta-E=       -0.001436652172 Rises=F Damp=F
 DIIS: error= 3.08D-04 at cycle   5 NSaved=   5.
 NSaved= 5 IEnMin= 5 EnMin= -2271.68825016229     IErMin= 5 ErrMin= 3.08D-04
 ErrMax= 3.08D-04  0.00D+00 EMaxC= 1.00D-01 BMatC= 4.28D-05 BMatP= 5.51D-04
 IDIUse=3 WtCom= 9.97D-01 WtEn= 3.08D-03
 Coeff-Com:  0.781D-02-0.119D-01-0.383D-01-0.305D+00 0.135D+01
 Coeff-En:   0.000D+00 0.000D+00 0.000D+00 0.000D+00 0.100D+01
 Coeff:      0.779D-02-0.118D-01-0.381D-01-0.304D+00 0.135D+01
 Gap=     0.310 Goal=   None    Shift=    0.000
 RMSDP=5.03D-05 MaxDP=7.02D-04 DE=-1.44D-03 OVMax= 4.47D-03

 Cycle   6  Pass 0  IDiag  1:
 RMSU=  4.21D-05    CP:  9.67D-01  2.12D+00  8.51D-01  1.11D+00  1.31D+00
 E= -2271.68836708038     Delta-E=       -0.000116918089 Rises=F Damp=F
 DIIS: error= 8.88D-05 at cycle   6 NSaved=   6.
 NSaved= 6 IEnMin= 6 EnMin= -2271.68836708038     IErMin= 6 ErrMin= 8.88D-05
 ErrMax= 8.88D-05  0.00D+00 EMaxC= 1.00D-01 BMatC= 5.14D-06 BMatP= 4.28D-05
 IDIUse=1 WtCom= 1.00D+00 WtEn= 0.00D+00
 Coeff-Com: -0.278D-02 0.572D-02 0.947D-03-0.747D-01 0.432D-01 0.103D+01
 Coeff:     -0.278D-02 0.572D-02 0.947D-03-0.747D-01 0.432D-01 0.103D+01
 Gap=     0.310 Goal=   None    Shift=    0.000
 RMSDP=3.33D-05 MaxDP=5.07D-04 DE=-1.17D-04 OVMax= 1.16D-03

 Cycle   7  Pass 0  IDiag  1:
 RMSU=  2.78D-05    CP:  9.67D-01  2.12D+00  8.44D-01  1.11D+00  1.55D+00
                    CP:  8.33D-01
 E= -2271.68870234743     Delta-E=       -0.000335267052 Rises=F Damp=F
 DIIS: error= 8.25D-05 at cycle   7 NSaved=   7.
 NSaved= 7 IEnMin= 7 EnMin= -2271.68870234743     IErMin= 7 ErrMin= 8.25D-05
 ErrMax= 8.25D-05  0.00D+00 EMaxC= 1.00D-01 BMatC= 1.78D-06 BMatP= 5.14D-06
 IDIUse=1 WtCom= 1.00D+00 WtEn= 0.00D+00
 Coeff-Com: -0.244D-02 0.432D-02 0.752D-02 0.296D-01-0.240D+00 0.309D+00
 Coeff-Com:  0.892D+00
 Coeff:     -0.244D-02 0.432D-02 0.752D-02 0.296D-01-0.240D+00 0.309D+00
 Coeff:      0.892D+00
 Gap=     0.310 Goal=   None    Shift=    0.000
 RMSDP=2.05D-05 MaxDP=3.80D-04 DE=-3.35D-04 OVMax= 5.81D-04

 Cycle   8  Pass 0  IDiag  1:
 RMSU=  1.55D-05    CP:  9.67D-01  2.12D+00  8.41D-01  1.12D+00  1.65D+00
                    CP:  1.06D+00  1.11D+00
 E= -2271.68887304572     Delta-E=       -0.000170698288 Rises=F Damp=F
 DIIS: error= 6.56D-05 at cycle   8 NSaved=   8.
 NSaved= 8 IEnMin= 8 EnMin= -2271.68887304572     IErMin= 8 ErrMin= 6.56D-05
 ErrMax= 6.56D-05  0.00D+00 EMaxC= 1.00D-01 BMatC= 6.55D-07 BMatP= 1.78D-06
 IDIUse=1 WtCom= 1.00D+00 WtEn= 0.00D+00
 Coeff-Com: -0.223D-03 0.405D-03 0.108D-02 0.888D-02-0.421D-01-0.617D-02
 Coeff-Com:  0.186D+00 0.853D+00
 Coeff:     -0.223D-03 0.405D-03 0.108D-02 0.888D-02-0.421D-01-0.617D-02
 Coeff:      0.186D+00 0.853D+00
 Gap=     0.310 Goal=   None    Shift=    0.000
 RMSDP=2.05D-05 MaxDP=2.80D-04 DE=-1.71D-04 OVMax= 1.23D-04

 Cycle   9  Pass 0  IDiag  1:
 RMSU=  8.45D-06    CP:  9.67D-01  2.11D+00  8.33D-01  1.12D+00  1.74D+00
                    CP:  1.06D+00  1.55D+00  1.62D+00
 E= -2271.68900489464     Delta-E=       -0.000131848925 Rises=F Damp=F
 DIIS: error= 7.84D-05 at cycle   9 NSaved=   9.
 NSaved= 9 IEnMin= 9 EnMin= -2271.68900489464     IErMin= 8 ErrMin= 6.56D-05
 ErrMax= 7.84D-05  0.00D+00 EMaxC= 1.00D-01 BMatC= 8.73D-07 BMatP= 6.55D-07
 IDIUse=1 WtCom= 1.00D+00 WtEn= 0.00D+00
 Coeff-Com: -0.778D-03 0.131D-02 0.318D-02 0.228D-01-0.104D+00-0.305D-01
 Coeff-Com:  0.327D+00 0.173D+01-0.948D+00
 Coeff:     -0.778D-03 0.131D-02 0.318D-02 0.228D-01-0.104D+00-0.305D-01
 Coeff:      0.327D+00 0.173D+01-0.948D+00
 Gap=     0.310 Goal=   None    Shift=    0.000
 RMSDP=2.16D-05 MaxDP=2.88D-04 DE=-1.32D-04 OVMax= 6.77D-05

 Cycle  10  Pass 0  IDiag  1:
 RMSU=  4.07D-06    CP:  9.67D-01  2.12D+00  8.42D-01  1.11D+00  1.67D+00
                    CP:  1.09D+00  1.13D+00  8.94D-01  5.17D-03
 E= -2271.68893788367     Delta-E=        0.000067010971 Rises=F Damp=F
 DIIS: error= 7.11D-05 at cycle  10 NSaved=  10.
 NSaved=10 IEnMin= 9 EnMin= -2271.68900489464     IErMin= 8 ErrMin= 6.56D-05
 ErrMax= 7.11D-05  0.00D+00 EMaxC= 1.00D-01 BMatC= 6.13D-07 BMatP= 6.55D-07
 IDIUse=1 WtCom= 1.00D+00 WtEn= 0.00D+00
 Coeff-Com: -0.481D-03 0.785D-03 0.227D-02 0.187D-01-0.730D-01-0.668D-01
 Coeff-Com:  0.204D+00 0.147D+01-0.189D+01 0.133D+01
 Coeff:     -0.481D-03 0.785D-03 0.227D-02 0.187D-01-0.730D-01-0.668D-01
 Coeff:      0.204D+00 0.147D+01-0.189D+01 0.133D+01
 Gap=     0.310 Goal=   None    Shift=    0.000
 RMSDP=2.50D-05 MaxDP=3.09D-04 DE= 6.70D-05 OVMax= 8.63D-05

 Cycle  11  Pass 0  IDiag  1:
 RMSU=  6.11D-06    CP:  9.67D-01  2.13D+00  8.52D-01  1.10D+00  1.57D+00
                    CP:  1.15D+00  6.84D-01  1.45D-01 -1.27D+00  1.85D+00
 E= -2271.68879788981     Delta-E=        0.000139993865 Rises=F Damp=F
 DIIS: error= 6.29D-05 at cycle  11 NSaved=  11.
 NSaved=11 IEnMin= 9 EnMin= -2271.68900489464     IErMin=11 ErrMin= 6.29D-05
 ErrMax= 6.29D-05  0.00D+00 EMaxC= 1.00D-01 BMatC= 3.68D-07 BMatP= 6.13D-07
 IDIUse=1 WtCom= 1.00D+00 WtEn= 0.00D+00
 Coeff-Com: -0.431D-04 0.592D-04 0.497D-03 0.639D-02-0.152D-01-0.100D+00
 Coeff-Com:  0.136D+00 0.841D+00-0.105D+01 0.438D+00 0.739D+00
 Coeff:     -0.431D-04 0.592D-04 0.497D-03 0.639D-02-0.152D-01-0.100D+00
 Coeff:      0.136D+00 0.841D+00-0.105D+01 0.438D+00 0.739D+00
 Gap=     0.310 Goal=   None    Shift=    0.000
 RMSDP=7.36D-06 MaxDP=1.19D-04 DE= 1.40D-04 OVMax= 3.17D-05

 Initial convergence to 1.0D-05 achieved.  Increase integral accuracy.
 Cycle  12  Pass 1  IDiag  1:
 E= -2271.68431229839     Delta-E=        0.004485591422 Rises=F Damp=F
 DIIS: error= 4.50D-03 at cycle   1 NSaved=   1.
 NSaved= 1 IEnMin= 1 EnMin= -2271.68431229839     IErMin= 1 ErrMin= 4.50D-03
 ErrMax= 4.50D-03  0.00D+00 EMaxC= 1.00D-01 BMatC= 2.03D-03 BMatP= 2.03D-03
 IDIUse=3 WtCom= 9.55D-01 WtEn= 4.50D-02
 Coeff-Com:  0.100D+01
 Coeff-En:   0.100D+01
 Coeff:      0.100D+01
 Gap=     0.311 Goal=   None    Shift=    0.000
 RMSDP=7.36D-06 MaxDP=1.19D-04 DE= 4.49D-03 OVMax= 4.36D-03

 Cycle  13  Pass 1  IDiag  1:
 RMSU=  1.02D-03    CP:  9.90D-01
 E= -2271.68598804754     Delta-E=       -0.001675749154 Rises=F Damp=F
 DIIS: error= 1.52D-04 at cycle   2 NSaved=   2.
 NSaved= 2 IEnMin= 2 EnMin= -2271.68598804754     IErMin= 2 ErrMin= 1.52D-04
 ErrMax= 1.52D-04  0.00D+00 EMaxC= 1.00D-01 BMatC= 3.87D-06 BMatP= 2.03D-03
 IDIUse=3 WtCom= 9.98D-01 WtEn= 1.52D-03
 Coeff-Com: -0.382D-01 0.104D+01
 Coeff-En:   0.000D+00 0.100D+01
 Coeff:     -0.382D-01 0.104D+01
 Gap=     0.311 Goal=   None    Shift=    0.000
 RMSDP=5.02D-05 MaxDP=6.35D-04 DE=-1.68D-03 OVMax= 3.45D-04

 Cycle  14  Pass 1  IDiag  1:
 RMSU=  1.42D-05    CP:  9.89D-01  1.05D+00
 E= -2271.68599308442     Delta-E=       -0.000005036876 Rises=F Damp=F
 DIIS: error= 1.57D-05 at cycle   3 NSaved=   3.
 NSaved= 3 IEnMin= 3 EnMin= -2271.68599308442     IErMin= 3 ErrMin= 1.57D-05
 ErrMax= 1.57D-05  0.00D+00 EMaxC= 1.00D-01 BMatC= 5.58D-08 BMatP= 3.87D-06
 IDIUse=1 WtCom= 1.00D+00 WtEn= 0.00D+00
 Coeff-Com: -0.857D-03 0.964D-02 0.991D+00
 Coeff:     -0.857D-03 0.964D-02 0.991D+00
 Gap=     0.311 Goal=   None    Shift=    0.000
 RMSDP=1.76D-06 MaxDP=2.55D-05 DE=-5.04D-06 OVMax= 3.53D-05

 Cycle  15  Pass 1  IDiag  1:
 RMSU=  8.42D-07    CP:  9.89D-01  1.05D+00  1.07D+00
 E= -2271.68599313294     Delta-E=       -0.000000048520 Rises=F Damp=F
 DIIS: error= 7.95D-06 at cycle   4 NSaved=   4.
 NSaved= 4 IEnMin= 4 EnMin= -2271.68599313294     IErMin= 4 ErrMin= 7.95D-06
 ErrMax= 7.95D-06  0.00D+00 EMaxC= 1.00D-01 BMatC= 2.60D-08 BMatP= 5.58D-08
 IDIUse=1 WtCom= 1.00D+00 WtEn= 0.00D+00
 Coeff-Com:  0.148D-02-0.457D-01 0.408D+00 0.636D+00
 Coeff:      0.148D-02-0.457D-01 0.408D+00 0.636D+00
 Gap=     0.311 Goal=   None    Shift=    0.000
 RMSDP=2.38D-07 MaxDP=3.83D-06 DE=-4.85D-08 OVMax= 1.26D-05

 Cycle  16  Pass 1  IDiag  1:
 RMSU=  2.07D-07    CP:  9.89D-01  1.05D+00  1.07D+00  9.84D-01
 E= -2271.68599315611     Delta-E=       -0.000000023178 Rises=F Damp=F
 DIIS: error= 1.06D-06 at cycle   5 NSaved=   5.
 NSaved= 5 IEnMin= 5 EnMin= -2271.68599315611     IErMin= 5 ErrMin= 1.06D-06
 ErrMax= 1.06D-06  0.00D+00 EMaxC= 1.00D-01 BMatC= 3.58D-10 BMatP= 2.60D-08
 IDIUse=1 WtCom= 1.00D+00 WtEn= 0.00D+00
 Coeff-Com: -0.178D-03 0.641D-02-0.109D+00-0.709D-01 0.117D+01
 Coeff:     -0.178D-03 0.641D-02-0.109D+00-0.709D-01 0.117D+01
 Gap=     0.311 Goal=   None    Shift=    0.000
 RMSDP=8.35D-08 MaxDP=1.31D-06 DE=-2.32D-08 OVMax= 6.12D-06

 Cycle  17  Pass 1  IDiag  1:
 RMSU=  4.46D-08    CP:  9.89D-01  1.05D+00  1.08D+00  1.05D+00  1.14D+00
 E= -2271.68599315697     Delta-E=       -0.000000000855 Rises=F Damp=F
 DIIS: error= 2.69D-07 at cycle   6 NSaved=   6.
 NSaved= 6 IEnMin= 6 EnMin= -2271.68599315697     IErMin= 6 ErrMin= 2.69D-07
 ErrMax= 2.69D-07  0.00D+00 EMaxC= 1.00D-01 BMatC= 5.01D-11 BMatP= 3.58D-10
 IDIUse=1 WtCom= 1.00D+00 WtEn= 0.00D+00
 Coeff-Com: -0.113D-03 0.375D-02-0.471D-01-0.460D-01 0.309D+00 0.780D+00
 Coeff:     -0.113D-03 0.375D-02-0.471D-01-0.460D-01 0.309D+00 0.780D+00
 Gap=     0.311 Goal=   None    Shift=    0.000
 RMSDP=1.50D-08 MaxDP=4.36D-07 DE=-8.55D-10 OVMax= 2.09D-06

 Cycle  18  Pass 1  IDiag  1:
 RMSU=  1.34D-08    CP:  9.89D-01  1.05D+00  1.08D+00  1.06D+00  1.16D+00
                    CP:  1.09D+00
 E= -2271.68599315705     Delta-E=       -0.000000000084 Rises=F Damp=F
 DIIS: error= 1.36D-07 at cycle   7 NSaved=   7.
 NSaved= 7 IEnMin= 7 EnMin= -2271.68599315705     IErMin= 7 ErrMin= 1.36D-07
 ErrMax= 1.36D-07  0.00D+00 EMaxC= 1.00D-01 BMatC= 1.35D-11 BMatP= 5.01D-11
 IDIUse=1 WtCom= 1.00D+00 WtEn= 0.00D+00
 Coeff-Com:  0.484D-05-0.280D-03 0.995D-02 0.191D-02-0.175D+00 0.291D+00
 Coeff-Com:  0.872D+00
 Coeff:      0.484D-05-0.280D-03 0.995D-02 0.191D-02-0.175D+00 0.291D+00
 Coeff:      0.872D+00
 Gap=     0.311 Goal=   None    Shift=    0.000
 RMSDP=8.14D-09 MaxDP=1.58D-07 DE=-8.37D-11 OVMax= 1.47D-06

 SCF Done:  E(RHF) =  -2271.68599316     A.U. after   18 cycles
            NFock= 18  Conv=0.81D-08     -V/T= 2.0036
 KE= 2.263561222578D+03 PE=-2.146841135522D+04 EE= 8.836842196707D+03
 Leave Link  502 at Thu May  5 10:17:24 2022, MaxMem=  2684354560 cpu:            4087.7 elap:             512.7
 (Enter /apps/software/g16/l601.exe)
 Copying SCF densities to generalized density rwf, IOpCl= 0 IROHF=0.

 **********************************************************************

            Population analysis using the SCF density.

 **********************************************************************

 Alpha  occ. eigenvalues --  -11.31103 -11.31094 -11.31094 -11.31094 -11.31079
 Alpha  occ. eigenvalues --  -11.31079 -11.31079 -11.31079 -11.31079 -11.31064
 Alpha  occ. eigenvalues --  -11.31064 -11.31064 -11.31064 -11.31049 -11.31049
 Alpha  occ. eigenvalues --  -11.31049 -11.31042 -11.31042 -11.31042 -11.31042
 Alpha  occ. eigenvalues --  -11.31032 -11.31032 -11.31032 -11.31032 -11.31032
 Alpha  occ. eigenvalues --  -11.31028 -11.31028 -11.31028 -11.31028 -11.31028
 Alpha  occ. eigenvalues --  -11.30930 -11.30930 -11.30930 -11.30921 -11.30921
 Alpha  occ. eigenvalues --  -11.30921 -11.30914 -11.30914 -11.30914 -11.30914
 Alpha  occ. eigenvalues --  -11.30914 -11.30910 -11.30910 -11.30910 -11.30895
 Alpha  occ. eigenvalues --  -11.30895 -11.30895 -11.30895 -11.30895 -11.30879
 Alpha  occ. eigenvalues --  -11.30879 -11.30879 -11.30879 -11.30854 -11.30854
 Alpha  occ. eigenvalues --  -11.30854 -11.30854 -11.30852 -11.30852 -11.30852
 Alpha  occ. eigenvalues --   -1.26678  -1.24331  -1.24330  -1.24330  -1.19751
 Alpha  occ. eigenvalues --   -1.19751  -1.19751  -1.19751  -1.19751  -1.13191
 Alpha  occ. eigenvalues --   -1.13191  -1.13191  -1.13191  -1.13172  -1.13171
 Alpha  occ. eigenvalues --   -1.13171  -1.05398  -1.05398  -1.05398  -1.05398
 Alpha  occ. eigenvalues --   -1.04957  -1.04957  -1.04957  -1.04956  -1.04956
 Alpha  occ. eigenvalues --   -0.99200  -0.99200  -0.99200  -0.99200  -0.99200
 Alpha  occ. eigenvalues --   -0.91552  -0.91551  -0.91551  -0.88525  -0.88525
 Alpha  occ. eigenvalues --   -0.88525  -0.86269  -0.86269  -0.86269  -0.86269
 Alpha  occ. eigenvalues --   -0.86269  -0.82466  -0.82466  -0.82466  -0.77328
 Alpha  occ. eigenvalues --   -0.73168  -0.73168  -0.73167  -0.73167  -0.72715
 Alpha  occ. eigenvalues --   -0.72715  -0.72715  -0.72715  -0.72715  -0.68943
 Alpha  occ. eigenvalues --   -0.68943  -0.68943  -0.67309  -0.67309  -0.67309
 Alpha  occ. eigenvalues --   -0.63144  -0.61748  -0.61748  -0.61748  -0.61748
 Alpha  occ. eigenvalues --   -0.61631  -0.61631  -0.61630  -0.61630  -0.61615
 Alpha  occ. eigenvalues --   -0.61615  -0.61615  -0.61615  -0.61615  -0.60197
 Alpha  occ. eigenvalues --   -0.60197  -0.60196  -0.57093  -0.57093  -0.57093
 Alpha  occ. eigenvalues --   -0.57093  -0.55791  -0.55791  -0.55791  -0.54518
 Alpha  occ. eigenvalues --   -0.54518  -0.54518  -0.54518  -0.54518  -0.49265
 Alpha  occ. eigenvalues --   -0.49265  -0.49265  -0.49265  -0.49264  -0.47852
 Alpha  occ. eigenvalues --   -0.47852  -0.47852  -0.47851  -0.47851  -0.46713
 Alpha  occ. eigenvalues --   -0.46713  -0.46713  -0.46713  -0.45448  -0.45448
 Alpha  occ. eigenvalues --   -0.45448  -0.37683  -0.37683  -0.37683  -0.37683
 Alpha  occ. eigenvalues --   -0.35462  -0.35462  -0.35462  -0.35462  -0.35462
 Alpha  occ. eigenvalues --   -0.30990  -0.30990  -0.30990  -0.30990  -0.30990
 Alpha virt. eigenvalues --    0.00092   0.00093   0.00093   0.06028   0.06028
 Alpha virt. eigenvalues --    0.06028   0.06885   0.06885   0.06885   0.06885
 Alpha virt. eigenvalues --    0.06885   0.06973   0.06973   0.06973   0.16921
 Alpha virt. eigenvalues --    0.16921   0.16922   0.16922   0.16922   0.19350
 Alpha virt. eigenvalues --    0.19350   0.19350   0.19350   0.20744   0.20744
 Alpha virt. eigenvalues --    0.20744   0.20744   0.23589   0.23589   0.23589
 Alpha virt. eigenvalues --    0.24283   0.24284   0.24284   0.26545   0.26545
 Alpha virt. eigenvalues --    0.26545   0.26545   0.26545   0.30169   0.30169
 Alpha virt. eigenvalues --    0.30169   0.33164   0.33164   0.33164   0.33835
 Alpha virt. eigenvalues --    0.33835   0.33835   0.33835   0.37991   0.37991
 Alpha virt. eigenvalues --    0.37991   0.37991   0.40412   0.40412   0.40412
 Alpha virt. eigenvalues --    0.40412   0.40413   0.41547   0.41547   0.41547
 Alpha virt. eigenvalues --    0.41547   0.41547   0.47653   0.47653   0.47653
 Alpha virt. eigenvalues --    0.48189   0.48189   0.48189   0.49412   0.49413
 Alpha virt. eigenvalues --    0.49413   0.53967   0.53968   0.53968   0.53968
 Alpha virt. eigenvalues --    0.53968   0.55031   0.59023   0.59023   0.59023
 Alpha virt. eigenvalues --    0.59023   0.59753   0.59753   0.59753   0.59753
 Alpha virt. eigenvalues --    0.59753   0.60376   0.61138   0.61138   0.61138
 Alpha virt. eigenvalues --    0.62112   0.62112   0.62112   0.62112   0.62112
 Alpha virt. eigenvalues --    0.62707   0.62707   0.62707   0.62707   0.63647
 Alpha virt. eigenvalues --    0.63647   0.63647   0.63647   0.63688   0.63688
 Alpha virt. eigenvalues --    0.63688   0.63694   0.63694   0.63694   0.63959
 Alpha virt. eigenvalues --    0.63959   0.63959   0.63959   0.64083   0.64084
 Alpha virt. eigenvalues --    0.64084   0.66268   0.67667   0.67667   0.67667
 Alpha virt. eigenvalues --    0.67667   0.67667   0.67985   0.67985   0.67985
 Alpha virt. eigenvalues --    0.68460   0.68460   0.68460   0.68460   0.68460
 Alpha virt. eigenvalues --    0.70058   0.70059   0.70059   0.70632   0.70632
 Alpha virt. eigenvalues --    0.70632   0.71080   0.71080   0.71080   0.71080
 Alpha virt. eigenvalues --    0.71080   0.73350   0.73350   0.73350   0.73350
 Alpha virt. eigenvalues --    0.73351   0.73605   0.73605   0.73605   0.73605
 Alpha virt. eigenvalues --    0.73605   0.74272   0.74272   0.74272   0.74345
 Alpha virt. eigenvalues --    0.74345   0.74345   0.74345   0.76075   0.76075
 Alpha virt. eigenvalues --    0.76076   0.76076   0.76076   0.76472   0.76472
 Alpha virt. eigenvalues --    0.76472   0.76472   0.78167   0.78167   0.78167
 Alpha virt. eigenvalues --    0.78167   0.79615   0.79616   0.79616   0.79616
 Alpha virt. eigenvalues --    0.79616   0.79810   0.79810   0.79810   0.81188
 Alpha virt. eigenvalues --    0.81188   0.81188   0.82204   0.82204   0.82205
 Alpha virt. eigenvalues --    0.82205   0.82700   0.82700   0.82700   0.83633
 Alpha virt. eigenvalues --    0.83633   0.83633   0.83633   0.84782   0.84782
 Alpha virt. eigenvalues --    0.84782   0.85868   0.85868   0.85868   0.85868
 Alpha virt. eigenvalues --    0.85868   0.86089   0.86090   0.86090   0.87049
 Alpha virt. eigenvalues --    0.87049   0.87049   0.87049   0.88017   0.88171
 Alpha virt. eigenvalues --    0.88171   0.88171   0.88500   0.88500   0.88500
 Alpha virt. eigenvalues --    0.88500   0.88500   0.90057   0.90057   0.90057
 Alpha virt. eigenvalues --    0.90058   0.90058   0.90782   0.90918   0.90918
 Alpha virt. eigenvalues --    0.90918   0.91219   0.91219   0.91220   0.91220
 Alpha virt. eigenvalues --    0.92731   0.92731   0.92731   0.92731   0.92731
 Alpha virt. eigenvalues --    0.95295   0.95295   0.95295   0.95296   0.98474
 Alpha virt. eigenvalues --    0.98475   0.98475   0.98722   0.98722   0.98722
 Alpha virt. eigenvalues --    1.01369   1.01369   1.01369   1.01369   1.01897
 Alpha virt. eigenvalues --    1.01897   1.01897   1.01897   1.01897   1.02123
 Alpha virt. eigenvalues --    1.02123   1.02123   1.05040   1.05040   1.05040
 Alpha virt. eigenvalues --    1.09603   1.09603   1.09603   1.09603   1.09603
 Alpha virt. eigenvalues --    1.10902   1.10902   1.10902   1.11038   1.11038
 Alpha virt. eigenvalues --    1.11038   1.11038   1.12772   1.12772   1.12772
 Alpha virt. eigenvalues --    1.12772   1.12772   1.14504   1.14504   1.14504
 Alpha virt. eigenvalues --    1.14504   1.15835   1.15835   1.15835   1.15835
 Alpha virt. eigenvalues --    1.15835   1.21019   1.21019   1.21019   1.21241
 Alpha virt. eigenvalues --    1.21241   1.21241   1.21640   1.21641   1.21641
 Alpha virt. eigenvalues --    1.22367   1.22367   1.22367   1.22367   1.25832
 Alpha virt. eigenvalues --    1.25832   1.25832   1.26452   1.26452   1.26452
 Alpha virt. eigenvalues --    1.26452   1.26452   1.30268   1.30268   1.30268
 Alpha virt. eigenvalues --    1.30268   1.30268   1.31783   1.32011   1.32011
 Alpha virt. eigenvalues --    1.32011   1.32011   1.33396   1.33396   1.33396
 Alpha virt. eigenvalues --    1.33396   1.33657   1.33657   1.33657   1.33657
 Alpha virt. eigenvalues --    1.33657   1.33720   1.33720   1.33720   1.33721
 Alpha virt. eigenvalues --    1.33721   1.36704   1.36705   1.36705   1.36705
 Alpha virt. eigenvalues --    1.40231   1.40231   1.40232   1.42734   1.42734
 Alpha virt. eigenvalues --    1.42734   1.42735   1.43221   1.43222   1.43222
 Alpha virt. eigenvalues --    1.43222   1.43222   1.43338   1.43338   1.43338
 Alpha virt. eigenvalues --    1.43338   1.43338   1.43712   1.43712   1.43712
 Alpha virt. eigenvalues --    1.44920   1.44920   1.44920   1.45328   1.45328
 Alpha virt. eigenvalues --    1.45329   1.45633   1.45633   1.45633   1.50266
 Alpha virt. eigenvalues --    1.50266   1.50266   1.50266   1.50888   1.50888
 Alpha virt. eigenvalues --    1.50888   1.50888   1.50888   1.54994   1.54994
 Alpha virt. eigenvalues --    1.54995   1.54995   1.54995   1.56322   1.56765
 Alpha virt. eigenvalues --    1.56765   1.56765   1.56824   1.56825   1.56825
 Alpha virt. eigenvalues --    1.63650   1.63650   1.63650   1.63836   1.63836
 Alpha virt. eigenvalues --    1.63836   1.63837   1.65702   1.65702   1.65702
 Alpha virt. eigenvalues --    1.65703   1.68091   1.68716   1.68716   1.68716
 Alpha virt. eigenvalues --    1.68716   1.68716   1.69833   1.69833   1.69833
 Alpha virt. eigenvalues --    1.69833   1.69833   1.72358   1.72358   1.72358
 Alpha virt. eigenvalues --    1.72596   1.72596   1.72596   1.74375   1.74376
 Alpha virt. eigenvalues --    1.74376   1.74376   1.77674   1.77674   1.77674
 Alpha virt. eigenvalues --    1.77674   1.77674   1.78179   1.78179   1.78179
 Alpha virt. eigenvalues --    1.78310   1.78310   1.78310   1.81682   1.81682
 Alpha virt. eigenvalues --    1.81682   1.81682   1.82026   1.82027   1.82027
 Alpha virt. eigenvalues --    1.82027   1.82027   1.83442   1.83442   1.83442
 Alpha virt. eigenvalues --    1.83442   1.85461   1.85461   1.85461   1.85631
 Alpha virt. eigenvalues --    1.85631   1.85631   1.85632   1.85632   1.90109
 Alpha virt. eigenvalues --    1.90109   1.90109   1.90109   1.90109   1.90406
 Alpha virt. eigenvalues --    1.90406   1.90406   1.90890   1.90890   1.90890
 Alpha virt. eigenvalues --    1.90890   1.90890   1.93555   1.93555   1.93555
 Alpha virt. eigenvalues --    1.93556   1.93556   1.94703   1.94703   1.94704
 Alpha virt. eigenvalues --    1.94864   1.94864   1.94864   1.96871   1.96871
 Alpha virt. eigenvalues --    1.96871   1.96872   2.02074   2.02075   2.02075
 Alpha virt. eigenvalues --    2.02075   2.02075   2.04612   2.04612   2.04612
 Alpha virt. eigenvalues --    2.06320   2.06320   2.06320   2.06320   2.06551
 Alpha virt. eigenvalues --    2.06551   2.06551   2.06743   2.06743   2.06743
 Alpha virt. eigenvalues --    2.06743   2.06743   2.07105   2.07105   2.07105
 Alpha virt. eigenvalues --    2.07105   2.09517   2.09517   2.09517   2.09517
 Alpha virt. eigenvalues --    2.09518   2.13971   2.13972   2.13972   2.15532
 Alpha virt. eigenvalues --    2.15532   2.15533   2.15533   2.15978   2.15978
 Alpha virt. eigenvalues --    2.15978   2.15978   2.15978   2.19138   2.19139
 Alpha virt. eigenvalues --    2.19139   2.19139   2.19139   2.20726   2.20726
 Alpha virt. eigenvalues --    2.20726   2.22371   2.22371   2.22371   2.22372
 Alpha virt. eigenvalues --    2.24014   2.24015   2.24015   2.28936   2.28937
 Alpha virt. eigenvalues --    2.28937   2.29506   2.29506   2.29506   2.29950
 Alpha virt. eigenvalues --    2.29950   2.29950   2.29950   2.31249   2.31249
 Alpha virt. eigenvalues --    2.31249   2.32678   2.32678   2.32678   2.32678
 Alpha virt. eigenvalues --    2.32678   2.33630   2.33630   2.33630   2.34924
 Alpha virt. eigenvalues --    2.34925   2.34925   2.36175   2.36175   2.36176
 Alpha virt. eigenvalues --    2.36176   2.36176   2.37391   2.37392   2.37392
 Alpha virt. eigenvalues --    2.37392   2.37392   2.46275   2.46275   2.46275
 Alpha virt. eigenvalues --    2.46275   2.46275   2.50232   2.50233   2.50233
 Alpha virt. eigenvalues --    2.50233   2.50233   2.52686   2.52686   2.52686
 Alpha virt. eigenvalues --    2.52686   2.54743   2.54743   2.54744   2.54744
 Alpha virt. eigenvalues --    2.54928   2.54928   2.54928   2.55814   2.55814
 Alpha virt. eigenvalues --    2.55814   2.55814   2.55815   2.60171   2.60172
 Alpha virt. eigenvalues --    2.60172   2.65878   2.65878   2.65878   2.69438
 Alpha virt. eigenvalues --    2.69439   2.69439   2.69439   2.71172   2.71172
 Alpha virt. eigenvalues --    2.71172   2.71173   2.72030   2.72031   2.72031
 Alpha virt. eigenvalues --    2.72031   2.72031   2.73408   2.73408   2.73408
 Alpha virt. eigenvalues --    2.74258   2.74258   2.74258   2.76108   2.76959
 Alpha virt. eigenvalues --    2.76960   2.76960   2.76960   2.87284   2.87284
 Alpha virt. eigenvalues --    2.87284   2.87285   2.87285   2.91066   2.91066
 Alpha virt. eigenvalues --    2.91066   2.91067   2.91067   2.98616   2.98617
 Alpha virt. eigenvalues --    2.98617   2.98618   3.01496   3.01496   3.01497
 Alpha virt. eigenvalues --    3.01497   3.09068   3.09068   3.09069   3.17336
 Alpha virt. eigenvalues --    3.17336   3.17336   3.17336   3.17337   3.31034
 Alpha virt. eigenvalues --    3.31034   3.31034   3.31035   3.39200   3.39200
 Alpha virt. eigenvalues --    3.39201   3.49430   3.49430   3.49430   3.60299
          Condensed to atoms (all electrons):
 Mulliken charges:
               1
     1  C    0.000000
     2  C   -0.000004
     3  C    0.000002
     4  C    0.000005
     5  C   -0.000007
     6  C    0.000004
     7  C   -0.000007
     8  C    0.000004
     9  C    0.000006
    10  C   -0.000002
    11  C    0.000004
    12  C   -0.000003
    13  C   -0.000004
    14  C    0.000002
    15  C    0.000004
    16  C    0.000001
    17  C   -0.000005
    18  C    0.000005
    19  C    0.000005
    20  C   -0.000005
    21  C    0.000000
    22  C   -0.000002
    23  C    0.000004
    24  C    0.000002
    25  C   -0.000006
    26  C   -0.000001
    27  C   -0.000001
    28  C   -0.000003
    29  C   -0.000006
    30  C   -0.000007
    31  C    0.000013
    32  C   -0.000000
    33  C   -0.000001
    34  C   -0.000004
    35  C    0.000001
    36  C   -0.000000
    37  C    0.000001
    38  C   -0.000000
    39  C    0.000003
    40  C   -0.000002
    41  C    0.000004
    42  C   -0.000000
    43  C   -0.000006
    44  C    0.000001
    45  C   -0.000003
    46  C   -0.000001
    47  C    0.000002
    48  C   -0.000000
    49  C   -0.000002
    50  C   -0.000001
    51  C    0.000001
    52  C    0.000001
    53  C   -0.000001
    54  C    0.000006
    55  C   -0.000006
    56  C    0.000006
    57  C   -0.000004
    58  C    0.000005
    59  C   -0.000001
    60  C    0.000002
 Sum of Mulliken charges =  -0.00000
 Mulliken charges with hydrogens summed into heavy atoms:
               1
     1  C    0.000000
     2  C   -0.000004
     3  C    0.000002
     4  C    0.000005
     5  C   -0.000007
     6  C    0.000004
     7  C   -0.000007
     8  C    0.000004
     9  C    0.000006
    10  C   -0.000002
    11  C    0.000004
    12  C   -0.000003
    13  C   -0.000004
    14  C    0.000002
    15  C    0.000004
    16  C    0.000001
    17  C   -0.000005
    18  C    0.000005
    19  C    0.000005
    20  C   -0.000005
    21  C    0.000000
    22  C   -0.000002
    23  C    0.000004
    24  C    0.000002
    25  C   -0.000006
    26  C   -0.000001
    27  C   -0.000001
    28  C   -0.000003
    29  C   -0.000006
    30  C   -0.000007
    31  C    0.000013
    32  C   -0.000000
    33  C   -0.000001
    34  C   -0.000004
    35  C    0.000001
    36  C   -0.000000
    37  C    0.000001
    38  C   -0.000000
    39  C    0.000003
    40  C   -0.000002
    41  C    0.000004
    42  C   -0.000000
    43  C   -0.000006
    44  C    0.000001
    45  C   -0.000003
    46  C   -0.000001
    47  C    0.000002
    48  C   -0.000000
    49  C   -0.000002
    50  C   -0.000001
    51  C    0.000001
    52  C    0.000001
    53  C   -0.000001
    54  C    0.000006
    55  C   -0.000006
    56  C    0.000006
    57  C   -0.000004
    58  C    0.000005
    59  C   -0.000001
    60  C    0.000002
 Electronic spatial extent (au):  <R**2>=          33535.7318
 Charge=             -0.0000 electrons
 Dipole moment (field-independent basis, Debye):
    X=              0.0000    Y=             -0.0000    Z=              0.0000  Tot=              0.0000
 Quadrupole moment (field-independent basis, Debye-Ang):
   XX=           -346.2394   YY=           -346.2395   ZZ=           -346.2396
   XY=              0.0003   XZ=              0.0000   YZ=             -0.0000
 Traceless Quadrupole moment (field-independent basis, Debye-Ang):
   XX=              0.0001   YY=             -0.0000   ZZ=             -0.0001
   XY=              0.0003   XZ=              0.0000   YZ=             -0.0000
 Octapole moment (field-independent basis, Debye-Ang**2):
  XXX=           -984.8005  YYY=           -836.5012  ZZZ=           3382.4423  XYY=           -328.2666
  XXY=           -278.8332  XXZ=           1127.4806  XZZ=           -328.2679  YZZ=           -278.8339
  YYZ=           1127.4805  XYZ=             -0.0013
 Hexadecapole moment (field-independent basis, Debye-Ang**3):
 XXXX=         -11554.3394 YYYY=         -11034.2916 ZZZZ=         -31715.8823 XXXY=           -793.0678
 XXXZ=           3206.8611 YYYX=           -793.0656 YYYZ=           2723.9449 ZZZX=           3206.8657
 ZZZY=           2723.9452 XXYY=          -3764.7713 XXZZ=          -7211.7058 YYZZ=          -7125.0271
 XXYZ=            907.9800 YYXZ=           1068.9513 ZZXY=           -264.3503
 N-N= 8.096321942778D+03 E-N=-2.146841137669D+04  KE= 2.263561222578D+03
 No NMR shielding tensors so no spin-rotation constants.
 Leave Link  601 at Thu May  5 10:17:25 2022, MaxMem=  2684354560 cpu:               3.8 elap:               0.6
 (Enter /apps/software/g16/l9999.exe)
 1\1\GINC-CNODE02\SP\RHF\CC-pVDZ\C60\LCZ\05-May-2022\0\\#p RHF/cc-pVDZ 
 nosymm\\C60 SP\\0,1\C,0,0.17823418,-0.42164323,0.09565119\C,0,1.718235
 11,-0.4215991,0.0955729\C,0,2.39581061,0.75205293,0.09551743\C,0,1.625
 77918,2.0857105,0.09554027\C,0,0.27057274,2.08567496,0.09560319\C,0,-0
 .49939037,0.75197568,0.09566016\C,0,-0.29764057,-1.58554271,-0.7934396
 4\C,0,0.94824467,-2.3048235,-1.34298703\C,0,2.19411771,-1.5854695,-0.7
 935464\C,0,3.29047211,-1.43602853,-1.57600328\C,0,3.64167728,0.9218716
 2,-0.79363343\C,0,2.39573304,3.07979634,-0.7935988\C,0,1.71807245,3.95
 454959,-1.57601146\C,0,0.17807323,3.95450284,-1.57594943\C,0,-0.499482
 58,3.07971459,-0.79350035\C,0,-1.74536573,2.36036611,-1.34296092\C,0,-
 1.74530211,0.92174422,-0.79343253\C,0,-2.16407157,-0.10248057,-1.57583
 829\C,0,-1.39404387,-1.43614394,-1.5758419\C,0,0.94821837,-2.78840832,
 -2.60897537\C,0,-0.2977092,-2.61863957,-3.49806243\C,0,-1.39408517,-1.
 98566616,-3.01446536\C,0,-2.16414938,-0.99163127,-3.90356997\C,0,-2.64
 002792,0.17224245,-3.01444935\C,0,-2.64009316,1.43823148,-3.49803454\C
 ,0,-2.16420539,2.60212618,-2.60894011\C,0,-1.39425314,3.59619146,-3.49
 808944\C,0,-0.29787072,4.22921858,-3.01456765\C,0,3.6416249,2.36049587
 ,-1.34314427\C,0,2.19382128,3.19618464,-5.71927447\C,0,3.29022186,3.04
 678758,-4.93687678\C,0,4.0602562,1.71312889,-4.93687731\C,0,3.64148891
 ,0.68889917,-5.71927852\C,0,2.39556326,0.85866399,-6.60836629\C,0,0.17
 794164,2.03224124,-6.60829905\C,0,-0.29793775,3.19611649,-5.71917848\C
 ,0,0.94794358,3.91547025,-5.16973199\C,0,0.94798075,4.39904412,-3.9037
 4283\C,0,2.19389569,4.22928771,-3.01466412\C,0,3.29026522,3.59630751,-
 3.49826617\C,0,4.5362192,1.43839705,-3.49826888\C,0,4.53628351,0.17240
 824,-3.014694\C,0,4.06040419,-0.99148381,-3.90378394\C,0,3.64156049,-0
 .74972201,-5.16976724\C,0,2.39566533,-1.46907298,-5.71922364\C,0,1.625
 59666,-0.47504074,-6.60832906\C,0,0.27039476,-0.47507361,-6.60827661\C
 ,0,-0.4996295,0.85858503,-6.60825947\C,0,-1.39429089,3.04667285,-4.936
 71591\C,0,-2.16426181,1.71297411,-4.93667364\C,0,-1.74548392,0.6887634
 2,-5.71909678\C,0,-1.74542598,-0.74985794,-5.16957309\C,0,-0.49954852,
 -1.4691468,-5.71912001\C,0,0.17810642,-2.34389385,-4.93670439\C,0,1.71
 811031,-2.34386028,-4.93675859\C,0,2.19406394,-2.61858453,-3.49813556\
 C,0,3.29044415,-1.98556035,-3.01462044\C,0,4.06033885,2.60227132,-2.60
 915116\C,0,4.06045287,-0.10233677,-1.57605659\C,0,1.71793581,2.0322844
 3,-6.60835736\\Version=ES64L-G16RevA.03\HF=-2271.6859932\RMSD=8.141e-0
 9\Dipole=0.0000097,-0.0000003,0.0000035\Quadrupole=0.0000819,-0.000001
 2,-0.0000807,0.000219,0.0000145,-0.0000079\PG=C01 [X(C60)]\\@


 IF YOU WISH TO UNDERSTAND THE FRAGRANCE OF THE ROSE, 
 OR THE TENACITY OF THE OAK; 
 IF YOU ARE NOT SATISFIED UNTIL YOU KNOW THE SECRET PATHS 
 BY WHICH THE SUNSHINE AND THE AIR ACHIEVE THESE WONDERS; 
 IF YOU WISH TO SEE THE PATTERN WHICH UNDERLIES ONE LARGE FIELD OF 
 HUMAN EXPERIENCE AND HUMAN MEASUREMENT, THEN TAKE UP CHEMISTRY.

                                         -- C. A. COULSON, 1973.
 Job cpu time:       0 days  1 hours  9 minutes  0.9 seconds.
 Elapsed time:       0 days  0 hours  8 minutes 39.6 seconds.
 File lengths (MBytes):  RWF=    379 Int=      0 D2E=      0 Chk=     42 Scr=      1
 Normal termination of Gaussian 16 at Thu May  5 10:17:25 2022.

Sender: Unischeduler System <lcz@mgt01>
Subject: Job 128315: <#!/bin/bash
#BSUB -J intel
#BSUB -o C60-nosym.out
#BSUB -n 8
#BSUB -q cqueue
#BSUB -R span[hosts=1]
export g16root=/apps/software
source /apps/software/g16/bsd/g16.profile
export GAUSS_SCRDIR=/scratch
/apps/software/g16/g16 < C60-nosym.inp > C60-nosym.out> Done

Job <#!/bin/bash
#BSUB -J intel
#BSUB -o C60-nosym.out
#BSUB -n 8
#BSUB -q cqueue
#BSUB -R span[hosts=1]
export g16root=/apps/software
source /apps/software/g16/bsd/g16.profile
export GAUSS_SCRDIR=/scratch
/apps/software/g16/g16 < C60-nosym.inp > C60-nosym.out> was submitted from host <mgt01> by user <lcz>.
Job was executed on host(s) <8*cnode02>, in queue <cqueue>, as user <lcz>.
</apps/users/lcz> was used as the home directory.
</apps/users/lcz/exe4/task2/Gaussian> was used as the working directory.
Started at 2022-05-05 10:08:45
Results reported at 2022-05-05 10:17:25

Your job looked like:

------------------------------------------------------------
# User input
#!/bin/bash
#BSUB -J intel
#BSUB -o C60-nosym.out
#BSUB -n 8
#BSUB -q cqueue
#BSUB -R span[hosts=1]
export g16root=/apps/software
source /apps/software/g16/bsd/g16.profile
export GAUSS_SCRDIR=/scratch
/apps/software/g16/g16 < C60-nosym.inp > C60-nosym.out
------------------------------------------------------------

Successfully completed.

Resource usage summary:

    CPU time   :         4085.98 sec.
    Max Memory :               566 MB
    Max Processes  :               5


The output (if any) follows:

