 Entering Gaussian System, Link 0=/apps/software/g16/g16
 Initial command:
 /apps/software/g16/l1.exe "/scratch/Gau-205964.inp" -scrdir="/scratch/"
 Entering Link 1 = /apps/software/g16/l1.exe PID=    205965.
  
 Copyright (c) 1988,1990,1992,1993,1995,1998,2003,2009,2016,
            Gaussian, Inc.  All Rights Reserved.
  
 This is part of the Gaussian(R) 16 program.  It is based on
 the Gaussian(R) 09 system (copyright 2009, Gaussian, Inc.),
 the Gaussian(R) 03 system (copyright 2003, Gaussian, Inc.),
 the Gaussian(R) 98 system (copyright 1998, Gaussian, Inc.),
 the Gaussian(R) 94 system (copyright 1995, Gaussian, Inc.),
 the Gaussian 92(TM) system (copyright 1992, Gaussian, Inc.),
 the Gaussian 90(TM) system (copyright 1990, Gaussian, Inc.),
 the Gaussian 88(TM) system (copyright 1988, Gaussian, Inc.),
 the Gaussian 86(TM) system (copyright 1986, Carnegie Mellon
 University), and the Gaussian 82(TM) system (copyright 1983,
 Carnegie Mellon University). Gaussian is a federally registered
 trademark of Gaussian, Inc.
  
 This software contains proprietary and confidential information,
 including trade secrets, belonging to Gaussian, Inc.
  
 This software is provided under written license and may be
 used, copied, transmitted, or stored only in accord with that
 written license.
  
 The following legend is applicable only to US Government
 contracts under FAR:
  
                    RESTRICTED RIGHTS LEGEND
  
 Use, reproduction and disclosure by the US Government is
 subject to restrictions as set forth in subparagraphs (a)
 and (c) of the Commercial Computer Software - Restricted
 Rights clause in FAR 52.227-19.
  
 Gaussian, Inc.
 340 Quinnipiac St., Bldg. 40, Wallingford CT 06492
  
  
 ---------------------------------------------------------------
 Warning -- This program may not be used in any manner that
 competes with the business of Gaussian, Inc. or will provide
 assistance to any competitor of Gaussian, Inc.  The licensee
 of this program is prohibited from giving any competitor of
 Gaussian, Inc. access to this program.  By using this program,
 the user acknowledges that Gaussian, Inc. is engaged in the
 business of creating and licensing software in the field of
 computational chemistry and represents and warrants to the
 licensee that it is not a competitor of Gaussian, Inc. and that
 it will not use this program in any manner prohibited above.
 ---------------------------------------------------------------
  

 Cite this work as:
 Gaussian 16, Revision A.03,
 M. J. Frisch, G. W. Trucks, H. B. Schlegel, G. E. Scuseria, 
 M. A. Robb, J. R. Cheeseman, G. Scalmani, V. Barone, 
 G. A. Petersson, H. Nakatsuji, X. Li, M. Caricato, A. V. Marenich, 
 J. Bloino, B. G. Janesko, R. Gomperts, B. Mennucci, H. P. Hratchian, 
 J. V. Ortiz, A. F. Izmaylov, J. L. Sonnenberg, D. Williams-Young, 
 F. Ding, F. Lipparini, F. Egidi, J. Goings, B. Peng, A. Petrone, 
 T. Henderson, D. Ranasinghe, V. G. Zakrzewski, J. Gao, N. Rega, 
 G. Zheng, W. Liang, M. Hada, M. Ehara, K. Toyota, R. Fukuda, 
 J. Hasegawa, M. Ishida, T. Nakajima, Y. Honda, O. Kitao, H. Nakai, 
 T. Vreven, K. Throssell, J. A. Montgomery, Jr., J. E. Peralta, 
 F. Ogliaro, M. J. Bearpark, J. J. Heyd, E. N. Brothers, K. N. Kudin, 
 V. N. Staroverov, T. A. Keith, R. Kobayashi, J. Normand, 
 K. Raghavachari, A. P. Rendell, J. C. Burant, S. S. Iyengar, 
 J. Tomasi, M. Cossi, J. M. Millam, M. Klene, C. Adamo, R. Cammi, 
 J. W. Ochterski, R. L. Martin, K. Morokuma, O. Farkas, 
 J. B. Foresman, and D. J. Fox, Gaussian, Inc., Wallingford CT, 2016.
 
 ******************************************
 Gaussian 16:  ES64L-G16RevA.03 25-Dec-2016
                 5-May-2022 
 ******************************************
 %chk=C60-sym.chk
 %nproc=8
 Will use up to    8 processors via shared memory.
 %mem=20GB
 ------------------------
 #p RHF/cc-pVDZ sym=loose
 ------------------------
 1/38=1,172=1/1;
 2/12=2,17=4,18=3,40=1/2;
 3/5=16,11=1,25=1,30=1,116=1/1,2,3;
 4//1;
 5/5=2,38=5/2;
 6/7=2,8=2,9=2,10=2,28=1/1;
 99/5=1,9=1/99;
 Leave Link    1 at Thu May  5 10:44:46 2022, MaxMem=  2684354560 cpu:               0.1 elap:               0.0
 (Enter /apps/software/g16/l101.exe)
 ------
 C60 SP
 ------
 Symbolic Z-matrix:
 Charge =  0 Multiplicity = 1
 C                     0.17823  -0.42164   0.09565 
 C                     1.71824  -0.4216    0.09557 
 C                     2.39581   0.75205   0.09552 
 C                     1.62578   2.08571   0.09554 
 C                     0.27057   2.08567   0.0956 
 C                    -0.49939   0.75198   0.09566 
 C                    -0.29764  -1.58554  -0.79344 
 C                     0.94824  -2.30482  -1.34299 
 C                     2.19412  -1.58547  -0.79355 
 C                     3.29047  -1.43603  -1.576 
 C                     3.64168   0.92187  -0.79363 
 C                     2.39573   3.0798   -0.7936 
 C                     1.71807   3.95455  -1.57601 
 C                     0.17807   3.9545   -1.57595 
 C                    -0.49948   3.07971  -0.7935 
 C                    -1.74537   2.36037  -1.34296 
 C                    -1.7453    0.92174  -0.79343 
 C                    -2.16407  -0.10248  -1.57584 
 C                    -1.39404  -1.43614  -1.57584 
 C                     0.94822  -2.78841  -2.60898 
 C                    -0.29771  -2.61864  -3.49806 
 C                    -1.39409  -1.98567  -3.01447 
 C                    -2.16415  -0.99163  -3.90357 
 C                    -2.64003   0.17224  -3.01445 
 C                    -2.64009   1.43823  -3.49803 
 C                    -2.16421   2.60213  -2.60894 
 C                    -1.39425   3.59619  -3.49809 
 C                    -0.29787   4.22922  -3.01457 
 C                     3.64162   2.3605   -1.34314 
 C                     2.19382   3.19618  -5.71927 
 C                     3.29022   3.04679  -4.93688 
 C                     4.06026   1.71313  -4.93688 
 C                     3.64149   0.6889   -5.71928 
 C                     2.39556   0.85866  -6.60837 
 C                     0.17794   2.03224  -6.6083 
 C                    -0.29794   3.19612  -5.71918 
 C                     0.94794   3.91547  -5.16973 
 C                     0.94798   4.39904  -3.90374 
 C                     2.1939    4.22929  -3.01466 
 C                     3.29027   3.59631  -3.49827 
 C                     4.53622   1.4384   -3.49827 
 C                     4.53628   0.17241  -3.01469 
 C                     4.0604   -0.99148  -3.90378 
 C                     3.64156  -0.74972  -5.16977 
 C                     2.39567  -1.46907  -5.71922 
 C                     1.6256   -0.47504  -6.60833 
 C                     0.27039  -0.47507  -6.60828 
 C                    -0.49963   0.85859  -6.60826 
 C                    -1.39429   3.04667  -4.93672 
 C                    -2.16426   1.71297  -4.93667 
 C                    -1.74548   0.68876  -5.7191 
 C                    -1.74543  -0.74986  -5.16957 
 C                    -0.49955  -1.46915  -5.71912 
 C                     0.17811  -2.34389  -4.9367 
 C                     1.71811  -2.34386  -4.93676 
 C                     2.19406  -2.61858  -3.49814 
 C                     3.29044  -1.98556  -3.01462 
 C                     4.06034   2.60227  -2.60915 
 C                     4.06045  -0.10234  -1.57606 
 C                     1.71794   2.03228  -6.60836 
 
 ITRead=  0  0  0  0  0  0  0  0  0  0  0  0  0  0  0  0  0  0  0  0
 ITRead=  0  0  0  0  0  0  0  0  0  0  0  0  0  0  0  0  0  0  0  0
 ITRead=  0  0  0  0  0  0  0  0  0  0  0  0  0  0  0  0  0  0  0  0
 MicOpt= -1 -1 -1 -1 -1 -1 -1 -1 -1 -1 -1 -1 -1 -1 -1 -1 -1 -1 -1 -1
 MicOpt= -1 -1 -1 -1 -1 -1 -1 -1 -1 -1 -1 -1 -1 -1 -1 -1 -1 -1 -1 -1
 MicOpt= -1 -1 -1 -1 -1 -1 -1 -1 -1 -1 -1 -1 -1 -1 -1 -1 -1 -1 -1 -1
 NAtoms=     60 NQM=       60 NQMF=       0 NMMI=      0 NMMIF=      0
                NMic=       0 NMicF=      0.
                    Isotopes and Nuclear Properties:
 (Nuclear quadrupole moments (NQMom) in fm**2, nuclear magnetic moments (NMagM)
  in nuclear magnetons)

  Atom         1           2           3           4           5           6           7           8           9          10
 IAtWgt=          12          12          12          12          12          12          12          12          12          12
 AtmWgt=  12.0000000  12.0000000  12.0000000  12.0000000  12.0000000  12.0000000  12.0000000  12.0000000  12.0000000  12.0000000
 NucSpn=           0           0           0           0           0           0           0           0           0           0
 AtZEff=  -0.0000000  -0.0000000  -0.0000000  -0.0000000  -0.0000000  -0.0000000  -0.0000000  -0.0000000  -0.0000000  -0.0000000
 NQMom=    0.0000000   0.0000000   0.0000000   0.0000000   0.0000000   0.0000000   0.0000000   0.0000000   0.0000000   0.0000000
 NMagM=    0.0000000   0.0000000   0.0000000   0.0000000   0.0000000   0.0000000   0.0000000   0.0000000   0.0000000   0.0000000
 AtZNuc=   6.0000000   6.0000000   6.0000000   6.0000000   6.0000000   6.0000000   6.0000000   6.0000000   6.0000000   6.0000000

  Atom        11          12          13          14          15          16          17          18          19          20
 IAtWgt=          12          12          12          12          12          12          12          12          12          12
 AtmWgt=  12.0000000  12.0000000  12.0000000  12.0000000  12.0000000  12.0000000  12.0000000  12.0000000  12.0000000  12.0000000
 NucSpn=           0           0           0           0           0           0           0           0           0           0
 AtZEff=  -0.0000000  -0.0000000  -0.0000000  -0.0000000  -0.0000000  -0.0000000  -0.0000000  -0.0000000  -0.0000000  -0.0000000
 NQMom=    0.0000000   0.0000000   0.0000000   0.0000000   0.0000000   0.0000000   0.0000000   0.0000000   0.0000000   0.0000000
 NMagM=    0.0000000   0.0000000   0.0000000   0.0000000   0.0000000   0.0000000   0.0000000   0.0000000   0.0000000   0.0000000
 AtZNuc=   6.0000000   6.0000000   6.0000000   6.0000000   6.0000000   6.0000000   6.0000000   6.0000000   6.0000000   6.0000000

  Atom        21          22          23          24          25          26          27          28          29          30
 IAtWgt=          12          12          12          12          12          12          12          12          12          12
 AtmWgt=  12.0000000  12.0000000  12.0000000  12.0000000  12.0000000  12.0000000  12.0000000  12.0000000  12.0000000  12.0000000
 NucSpn=           0           0           0           0           0           0           0           0           0           0
 AtZEff=  -0.0000000  -0.0000000  -0.0000000  -0.0000000  -0.0000000  -0.0000000  -0.0000000  -0.0000000  -0.0000000  -0.0000000
 NQMom=    0.0000000   0.0000000   0.0000000   0.0000000   0.0000000   0.0000000   0.0000000   0.0000000   0.0000000   0.0000000
 NMagM=    0.0000000   0.0000000   0.0000000   0.0000000   0.0000000   0.0000000   0.0000000   0.0000000   0.0000000   0.0000000
 AtZNuc=   6.0000000   6.0000000   6.0000000   6.0000000   6.0000000   6.0000000   6.0000000   6.0000000   6.0000000   6.0000000

  Atom        31          32          33          34          35          36          37          38          39          40
 IAtWgt=          12          12          12          12          12          12          12          12          12          12
 AtmWgt=  12.0000000  12.0000000  12.0000000  12.0000000  12.0000000  12.0000000  12.0000000  12.0000000  12.0000000  12.0000000
 NucSpn=           0           0           0           0           0           0           0           0           0           0
 AtZEff=  -0.0000000  -0.0000000  -0.0000000  -0.0000000  -0.0000000  -0.0000000  -0.0000000  -0.0000000  -0.0000000  -0.0000000
 NQMom=    0.0000000   0.0000000   0.0000000   0.0000000   0.0000000   0.0000000   0.0000000   0.0000000   0.0000000   0.0000000
 NMagM=    0.0000000   0.0000000   0.0000000   0.0000000   0.0000000   0.0000000   0.0000000   0.0000000   0.0000000   0.0000000
 AtZNuc=   6.0000000   6.0000000   6.0000000   6.0000000   6.0000000   6.0000000   6.0000000   6.0000000   6.0000000   6.0000000

  Atom        41          42          43          44          45          46          47          48          49          50
 IAtWgt=          12          12          12          12          12          12          12          12          12          12
 AtmWgt=  12.0000000  12.0000000  12.0000000  12.0000000  12.0000000  12.0000000  12.0000000  12.0000000  12.0000000  12.0000000
 NucSpn=           0           0           0           0           0           0           0           0           0           0
 AtZEff=  -0.0000000  -0.0000000  -0.0000000  -0.0000000  -0.0000000  -0.0000000  -0.0000000  -0.0000000  -0.0000000  -0.0000000
 NQMom=    0.0000000   0.0000000   0.0000000   0.0000000   0.0000000   0.0000000   0.0000000   0.0000000   0.0000000   0.0000000
 NMagM=    0.0000000   0.0000000   0.0000000   0.0000000   0.0000000   0.0000000   0.0000000   0.0000000   0.0000000   0.0000000
 AtZNuc=   6.0000000   6.0000000   6.0000000   6.0000000   6.0000000   6.0000000   6.0000000   6.0000000   6.0000000   6.0000000

  Atom        51          52          53          54          55          56          57          58          59          60
 IAtWgt=          12          12          12          12          12          12          12          12          12          12
 AtmWgt=  12.0000000  12.0000000  12.0000000  12.0000000  12.0000000  12.0000000  12.0000000  12.0000000  12.0000000  12.0000000
 NucSpn=           0           0           0           0           0           0           0           0           0           0
 AtZEff=  -0.0000000  -0.0000000  -0.0000000  -0.0000000  -0.0000000  -0.0000000  -0.0000000  -0.0000000  -0.0000000  -0.0000000
 NQMom=    0.0000000   0.0000000   0.0000000   0.0000000   0.0000000   0.0000000   0.0000000   0.0000000   0.0000000   0.0000000
 NMagM=    0.0000000   0.0000000   0.0000000   0.0000000   0.0000000   0.0000000   0.0000000   0.0000000   0.0000000   0.0000000
 AtZNuc=   6.0000000   6.0000000   6.0000000   6.0000000   6.0000000   6.0000000   6.0000000   6.0000000   6.0000000   6.0000000
 Leave Link  101 at Thu May  5 10:44:46 2022, MaxMem=  2684354560 cpu:               0.7 elap:               0.1
 (Enter /apps/software/g16/l202.exe)
 Stoichiometry    C60
 Framework group  IH[15SG(C4)]
 Deg. of freedom     2
 Full point group                 IH      NOp 120
 Largest Abelian subgroup         C2H     NOp   4
 Largest concise Abelian subgroup C2H     NOp   4
                         Standard orientation:                         
 ---------------------------------------------------------------------
 Center     Atomic      Atomic             Coordinates (Angstroms)
 Number     Number       Type             X           Y           Z
 ---------------------------------------------------------------------
      1          6           0        0.770009   -1.059826    3.408513
      2          6           0       -0.770009   -1.059826    3.408513
      3          6           0       -1.447603   -1.992454    2.696048
      4          6           0       -0.677594   -3.052280    1.886413
      5          6           0        0.677594   -3.052280    1.886413
      6          6           0        1.447603   -1.992454    2.696048
      7          6           0        1.245900    0.404818    3.408513
      8          6           0        0.000000    1.310017    3.408513
      9          6           0       -1.245900    0.404818    3.408513
     10          6           0       -2.342270    0.761050    2.696048
     11          6           0       -2.693503   -1.587637    1.886413
     12          6           0       -1.447603   -3.302471    0.576396
     13          6           0       -0.770009   -3.522635   -0.576396
     14          6           0        0.770009   -3.522635   -0.576396
     15          6           0        1.447603   -3.302471    0.576396
     16          6           0        2.693503   -2.397272    0.576396
     17          6           0        2.693503   -1.587637    1.886413
     18          6           0        3.112279   -0.298776    1.886413
     19          6           0        2.342270    0.761050    2.696048
     20          6           0        0.000000    2.462809    2.696048
     21          6           0        1.245900    2.867626    1.886413
     22          6           0        2.342270    2.071067    1.886413
     23          6           0        3.112279    1.820876    0.576396
     24          6           0        3.588171    0.356232    0.576396
     25          6           0        3.588171   -0.356232   -0.576396
     26          6           0        3.112279   -1.820876   -0.576396
     27          6           0        2.342270   -2.071067   -1.886413
     28          6           0        1.245900   -2.867626   -1.886413
     29          6           0       -2.693503   -2.397272    0.576396
     30          6           0       -1.245900   -0.404818   -3.408513
     31          6           0       -2.342270   -0.761050   -2.696048
     32          6           0       -3.112279    0.298776   -1.886413
     33          6           0       -2.693503    1.587637   -1.886413
     34          6           0       -1.447603    1.992454   -2.696048
     35          6           0        0.770009    1.059826   -3.408513
     36          6           0        1.245900   -0.404818   -3.408513
     37          6           0        0.000000   -1.310017   -3.408513
     38          6           0       -0.000000   -2.462809   -2.696048
     39          6           0       -1.245900   -2.867626   -1.886413
     40          6           0       -2.342270   -2.071067   -1.886413
     41          6           0       -3.588171   -0.356232   -0.576396
     42          6           0       -3.588171    0.356232    0.576396
     43          6           0       -3.112279    1.820876    0.576396
     44          6           0       -2.693503    2.397272   -0.576396
     45          6           0       -1.447603    3.302471   -0.576396
     46          6           0       -0.677594    3.052280   -1.886413
     47          6           0        0.677594    3.052280   -1.886413
     48          6           0        1.447603    1.992454   -2.696048
     49          6           0        2.342270   -0.761050   -2.696048
     50          6           0        3.112279    0.298776   -1.886413
     51          6           0        2.693503    1.587637   -1.886413
     52          6           0        2.693503    2.397272   -0.576396
     53          6           0        1.447603    3.302471   -0.576396
     54          6           0        0.770009    3.522635    0.576396
     55          6           0       -0.770009    3.522635    0.576396
     56          6           0       -1.245900    2.867626    1.886413
     57          6           0       -2.342270    2.071067    1.886413
     58          6           0       -3.112279   -1.820876   -0.576396
     59          6           0       -3.112279   -0.298776    1.886413
     60          6           0       -0.770009    1.059826   -3.408513
 ---------------------------------------------------------------------
 Rotational constants (GHZ):           0.0789609           0.0789609           0.0789609
 Leave Link  202 at Thu May  5 10:44:46 2022, MaxMem=  2684354560 cpu:               0.5 elap:               0.1
 (Enter /apps/software/g16/l301.exe)
 Standard basis: CC-pVDZ (5D, 7F)
 Ernie: Thresh=  0.10000D-02 Tol=  0.10000D-05 Strict=F.
 Ernie:  120 primitive shells out of 1320 were deleted.
 There are   232 symmetry adapted cartesian basis functions of AG  symmetry.
 There are   218 symmetry adapted cartesian basis functions of BG  symmetry.
 There are   218 symmetry adapted cartesian basis functions of AU  symmetry.
 There are   232 symmetry adapted cartesian basis functions of BU  symmetry.
 There are   216 symmetry adapted basis functions of AG  symmetry.
 There are   204 symmetry adapted basis functions of BG  symmetry.
 There are   204 symmetry adapted basis functions of AU  symmetry.
 There are   216 symmetry adapted basis functions of BU  symmetry.
   840 basis functions,  1980 primitive gaussians,   900 cartesian basis functions
   180 alpha electrons      180 beta electrons
       nuclear repulsion energy      8096.2887348075 Hartrees.
 IExCor=    0 DFT=F Ex=HF Corr=None ExCW=0 ScaHFX=  1.000000
 ScaDFX=  1.000000  1.000000  1.000000  1.000000 ScalE2=  1.000000  1.000000
 IRadAn=      5 IRanWt=     -1 IRanGd=            0 ICorTp=0 IEmpDi=  4
 NAtoms=   60 NActive=   60 NUniq=    1 SFac= 4.00D+00 NAtFMM=   60 NAOKFM=T Big=F
 Integral buffers will be    131072 words long.
 Raffenetti 1 integral format.
 Two-electron integral symmetry is turned on.
 Leave Link  301 at Thu May  5 10:44:46 2022, MaxMem=  2684354560 cpu:               0.8 elap:               0.1
 (Enter /apps/software/g16/l302.exe)
 NPDir=0 NMtPBC=     1 NCelOv=     1 NCel=       1 NClECP=     1 NCelD=      1
         NCelK=      1 NCelE2=     1 NClLst=     1 CellRange=     0.0.
 One-electron integrals computed using PRISM.
 One-electron integral symmetry used in STVInt
 NBasis=   840 RedAO= T EigKep=  1.96D-04  NBF=   216   204   204   216
 NBsUse=   840 1.00D-06 EigRej= -1.00D+00 NBFU=   216   204   204   216
 Leave Link  302 at Thu May  5 10:44:49 2022, MaxMem=  2684354560 cpu:              22.9 elap:               2.9
 (Enter /apps/software/g16/l303.exe)
 DipDrv:  MaxL=1.
 Leave Link  303 at Thu May  5 10:44:49 2022, MaxMem=  2684354560 cpu:               2.0 elap:               0.3
 (Enter /apps/software/g16/l401.exe)
 ExpMin= 1.52D-01 ExpMax= 6.67D+03 ExpMxC= 2.28D+02 IAcc=3 IRadAn=         5 AccDes= 0.00D+00
 Harris functional with IExCor=  205 and IRadAn=       5 diagonalized for initial guess.
 HarFok:  IExCor=  205 AccDes= 0.00D+00 IRadAn=         5 IDoV= 1 UseB2=F ITyADJ=14
 ICtDFT=  3500011 ScaDFX=  1.000000  1.000000  1.000000  1.000000
 FoFCou: FMM=F IPFlag=           0 FMFlag=      100000 FMFlg1=        2000
         NFxFlg=           0 DoJE=T BraDBF=F KetDBF=T FulRan=T
         wScrn=  0.000000 ICntrl=       500 IOpCl=  0 I1Cent=   200000004 NGrid=           0
         NMat0=    1 NMatS0=      1 NMatT0=    0 NMatD0=    1 NMtDS0=    0 NMtDT0=    0
 Petite list used in FoFCou.
 DSYEVD-2 returned Info=         325 IAlg= 4 N=   216 NDim=   840 NE2=     3193724 trying  DSYEV.
 DSYEVD-2 returned Info=         307 IAlg= 4 N=   204 NDim=   840 NE2=     3193724 trying  DSYEV.
 DSYEVD-2 returned Info=       23869 IAlg= 4 N=   216 NDim=   840 NE2=     3193724 trying  DSYEV.
 Harris En= -2273.36176818339    
 JPrj=0 DoOrth=F DoCkMO=F.
 Initial guess orbital symmetries:
       Occupied  (HU) (HU) (HU) (HU) (HU) (HG) (HG) (HG) (HG) (HG)
                 (GG) (GG) (GG) (GG) (T2U) (T2U) (T2U) (GU) (GU)
                 (GU) (GU) (HG) (HG) (HG) (HG) (HG) (T1U) (T1U)
                 (T1U) (AG) (T2G) (T2G) (T2G) (GU) (GU) (GU) (GU)
                 (HU) (HU) (HU) (HU) (HU) (T1G) (T1G) (T1G) (GG)
                 (GG) (GG) (GG) (T1U) (T1U) (T1U) (HG) (HG) (HG)
                 (HG) (HG) (T2U) (T2U) (T2U) (AG) (T1U) (T1U) (T1U)
                 (HG) (HG) (HG) (HG) (HG) (GU) (GU) (GU) (GU) (T2U)
                 (T2U) (T2U) (GG) (GG) (GG) (GG) (HG) (HG) (HG)
                 (HG) (HG) (HU) (HU) (HU) (HU) (HU) (T1U) (T1U)
                 (T1U) (T2U) (T2U) (T2U) (HG) (HG) (HG) (HG) (HG)
                 (T1G) (T1G) (T1G) (AG) (GG) (GG) (GG) (GG) (HU)
                 (HU) (HU) (HU) (HU) (T1U) (T1U) (T1U) (T2U) (T2U)
                 (T2U) (HG) (HG) (HG) (HG) (HG) (GU) (GU) (GU)
                 (GU) (GG) (GG) (GG) (GG) (AG) (T1U) (T1U) (T1U)
                 (GU) (GU) (GU) (GU) (T2G) (T2G) (T2G) (HG) (HG)
                 (HG) (HG) (HG) (HG) (HG) (HG) (HG) (HG) (HU) (HU)
                 (HU) (HU) (HU) (GU) (GU) (GU) (GU) (T2U) (T2U)
                 (T2U) (GG) (GG) (GG) (GG) (HG) (HG) (HG) (HG)
                 (HG) (HU) (HU) (HU) (HU) (HU)
       Virtual   (T1U) (T1U) (T1U) (T1G) (T1G) (T1G) (HG) (HG)
                 (HG) (HG) (HG) (T2U) (T2U) (T2U) (HU) (HU) (HU)
                 (HU) (HU) (GG) (GG) (GG) (GG) (GU) (GU) (GU) (GU)
                 (T1U) (T1U) (T1U) (T2G) (T2G) (T2G) (HG) (HG)
                 (HG) (HG) (HG) (T1G) (T1G) (T1G) (GU) (GU) (GU)
                 (GU) (T2U) (T2U) (T2U) (HU) (HU) (HU) (HU) (HU)
                 (GG) (GG) (GG) (GG) (HG) (HG) (HG) (HG) (HG) (T2G)
                 (T2G) (T2G) (T2U) (T2U) (T2U) (T1U) (T1U) (T1U)
                 (HU) (HU) (HU) (HU) (HU) (HG) (HG) (HG) (HG) (HG)
                 (GU) (GU) (GU) (GU) (GG) (GG) (GG) (GG) (AG) (T2G)
                 (T2G) (T2G) (AG) (T1G) (T1G) (T1G) (T1U) (T1U)
                 (T1U) (HU) (HU) (HU) (HU) (HU) (HG) (HG) (HG)
                 (HG) (HG) (GU) (GU) (GU) (GU) (GG) (GG) (GG) (GG)
                 (T1U) (T1U) (T1U) (T2U) (T2U) (T2U) (HU) (HU)
                 (HU) (HU) (HU) (HG) (HG) (HG) (HG) (HG) (T2U)
                 (T2U) (T2U) (T1U) (T1U) (T1U) (AG) (T1G) (T1G)
                 (T1G) (GG) (GG) (GG) (GG) (HG) (HG) (HG) (HG)
                 (HG) (AU) (HU) (HU) (HU) (HU) (HU) (HG) (HG) (HG)
                 (HG) (HG) (GG) (GG) (GG) (GG) (GU) (GU) (GU) (GU)
                 (T1G) (T1G) (T1G) (HU) (HU) (HU) (HU) (HU) (T2U)
                 (T2U) (T2U) (GU) (GU) (GU) (GU) (GG) (GG) (GG)
                 (GG) (T2G) (T2G) (T2G) (T1U) (T1U) (T1U) (GU)
                 (GU) (GU) (GU) (T2G) (T2G) (T2G) (T2U) (T2U) (T2U)
                 (HG) (HG) (HG) (HG) (HG) (HG) (HG) (HG) (HG) (HG)
                 (T1U) (T1U) (T1U) (AG) (T2U) (T2U) (T2U) (GG)
                 (GG) (GG) (GG) (GU) (GU) (GU) (GU) (HU) (HU) (HU)
                 (HU) (HU) (HG) (HG) (HG) (HG) (HG) (T1U) (T1U)
                 (T1U) (GU) (GU) (GU) (GU) (HG) (HG) (HG) (HG)
                 (HG) (T1G) (T1G) (T1G) (T2G) (T2G) (T2G) (GG)
                 (GG) (GG) (GG) (HU) (HU) (HU) (HU) (HU) (T2U)
                 (T2U) (T2U) (HG) (HG) (HG) (HG) (HG) (GU) (GU)
                 (GU) (GU) (HU) (HU) (HU) (HU) (HU) (T2U) (T2U)
                 (T2U) (T2G) (T2G) (T2G) (T1U) (T1U) (T1U) (GG)
                 (GG) (GG) (GG) (HG) (HG) (HG) (HG) (HG) (GG) (GG)
                 (GG) (GG) (AG) (T1G) (T1G) (T1G) (HG) (HG) (HG)
                 (HG) (HG) (HU) (HU) (HU) (HU) (HU) (GU) (GU) (GU)
                 (GU) (HU) (HU) (HU) (HU) (HU) (T2U) (T2U) (T2U)
                 (HG) (HG) (HG) (HG) (HG) (GG) (GG) (GG) (GG) (T1U)
                 (T1U) (T1U) (GU) (GU) (GU) (GU) (T1U) (T1U) (T1U)
                 (HU) (HU) (HU) (HU) (HU) (HG) (HG) (HG) (HG) (HG)
                 (T2G) (T2G) (T2G) (T1G) (T1G) (T1G) (HU) (HU)
                 (HU) (HU) (HU) (GU) (GU) (GU) (GU) (T1G) (T1G)
                 (T1G) (T2U) (T2U) (T2U) (T2G) (T2G) (T2G) (GG)
                 (GG) (GG) (GG) (GG) (GG) (GG) (GG) (AG) (HG) (HG)
                 (HG) (HG) (HG) (HU) (HU) (HU) (HU) (HU) (AU) (T1U)
                 (T1U) (T1U) (GU) (GU) (GU) (GU) (T2U) (T2U) (T2U)
                 (T1U) (T1U) (T1U) (HG) (HG) (HG) (HG) (HG) (T2U)
                 (T2U) (T2U) (GU) (GU) (GU) (GU) (HG) (HG) (HG)
                 (HG) (HG) (T1G) (T1G) (T1G) (HG) (HG) (HG) (HG)
                 (HG) (GG) (GG) (GG) (GG) (T2G) (T2G) (T2G) (HU)
                 (HU) (HU) (HU) (HU) (HG) (HG) (HG) (HG) (HG) (T2U)
                 (T2U) (T2U) (HU) (HU) (HU) (HU) (HU) (T1U) (T1U)
                 (T1U) (GU) (GU) (GU) (GU) (T1U) (T1U) (T1U) (HU)
                 (HU) (HU) (HU) (HU) (T1G) (T1G) (T1G) (HG) (HG)
                 (HG) (HG) (HG) (GG) (GG) (GG) (GG) (GU) (GU) (GU)
                 (GU) (HG) (HG) (HG) (HG) (HG) (T1G) (T1G) (T1G)
                 (HU) (HU) (HU) (HU) (HU) (HG) (HG) (HG) (HG) (HG)
                 (T1U) (T1U) (T1U) (GG) (GG) (GG) (GG) (T2U) (T2U)
                 (T2U) (GG) (GG) (GG) (GG) (T1G) (T1G) (T1G) (T1U)
                 (T1U) (T1U) (T2U) (T2U) (T2U) (GU) (GU) (GU) (GU)
                 (HU) (HU) (HU) (HU) (HU) (HG) (HG) (HG) (HG) (HG)
                 (T2G) (T2G) (T2G) (HU) (HU) (HU) (HU) (HU) (T2G)
                 (T2G) (T2G) (HU) (HU) (HU) (HU) (HU) (HG) (HG)
                 (HG) (HG) (HG) (GU) (GU) (GU) (GU) (GG) (GG) (GG)
                 (GG) (T2G) (T2G) (T2G) (T1G) (T1G) (T1G) (HU)
                 (HU) (HU) (HU) (HU) (T1G) (T1G) (T1G) (T2U) (T2U)
                 (T2U) (GU) (GU) (GU) (GU) (GG) (GG) (GG) (GG)
                 (HU) (HU) (HU) (HU) (HU) (GG) (GG) (GG) (GG) (T2G)
                 (T2G) (T2G) (AU) (HG) (HG) (HG) (HG) (HG) (HU)
                 (HU) (HU) (HU) (HU) (GU) (GU) (GU) (GU) (GG) (GG)
                 (GG) (GG) (T2G) (T2G) (T2G) (HU) (HU) (HU) (HU)
                 (HU) (GU) (GU) (GU) (GU) (T1G) (T1G) (T1G) (T2G)
                 (T2G) (T2G) (AU)
 The electronic state of the initial guess is 1-AG.
 Leave Link  401 at Thu May  5 10:44:52 2022, MaxMem=  2684354560 cpu:              21.7 elap:               2.7
 (Enter /apps/software/g16/l502.exe)
 Integral symmetry usage will be decided dynamically.
 Closed shell SCF:
 Using DIIS extrapolation, IDIIS=  1040.
 NGot=  2684354560 LenX=  2682670776 LenY=  2681859876
 Requested convergence on RMS density matrix=1.00D-08 within 128 cycles.
 Requested convergence on MAX density matrix=1.00D-06.
 Requested convergence on             energy=1.00D-06.
 No special actions if energy rises.
 Fock matrices will be formed incrementally for  20 cycles.
 Integral accuracy reduced to 1.0D-05 until final iterations.

 Cycle   1  Pass 0  IDiag  1:
 FoFJK:  IHMeth= 1 ICntrl=       0 DoSepK=F KAlg= 0 I1Cent=           0 FoldK=F
 IRaf= 820000000 NMat=       1 IRICut=       1 DoRegI=T DoRafI=F ISym2E= 1 IDoP0=0 IntGTp=1.
 FoFCou: FMM=F IPFlag=           0 FMFlag=      100000 FMFlg1=        2000
         NFxFlg=           0 DoJE=F BraDBF=F KetDBF=F FulRan=T
         wScrn=  0.000000 ICntrl=         0 IOpCl=  0 I1Cent=           0 NGrid=           0
         NMat0=    1 NMatS0=      1 NMatT0=    0 NMatD0=    1 NMtDS0=    0 NMtDT0=    0
 Petite list used in FoFCou.
 E= -2270.61618528167    
 DIIS: error= 3.50D-02 at cycle   1 NSaved=   1.
 NSaved= 1 IEnMin= 1 EnMin= -2270.61618528167     IErMin= 1 ErrMin= 3.50D-02
 ErrMax= 3.50D-02  0.00D+00 EMaxC= 1.00D-01 BMatC= 1.49D+00 BMatP= 1.49D+00
 IDIUse=3 WtCom= 6.50D-01 WtEn= 3.50D-01
 Coeff-Com:  0.100D+01
 Coeff-En:   0.100D+01
 Coeff:      0.100D+01
 Gap=     0.301 Goal=   None    Shift=    0.000
 GapD=    0.301 DampG=1.000 DampE=0.500 DampFc=0.5000 IDamp=-1.
 Damping current iteration by 5.00D-01
 RMSDP=2.06D-03 MaxDP=4.68D-02              OVMax= 1.00D-01

 Cycle   2  Pass 0  IDiag  1:
 RMSU=  1.01D-03    CP:  9.84D-01
 E= -2271.13839102938     Delta-E=       -0.522205747715 Rises=F Damp=T
 DIIS: error= 1.86D-02 at cycle   2 NSaved=   2.
 NSaved= 2 IEnMin= 2 EnMin= -2271.13839102938     IErMin= 2 ErrMin= 1.86D-02
 ErrMax= 1.86D-02  0.00D+00 EMaxC= 1.00D-01 BMatC= 3.78D-01 BMatP= 1.49D+00
 IDIUse=3 WtCom= 8.14D-01 WtEn= 1.86D-01
 Coeff-Com: -0.756D+00 0.176D+01
 Coeff-En:   0.000D+00 0.100D+01
 Coeff:     -0.615D+00 0.161D+01
 Gap=     0.308 Goal=   None    Shift=    0.000
 DSYEVD-2 returned Info=         325 IAlg= 4 N=   216 NDim=   840 NE2=     3192689 trying  DSYEV.
 RMSDP=1.25D-03 MaxDP=2.08D-02 DE=-5.22D-01 OVMax= 3.53D-02

 Cycle   3  Pass 0  IDiag  1:
 RMSU=  6.94D-04    CP:  9.68D-01  2.01D+00
 E= -2271.65298222181     Delta-E=       -0.514591192426 Rises=F Damp=F
 DIIS: error= 8.52D-03 at cycle   3 NSaved=   3.
 NSaved= 3 IEnMin= 3 EnMin= -2271.65298222181     IErMin= 3 ErrMin= 8.52D-03
 ErrMax= 8.52D-03  0.00D+00 EMaxC= 1.00D-01 BMatC= 3.56D-02 BMatP= 3.78D-01
 IDIUse=3 WtCom= 9.15D-01 WtEn= 8.52D-02
 Coeff-Com: -0.336D+00 0.611D+00 0.726D+00
 Coeff-En:   0.000D+00 0.000D+00 0.100D+01
 Coeff:     -0.308D+00 0.559D+00 0.749D+00
 Gap=     0.307 Goal=   None    Shift=    0.000
 RMSDP=2.56D-04 MaxDP=6.03D-03 DE=-5.15D-01 OVMax= 1.49D-02

 Cycle   4  Pass 0  IDiag  1:
 RMSU=  1.76D-04    CP:  9.66D-01  2.05D+00  7.44D-01
 E= -2271.68354109258     Delta-E=       -0.030558870765 Rises=F Damp=F
 DIIS: error= 8.80D-04 at cycle   4 NSaved=   4.
 NSaved= 4 IEnMin= 4 EnMin= -2271.68354109258     IErMin= 4 ErrMin= 8.80D-04
 ErrMax= 8.80D-04  0.00D+00 EMaxC= 1.00D-01 BMatC= 5.49D-04 BMatP= 3.56D-02
 IDIUse=3 WtCom= 9.91D-01 WtEn= 8.80D-03
 Coeff-Com:  0.397D-01-0.843D-01 0.567D-02 0.104D+01
 Coeff-En:   0.000D+00 0.000D+00 0.000D+00 0.100D+01
 Coeff:      0.394D-01-0.835D-01 0.562D-02 0.104D+01
 Gap=     0.309 Goal=   None    Shift=    0.000
 DSYEVD-2 returned Info=         325 IAlg= 4 N=   216 NDim=   840 NE2=     3192689 trying  DSYEV.
 DSYEVD-2 returned Info=         433 IAlg= 4 N=   216 NDim=   840 NE2=     3192689 trying  DSYEV.
 RMSDP=7.47D-05 MaxDP=1.14D-03 DE=-3.06D-02 OVMax= 6.88D-03

 Cycle   5  Pass 0  IDiag  1:
 RMSU=  5.63D-05    CP:  9.66D-01  2.08D+00  7.96D-01  1.12D+00
 E= -2271.68468826946     Delta-E=       -0.001147176883 Rises=F Damp=F
 DIIS: error= 3.29D-04 at cycle   5 NSaved=   5.
 NSaved= 5 IEnMin= 5 EnMin= -2271.68468826946     IErMin= 5 ErrMin= 3.29D-04
 ErrMax= 3.29D-04  0.00D+00 EMaxC= 1.00D-01 BMatC= 4.08D-05 BMatP= 5.49D-04
 IDIUse=3 WtCom= 9.97D-01 WtEn= 3.29D-03
 Coeff-Com:  0.697D-02-0.103D-01-0.375D-01-0.315D+00 0.136D+01
 Coeff-En:   0.000D+00 0.000D+00 0.000D+00 0.000D+00 0.100D+01
 Coeff:      0.695D-02-0.103D-01-0.374D-01-0.314D+00 0.135D+01
 Gap=     0.311 Goal=   None    Shift=    0.000
 DSYEVD-2 returned Info=         307 IAlg= 4 N=   204 NDim=   840 NE2=     3192689 trying  DSYEV.
 DSYEVD-2 returned Info=         433 IAlg= 4 N=   216 NDim=   840 NE2=     3192689 trying  DSYEV.
 RMSDP=4.54D-05 MaxDP=6.54D-04 DE=-1.15D-03 OVMax= 4.50D-03

 Cycle   6  Pass 0  IDiag  1:
 RMSU=  3.41D-05    CP:  9.66D-01  2.09D+00  8.22D-01  1.23D+00  1.16D+00
 E= -2271.68485423032     Delta-E=       -0.000165960864 Rises=F Damp=F
 DIIS: error= 9.34D-05 at cycle   6 NSaved=   6.
 NSaved= 6 IEnMin= 6 EnMin= -2271.68485423032     IErMin= 6 ErrMin= 9.34D-05
 ErrMax= 9.34D-05  0.00D+00 EMaxC= 1.00D-01 BMatC= 4.18D-06 BMatP= 4.08D-05
 IDIUse=1 WtCom= 1.00D+00 WtEn= 0.00D+00
 Coeff-Com: -0.413D-02 0.791D-02 0.616D-02-0.381D-01-0.138D+00 0.117D+01
 Coeff:     -0.413D-02 0.791D-02 0.616D-02-0.381D-01-0.138D+00 0.117D+01
 Gap=     0.311 Goal=   None    Shift=    0.000
 DSYEVD-2 returned Info=         433 IAlg= 4 N=   216 NDim=   840 NE2=     3192689 trying  DSYEV.
 DSYEVD-2 returned Info=         433 IAlg= 4 N=   216 NDim=   840 NE2=     3192689 trying  DSYEV.
 RMSDP=1.93D-05 MaxDP=1.72D-04 DE=-1.66D-04 OVMax= 1.29D-03

 Cycle   7  Pass 0  IDiag  1:
 RMSU=  1.32D-05    CP:  9.66D-01  2.09D+00  8.25D-01  1.22D+00  1.39D+00
                    CP:  8.50D-01
 E= -2271.68483312381     Delta-E=        0.000021106511 Rises=F Damp=F
 DIIS: error= 3.36D-05 at cycle   7 NSaved=   7.
 NSaved= 7 IEnMin= 6 EnMin= -2271.68485423032     IErMin= 7 ErrMin= 3.36D-05
 ErrMax= 3.36D-05  0.00D+00 EMaxC= 1.00D-01 BMatC= 5.57D-07 BMatP= 4.18D-06
 IDIUse=1 WtCom= 1.00D+00 WtEn= 0.00D+00
 Coeff-Com: -0.210D-02 0.354D-02 0.752D-02 0.429D-01-0.237D+00 0.107D+00
 Coeff-Com:  0.108D+01
 Coeff:     -0.210D-02 0.354D-02 0.752D-02 0.429D-01-0.237D+00 0.107D+00
 Coeff:      0.108D+01
 Gap=     0.311 Goal=   None    Shift=    0.000
 DSYEVD-2 returned Info=       23869 IAlg= 4 N=   216 NDim=   840 NE2=     3192689 trying  DSYEV.
 RMSDP=9.95D-06 MaxDP=9.77D-05 DE= 2.11D-05 OVMax= 5.48D-04

 Initial convergence to 1.0D-05 achieved.  Increase integral accuracy.
 Cycle   8  Pass 1  IDiag  1:
 E= -2271.68544365887     Delta-E=       -0.000610535060 Rises=F Damp=F
 DIIS: error= 2.86D-03 at cycle   1 NSaved=   1.
 NSaved= 1 IEnMin= 1 EnMin= -2271.68544365887     IErMin= 1 ErrMin= 2.86D-03
 ErrMax= 2.86D-03  0.00D+00 EMaxC= 1.00D-01 BMatC= 7.34D-04 BMatP= 7.34D-04
 IDIUse=3 WtCom= 9.71D-01 WtEn= 2.86D-02
 Coeff-Com:  0.100D+01
 Coeff-En:   0.100D+01
 Coeff:      0.100D+01
 Gap=     0.311 Goal=   None    Shift=    0.000
 DSYEVD-2 returned Info=       23869 IAlg= 4 N=   216 NDim=   840 NE2=     3192689 trying  DSYEV.
 DSYEVD-2 returned Info=       21319 IAlg= 4 N=   204 NDim=   840 NE2=     3192689 trying  DSYEV.
 RMSDP=9.95D-06 MaxDP=9.77D-05 DE=-6.11D-04 OVMax= 2.16D-03

 Cycle   9  Pass 1  IDiag  1:
 RMSU=  5.12D-04    CP:  9.98D-01
 E= -2271.68589499623     Delta-E=       -0.000451337353 Rises=F Damp=F
 DIIS: error= 6.83D-05 at cycle   2 NSaved=   2.
 NSaved= 2 IEnMin= 2 EnMin= -2271.68589499623     IErMin= 2 ErrMin= 6.83D-05
 ErrMax= 6.83D-05  0.00D+00 EMaxC= 1.00D-01 BMatC= 8.77D-07 BMatP= 7.34D-04
 IDIUse=1 WtCom= 1.00D+00 WtEn= 0.00D+00
 Coeff-Com: -0.259D-01 0.103D+01
 Coeff:     -0.259D-01 0.103D+01
 Gap=     0.311 Goal=   None    Shift=    0.000
 RMSDP=2.19D-05 MaxDP=2.49D-04 DE=-4.51D-04 OVMax= 1.70D-04

 Cycle  10  Pass 1  IDiag  1:
 RMSU=  7.17D-06    CP:  9.98D-01  1.04D+00
 E= -2271.68589622000     Delta-E=       -0.000001223778 Rises=F Damp=F
 DIIS: error= 7.30D-06 at cycle   3 NSaved=   3.
 NSaved= 3 IEnMin= 3 EnMin= -2271.68589622000     IErMin= 3 ErrMin= 7.30D-06
 ErrMax= 7.30D-06  0.00D+00 EMaxC= 1.00D-01 BMatC= 2.91D-08 BMatP= 8.77D-07
 IDIUse=1 WtCom= 1.00D+00 WtEn= 0.00D+00
 Coeff-Com: -0.212D-02 0.642D-01 0.938D+00
 Coeff:     -0.212D-02 0.642D-01 0.938D+00
 Gap=     0.311 Goal=   None    Shift=    0.000
 DSYEVD-2 returned Info=         325 IAlg= 4 N=   216 NDim=   840 NE2=     3192689 trying  DSYEV.
 DSYEVD-2 returned Info=         409 IAlg= 4 N=   204 NDim=   840 NE2=     3192689 trying  DSYEV.
 RMSDP=9.17D-07 MaxDP=1.15D-05 DE=-1.22D-06 OVMax= 3.70D-05

 Cycle  11  Pass 1  IDiag  1:
 RMSU=  4.34D-07    CP:  9.98D-01  1.04D+00  1.08D+00
 E= -2271.68589624714     Delta-E=       -0.000000027136 Rises=F Damp=F
 DIIS: error= 5.19D-06 at cycle   4 NSaved=   4.
 NSaved= 4 IEnMin= 4 EnMin= -2271.68589624714     IErMin= 4 ErrMin= 5.19D-06
 ErrMax= 5.19D-06  0.00D+00 EMaxC= 1.00D-01 BMatC= 1.26D-08 BMatP= 2.91D-08
 IDIUse=1 WtCom= 1.00D+00 WtEn= 0.00D+00
 Coeff-Com:  0.826D-03-0.410D-01 0.388D+00 0.652D+00
 Coeff:      0.826D-03-0.410D-01 0.388D+00 0.652D+00
 Gap=     0.311 Goal=   None    Shift=    0.000
 DSYEVD-2 returned Info=       21319 IAlg= 4 N=   204 NDim=   840 NE2=     3192689 trying  DSYEV.
 DSYEVD-2 returned Info=       23869 IAlg= 4 N=   216 NDim=   840 NE2=     3192689 trying  DSYEV.
 RMSDP=1.75D-07 MaxDP=3.85D-06 DE=-2.71D-08 OVMax= 1.47D-05

 Cycle  12  Pass 1  IDiag  1:
 RMSU=  1.34D-07    CP:  9.98D-01  1.04D+00  1.09D+00  8.93D-01
 E= -2271.68589625993     Delta-E=       -0.000000012793 Rises=F Damp=F
 DIIS: error= 9.49D-07 at cycle   5 NSaved=   5.
 NSaved= 5 IEnMin= 5 EnMin= -2271.68589625993     IErMin= 5 ErrMin= 9.49D-07
 ErrMax= 9.49D-07  0.00D+00 EMaxC= 1.00D-01 BMatC= 2.77D-10 BMatP= 1.26D-08
 IDIUse=1 WtCom= 1.00D+00 WtEn= 0.00D+00
 Coeff-Com: -0.292D-03 0.164D-01-0.224D+00-0.286D+00 0.149D+01
 Coeff:     -0.292D-03 0.164D-01-0.224D+00-0.286D+00 0.149D+01
 Gap=     0.311 Goal=   None    Shift=    0.000
 DSYEVD-2 returned Info=         433 IAlg= 4 N=   216 NDim=   840 NE2=     3192689 trying  DSYEV.
 RMSDP=7.77D-08 MaxDP=1.67D-06 DE=-1.28D-08 OVMax= 1.48D-05

 Cycle  13  Pass 1  IDiag  1:
 RMSU=  4.85D-08    CP:  9.98D-01  1.04D+00  1.09D+00  9.75D-01  1.31D+00
 E= -2271.68589626123     Delta-E=       -0.000000001299 Rises=F Damp=F
 DIIS: error= 2.75D-07 at cycle   6 NSaved=   6.
 NSaved= 6 IEnMin= 6 EnMin= -2271.68589626123     IErMin= 6 ErrMin= 2.75D-07
 ErrMax= 2.75D-07  0.00D+00 EMaxC= 1.00D-01 BMatC= 2.05D-11 BMatP= 2.77D-10
 IDIUse=1 WtCom= 1.00D+00 WtEn= 0.00D+00
 Coeff-Com:  0.462D-04-0.312D-02 0.582D-01 0.664D-01-0.623D+00 0.150D+01
 Coeff:      0.462D-04-0.312D-02 0.582D-01 0.664D-01-0.623D+00 0.150D+01
 Gap=     0.311 Goal=   None    Shift=    0.000
 DSYEVD-2 returned Info=         409 IAlg= 4 N=   204 NDim=   840 NE2=     3192689 trying  DSYEV.
 DSYEVD-2 returned Info=         307 IAlg= 4 N=   204 NDim=   840 NE2=     3192689 trying  DSYEV.
 DSYEVD-2 returned Info=       23869 IAlg= 4 N=   216 NDim=   840 NE2=     3192689 trying  DSYEV.
 RMSDP=2.47D-08 MaxDP=6.09D-07 DE=-1.30D-09 OVMax= 4.30D-06

 Cycle  14  Pass 1  IDiag  1:
 RMSU=  6.46D-09    CP:  9.98D-01  1.04D+00  1.09D+00  9.82D-01  1.36D+00
                    CP:  1.46D+00
 E= -2271.68589626160     Delta-E=       -0.000000000373 Rises=F Damp=F
 DIIS: error= 2.17D-08 at cycle   7 NSaved=   7.
 NSaved= 7 IEnMin= 7 EnMin= -2271.68589626160     IErMin= 7 ErrMin= 2.17D-08
 ErrMax= 2.17D-08  0.00D+00 EMaxC= 1.00D-01 BMatC= 2.86D-13 BMatP= 2.05D-11
 IDIUse=1 WtCom= 1.00D+00 WtEn= 0.00D+00
 Coeff-Com:  0.428D-05-0.196D-03 0.125D-02 0.132D-02 0.107D-01-0.142D+00
 Coeff-Com:  0.113D+01
 Coeff:      0.428D-05-0.196D-03 0.125D-02 0.132D-02 0.107D-01-0.142D+00
 Coeff:      0.113D+01
 Gap=     0.311 Goal=   None    Shift=    0.000
 RMSDP=2.30D-09 MaxDP=5.08D-08 DE=-3.73D-10 OVMax= 3.14D-07

 SCF Done:  E(RHF) =  -2271.68589626     A.U. after   14 cycles
            NFock= 14  Conv=0.23D-08     -V/T= 2.0036
 KE= 2.263560648533D+03 PE=-2.146834435204D+04 EE= 8.836809072440D+03
 Leave Link  502 at Thu May  5 10:45:30 2022, MaxMem=  2684354560 cpu:             302.5 elap:              37.9
 (Enter /apps/software/g16/l601.exe)
 Copying SCF densities to generalized density rwf, IOpCl= 0 IROHF=0.

 **********************************************************************

            Population analysis using the SCF density.

 **********************************************************************

 Orbital symmetries:
       Occupied  (AG) (T1U) (T1U) (T1U) (HG) (HG) (HG) (HG) (HG)
                 (GU) (GU) (GU) (GU) (T2U) (T2U) (T2U) (GG) (GG)
                 (GG) (GG) (HG) (HG) (HG) (HG) (HG) (HU) (HU) (HU)
                 (HU) (HU) (T1U) (T1U) (T1U) (T1G) (T1G) (T1G)
                 (HG) (HG) (HG) (HG) (HG) (T2U) (T2U) (T2U) (HU)
                 (HU) (HU) (HU) (HU) (GG) (GG) (GG) (GG) (GU) (GU)
                 (GU) (GU) (T2G) (T2G) (T2G) (AG) (T1U) (T1U) (T1U)
                 (HG) (HG) (HG) (HG) (HG) (GU) (GU) (GU) (GU) (T2U)
                 (T2U) (T2U) (GG) (GG) (GG) (GG) (HG) (HG) (HG)
                 (HG) (HG) (HU) (HU) (HU) (HU) (HU) (T1U) (T1U)
                 (T1U) (T2U) (T2U) (T2U) (HG) (HG) (HG) (HG) (HG)
                 (T1G) (T1G) (T1G) (AG) (GG) (GG) (GG) (GG) (HU)
                 (HU) (HU) (HU) (HU) (T1U) (T1U) (T1U) (T2U) (T2U)
                 (T2U) (AG) (GU) (GU) (GU) (GU) (GG) (GG) (GG)
                 (GG) (HG) (HG) (HG) (HG) (HG) (T1U) (T1U) (T1U)
                 (GU) (GU) (GU) (GU) (T2G) (T2G) (T2G) (HG) (HG)
                 (HG) (HG) (HG) (HG) (HG) (HG) (HG) (HG) (HU) (HU)
                 (HU) (HU) (HU) (GU) (GU) (GU) (GU) (T2U) (T2U)
                 (T2U) (GG) (GG) (GG) (GG) (HG) (HG) (HG) (HG)
                 (HG) (HU) (HU) (HU) (HU) (HU)
       Virtual   (T1U) (T1U) (T1U) (T1G) (T1G) (T1G) (HG) (HG)
                 (HG) (HG) (HG) (T2U) (T2U) (T2U) (HU) (HU) (HU)
                 (HU) (HU) (GG) (GG) (GG) (GG) (GU) (GU) (GU) (GU)
                 (T1U) (T1U) (T1U) (T2G) (T2G) (T2G) (HG) (HG)
                 (HG) (HG) (HG) (T1G) (T1G) (T1G) (T2U) (T2U) (T2U)
                 (GU) (GU) (GU) (GU) (GG) (GG) (GG) (GG) (HG) (HG)
                 (HG) (HG) (HG) (HU) (HU) (HU) (HU) (HU) (T2U)
                 (T2U) (T2U) (T1U) (T1U) (T1U) (T2G) (T2G) (T2G)
                 (HU) (HU) (HU) (HU) (HU) (AG) (GU) (GU) (GU) (GU)
                 (HG) (HG) (HG) (HG) (HG) (AG) (T1U) (T1U) (T1U)
                 (HG) (HG) (HG) (HG) (HG) (GG) (GG) (GG) (GG) (GU)
                 (GU) (GU) (GU) (T1U) (T1U) (T1U) (T2G) (T2G) (T2G)
                 (GG) (GG) (GG) (GG) (T2U) (T2U) (T2U) (AG) (HG)
                 (HG) (HG) (HG) (HG) (T1G) (T1G) (T1G) (HU) (HU)
                 (HU) (HU) (HU) (T2U) (T2U) (T2U) (T1U) (T1U) (T1U)
                 (HG) (HG) (HG) (HG) (HG) (HU) (HU) (HU) (HU) (HU)
                 (HG) (HG) (HG) (HG) (HG) (T1G) (T1G) (T1G) (GG)
                 (GG) (GG) (GG) (HU) (HU) (HU) (HU) (HU) (GG) (GG)
                 (GG) (GG) (GU) (GU) (GU) (GU) (HU) (HU) (HU) (HU)
                 (HU) (T2U) (T2U) (T2U) (T1U) (T1U) (T1U) (GU)
                 (GU) (GU) (GU) (T2G) (T2G) (T2G) (GG) (GG) (GG)
                 (GG) (T1G) (T1G) (T1G) (HG) (HG) (HG) (HG) (HG)
                 (T2U) (T2U) (T2U) (GU) (GU) (GU) (GU) (AG) (T1U)
                 (T1U) (T1U) (HG) (HG) (HG) (HG) (HG) (HU) (HU)
                 (HU) (HU) (HU) (AU) (T2U) (T2U) (T2U) (GG) (GG)
                 (GG) (GG) (HG) (HG) (HG) (HG) (HG) (GU) (GU) (GU)
                 (GU) (T2G) (T2G) (T2G) (T1U) (T1U) (T1U) (GU)
                 (GU) (GU) (GU) (HG) (HG) (HG) (HG) (HG) (T1G)
                 (T1G) (T1G) (T2G) (T2G) (T2G) (HU) (HU) (HU) (HU)
                 (HU) (T2U) (T2U) (T2U) (GG) (GG) (GG) (GG) (HG)
                 (HG) (HG) (HG) (HG) (GU) (GU) (GU) (GU) (HU) (HU)
                 (HU) (HU) (HU) (T2U) (T2U) (T2U) (T2G) (T2G) (T2G)
                 (T1U) (T1U) (T1U) (GG) (GG) (GG) (GG) (T1G) (T1G)
                 (T1G) (HG) (HG) (HG) (HG) (HG) (HU) (HU) (HU)
                 (HU) (HU) (AG) (GG) (GG) (GG) (GG) (GU) (GU) (GU)
                 (GU) (HU) (HU) (HU) (HU) (HU) (HG) (HG) (HG) (HG)
                 (HG) (GG) (GG) (GG) (GG) (T2U) (T2U) (T2U) (GU)
                 (GU) (GU) (GU) (HG) (HG) (HG) (HG) (HG) (HU) (HU)
                 (HU) (HU) (HU) (T2G) (T2G) (T2G) (T1U) (T1U) (T1U)
                 (T1U) (T1U) (T1U) (T1G) (T1G) (T1G) (GU) (GU)
                 (GU) (GU) (HG) (HG) (HG) (HG) (HG) (HU) (HU) (HU)
                 (HU) (HU) (AU) (T2G) (T2G) (T2G) (T1G) (T1G) (T1G)
                 (T2U) (T2U) (T2U) (GG) (GG) (GG) (GG) (GG) (GG)
                 (GG) (GG) (AG) (HG) (HG) (HG) (HG) (HG) (HU) (HU)
                 (HU) (HU) (HU) (T1U) (T1U) (T1U) (T2U) (T2U) (T2U)
                 (GU) (GU) (GU) (GU) (HG) (HG) (HG) (HG) (HG) (T1U)
                 (T1U) (T1U) (T2U) (T2U) (T2U) (GU) (GU) (GU) (GU)
                 (HG) (HG) (HG) (HG) (HG) (GG) (GG) (GG) (GG) (T1G)
                 (T1G) (T1G) (HG) (HG) (HG) (HG) (HG) (HG) (HG)
                 (HG) (HG) (HG) (T2G) (T2G) (T2G) (HU) (HU) (HU)
                 (HU) (HU) (HU) (HU) (HU) (HU) (HU) (T1U) (T1U)
                 (T1U) (T2U) (T2U) (T2U) (GU) (GU) (GU) (GU) (HU)
                 (HU) (HU) (HU) (HU) (T1G) (T1G) (T1G) (GG) (GG)
                 (GG) (GG) (T1U) (T1U) (T1U) (HG) (HG) (HG) (HG)
                 (HG) (GU) (GU) (GU) (GU) (HG) (HG) (HG) (HG) (HG)
                 (T1G) (T1G) (T1G) (GG) (GG) (GG) (GG) (HU) (HU)
                 (HU) (HU) (HU) (HG) (HG) (HG) (HG) (HG) (T2U)
                 (T2U) (T2U) (GG) (GG) (GG) (GG) (T1U) (T1U) (T1U)
                 (T1U) (T1U) (T1U) (T2U) (T2U) (T2U) (GU) (GU)
                 (GU) (GU) (T1G) (T1G) (T1G) (HU) (HU) (HU) (HU)
                 (HU) (T2G) (T2G) (T2G) (T2G) (T2G) (T2G) (HG)
                 (HG) (HG) (HG) (HG) (HU) (HU) (HU) (HU) (HU) (HU)
                 (HU) (HU) (HU) (HU) (HG) (HG) (HG) (HG) (HG) (GG)
                 (GG) (GG) (GG) (GU) (GU) (GU) (GU) (T1G) (T1G)
                 (T1G) (HU) (HU) (HU) (HU) (HU) (T2G) (T2G) (T2G)
                 (T1G) (T1G) (T1G) (GU) (GU) (GU) (GU) (GG) (GG)
                 (GG) (GG) (HU) (HU) (HU) (HU) (HU) (T2U) (T2U)
                 (T2U) (T2G) (T2G) (T2G) (AU) (GG) (GG) (GG) (GG)
                 (HG) (HG) (HG) (HG) (HG) (HU) (HU) (HU) (HU) (HU)
                 (GU) (GU) (GU) (GU) (GG) (GG) (GG) (GG) (T2G)
                 (T2G) (T2G) (HU) (HU) (HU) (HU) (HU) (GU) (GU)
                 (GU) (GU) (T1G) (T1G) (T1G) (T2G) (T2G) (T2G)
                 (AU)
 The electronic state is 1-AG.
 Alpha  occ. eigenvalues --  -11.31103 -11.31094 -11.31094 -11.31094 -11.31079
 Alpha  occ. eigenvalues --  -11.31079 -11.31079 -11.31079 -11.31079 -11.31064
 Alpha  occ. eigenvalues --  -11.31064 -11.31064 -11.31064 -11.31049 -11.31049
 Alpha  occ. eigenvalues --  -11.31049 -11.31042 -11.31042 -11.31042 -11.31042
 Alpha  occ. eigenvalues --  -11.31033 -11.31033 -11.31033 -11.31033 -11.31033
 Alpha  occ. eigenvalues --  -11.31028 -11.31028 -11.31028 -11.31028 -11.31028
 Alpha  occ. eigenvalues --  -11.30930 -11.30930 -11.30930 -11.30921 -11.30921
 Alpha  occ. eigenvalues --  -11.30921 -11.30914 -11.30914 -11.30914 -11.30914
 Alpha  occ. eigenvalues --  -11.30914 -11.30910 -11.30910 -11.30910 -11.30895
 Alpha  occ. eigenvalues --  -11.30895 -11.30895 -11.30895 -11.30895 -11.30879
 Alpha  occ. eigenvalues --  -11.30879 -11.30879 -11.30879 -11.30854 -11.30854
 Alpha  occ. eigenvalues --  -11.30854 -11.30854 -11.30852 -11.30852 -11.30852
 Alpha  occ. eigenvalues --   -1.26677  -1.24330  -1.24330  -1.24330  -1.19751
 Alpha  occ. eigenvalues --   -1.19751  -1.19751  -1.19751  -1.19751  -1.13191
 Alpha  occ. eigenvalues --   -1.13191  -1.13191  -1.13191  -1.13171  -1.13171
 Alpha  occ. eigenvalues --   -1.13171  -1.05398  -1.05398  -1.05398  -1.05398
 Alpha  occ. eigenvalues --   -1.04956  -1.04956  -1.04956  -1.04956  -1.04956
 Alpha  occ. eigenvalues --   -0.99201  -0.99201  -0.99201  -0.99201  -0.99201
 Alpha  occ. eigenvalues --   -0.91551  -0.91551  -0.91551  -0.88525  -0.88525
 Alpha  occ. eigenvalues --   -0.88525  -0.86269  -0.86269  -0.86269  -0.86269
 Alpha  occ. eigenvalues --   -0.86269  -0.82465  -0.82465  -0.82465  -0.77328
 Alpha  occ. eigenvalues --   -0.73167  -0.73167  -0.73167  -0.73167  -0.72715
 Alpha  occ. eigenvalues --   -0.72715  -0.72715  -0.72715  -0.72715  -0.68943
 Alpha  occ. eigenvalues --   -0.68943  -0.68943  -0.67309  -0.67309  -0.67309
 Alpha  occ. eigenvalues --   -0.63144  -0.61748  -0.61748  -0.61748  -0.61748
 Alpha  occ. eigenvalues --   -0.61631  -0.61631  -0.61631  -0.61631  -0.61615
 Alpha  occ. eigenvalues --   -0.61615  -0.61615  -0.61615  -0.61615  -0.60196
 Alpha  occ. eigenvalues --   -0.60196  -0.60196  -0.57093  -0.57093  -0.57093
 Alpha  occ. eigenvalues --   -0.57093  -0.55791  -0.55791  -0.55791  -0.54518
 Alpha  occ. eigenvalues --   -0.54518  -0.54518  -0.54518  -0.54518  -0.49264
 Alpha  occ. eigenvalues --   -0.49264  -0.49264  -0.49264  -0.49264  -0.47851
 Alpha  occ. eigenvalues --   -0.47851  -0.47851  -0.47851  -0.47851  -0.46713
 Alpha  occ. eigenvalues --   -0.46713  -0.46713  -0.46713  -0.45448  -0.45448
 Alpha  occ. eigenvalues --   -0.45448  -0.37684  -0.37684  -0.37684  -0.37684
 Alpha  occ. eigenvalues --   -0.35462  -0.35462  -0.35462  -0.35462  -0.35462
 Alpha  occ. eigenvalues --   -0.30991  -0.30991  -0.30991  -0.30991  -0.30991
 Alpha virt. eigenvalues --    0.00093   0.00093   0.00093   0.06028   0.06028
 Alpha virt. eigenvalues --    0.06028   0.06885   0.06885   0.06885   0.06885
 Alpha virt. eigenvalues --    0.06885   0.06973   0.06973   0.06973   0.16922
 Alpha virt. eigenvalues --    0.16922   0.16922   0.16922   0.16922   0.19350
 Alpha virt. eigenvalues --    0.19350   0.19350   0.19350   0.20743   0.20743
 Alpha virt. eigenvalues --    0.20743   0.20743   0.23588   0.23588   0.23588
 Alpha virt. eigenvalues --    0.24283   0.24283   0.24283   0.26545   0.26545
 Alpha virt. eigenvalues --    0.26545   0.26545   0.26545   0.30167   0.30167
 Alpha virt. eigenvalues --    0.30167   0.33164   0.33164   0.33164   0.33835
 Alpha virt. eigenvalues --    0.33835   0.33835   0.33835   0.37990   0.37990
 Alpha virt. eigenvalues --    0.37990   0.37990   0.40413   0.40413   0.40413
 Alpha virt. eigenvalues --    0.40413   0.40413   0.41545   0.41545   0.41545
 Alpha virt. eigenvalues --    0.41545   0.41545   0.47653   0.47653   0.47653
 Alpha virt. eigenvalues --    0.48189   0.48189   0.48189   0.49411   0.49411
 Alpha virt. eigenvalues --    0.49411   0.53967   0.53967   0.53967   0.53967
 Alpha virt. eigenvalues --    0.53967   0.55030   0.59023   0.59023   0.59023
 Alpha virt. eigenvalues --    0.59023   0.59751   0.59751   0.59751   0.59751
 Alpha virt. eigenvalues --    0.59751   0.60376   0.61137   0.61137   0.61137
 Alpha virt. eigenvalues --    0.62111   0.62111   0.62111   0.62111   0.62111
 Alpha virt. eigenvalues --    0.62706   0.62706   0.62706   0.62706   0.63646
 Alpha virt. eigenvalues --    0.63646   0.63646   0.63646   0.63688   0.63688
 Alpha virt. eigenvalues --    0.63688   0.63693   0.63693   0.63693   0.63959
 Alpha virt. eigenvalues --    0.63959   0.63959   0.63959   0.64083   0.64083
 Alpha virt. eigenvalues --    0.64083   0.66268   0.67668   0.67668   0.67668
 Alpha virt. eigenvalues --    0.67668   0.67668   0.67986   0.67986   0.67986
 Alpha virt. eigenvalues --    0.68460   0.68460   0.68460   0.68460   0.68460
 Alpha virt. eigenvalues --    0.70059   0.70059   0.70059   0.70633   0.70633
 Alpha virt. eigenvalues --    0.70633   0.71080   0.71080   0.71080   0.71080
 Alpha virt. eigenvalues --    0.71080   0.73349   0.73349   0.73349   0.73349
 Alpha virt. eigenvalues --    0.73349   0.73605   0.73605   0.73605   0.73605
 Alpha virt. eigenvalues --    0.73605   0.74272   0.74272   0.74272   0.74345
 Alpha virt. eigenvalues --    0.74345   0.74345   0.74345   0.76075   0.76075
 Alpha virt. eigenvalues --    0.76075   0.76075   0.76075   0.76473   0.76473
 Alpha virt. eigenvalues --    0.76473   0.76473   0.78166   0.78166   0.78166
 Alpha virt. eigenvalues --    0.78166   0.79616   0.79616   0.79616   0.79616
 Alpha virt. eigenvalues --    0.79616   0.79810   0.79810   0.79810   0.81188
 Alpha virt. eigenvalues --    0.81188   0.81188   0.82204   0.82204   0.82204
 Alpha virt. eigenvalues --    0.82204   0.82700   0.82700   0.82700   0.83632
 Alpha virt. eigenvalues --    0.83632   0.83632   0.83632   0.84781   0.84781
 Alpha virt. eigenvalues --    0.84781   0.85868   0.85868   0.85868   0.85868
 Alpha virt. eigenvalues --    0.85868   0.86090   0.86090   0.86090   0.87050
 Alpha virt. eigenvalues --    0.87050   0.87050   0.87050   0.88018   0.88172
 Alpha virt. eigenvalues --    0.88172   0.88172   0.88500   0.88500   0.88500
 Alpha virt. eigenvalues --    0.88500   0.88500   0.90058   0.90058   0.90058
 Alpha virt. eigenvalues --    0.90058   0.90058   0.90780   0.90918   0.90918
 Alpha virt. eigenvalues --    0.90918   0.91220   0.91220   0.91220   0.91220
 Alpha virt. eigenvalues --    0.92731   0.92731   0.92731   0.92731   0.92731
 Alpha virt. eigenvalues --    0.95296   0.95296   0.95296   0.95296   0.98475
 Alpha virt. eigenvalues --    0.98475   0.98475   0.98722   0.98722   0.98722
 Alpha virt. eigenvalues --    1.01368   1.01368   1.01368   1.01368   1.01897
 Alpha virt. eigenvalues --    1.01897   1.01897   1.01897   1.01897   1.02123
 Alpha virt. eigenvalues --    1.02123   1.02123   1.05040   1.05040   1.05040
 Alpha virt. eigenvalues --    1.09603   1.09603   1.09603   1.09603   1.09603
 Alpha virt. eigenvalues --    1.10903   1.10903   1.10903   1.11038   1.11038
 Alpha virt. eigenvalues --    1.11038   1.11038   1.12773   1.12773   1.12773
 Alpha virt. eigenvalues --    1.12773   1.12773   1.14503   1.14503   1.14503
 Alpha virt. eigenvalues --    1.14503   1.15835   1.15835   1.15835   1.15835
 Alpha virt. eigenvalues --    1.15835   1.21018   1.21018   1.21018   1.21241
 Alpha virt. eigenvalues --    1.21241   1.21241   1.21641   1.21641   1.21641
 Alpha virt. eigenvalues --    1.22367   1.22367   1.22367   1.22367   1.25832
 Alpha virt. eigenvalues --    1.25832   1.25832   1.26451   1.26451   1.26451
 Alpha virt. eigenvalues --    1.26451   1.26451   1.30267   1.30267   1.30267
 Alpha virt. eigenvalues --    1.30267   1.30267   1.31783   1.32011   1.32011
 Alpha virt. eigenvalues --    1.32011   1.32011   1.33396   1.33396   1.33396
 Alpha virt. eigenvalues --    1.33396   1.33657   1.33657   1.33657   1.33657
 Alpha virt. eigenvalues --    1.33657   1.33720   1.33720   1.33720   1.33720
 Alpha virt. eigenvalues --    1.33720   1.36704   1.36704   1.36704   1.36704
 Alpha virt. eigenvalues --    1.40231   1.40231   1.40231   1.42734   1.42734
 Alpha virt. eigenvalues --    1.42734   1.42734   1.43221   1.43221   1.43221
 Alpha virt. eigenvalues --    1.43221   1.43221   1.43337   1.43337   1.43337
 Alpha virt. eigenvalues --    1.43337   1.43337   1.43712   1.43712   1.43712
 Alpha virt. eigenvalues --    1.44919   1.44919   1.44919   1.45328   1.45328
 Alpha virt. eigenvalues --    1.45328   1.45632   1.45632   1.45632   1.50265
 Alpha virt. eigenvalues --    1.50265   1.50265   1.50265   1.50887   1.50887
 Alpha virt. eigenvalues --    1.50887   1.50887   1.50887   1.54994   1.54994
 Alpha virt. eigenvalues --    1.54994   1.54994   1.54994   1.56322   1.56764
 Alpha virt. eigenvalues --    1.56764   1.56764   1.56824   1.56824   1.56824
 Alpha virt. eigenvalues --    1.63648   1.63648   1.63648   1.63835   1.63835
 Alpha virt. eigenvalues --    1.63835   1.63835   1.65700   1.65700   1.65700
 Alpha virt. eigenvalues --    1.65700   1.68092   1.68715   1.68715   1.68715
 Alpha virt. eigenvalues --    1.68715   1.68715   1.69832   1.69832   1.69832
 Alpha virt. eigenvalues --    1.69832   1.69832   1.72358   1.72358   1.72358
 Alpha virt. eigenvalues --    1.72595   1.72595   1.72595   1.74374   1.74374
 Alpha virt. eigenvalues --    1.74374   1.74374   1.77673   1.77673   1.77673
 Alpha virt. eigenvalues --    1.77673   1.77673   1.78179   1.78179   1.78179
 Alpha virt. eigenvalues --    1.78310   1.78310   1.78310   1.81682   1.81682
 Alpha virt. eigenvalues --    1.81682   1.81682   1.82028   1.82028   1.82028
 Alpha virt. eigenvalues --    1.82028   1.82028   1.83442   1.83442   1.83442
 Alpha virt. eigenvalues --    1.83442   1.85460   1.85460   1.85460   1.85631
 Alpha virt. eigenvalues --    1.85631   1.85631   1.85631   1.85631   1.90108
 Alpha virt. eigenvalues --    1.90108   1.90108   1.90108   1.90108   1.90405
 Alpha virt. eigenvalues --    1.90405   1.90405   1.90889   1.90889   1.90889
 Alpha virt. eigenvalues --    1.90889   1.90889   1.93554   1.93554   1.93554
 Alpha virt. eigenvalues --    1.93554   1.93554   1.94703   1.94703   1.94703
 Alpha virt. eigenvalues --    1.94866   1.94866   1.94866   1.96872   1.96872
 Alpha virt. eigenvalues --    1.96872   1.96872   2.02073   2.02073   2.02073
 Alpha virt. eigenvalues --    2.02073   2.02073   2.04611   2.04611   2.04611
 Alpha virt. eigenvalues --    2.06320   2.06320   2.06320   2.06320   2.06550
 Alpha virt. eigenvalues --    2.06550   2.06550   2.06743   2.06743   2.06743
 Alpha virt. eigenvalues --    2.06743   2.06743   2.07105   2.07105   2.07105
 Alpha virt. eigenvalues --    2.07105   2.09517   2.09517   2.09517   2.09517
 Alpha virt. eigenvalues --    2.09517   2.13970   2.13970   2.13970   2.15532
 Alpha virt. eigenvalues --    2.15532   2.15532   2.15532   2.15978   2.15978
 Alpha virt. eigenvalues --    2.15978   2.15978   2.15978   2.19138   2.19138
 Alpha virt. eigenvalues --    2.19138   2.19138   2.19138   2.20726   2.20726
 Alpha virt. eigenvalues --    2.20726   2.22371   2.22371   2.22371   2.22371
 Alpha virt. eigenvalues --    2.24014   2.24014   2.24014   2.28936   2.28936
 Alpha virt. eigenvalues --    2.28936   2.29506   2.29506   2.29506   2.29949
 Alpha virt. eigenvalues --    2.29949   2.29949   2.29949   2.31249   2.31249
 Alpha virt. eigenvalues --    2.31249   2.32677   2.32677   2.32677   2.32677
 Alpha virt. eigenvalues --    2.32677   2.33629   2.33629   2.33629   2.34923
 Alpha virt. eigenvalues --    2.34923   2.34923   2.36175   2.36175   2.36175
 Alpha virt. eigenvalues --    2.36175   2.36175   2.37391   2.37391   2.37391
 Alpha virt. eigenvalues --    2.37391   2.37391   2.46273   2.46273   2.46273
 Alpha virt. eigenvalues --    2.46273   2.46273   2.50231   2.50231   2.50231
 Alpha virt. eigenvalues --    2.50231   2.50231   2.52685   2.52685   2.52685
 Alpha virt. eigenvalues --    2.52685   2.54742   2.54742   2.54742   2.54742
 Alpha virt. eigenvalues --    2.54925   2.54925   2.54925   2.55814   2.55814
 Alpha virt. eigenvalues --    2.55814   2.55814   2.55814   2.60171   2.60171
 Alpha virt. eigenvalues --    2.60171   2.65877   2.65877   2.65877   2.69438
 Alpha virt. eigenvalues --    2.69438   2.69438   2.69438   2.71170   2.71170
 Alpha virt. eigenvalues --    2.71170   2.71170   2.72029   2.72029   2.72029
 Alpha virt. eigenvalues --    2.72029   2.72029   2.73407   2.73407   2.73407
 Alpha virt. eigenvalues --    2.74257   2.74257   2.74257   2.76107   2.76958
 Alpha virt. eigenvalues --    2.76958   2.76958   2.76958   2.87284   2.87284
 Alpha virt. eigenvalues --    2.87284   2.87284   2.87284   2.91065   2.91065
 Alpha virt. eigenvalues --    2.91065   2.91065   2.91065   2.98617   2.98617
 Alpha virt. eigenvalues --    2.98617   2.98617   3.01495   3.01495   3.01495
 Alpha virt. eigenvalues --    3.01495   3.09068   3.09068   3.09068   3.17335
 Alpha virt. eigenvalues --    3.17335   3.17335   3.17335   3.17335   3.31032
 Alpha virt. eigenvalues --    3.31032   3.31032   3.31032   3.39199   3.39199
 Alpha virt. eigenvalues --    3.39199   3.49428   3.49428   3.49428   3.60298
          Condensed to atoms (all electrons):
 Mulliken charges:
               1
     1  C   -0.000000
     2  C   -0.000000
     3  C   -0.000000
     4  C   -0.000000
     5  C   -0.000000
     6  C   -0.000000
     7  C   -0.000000
     8  C   -0.000000
     9  C   -0.000000
    10  C   -0.000000
    11  C   -0.000000
    12  C   -0.000000
    13  C   -0.000000
    14  C   -0.000000
    15  C   -0.000000
    16  C   -0.000000
    17  C   -0.000000
    18  C   -0.000000
    19  C   -0.000000
    20  C   -0.000000
    21  C   -0.000000
    22  C   -0.000000
    23  C   -0.000000
    24  C   -0.000000
    25  C   -0.000000
    26  C   -0.000000
    27  C   -0.000000
    28  C   -0.000000
    29  C   -0.000000
    30  C   -0.000000
    31  C   -0.000000
    32  C   -0.000000
    33  C   -0.000000
    34  C   -0.000000
    35  C   -0.000000
    36  C   -0.000000
    37  C   -0.000000
    38  C   -0.000000
    39  C   -0.000000
    40  C   -0.000000
    41  C   -0.000000
    42  C   -0.000000
    43  C   -0.000000
    44  C   -0.000000
    45  C   -0.000000
    46  C   -0.000000
    47  C   -0.000000
    48  C   -0.000000
    49  C   -0.000000
    50  C   -0.000000
    51  C   -0.000000
    52  C   -0.000000
    53  C   -0.000000
    54  C   -0.000000
    55  C   -0.000000
    56  C   -0.000000
    57  C   -0.000000
    58  C   -0.000000
    59  C   -0.000000
    60  C   -0.000000
 Sum of Mulliken charges =  -0.00000
 Mulliken charges with hydrogens summed into heavy atoms:
               1
     1  C   -0.000000
     2  C   -0.000000
     3  C   -0.000000
     4  C   -0.000000
     5  C   -0.000000
     6  C   -0.000000
     7  C   -0.000000
     8  C   -0.000000
     9  C   -0.000000
    10  C   -0.000000
    11  C   -0.000000
    12  C   -0.000000
    13  C   -0.000000
    14  C   -0.000000
    15  C   -0.000000
    16  C   -0.000000
    17  C   -0.000000
    18  C   -0.000000
    19  C   -0.000000
    20  C   -0.000000
    21  C   -0.000000
    22  C   -0.000000
    23  C   -0.000000
    24  C   -0.000000
    25  C   -0.000000
    26  C   -0.000000
    27  C   -0.000000
    28  C   -0.000000
    29  C   -0.000000
    30  C   -0.000000
    31  C   -0.000000
    32  C   -0.000000
    33  C   -0.000000
    34  C   -0.000000
    35  C   -0.000000
    36  C   -0.000000
    37  C   -0.000000
    38  C   -0.000000
    39  C   -0.000000
    40  C   -0.000000
    41  C   -0.000000
    42  C   -0.000000
    43  C   -0.000000
    44  C   -0.000000
    45  C   -0.000000
    46  C   -0.000000
    47  C   -0.000000
    48  C   -0.000000
    49  C   -0.000000
    50  C   -0.000000
    51  C   -0.000000
    52  C   -0.000000
    53  C   -0.000000
    54  C   -0.000000
    55  C   -0.000000
    56  C   -0.000000
    57  C   -0.000000
    58  C   -0.000000
    59  C   -0.000000
    60  C   -0.000000
 Electronic spatial extent (au):  <R**2>=          17914.3639
 Charge=              0.0000 electrons
 Dipole moment (field-independent basis, Debye):
    X=             -0.0000    Y=             -0.0000    Z=              0.0000  Tot=              0.0000
 Quadrupole moment (field-independent basis, Debye-Ang):
   XX=           -346.2399   YY=           -346.2399   ZZ=           -346.2399
   XY=              0.0000   XZ=              0.0000   YZ=             -0.0000
 Traceless Quadrupole moment (field-independent basis, Debye-Ang):
   XX=              0.0000   YY=             -0.0000   ZZ=             -0.0000
   XY=              0.0000   XZ=              0.0000   YZ=             -0.0000
 Octapole moment (field-independent basis, Debye-Ang**2):
  XXX=             -0.0000  YYY=             -0.0000  ZZZ=             -0.0000  XYY=              0.0000
  XXY=              0.0000  XXZ=              0.0000  XZZ=             -0.0000  YZZ=              0.0000
  YYZ=             -0.0000  XYZ=              0.0000
 Hexadecapole moment (field-independent basis, Debye-Ang**3):
 XXXX=          -9687.0692 YYYY=          -9687.0692 ZZZZ=          -9687.0692 XXXY=             -0.0000
 XXXZ=             -0.0000 YYYX=             -0.0000 YYYZ=             -0.0000 ZZZX=             -0.0000
 ZZZY=              0.0000 XXYY=          -3229.0231 XXZZ=          -3229.0231 YYZZ=          -3229.0231
 XXYZ=              0.0000 YYXZ=             -0.0000 ZZXY=             -0.0000
 N-N= 8.096288734807D+03 E-N=-2.146834435764D+04  KE= 2.263560648533D+03
 Symmetry AG   KE= 6.077734406916D+02
 Symmetry BG   KE= 5.238386472979D+02
 Symmetry AU   KE= 5.298656179148D+02
 Symmetry BU   KE= 6.020829426286D+02
 No NMR shielding tensors so no spin-rotation constants.
 Leave Link  601 at Thu May  5 10:45:31 2022, MaxMem=  2684354560 cpu:              12.1 elap:               1.6
 (Enter /apps/software/g16/l9999.exe)
 1\1\GINC-CNODE12\SP\RHF\CC-pVDZ\C60\LCZ\05-May-2022\0\\#p RHF/cc-pVDZ 
 sym=loose\\C60 SP\\0,1\C,0,0.17823418,-0.42164323,0.09565119\C,0,1.718
 23511,-0.4215991,0.0955729\C,0,2.39581061,0.75205293,0.09551743\C,0,1.
 62577918,2.0857105,0.09554027\C,0,0.27057274,2.08567496,0.09560319\C,0
 ,-0.49939037,0.75197568,0.09566016\C,0,-0.29764057,-1.58554271,-0.7934
 3964\C,0,0.94824467,-2.3048235,-1.34298703\C,0,2.19411771,-1.5854695,-
 0.7935464\C,0,3.29047211,-1.43602853,-1.57600328\C,0,3.64167728,0.9218
 7162,-0.79363343\C,0,2.39573304,3.07979634,-0.7935988\C,0,1.71807245,3
 .95454959,-1.57601146\C,0,0.17807323,3.95450284,-1.57594943\C,0,-0.499
 48258,3.07971459,-0.79350035\C,0,-1.74536573,2.36036611,-1.34296092\C,
 0,-1.74530211,0.92174422,-0.79343253\C,0,-2.16407157,-0.10248057,-1.57
 583829\C,0,-1.39404387,-1.43614394,-1.5758419\C,0,0.94821837,-2.788408
 32,-2.60897537\C,0,-0.2977092,-2.61863957,-3.49806243\C,0,-1.39408517,
 -1.98566616,-3.01446536\C,0,-2.16414938,-0.99163127,-3.90356997\C,0,-2
 .64002792,0.17224245,-3.01444935\C,0,-2.64009316,1.43823148,-3.4980345
 4\C,0,-2.16420539,2.60212618,-2.60894011\C,0,-1.39425314,3.59619146,-3
 .49808944\C,0,-0.29787072,4.22921858,-3.01456765\C,0,3.6416249,2.36049
 587,-1.34314427\C,0,2.19382128,3.19618464,-5.71927447\C,0,3.29022186,3
 .04678758,-4.93687678\C,0,4.0602562,1.71312889,-4.93687731\C,0,3.64148
 891,0.68889917,-5.71927852\C,0,2.39556326,0.85866399,-6.60836629\C,0,0
 .17794164,2.03224124,-6.60829905\C,0,-0.29793775,3.19611649,-5.7191784
 8\C,0,0.94794358,3.91547025,-5.16973199\C,0,0.94798075,4.39904412,-3.9
 0374283\C,0,2.19389569,4.22928771,-3.01466412\C,0,3.29026522,3.5963075
 1,-3.49826617\C,0,4.5362192,1.43839705,-3.49826888\C,0,4.53628351,0.17
 240824,-3.014694\C,0,4.06040419,-0.99148381,-3.90378394\C,0,3.64156049
 ,-0.74972201,-5.16976724\C,0,2.39566533,-1.46907298,-5.71922364\C,0,1.
 62559666,-0.47504074,-6.60832906\C,0,0.27039476,-0.47507361,-6.6082766
 1\C,0,-0.4996295,0.85858503,-6.60825947\C,0,-1.39429089,3.04667285,-4.
 93671591\C,0,-2.16426181,1.71297411,-4.93667364\C,0,-1.74548392,0.6887
 6342,-5.71909678\C,0,-1.74542598,-0.74985794,-5.16957309\C,0,-0.499548
 52,-1.4691468,-5.71912001\C,0,0.17810642,-2.34389385,-4.93670439\C,0,1
 .71811031,-2.34386028,-4.93675859\C,0,2.19406394,-2.61858453,-3.498135
 56\C,0,3.29044415,-1.98556035,-3.01462044\C,0,4.06033885,2.60227132,-2
 .60915116\C,0,4.06045287,-0.10233677,-1.57605659\C,0,1.71793581,2.0322
 8443,-6.60835736\\Version=ES64L-G16RevA.03\State=1-AG\HF=-2271.6858963
 \RMSD=2.300e-09\Dipole=0.,0.,0.\Quadrupole=0.,0.,0.,0.,0.,0.\PG=IH [15
 SG(C4)]\\@


 ALL PAPERS THAT YOU SAVE WILL NEVER BE NEEDED UNTIL
 SUCH TIME AS THEY ARE DISPOSED OF, WHEN THEY BECOME
 ESSENTIAL.

           -- JOHN CORCORAN IN
              PAUL DICKSON'S "THE OFFICIAL RULES"
 Job cpu time:       0 days  0 hours  6 minutes  4.0 seconds.
 Elapsed time:       0 days  0 hours  0 minutes 45.9 seconds.
 File lengths (MBytes):  RWF=    390 Int=      0 D2E=      0 Chk=     43 Scr=      1
 Normal termination of Gaussian 16 at Thu May  5 10:45:32 2022.

Sender: Unischeduler System <lcz@mgt01>
Subject: Job 128318: <#!/bin/bash
#BSUB -J intel
#BSUB -o C60-sym.out
#BSUB -n 8
#BSUB -q cqueue
#BSUB -R span[hosts=1]
export g16root=/apps/software
source /apps/software/g16/bsd/g16.profile
export GAUSS_SCRDIR=/scratch
/apps/software/g16/g16 < C60-sym.inp > C60-sym.out> Done

Job <#!/bin/bash
#BSUB -J intel
#BSUB -o C60-sym.out
#BSUB -n 8
#BSUB -q cqueue
#BSUB -R span[hosts=1]
export g16root=/apps/software
source /apps/software/g16/bsd/g16.profile
export GAUSS_SCRDIR=/scratch
/apps/software/g16/g16 < C60-sym.inp > C60-sym.out> was submitted from host <mgt01> by user <lcz>.
Job was executed on host(s) <8*cnode12>, in queue <cqueue>, as user <lcz>.
</apps/users/lcz> was used as the home directory.
</apps/users/lcz/exe4/task2/Gaussian> was used as the working directory.
Started at 2022-05-05 10:44:45
Results reported at 2022-05-05 10:45:32

Your job looked like:

------------------------------------------------------------
# User input
#!/bin/bash
#BSUB -J intel
#BSUB -o C60-sym.out
#BSUB -n 8
#BSUB -q cqueue
#BSUB -R span[hosts=1]
export g16root=/apps/software
source /apps/software/g16/bsd/g16.profile
export GAUSS_SCRDIR=/scratch
/apps/software/g16/g16 < C60-sym.inp > C60-sym.out
------------------------------------------------------------

Successfully completed.

Resource usage summary:

    CPU time   :          358.51 sec.
    Max Memory :               967 MB
    Max Processes  :               5


The output (if any) follows:

