[Molden Format]
[N_ATOMS]
           19
[Atoms]  AU
Fe    1   26      -0.000272        0.000191       -0.000032
O     2    8       1.773088       -2.836754        1.792887
H     3    1       2.355630       -4.254928        0.768061
O     4    8       0.184755        2.379520        2.951405
H     5    1      -0.505332        2.018231        4.619702
O     6    8      -0.184219       -2.380438       -2.950324
H     7    1       0.507345       -2.021028       -4.618411
O     8    8      -1.772817        2.837516       -1.793184
H     9    1      -2.357245        4.254605       -0.767918
O    10    8      -3.206001       -1.668002        1.161061
H    11    1      -3.060515       -2.980189        2.448680
O    12    8       3.205716        1.667830       -1.161625
H    13    1       3.060058        2.982632       -2.446536
H    14    1      -4.782920       -0.773571        1.482553
H    15    1       1.768941        3.287445        3.210201
H    16    1       4.782019        0.773275       -1.485691
H    17    1       3.009930       -2.601345        3.136299
H    18    1      -1.767283       -3.290197       -3.209416
H    19    1      -3.007735        2.602739       -3.138462
[5D7F9G]
[GTO]
    1
    s    6
   0.609236406E+05   0.175522431E-02
   0.914788940E+04   0.134490232E-01
   0.208135059E+04   0.666788746E-01
   0.587559771E+03   0.231763486E+00
   0.191090440E+03   0.469455503E+00
   0.657327301E+02   0.359682494E+00
    s    3
   0.127258919E+03  -0.107234318E+00
   0.148309130E+02   0.629716163E+00
   0.606533074E+01   0.444723179E+00
    s    3
   0.104499437E+02  -0.216942892E+00
   0.172452280E+01   0.694578674E+00
   0.717721770E+00   0.432983089E+00
    s    1
   0.914498300E-01   0.100000000E+01
    s    1
   0.337066900E-01   0.100000000E+01
    p    5
   0.773437510E+03   0.914405298E-02
   0.182151497E+03   0.678875772E-01
   0.575472728E+02   0.261679789E+00
   0.206149889E+02   0.510880401E+00
   0.763485579E+01   0.332354756E+00
    p    3
   0.387193280E+01   0.331938591E+00
   0.149247241E+01   0.555366656E+00
   0.560612850E+00   0.231060342E+00
    p    1
   0.134915000E+00   0.100000000E+01
    d    4
   0.389681334E+02   0.333359386E-01
   0.108000671E+02   0.177662125E+00
   0.361364580E+01   0.441281782E+00
   0.121299679E+01   0.570892005E+00
    d    1
   0.365243930E+00   0.100000000E+01
    f    1
   0.159800000E+01   0.100000000E+01
 
    2
    s    5
   0.226617678E+04  -0.538935040E-02
   0.340870102E+03  -0.402347214E-01
   0.773631352E+02  -0.180081842E+00
   0.214796449E+02  -0.468288577E+00
   0.665894331E+01  -0.446926172E+00
    s    1
   0.809759760E+00   0.100000000E+01
    s    1
   0.255307720E+00   0.100000000E+01
    p    3
   0.177215043E+02   0.626302488E-01
   0.386355054E+01   0.333311385E+00
   0.104809209E+01   0.741486383E+00
    p    1
   0.276415440E+00   0.100000000E+01
    d    1
   0.120000000E+01   0.100000000E+01
 
    3
    s    3
   0.130107010E+02   0.334854848E-01
   0.196225720E+01   0.234721871E+00
   0.444537960E+00   0.813770285E+00
    s    1
   0.121949620E+00   0.100000000E+01
    p    1
   0.800000000E+00   0.100000000E+01
 
    4
    s    5
   0.226617678E+04  -0.538935040E-02
   0.340870102E+03  -0.402347214E-01
   0.773631352E+02  -0.180081842E+00
   0.214796449E+02  -0.468288577E+00
   0.665894331E+01  -0.446926172E+00
    s    1
   0.809759760E+00   0.100000000E+01
    s    1
   0.255307720E+00   0.100000000E+01
    p    3
   0.177215043E+02   0.626302488E-01
   0.386355054E+01   0.333311385E+00
   0.104809209E+01   0.741486383E+00
    p    1
   0.276415440E+00   0.100000000E+01
    d    1
   0.120000000E+01   0.100000000E+01
 
    5
    s    3
   0.130107010E+02   0.334854848E-01
   0.196225720E+01   0.234721871E+00
   0.444537960E+00   0.813770285E+00
    s    1
   0.121949620E+00   0.100000000E+01
    p    1
   0.800000000E+00   0.100000000E+01
 
    6
    s    5
   0.226617678E+04  -0.538935040E-02
   0.340870102E+03  -0.402347214E-01
   0.773631352E+02  -0.180081842E+00
   0.214796449E+02  -0.468288577E+00
   0.665894331E+01  -0.446926172E+00
    s    1
   0.809759760E+00   0.100000000E+01
    s    1
   0.255307720E+00   0.100000000E+01
    p    3
   0.177215043E+02   0.626302488E-01
   0.386355054E+01   0.333311385E+00
   0.104809209E+01   0.741486383E+00
    p    1
   0.276415440E+00   0.100000000E+01
    d    1
   0.120000000E+01   0.100000000E+01
 
    7
    s    3
   0.130107010E+02   0.334854848E-01
   0.196225720E+01   0.234721871E+00
   0.444537960E+00   0.813770285E+00
    s    1
   0.121949620E+00   0.100000000E+01
    p    1
   0.800000000E+00   0.100000000E+01
 
    8
    s    5
   0.226617678E+04  -0.538935040E-02
   0.340870102E+03  -0.402347214E-01
   0.773631352E+02  -0.180081842E+00
   0.214796449E+02  -0.468288577E+00
   0.665894331E+01  -0.446926172E+00
    s    1
   0.809759760E+00   0.100000000E+01
    s    1
   0.255307720E+00   0.100000000E+01
    p    3
   0.177215043E+02   0.626302488E-01
   0.386355054E+01   0.333311385E+00
   0.104809209E+01   0.741486383E+00
    p    1
   0.276415440E+00   0.100000000E+01
    d    1
   0.120000000E+01   0.100000000E+01
 
    9
    s    3
   0.130107010E+02   0.334854848E-01
   0.196225720E+01   0.234721871E+00
   0.444537960E+00   0.813770285E+00
    s    1
   0.121949620E+00   0.100000000E+01
    p    1
   0.800000000E+00   0.100000000E+01
 
   10
    s    5
   0.226617678E+04  -0.538935040E-02
   0.340870102E+03  -0.402347214E-01
   0.773631352E+02  -0.180081842E+00
   0.214796449E+02  -0.468288577E+00
   0.665894331E+01  -0.446926172E+00
    s    1
   0.809759760E+00   0.100000000E+01
    s    1
   0.255307720E+00   0.100000000E+01
    p    3
   0.177215043E+02   0.626302488E-01
   0.386355054E+01   0.333311385E+00
   0.104809209E+01   0.741486383E+00
    p    1
   0.276415440E+00   0.100000000E+01
    d    1
   0.120000000E+01   0.100000000E+01
 
   11
    s    3
   0.130107010E+02   0.334854848E-01
   0.196225720E+01   0.234721871E+00
   0.444537960E+00   0.813770285E+00
    s    1
   0.121949620E+00   0.100000000E+01
    p    1
   0.800000000E+00   0.100000000E+01
 
   12
    s    5
   0.226617678E+04  -0.538935040E-02
   0.340870102E+03  -0.402347214E-01
   0.773631352E+02  -0.180081842E+00
   0.214796449E+02  -0.468288577E+00
   0.665894331E+01  -0.446926172E+00
    s    1
   0.809759760E+00   0.100000000E+01
    s    1
   0.255307720E+00   0.100000000E+01
    p    3
   0.177215043E+02   0.626302488E-01
   0.386355054E+01   0.333311385E+00
   0.104809209E+01   0.741486383E+00
    p    1
   0.276415440E+00   0.100000000E+01
    d    1
   0.120000000E+01   0.100000000E+01
 
   13
    s    3
   0.130107010E+02   0.334854848E-01
   0.196225720E+01   0.234721871E+00
   0.444537960E+00   0.813770285E+00
    s    1
   0.121949620E+00   0.100000000E+01
    p    1
   0.800000000E+00   0.100000000E+01
 
   14
    s    3
   0.130107010E+02   0.334854848E-01
   0.196225720E+01   0.234721871E+00
   0.444537960E+00   0.813770285E+00
    s    1
   0.121949620E+00   0.100000000E+01
    p    1
   0.800000000E+00   0.100000000E+01
 
   15
    s    3
   0.130107010E+02   0.334854848E-01
   0.196225720E+01   0.234721871E+00
   0.444537960E+00   0.813770285E+00
    s    1
   0.121949620E+00   0.100000000E+01
    p    1
   0.800000000E+00   0.100000000E+01
 
   16
    s    3
   0.130107010E+02   0.334854848E-01
   0.196225720E+01   0.234721871E+00
   0.444537960E+00   0.813770285E+00
    s    1
   0.121949620E+00   0.100000000E+01
    p    1
   0.800000000E+00   0.100000000E+01
 
   17
    s    3
   0.130107010E+02   0.334854848E-01
   0.196225720E+01   0.234721871E+00
   0.444537960E+00   0.813770285E+00
    s    1
   0.121949620E+00   0.100000000E+01
    p    1
   0.800000000E+00   0.100000000E+01
 
   18
    s    3
   0.130107010E+02   0.334854848E-01
   0.196225720E+01   0.234721871E+00
   0.444537960E+00   0.813770285E+00
    s    1
   0.121949620E+00   0.100000000E+01
    p    1
   0.800000000E+00   0.100000000E+01
 
   19
    s    3
   0.130107010E+02   0.334854848E-01
   0.196225720E+01   0.234721871E+00
   0.444537960E+00   0.813770285E+00
    s    1
   0.121949620E+00   0.100000000E+01
    p    1
   0.800000000E+00   0.100000000E+01
 
[MO]
 Sym= A   
 Ene=      -261.616219
 Spin= Alpha
 Occup=       2.000000
   1        0.995425616
   2        0.014667746
   3       -0.003750051
   4        0.004918505
   5       -0.000486476
   6        0.000000035
   7       -0.000000024
   8        0.000000012
   9       -0.000000138
  10        0.000000105
  11       -0.000000042
  12        0.000001165
  13       -0.000001150
  14        0.000000273
  15        0.000018782
  16       -0.000000015
  17       -0.000000017
  18        0.000029072
  19       -0.000014441
  20       -0.000083657
  21        0.000000080
  22        0.000000145
  23       -0.000129597
  24        0.000064345
  25        0.000000017
  26        0.000000017
  27        0.000000010
  28        0.000000016
  29       -0.000000008
  30       -0.000000011
  31       -0.000000002
  32        0.000040815
  33        0.000452290
  34       -0.001232137
  35       -0.000057881
  36        0.000106513
  37       -0.000054117
  38        0.000322832
  39       -0.000615133
  40        0.000340153
  41       -0.000004396
  42       -0.000036866
  43        0.000018146
  44        0.000016796
  45        0.000027990
  46        0.000031436
  47       -0.000110319
  48       -0.000016075
  49        0.000041086
  50       -0.000044148
  51        0.000040800
  52        0.000452098
  53       -0.001231368
  54       -0.000014387
  55       -0.000089596
  56       -0.000096826
  57        0.000054890
  58        0.000526565
  59        0.000563386
  60       -0.000027725
  61        0.000016247
  62       -0.000037576
  63        0.000010713
  64       -0.000014571
  65        0.000068256
  66       -0.000123617
  67       -0.000008026
  68       -0.000057298
  69       -0.000039936
  70        0.000040801
  71        0.000452105
  72       -0.001231461
  73        0.000014328
  74        0.000089677
  75        0.000096747
  76       -0.000055072
  77       -0.000527091
  78       -0.000563360
  79       -0.000027747
  80        0.000016286
  81       -0.000037586
  82        0.000010725
  83       -0.000014545
  84        0.000068224
  85       -0.000123645
  86        0.000008088
  87        0.000057390
  88        0.000039934
  89        0.000040785
  90        0.000451869
  91       -0.001230484
  92        0.000057799
  93       -0.000106465
  94        0.000054093
  95       -0.000322449
  96        0.000614665
  97       -0.000339761
  98       -0.000004443
  99       -0.000036795
 100        0.000018131
 101        0.000016803
 102        0.000027997
 103        0.000031381
 104       -0.000110412
 105        0.000015986
 106       -0.000041016
 107        0.000044079
 108        0.000040794
 109        0.000452021
 110       -0.001231155
 111        0.000105540
 112        0.000068109
 113       -0.000042780
 114       -0.000627880
 115       -0.000391345
 116        0.000223699
 117        0.000032139
 118        0.000020508
 119        0.000019487
 120       -0.000027441
 121       -0.000013497
 122        0.000031768
 123       -0.000110531
 124        0.000057554
 125        0.000023849
 126        0.000000352
 127        0.000040810
 128        0.000452139
 129       -0.001231364
 130       -0.000105545
 131       -0.000068152
 132        0.000042844
 133        0.000627857
 134        0.000391859
 135       -0.000224184
 136        0.000032197
 137        0.000020583
 138        0.000019395
 139       -0.000027415
 140       -0.000013469
 141        0.000031360
 142       -0.000110486
 143       -0.000057676
 144       -0.000023739
 145       -0.000000419
 146        0.000068139
 147       -0.000123518
 148        0.000049416
 149        0.000047547
 150       -0.000015374
 151        0.000031563
 152       -0.000110380
 153        0.000016637
 154       -0.000041272
 155       -0.000043663
 156        0.000068222
 157       -0.000123457
 158       -0.000049472
 159       -0.000047594
 160        0.000015459
 161        0.000068419
 162       -0.000123651
 163       -0.000018043
 164        0.000063375
 165       -0.000024646
 166        0.000031149
 167       -0.000110342
 168       -0.000016826
 169        0.000041259
 170        0.000043679
 171        0.000068330
 172       -0.000123690
 173        0.000017968
 174       -0.000063345
 175        0.000024563
 Sym= A   
 Ene=       -32.181962
 Spin= Alpha
 Occup=       2.000000
   1       -0.335327481
   2        1.045210851
   3        0.015281220
   4       -0.007478513
   5        0.001008171
   6       -0.000000903
   7        0.000000901
   8        0.000000017
   9        0.000000173
  10       -0.000000110
  11        0.000000066
  12       -0.000001657
  13        0.000001571
  14       -0.000000427
  15        0.000104417
  16       -0.000000042
  17       -0.000000070
  18        0.000161128
  19       -0.000080055
  20        0.000170404
  21       -0.000000127
  22       -0.000000197
  23        0.000263570
  24       -0.000130901
  25       -0.000000016
  26       -0.000000018
  27       -0.000000010
  28       -0.000000014
  29        0.000000013
  30        0.000000015
  31        0.000000002
  32       -0.000049198
  33       -0.000609162
  34        0.001795880
  35        0.000058411
  36       -0.000127372
  37        0.000061800
  38       -0.000395945
  39        0.000792919
  40       -0.000431315
  41        0.000004414
  42        0.000051734
  43       -0.000016610
  44       -0.000017422
  45       -0.000038903
  46       -0.000065657
  47        0.000128254
  48        0.000010596
  49       -0.000049449
  50        0.000032561
  51       -0.000049170
  52       -0.000608855
  53        0.001794816
  54        0.000015073
  55        0.000110188
  56        0.000105180
  57       -0.000068343
  58       -0.000683984
  59       -0.000705466
  60        0.000041104
  61       -0.000019902
  62        0.000044867
  63       -0.000009632
  64        0.000024373
  65       -0.000141795
  66        0.000138231
  67       -0.000003313
  68        0.000055585
  69        0.000057569
  70       -0.000049168
  71       -0.000608875
  72        0.001795141
  73       -0.000015010
  74       -0.000110269
  75       -0.000105066
  76        0.000068587
  77        0.000684542
  78        0.000705361
  79        0.000041129
  80       -0.000019971
  81        0.000044898
  82       -0.000009633
  83        0.000024368
  84       -0.000141831
  85        0.000138250
  86        0.000003265
  87       -0.000055706
  88       -0.000057598
  89       -0.000049152
  90       -0.000608549
  91        0.001793549
  92       -0.000058293
  93        0.000127297
  94       -0.000061755
  95        0.000395442
  96       -0.000792246
  97        0.000430695
  98        0.000004495
  99        0.000051651
 100       -0.000016599
 101       -0.000017423
 102       -0.000038914
 103       -0.000065577
 104        0.000128424
 105       -0.000010497
 106        0.000049319
 107       -0.000032457
 108       -0.000049162
 109       -0.000608762
 110        0.001794520
 111       -0.000119194
 112       -0.000085639
 113        0.000043452
 114        0.000794683
 115        0.000512594
 116       -0.000274971
 117       -0.000039916
 118       -0.000031701
 119       -0.000028327
 120        0.000035724
 121        0.000010270
 122       -0.000066119
 123        0.000128621
 124       -0.000048197
 125       -0.000035644
 126        0.000002501
 127       -0.000049188
 128       -0.000608967
 129        0.001794941
 130        0.000119218
 131        0.000085699
 132       -0.000043545
 133       -0.000794640
 134       -0.000513337
 135        0.000275595
 136       -0.000040006
 137       -0.000031815
 138       -0.000028210
 139        0.000035679
 140        0.000010237
 141       -0.000065562
 142        0.000128529
 143        0.000048362
 144        0.000035543
 145       -0.000002377
 146       -0.000141586
 147        0.000138099
 148       -0.000068481
 149       -0.000038703
 150        0.000014929
 151       -0.000065808
 152        0.000128391
 153       -0.000006373
 154        0.000048463
 155        0.000034841
 156       -0.000141768
 157        0.000138000
 158        0.000068585
 159        0.000038758
 160       -0.000015091
 161       -0.000141919
 162        0.000138350
 163        0.000028708
 164       -0.000061478
 165        0.000042652
 166       -0.000065374
 167        0.000128247
 168        0.000006561
 169       -0.000048491
 170       -0.000034888
 171       -0.000141815
 172        0.000138367
 173       -0.000028594
 174        0.000061444
 175       -0.000042575
 Sym= A   
 Ene=       -27.671989
 Spin= Alpha
 Occup=       2.000000
   1       -0.000000201
   2        0.000000651
   3        0.000000289
   4       -0.000001319
   5       -0.000000040
   6       -0.226970029
   7       -0.967190190
   8       -0.000577032
   9       -0.004189832
  10       -0.017853745
  11       -0.000010387
  12        0.002325627
  13        0.009905816
  14        0.000003764
  15        0.000000008
  16       -0.000000087
  17        0.000000108
  18        0.000000004
  19        0.000000075
  20        0.000000479
  21        0.000000280
  22       -0.000000694
  23        0.000000206
  24       -0.000000136
  25        0.000526196
  26       -0.000112298
  27        0.000422083
  28       -0.000366535
  29        0.000182029
  30        0.000357075
  31        0.000347187
  32       -0.000042803
  33       -0.000631848
  34        0.002480660
  35        0.000158077
  36        0.000057986
  37        0.000065512
  38       -0.001511607
  39        0.000085436
  40       -0.001408938
  41        0.000011437
  42       -0.000001761
  43        0.000034268
  44       -0.000004342
  45       -0.000137827
  46       -0.000514611
  47        0.000315565
  48        0.000204836
  49       -0.000025476
  50       -0.000059883
  51        0.000042859
  52        0.000632696
  53       -0.002484160
  54        0.000007821
  55        0.000093045
  56       -0.000154566
  57       -0.000519348
  58       -0.000142472
  59        0.001996157
  60       -0.000028888
  61       -0.000041539
  62       -0.000084772
  63       -0.000083034
  64       -0.000060456
  65       -0.000565522
  66       -0.000131008
  67       -0.000059036
  68       -0.000029952
  69        0.000095165
  70       -0.000042852
  71       -0.000633147
  72        0.002487377
  73        0.000007939
  74        0.000092786
  75       -0.000154496
  76       -0.000520811
  77       -0.000140763
  78        0.001995665
  79        0.000028910
  80        0.000041557
  81        0.000084840
  82        0.000082865
  83        0.000060719
  84        0.000564708
  85        0.000131269
  86       -0.000058971
  87       -0.000029559
  88        0.000094964
  89        0.000042812
  90        0.000631813
  91       -0.002479815
  92        0.000158083
  93        0.000058019
  94        0.000065696
  95       -0.001511146
  96        0.000086745
  97       -0.001409815
  98       -0.000011309
  99        0.000001857
 100       -0.000034070
 101        0.000004181
 102        0.000137931
 103        0.000513944
 104       -0.000316568
 105        0.000204849
 106       -0.000024971
 107       -0.000059550
 108       -0.000042827
 109       -0.000631692
 110        0.002478698
 111       -0.000102588
 112        0.000119273
 113        0.000089179
 114        0.001854121
 115       -0.000701989
 116       -0.000588782
 117        0.000043402
 118       -0.000040060
 119       -0.000118690
 120        0.000050641
 121        0.000013185
 122       -0.000511704
 123        0.000316489
 124       -0.000044600
 125        0.000034345
 126        0.000207116
 127        0.000042805
 128        0.000631612
 129       -0.002478857
 130       -0.000102530
 131        0.000119264
 132        0.000089195
 133        0.001853602
 134       -0.000704229
 135       -0.000588602
 136       -0.000043196
 137        0.000039897
 138        0.000119022
 139       -0.000050252
 140       -0.000013073
 141        0.000513679
 142       -0.000315881
 143       -0.000044380
 144        0.000033385
 145        0.000207498
 146        0.000566978
 147        0.000130690
 148        0.000095492
 149       -0.000066504
 150       -0.000003182
 151        0.000513232
 152       -0.000316248
 153       -0.000144960
 154        0.000057042
 155       -0.000147404
 156       -0.000567388
 157       -0.000130432
 158        0.000095545
 159       -0.000066344
 160       -0.000003751
 161        0.000567010
 162        0.000130460
 163       -0.000065807
 164       -0.000028712
 165       -0.000091409
 166       -0.000514171
 167        0.000315794
 168       -0.000145059
 169        0.000056267
 170       -0.000147637
 171       -0.000567276
 172       -0.000130265
 173       -0.000065545
 174       -0.000028712
 175       -0.000091741
 Sym= A   
 Ene=       -27.671076
 Spin= Alpha
 Occup=       2.000000
   1       -0.000000301
   2        0.000000990
   3        0.000000737
   4       -0.000002725
   5       -0.000001607
   6        0.967241300
   7       -0.226977723
   8       -0.007298690
   9        0.017564519
  10       -0.004121688
  11       -0.000133479
  12       -0.006799819
  13        0.001595211
  14        0.000159478
  15        0.000000087
  16       -0.000000013
  17        0.000000068
  18        0.000000026
  19       -0.000000022
  20       -0.000000097
  21        0.000000108
  22       -0.000000304
  23       -0.000000145
  24        0.000000299
  25        0.000002101
  26        0.000140346
  27        0.000184030
  28        0.000339882
  29        0.000676208
  30        0.000178462
  31       -0.000360789
  32       -0.000021354
  33       -0.000501183
  34        0.002329354
  35       -0.000126560
  36       -0.000071023
  37        0.000067309
  38        0.000738872
  39        0.000724251
  40       -0.000543421
  41        0.000029452
  42        0.000056754
  43       -0.000013923
  44       -0.000042856
  45       -0.000000432
  46       -0.000415170
  47        0.000170891
  48       -0.000159707
  49       -0.000115257
  50       -0.000109231
  51        0.000007078
  52        0.000024711
  53        0.000040629
  54       -0.000172749
  55        0.000049652
  56       -0.000018469
  57        0.001454647
  58        0.000167652
  59        0.000200306
  60       -0.000099898
  61       -0.000012726
  62        0.000039177
  63        0.000031876
  64       -0.000006807
  65        0.000215067
  66       -0.000138373
  67       -0.000203232
  68        0.000037901
  69       -0.000115390
  70       -0.000007124
  71       -0.000025522
  72       -0.000037660
  73       -0.000172762
  74        0.000049495
  75       -0.000018689
  76        0.001454899
  77        0.000169468
  78        0.000201249
  79        0.000100055
  80        0.000012608
  81       -0.000039051
  82       -0.000031690
  83        0.000006727
  84       -0.000216082
  85        0.000138916
  86       -0.000202951
  87        0.000037750
  88       -0.000115809
  89        0.000021318
  90        0.000500644
  91       -0.002327305
  92       -0.000126706
  93       -0.000070971
  94        0.000067292
  95        0.000739499
  96        0.000723110
  97       -0.000543262
  98       -0.000029610
  99       -0.000056501
 100        0.000013855
 101        0.000042967
 102        0.000000555
 103        0.000416053
 104       -0.000170921
 105       -0.000159439
 106       -0.000115220
 107       -0.000109713
 108        0.000028438
 109        0.000526275
 110       -0.002290768
 111       -0.000046687
 112        0.000102657
 113       -0.000038353
 114       -0.000000666
 115       -0.001406205
 116        0.000542693
 117        0.000089438
 118        0.000085406
 119       -0.000027990
 120       -0.000043418
 121        0.000039752
 122       -0.000316290
 123       -0.000084715
 124       -0.000064452
 125        0.000014668
 126        0.000128756
 127       -0.000028506
 128       -0.000526818
 129        0.002291425
 130       -0.000046469
 131        0.000102684
 132       -0.000038521
 133       -0.000002380
 134       -0.001407176
 135        0.000543093
 136       -0.000089194
 137       -0.000085669
 138        0.000028249
 139        0.000043465
 140       -0.000039607
 141        0.000317012
 142        0.000085934
 143       -0.000064071
 144        0.000013995
 145        0.000128779
 146        0.000827285
 147       -0.000320619
 148        0.000160787
 149       -0.000079414
 150       -0.000090051
 151       -0.000732977
 152        0.000086544
 153        0.000140408
 154        0.000120493
 155       -0.000045259
 156       -0.000826635
 157        0.000320739
 158        0.000160711
 159       -0.000079001
 160       -0.000090658
 161       -0.000612335
 162        0.000182893
 163       -0.000024950
 164        0.000057641
 165        0.000226809
 166        0.000732716
 167       -0.000085222
 168        0.000140083
 169        0.000120937
 170       -0.000044949
 171        0.000611361
 172       -0.000182006
 173       -0.000025589
 174        0.000057424
 175        0.000226831
 Sym= A   
 Ene=       -27.671074
 Spin= Alpha
 Occup=       2.000000
   1        0.000000022
   2       -0.000000054
   3        0.000000222
   4       -0.000000597
   5       -0.000001847
   6        0.006973849
   7       -0.002229136
   8        0.993516229
   9        0.000127521
  10       -0.000040978
  11        0.018041230
  12       -0.000154155
  13        0.000043287
  14       -0.006980918
  15        0.000000070
  16       -0.000000008
  17        0.000000125
  18       -0.000000057
  19        0.000000041
  20       -0.000000450
  21       -0.000000346
  22       -0.000000210
  23       -0.000000061
  24       -0.000000178
  25        0.000234122
  26       -0.000137939
  27       -0.000580901
  28        0.000387943
  29        0.000105622
  30        0.000293056
  31        0.000359730
  32       -0.000020565
  33       -0.000318778
  34        0.001301046
  35        0.000048336
  36       -0.000058978
  37       -0.000129826
  38       -0.000414049
  39        0.001203932
  40        0.000944760
  41       -0.000039622
  42        0.000122921
  43       -0.000016622
  44        0.000049299
  45        0.000007363
  46        0.000605300
  47        0.000000407
  48       -0.000069599
  49        0.000105763
  50        0.000071674
  51       -0.000028675
  52       -0.000592099
  53        0.002663212
  54       -0.000000001
  55        0.000111059
  56       -0.000057730
  57       -0.000230947
  58       -0.001276024
  59        0.000126845
  60        0.000075331
  61       -0.000064355
  62        0.000014625
  63       -0.000044666
  64        0.000028831
  65       -0.000831227
  66        0.000290690
  67       -0.000137937
  68       -0.000021255
  69        0.000160100
  70        0.000028640
  71        0.000591670
  72       -0.002662393
  73       -0.000000146
  74        0.000111125
  75       -0.000057955
  76       -0.000230432
  77       -0.001275488
  78        0.000128764
  79       -0.000075180
  80        0.000064626
  81       -0.000014708
  82        0.000044489
  83       -0.000028807
  84        0.000831297
  85       -0.000289836
  86       -0.000138288
  87       -0.000020822
  88        0.000160104
  89        0.000020563
  90        0.000318904
  91       -0.001301825
  92        0.000048305
  93       -0.000059030
  94       -0.000129811
  95       -0.000413952
  96        0.001203722
  97        0.000945641
  98        0.000039307
  99       -0.000123217
 100        0.000016609
 101       -0.000049098
 102       -0.000007433
 103       -0.000605521
 104        0.000000831
 105       -0.000070001
 106        0.000105455
 107        0.000071666
 108       -0.000008247
 109       -0.000275071
 110        0.001368063
 111       -0.000058247
 112       -0.000049686
 113       -0.000167914
 114        0.000449217
 115        0.000118279
 116        0.001180160
 117       -0.000031479
 118        0.000055647
 119       -0.000037784
 120        0.000001598
 121        0.000023055
 122       -0.000664173
 123        0.000149607
 124        0.000103005
 125       -0.000200625
 126        0.000009391
 127        0.000008233
 128        0.000275052
 129       -0.001368693
 130       -0.000058209
 131       -0.000049599
 132       -0.000167939
 133        0.000448408
 134        0.000118306
 135        0.001179562
 136        0.000031962
 137       -0.000055529
 138        0.000037664
 139       -0.000001629
 140       -0.000022875
 141        0.000662891
 142       -0.000148199
 143        0.000102735
 144       -0.000200901
 145        0.000008557
 146       -0.000227715
 147        0.000025436
 148       -0.000093420
 149        0.000056903
 150       -0.000221077
 151       -0.000056368
 152        0.000147811
 153       -0.000007796
 154        0.000089235
 155       -0.000166468
 156        0.000229016
 157       -0.000024820
 158       -0.000093992
 159        0.000057375
 160       -0.000220724
 161       -0.000600311
 162        0.000265625
 163        0.000211088
 164       -0.000031145
 165       -0.000009163
 166        0.000056361
 167       -0.000146774
 168       -0.000007732
 169        0.000089357
 170       -0.000166486
 171        0.000601594
 172       -0.000265686
 173        0.000211165
 174       -0.000031114
 175       -0.000008600
 Sym= A   
 Ene=       -20.909950
 Spin= Alpha
 Occup=       2.000000
   1       -0.000042221
   2        0.000074397
   3       -0.000769821
   4        0.004538818
   5       -0.000525960
   6       -0.000047769
   7        0.000018320
   8        0.000054419
   9        0.000195989
  10       -0.000073670
  11       -0.000228618
  12       -0.003715370
  13        0.001319617
  14        0.004769251