 Entering Gaussian System, Link 0=/apps/software/g16/g16
 Initial command:
 /apps/software/g16/l1.exe "/scratch/Gau-119127.inp" -scrdir="/scratch/"
 Entering Link 1 = /apps/software/g16/l1.exe PID=    119128.
  
 Copyright (c) 1988,1990,1992,1993,1995,1998,2003,2009,2016,
            Gaussian, Inc.  All Rights Reserved.
  
 This is part of the Gaussian(R) 16 program.  It is based on
 the Gaussian(R) 09 system (copyright 2009, Gaussian, Inc.),
 the Gaussian(R) 03 system (copyright 2003, Gaussian, Inc.),
 the Gaussian(R) 98 system (copyright 1998, Gaussian, Inc.),
 the Gaussian(R) 94 system (copyright 1995, Gaussian, Inc.),
 the Gaussian 92(TM) system (copyright 1992, Gaussian, Inc.),
 the Gaussian 90(TM) system (copyright 1990, Gaussian, Inc.),
 the Gaussian 88(TM) system (copyright 1988, Gaussian, Inc.),
 the Gaussian 86(TM) system (copyright 1986, Carnegie Mellon
 University), and the Gaussian 82(TM) system (copyright 1983,
 Carnegie Mellon University). Gaussian is a federally registered
 trademark of Gaussian, Inc.
  
 This software contains proprietary and confidential information,
 including trade secrets, belonging to Gaussian, Inc.
  
 This software is provided under written license and may be
 used, copied, transmitted, or stored only in accord with that
 written license.
  
 The following legend is applicable only to US Government
 contracts under FAR:
  
                    RESTRICTED RIGHTS LEGEND
  
 Use, reproduction and disclosure by the US Government is
 subject to restrictions as set forth in subparagraphs (a)
 and (c) of the Commercial Computer Software - Restricted
 Rights clause in FAR 52.227-19.
  
 Gaussian, Inc.
 340 Quinnipiac St., Bldg. 40, Wallingford CT 06492
  
  
 ---------------------------------------------------------------
 Warning -- This program may not be used in any manner that
 competes with the business of Gaussian, Inc. or will provide
 assistance to any competitor of Gaussian, Inc.  The licensee
 of this program is prohibited from giving any competitor of
 Gaussian, Inc. access to this program.  By using this program,
 the user acknowledges that Gaussian, Inc. is engaged in the
 business of creating and licensing software in the field of
 computational chemistry and represents and warrants to the
 licensee that it is not a competitor of Gaussian, Inc. and that
 it will not use this program in any manner prohibited above.
 ---------------------------------------------------------------
  

 Cite this work as:
 Gaussian 16, Revision A.03,
 M. J. Frisch, G. W. Trucks, H. B. Schlegel, G. E. Scuseria, 
 M. A. Robb, J. R. Cheeseman, G. Scalmani, V. Barone, 
 G. A. Petersson, H. Nakatsuji, X. Li, M. Caricato, A. V. Marenich, 
 J. Bloino, B. G. Janesko, R. Gomperts, B. Mennucci, H. P. Hratchian, 
 J. V. Ortiz, A. F. Izmaylov, J. L. Sonnenberg, D. Williams-Young, 
 F. Ding, F. Lipparini, F. Egidi, J. Goings, B. Peng, A. Petrone, 
 T. Henderson, D. Ranasinghe, V. G. Zakrzewski, J. Gao, N. Rega, 
 G. Zheng, W. Liang, M. Hada, M. Ehara, K. Toyota, R. Fukuda, 
 J. Hasegawa, M. Ishida, T. Nakajima, Y. Honda, O. Kitao, H. Nakai, 
 T. Vreven, K. Throssell, J. A. Montgomery, Jr., J. E. Peralta, 
 F. Ogliaro, M. J. Bearpark, J. J. Heyd, E. N. Brothers, K. N. Kudin, 
 V. N. Staroverov, T. A. Keith, R. Kobayashi, J. Normand, 
 K. Raghavachari, A. P. Rendell, J. C. Burant, S. S. Iyengar, 
 J. Tomasi, M. Cossi, J. M. Millam, M. Klene, C. Adamo, R. Cammi, 
 J. W. Ochterski, R. L. Martin, K. Morokuma, O. Farkas, 
 J. B. Foresman, and D. J. Fox, Gaussian, Inc., Wallingford CT, 2016.
 
 ******************************************
 Gaussian 16:  ES64L-G16RevA.03 25-Dec-2016
                14-May-2022 
 ******************************************
 %nprocshared=16
 Will use up to   16 processors via shared memory.
 --------------------------------------
 # Opt(MaxCycle=500) Freq B3lyp/Def2SVP
 --------------------------------------
 1/6=500,18=20,19=15,26=3,38=1/1,3;
 2/9=110,12=2,17=6,18=5,40=1/2;
 3/5=43,7=101,11=2,25=1,30=1,71=1,74=-5/1,2,3;
 4//1;
 5/5=2,38=5/2;
 6/7=2,8=2,9=2,10=2,28=1/1;
 7//1,2,3,16;
 1/6=500,18=20,19=15,26=3/3(2);
 2/9=110/2;
 99//99;
 2/9=110/2;
 3/5=43,7=101,11=2,25=1,30=1,71=1,74=-5/1,2,3;
 4/5=5,16=3,69=1/1;
 5/5=2,38=5/2;
 7//1,2,3,16;
 1/6=500,18=20,19=15,26=3/3(-5);
 2/9=110/2;
 6/7=2,8=2,9=2,10=2,19=2,28=1/1;
 99/9=1/99;
 ------------------
 [Fe(H2O)6]2+ B3LYP
 ------------------
 Symbolic Z-matrix:
 Charge =  2 Multiplicity = 1
 Fe                    6.20397   1.03715   0.17097 
 O                     8.02344   0.99563   0.15636 
 O                     6.24694  -0.78162   0.11972 
 O                     6.22608   1.15774  -1.6449 
 O                     4.3844    1.01817   0.2057 
 O                     6.16558   2.85627   0.21242 
 O                     6.16851   1.06001   1.99048 
 H                     4.06546   1.78649   0.68482 
 H                     4.08102   0.21944   0.64342 
 H                     6.97846   3.18467   0.60355 
 H                     5.41693   3.14866   0.73743 
 H                     6.90727   0.55048   2.33137 
 H                     5.34491   0.67544   2.29934 
 H                     8.36475   1.75961   0.62692 
 H                     8.32866   0.1929    0.5854 
 H                     7.07411  -1.09286   0.4946 
 H                     5.51267  -1.13352   0.62827 
 H                     6.97521   0.66594  -1.98917 
 H                     5.41263   0.79177  -1.99983 
 

 GradGradGradGradGradGradGradGradGradGradGradGradGradGradGradGradGradGrad
 Berny optimization.
 Initialization pass.
                           ----------------------------
                           !    Initial Parameters    !
                           ! (Angstroms and Degrees)  !
 --------------------------                            --------------------------
 ! Name  Definition              Value          Derivative Info.                !
 --------------------------------------------------------------------------------
 ! R1    R(1,2)                  1.82           estimate D2E/DX2                !
 ! R2    R(1,3)                  1.82           estimate D2E/DX2                !
 ! R3    R(1,4)                  1.82           estimate D2E/DX2                !
 ! R4    R(1,5)                  1.82           estimate D2E/DX2                !
 ! R5    R(1,6)                  1.82           estimate D2E/DX2                !
 ! R6    R(1,7)                  1.82           estimate D2E/DX2                !
 ! R7    R(2,14)                 0.96           estimate D2E/DX2                !
 ! R8    R(2,15)                 0.96           estimate D2E/DX2                !
 ! R9    R(3,16)                 0.96           estimate D2E/DX2                !
 ! R10   R(3,17)                 0.96           estimate D2E/DX2                !
 ! R11   R(4,18)                 0.96           estimate D2E/DX2                !
 ! R12   R(4,19)                 0.96           estimate D2E/DX2                !
 ! R13   R(5,8)                  0.96           estimate D2E/DX2                !
 ! R14   R(5,9)                  0.96           estimate D2E/DX2                !
 ! R15   R(6,10)                 0.96           estimate D2E/DX2                !
 ! R16   R(6,11)                 0.96           estimate D2E/DX2                !
 ! R17   R(7,12)                 0.96           estimate D2E/DX2                !
 ! R18   R(7,13)                 0.96           estimate D2E/DX2                !
 ! A1    A(2,1,3)               87.3274         estimate D2E/DX2                !
 ! A2    A(2,1,4)               88.932          estimate D2E/DX2                !
 ! A3    A(2,1,6)               92.5261         estimate D2E/DX2                !
 ! A4    A(2,1,7)               91.5927         estimate D2E/DX2                !
 ! A5    A(3,1,4)               92.1684         estimate D2E/DX2                !
 ! A6    A(3,1,5)               90.7862         estimate D2E/DX2                !
 ! A7    A(3,1,7)               92.3591         estimate D2E/DX2                !
 ! A8    A(4,1,5)               91.8267         estimate D2E/DX2                !
 ! A9    A(4,1,6)               87.5214         estimate D2E/DX2                !
 ! A10   A(5,1,6)               89.364          estimate D2E/DX2                !
 ! A11   A(5,1,7)               87.7975         estimate D2E/DX2                !
 ! A12   A(6,1,7)               87.9518         estimate D2E/DX2                !
 ! A13   A(1,2,14)             109.4712         estimate D2E/DX2                !
 ! A14   A(1,2,15)             109.4712         estimate D2E/DX2                !
 ! A15   A(14,2,15)            109.4712         estimate D2E/DX2                !
 ! A16   A(1,3,16)             109.4712         estimate D2E/DX2                !
 ! A17   A(1,3,17)             109.4712         estimate D2E/DX2                !
 ! A18   A(16,3,17)            109.4712         estimate D2E/DX2                !
 ! A19   A(1,4,18)             109.4712         estimate D2E/DX2                !
 ! A20   A(1,4,19)             109.4712         estimate D2E/DX2                !
 ! A21   A(18,4,19)            109.4712         estimate D2E/DX2                !
 ! A22   A(1,5,8)              109.4712         estimate D2E/DX2                !
 ! A23   A(1,5,9)              109.4712         estimate D2E/DX2                !
 ! A24   A(8,5,9)              109.4712         estimate D2E/DX2                !
 ! A25   A(1,6,10)             109.4712         estimate D2E/DX2                !
 ! A26   A(1,6,11)             109.4712         estimate D2E/DX2                !
 ! A27   A(10,6,11)            109.4712         estimate D2E/DX2                !
 ! A28   A(1,7,12)             109.4712         estimate D2E/DX2                !
 ! A29   A(1,7,13)             109.4712         estimate D2E/DX2                !
 ! A30   A(12,7,13)            109.4712         estimate D2E/DX2                !
 ! A31   L(2,1,5,3,-1)         178.1136         estimate D2E/DX2                !
 ! A32   L(3,1,6,2,-1)         179.8535         estimate D2E/DX2                !
 ! A33   L(4,1,7,2,-1)         180.5246         estimate D2E/DX2                !
 ! A34   L(2,1,5,3,-2)         179.3133         estimate D2E/DX2                !
 ! A35   L(3,1,6,2,-2)         179.6925         estimate D2E/DX2                !
 ! A36   L(4,1,7,2,-2)         175.4907         estimate D2E/DX2                !
 ! D1    D(3,1,2,14)          -150.0759         estimate D2E/DX2                !
 ! D2    D(3,1,2,15)           -30.0759         estimate D2E/DX2                !
 ! D3    D(4,1,2,14)           117.7031         estimate D2E/DX2                !
 ! D4    D(4,1,2,15)          -122.2969         estimate D2E/DX2                !
 ! D5    D(6,1,2,14)            30.2316         estimate D2E/DX2                !
 ! D6    D(6,1,2,15)           150.2316         estimate D2E/DX2                !
 ! D7    D(7,1,2,14)           -57.7877         estimate D2E/DX2                !
 ! D8    D(7,1,2,15)            62.2123         estimate D2E/DX2                !
 ! D9    D(14,2,5,8)             0.0301         estimate D2E/DX2                !
 ! D10   D(14,2,5,9)          -119.7534         estimate D2E/DX2                !
 ! D11   D(15,2,5,8)           119.8133         estimate D2E/DX2                !
 ! D12   D(15,2,5,9)             0.0298         estimate D2E/DX2                !
 ! D13   D(2,1,3,16)            25.4921         estimate D2E/DX2                !
 ! D14   D(2,1,3,17)           145.4921         estimate D2E/DX2                !
 ! D15   D(4,1,3,16)           114.3208         estimate D2E/DX2                !
 ! D16   D(4,1,3,17)          -125.6792         estimate D2E/DX2                !
 ! D17   D(5,1,3,16)          -153.8213         estimate D2E/DX2                !
 ! D18   D(5,1,3,17)           -33.8213         estimate D2E/DX2                !
 ! D19   D(7,1,3,16)           -65.9935         estimate D2E/DX2                !
 ! D20   D(7,1,3,17)            54.0065         estimate D2E/DX2                !
 ! D21   D(16,3,6,10)            0.0036         estimate D2E/DX2                !
 ! D22   D(16,3,6,11)         -120.0868         estimate D2E/DX2                !
 ! D23   D(17,3,6,10)          120.094          estimate D2E/DX2                !
 ! D24   D(17,3,6,11)            0.0036         estimate D2E/DX2                !
 ! D25   D(2,1,4,18)            33.2326         estimate D2E/DX2                !
 ! D26   D(2,1,4,19)           153.2326         estimate D2E/DX2                !
 ! D27   D(3,1,4,18)           -54.0519         estimate D2E/DX2                !
 ! D28   D(3,1,4,19)            65.9481         estimate D2E/DX2                !
 ! D29   D(5,1,4,18)          -144.9083         estimate D2E/DX2                !
 ! D30   D(5,1,4,19)           -24.9083         estimate D2E/DX2                !
 ! D31   D(6,1,4,18)           125.8078         estimate D2E/DX2                !
 ! D32   D(6,1,4,19)          -114.1922         estimate D2E/DX2                !
 ! D33   D(18,4,7,12)            0.0534         estimate D2E/DX2                !
 ! D34   D(18,4,7,13)         -121.3616         estimate D2E/DX2                !
 ! D35   D(19,4,7,12)          121.4682         estimate D2E/DX2                !
 ! D36   D(19,4,7,13)            0.0531         estimate D2E/DX2                !
 ! D37   D(3,1,5,8)            150.0851         estimate D2E/DX2                !
 ! D38   D(3,1,5,9)             30.0851         estimate D2E/DX2                !
 ! D39   D(4,1,5,8)           -117.7201         estimate D2E/DX2                !
 ! D40   D(4,1,5,9)            122.2799         estimate D2E/DX2                !
 ! D41   D(6,1,5,8)            -30.2204         estimate D2E/DX2                !
 ! D42   D(6,1,5,9)           -150.2204         estimate D2E/DX2                !
 ! D43   D(7,1,5,8)             57.7543         estimate D2E/DX2                !
 ! D44   D(7,1,5,9)            -62.2457         estimate D2E/DX2                !
 ! D45   D(2,1,6,10)           -25.5024         estimate D2E/DX2                !
 ! D46   D(2,1,6,11)          -145.5024         estimate D2E/DX2                !
 ! D47   D(4,1,6,10)          -114.3229         estimate D2E/DX2                !
 ! D48   D(4,1,6,11)           125.6771         estimate D2E/DX2                !
 ! D49   D(5,1,6,10)           153.8211         estimate D2E/DX2                !
 ! D50   D(5,1,6,11)            33.8211         estimate D2E/DX2                !
 ! D51   D(7,1,6,10)            66.0024         estimate D2E/DX2                !
 ! D52   D(7,1,6,11)           -53.9976         estimate D2E/DX2                !
 ! D53   D(2,1,7,12)           -33.2844         estimate D2E/DX2                !
 ! D54   D(2,1,7,13)          -153.2844         estimate D2E/DX2                !
 ! D55   D(3,1,7,12)            54.1054         estimate D2E/DX2                !
 ! D56   D(3,1,7,13)           -65.8946         estimate D2E/DX2                !
 ! D57   D(5,1,7,12)           144.802          estimate D2E/DX2                !
 ! D58   D(5,1,7,13)            24.802          estimate D2E/DX2                !
 ! D59   D(6,1,7,12)          -125.7561         estimate D2E/DX2                !
 ! D60   D(6,1,7,13)           114.2439         estimate D2E/DX2                !
 --------------------------------------------------------------------------------
 Trust Radius=3.00D-01 FncErr=1.00D-07 GrdErr=1.00D-06 EigMax=2.50D+02 EigMin=1.00D-04
 Number of steps in this run=    114 maximum allowed number of steps=    114.
 GradGradGradGradGradGradGradGradGradGradGradGradGradGradGradGradGradGrad

                          Input orientation:                          
 ---------------------------------------------------------------------
 Center     Atomic      Atomic             Coordinates (Angstroms)
 Number     Number       Type             X           Y           Z
 ---------------------------------------------------------------------
      1         26           0        6.203972    1.037146    0.170968
      2          8           0        8.023440    0.995626    0.156356
      3          8           0        6.246944   -0.781624    0.119724
      4          8           0        6.226075    1.157740   -1.644898
      5          8           0        4.384402    1.018165    0.205705
      6          8           0        6.165579    2.856269    0.212425
      7          8           0        6.168506    1.060011    1.990478
      8          1           0        4.065459    1.786488    0.684823
      9          1           0        4.081015    0.219439    0.643417
     10          1           0        6.978462    3.184666    0.603547
     11          1           0        5.416932    3.148658    0.737435
     12          1           0        6.907270    0.550479    2.331367
     13          1           0        5.344913    0.675438    2.299344
     14          1           0        8.364747    1.759612    0.626924
     15          1           0        8.328661    0.192904    0.585399
     16          1           0        7.074109   -1.092859    0.494599
     17          1           0        5.512674   -1.133518    0.628269
     18          1           0        6.975214    0.665940   -1.989169
     19          1           0        5.412635    0.791767   -1.999833
 ---------------------------------------------------------------------
                    Distance matrix (angstroms):
                    1          2          3          4          5
     1  Fe   0.000000
     2  O    1.820000   0.000000
     3  O    1.820000   2.513145   0.000000
     4  O    1.820000   2.549768   2.622110   0.000000
     5  O    1.820000   3.639442   2.591466   2.614569   0.000000
     6  O    1.820000   2.629977   3.639984   2.517600   2.559543
     7  O    1.820000   2.609393   2.626309   3.637146   2.523924
     8  H    2.323532   4.070670   3.416639   3.239010   0.960000
     9  H    2.323532   4.047519   2.442874   3.273848   0.960000
    10  H    2.323532   2.466547   4.062101   3.119298   3.403109
    11  H    2.323532   3.430318   4.064186   3.208423   2.426490
    12  H    2.323532   2.484888   2.664939   4.079642   3.331971
    13  H    2.323532   3.445203   2.772622   4.070148   2.328812
    14  H    2.323532   0.960000   3.346673   3.177631   4.070664
    15  H    2.323532   0.960000   2.345230   3.213409   4.047517
    16  H    2.323532   2.318924   0.960000   3.218976   3.431385
    17  H    2.323532   3.325643   0.960000   3.305464   2.466029
    18  H    2.323532   2.410549   2.659558   0.960000   3.413772
    19  H    2.323532   3.392198   2.768421   0.960000   2.443955
                    6          7          8          9         10
     6  O    0.000000
     7  O    2.527454   0.000000
     8  H    2.403767   2.579789   0.000000
     9  H    3.388810   2.622738   1.567673   0.000000
    10  H    0.960000   2.663412   3.232197   4.146005   0.000000
    11  H    0.960000   2.549005   1.919572   3.220844   1.567673
    12  H    3.218181   0.960000   3.509233   3.308546   3.151090
    13  H    3.128058   0.960000   2.340537   2.132479   3.440993
    14  H    2.492148   2.678096   4.299762   4.552226   1.988242
    15  H    3.451310   2.718895   4.552393   4.248125   3.282377
    16  H    4.062101   2.773558   4.168789   3.271526   4.279981
    17  H    4.064186   2.664075   3.259458   1.969865   4.560247
    18  H    3.209372   4.079665   4.107620   3.937799   3.614716
    19  H    3.118201   4.070120   3.164132   3.014555   3.867217
                   11         12         13         14         15
    11  H    0.000000
    12  H    3.392972   0.000000
    13  H    2.926015   1.567673   0.000000
    14  H    3.260563   2.547817   3.618262   0.000000
    15  H    4.151838   2.279609   3.474651   1.567673   0.000000
    16  H    4.560228   2.470246   3.061715   3.133664   1.798703
    17  H    4.284637   2.771513   2.468391   4.062576   3.113039
    18  H    4.003312   4.322613   4.587953   3.157667   2.946860
    19  H    3.612145   4.588186   4.301283   4.068358   3.942749
                   16         17         18         19
    16  H    0.000000
    17  H    1.567673   0.000000
    18  H    3.045038   3.496863   0.000000
    19  H    3.540410   3.259394   1.567673   0.000000
 Stoichiometry    FeH12O6(2+)
 Framework group  C1[X(FeH12O6)]
 Deg. of freedom    51
 Full point group                 C1      NOp   1
 Largest Abelian subgroup         C1      NOp   1
 Largest concise Abelian subgroup C1      NOp   1
                         Standard orientation:                         
 ---------------------------------------------------------------------
 Center     Atomic      Atomic             Coordinates (Angstroms)
 Number     Number       Type             X           Y           Z
 ---------------------------------------------------------------------
      1         26           0        0.010146   -0.033639    0.027691
      2          8           0        1.539344   -0.374401   -0.898502
      3          8           0        0.867758    1.400282    0.749336
      4          8           0        0.602850   -1.139176    1.346361
      5          8           0       -1.499338    0.367194    0.962139
      6          8           0       -0.840449   -1.474176   -0.689069
      7          8           0       -0.658320    0.960583   -1.342373
      8          1           0       -2.268708    0.074824    0.467984
      9          1           0       -1.548508    1.316127    1.098919
     10          1           0       -0.448150   -1.687237   -1.538955
     11          1           0       -1.770828   -1.269781   -0.808302
     12          1           0        0.060569    1.412336   -1.790388
     13          1           0       -1.276624    1.608088   -0.995908
     14          1           0        1.321268   -0.800900   -1.730453
     15          1           0        1.998620    0.450457   -1.072501
     16          1           0        1.560364    1.692654    0.152330
     17          1           0        0.239897    2.113732    0.884901
     18          1           0        1.559343   -1.082512    1.405608
     19          1           0        0.214198   -0.875614    2.183669
 ---------------------------------------------------------------------
 Rotational constants (GHZ):           2.0241394           1.9746986           1.9394519
 Standard basis: def2SVP (5D, 7F)
 There are   186 symmetry adapted cartesian basis functions of A   symmetry.
 There are   175 symmetry adapted basis functions of A   symmetry.
   175 basis functions,   315 primitive gaussians,   186 cartesian basis functions
    42 alpha electrons       42 beta electrons
       nuclear repulsion energy       767.8155054721 Hartrees.
 NAtoms=   19 NActive=   19 NUniq=   19 SFac= 1.00D+00 NAtFMM=   60 NAOKFM=F Big=F
 Integral buffers will be    131072 words long.
 Raffenetti 2 integral format.
 Two-electron integral symmetry is turned on.
 One-electron integrals computed using PRISM.
 PrsmSu:  requested number of processors reduced to:  13 ShMem   1 Linda.
   1 Symmetry operations used in ECPInt.
 ECPInt:  NShTT=    3486 NPrTT=   13195 LenC2=    3466 LenP2D=   10866.
 LDataN:  DoStor=T MaxTD1= 6 Len=  172
 NBasis=   175 RedAO= T EigKep=  6.97D-03  NBF=   175
 NBsUse=   175 1.00D-06 EigRej= -1.00D+00 NBFU=   175
 ExpMin= 3.37D-02 ExpMax= 6.09D+04 ExpMxC= 9.15D+03 IAcc=3 IRadAn=         5 AccDes= 0.00D+00
 Harris functional with IExCor=  402 and IRadAn=       5 diagonalized for initial guess.
 HarFok:  IExCor=  402 AccDes= 0.00D+00 IRadAn=         5 IDoV= 1 UseB2=F ITyADJ=14
 ICtDFT=  3500011 ScaDFX=  1.000000  1.000000  1.000000  1.000000
 FoFCou: FMM=F IPFlag=           0 FMFlag=      100000 FMFlg1=           0
         NFxFlg=           0 DoJE=T BraDBF=F KetDBF=T FulRan=T
         wScrn=  0.000000 ICntrl=       500 IOpCl=  0 I1Cent=   200000004 NGrid=           0
         NMat0=    1 NMatS0=      1 NMatT0=    0 NMatD0=    1 NMtDS0=    0 NMtDT0=    0
 Petite list used in FoFCou.
 Requested convergence on RMS density matrix=1.00D-08 within 128 cycles.
 Requested convergence on MAX density matrix=1.00D-06.
 Requested convergence on             energy=1.00D-06.
 No special actions if energy rises.
 EnCoef did     1 forward-backward iterations
 EnCoef did     2 forward-backward iterations
 SCF Done:  E(RB3LYP) =  -1721.16599413     A.U. after   17 cycles
            NFock= 17  Conv=0.35D-08     -V/T= 2.0023

 **********************************************************************

            Population analysis using the SCF density.

 **********************************************************************

 Orbital symmetries:
       Occupied  (A) (A) (A) (A) (A) (A) (A) (A) (A) (A) (A) (A)
                 (A) (A) (A) (A) (A) (A) (A) (A) (A) (A) (A) (A)
                 (A) (A) (A) (A) (A) (A) (A) (A) (A) (A) (A) (A)
                 (A) (A) (A) (A) (A) (A)
       Virtual   (A) (A) (A) (A) (A) (A) (A) (A) (A) (A) (A) (A)
                 (A) (A) (A) (A) (A) (A) (A) (A) (A) (A) (A) (A)
                 (A) (A) (A) (A) (A) (A) (A) (A) (A) (A) (A) (A)
                 (A) (A) (A) (A) (A) (A) (A) (A) (A) (A) (A) (A)
                 (A) (A) (A) (A) (A) (A) (A) (A) (A) (A) (A) (A)
                 (A) (A) (A) (A) (A) (A) (A) (A) (A) (A) (A) (A)
                 (A) (A) (A) (A) (A) (A) (A) (A) (A) (A) (A) (A)
                 (A) (A) (A) (A) (A) (A) (A) (A) (A) (A) (A) (A)
                 (A) (A) (A) (A) (A) (A) (A) (A) (A) (A) (A) (A)
                 (A) (A) (A) (A) (A) (A) (A) (A) (A) (A) (A) (A)
                 (A) (A) (A) (A) (A) (A) (A) (A) (A) (A) (A) (A)
                 (A)
 The electronic state is 1-A.
 Alpha  occ. eigenvalues -- -256.33083 -30.28771 -26.15881 -26.15732 -26.15586
 Alpha  occ. eigenvalues --  -19.55270 -19.55086 -19.54962 -19.54862 -19.51517
 Alpha  occ. eigenvalues --  -19.48279  -3.71295  -2.49326  -2.48950  -2.48626
 Alpha  occ. eigenvalues --   -1.44165  -1.41862  -1.41445  -1.41152  -1.38434
 Alpha  occ. eigenvalues --   -1.35107  -0.99132  -0.96679  -0.95716  -0.94208
 Alpha  occ. eigenvalues --   -0.90955  -0.89490  -0.86393  -0.84155  -0.82781
 Alpha  occ. eigenvalues --   -0.80900  -0.80558  -0.77779  -0.76625  -0.73769
 Alpha  occ. eigenvalues --   -0.73489  -0.72178  -0.69810  -0.67115  -0.54043
 Alpha  occ. eigenvalues --   -0.52673  -0.51400
 Alpha virt. eigenvalues --   -0.37492  -0.32292  -0.30332  -0.28730  -0.28574
 Alpha virt. eigenvalues --   -0.26915  -0.26094  -0.22716  -0.21299  -0.19725
 Alpha virt. eigenvalues --   -0.17624  -0.16968  -0.15949  -0.12257  -0.10824
 Alpha virt. eigenvalues --    0.07042   0.07806   0.10707   0.13513   0.16899
 Alpha virt. eigenvalues --    0.18684   0.20972   0.22333   0.23799   0.23867
 Alpha virt. eigenvalues --    0.28908   0.29249   0.29471   0.31596   0.32613
 Alpha virt. eigenvalues --    0.36254   0.40874   0.43576   0.46549   0.52929
 Alpha virt. eigenvalues --    0.57613   0.60641   0.62212   0.63766   0.66484
 Alpha virt. eigenvalues --    0.67158   0.68322   0.69406   0.71549   0.72911
 Alpha virt. eigenvalues --    0.73655   0.75095   0.77390   0.79074   0.79490
 Alpha virt. eigenvalues --    0.83968   0.84631   0.87005   0.95342   0.96011
 Alpha virt. eigenvalues --    1.00649   1.04282   1.07986   1.08400   1.11744
 Alpha virt. eigenvalues --    1.13309   1.13629   1.14908   1.16644   1.18559
 Alpha virt. eigenvalues --    1.19957   1.21141   1.29753   1.33644   1.35263
 Alpha virt. eigenvalues --    1.39195   1.39777   1.41243   1.41659   1.43699
 Alpha virt. eigenvalues --    1.48183   1.50029   1.51849   1.52647   1.60694
 Alpha virt. eigenvalues --    1.70212   1.74651   1.76289   1.80732   1.83694
 Alpha virt. eigenvalues --    1.84864   1.85805   1.86001   1.87845   1.91463
 Alpha virt. eigenvalues --    1.92760   1.93805   1.95365   1.98886   2.07320
 Alpha virt. eigenvalues --    2.09432   2.48665   2.49983   2.54086   2.58793
 Alpha virt. eigenvalues --    2.61957   2.63261   2.66855   2.70339   2.71298
 Alpha virt. eigenvalues --    2.73301   2.73480   2.74872   2.77192   2.78475
 Alpha virt. eigenvalues --    2.80823   2.83201   2.87772   2.97011   3.12465
 Alpha virt. eigenvalues --    3.16334   3.18387   3.20449   3.26658   3.30634
 Alpha virt. eigenvalues --    3.35181   3.41155   3.43548   3.48351   3.50777
 Alpha virt. eigenvalues --    3.52640   3.80705   3.85176   3.87000   3.88661
 Alpha virt. eigenvalues --    4.06984   4.07379   4.07693
          Condensed to atoms (all electrons):
               1          2          3          4          5          6
     1  Fe  24.876070   0.181408   0.179414   0.192924   0.179623   0.189232
     2  O    0.181408   7.352441  -0.014402  -0.014424  -0.001354  -0.007645
     3  O    0.179414  -0.014402   7.372485  -0.012548  -0.009492  -0.001484
     4  O    0.192924  -0.014424  -0.012548   7.336441  -0.009856  -0.020307
     5  O    0.179623  -0.001354  -0.009492  -0.009856   7.348048  -0.010698
     6  O    0.189232  -0.007645  -0.001484  -0.020307  -0.010698   7.334958
     7  O    0.178701  -0.013495  -0.015723  -0.001557  -0.020254  -0.020580
     8  H   -0.015603   0.000196   0.000333   0.000209   0.325249  -0.001220
     9  H   -0.018192   0.000195  -0.002094   0.000488   0.322570   0.000681
    10  H   -0.015308  -0.002257   0.000173   0.000249   0.000506   0.323585
    11  H   -0.016429   0.000330   0.000176   0.000485  -0.002398   0.319257
    12  H   -0.019071   0.006652   0.002561   0.000333   0.000129   0.000899
    13  H   -0.020435  -0.000093   0.000807   0.000346   0.009421   0.000924
    14  H   -0.014450   0.325753   0.000469   0.000421   0.000188  -0.000942
    15  H   -0.018137   0.319235  -0.003212   0.000806   0.000196   0.000444
    16  H   -0.017189  -0.003017   0.315764   0.000923   0.000355   0.000267
    17  H   -0.017870   0.000439   0.315652   0.000819  -0.001789   0.000256
    18  H   -0.015612   0.002686  -0.000294   0.323014  -0.000050   0.000145
    19  H   -0.015334   0.000077  -0.001098   0.324875   0.001480  -0.000123
               7          8          9         10         11         12
     1  Fe   0.178701  -0.015603  -0.018192  -0.015308  -0.016429  -0.019071
     2  O   -0.013495   0.000196   0.000195  -0.002257   0.000330   0.006652
     3  O   -0.015723   0.000333  -0.002094   0.000173   0.000176   0.002561
     4  O   -0.001557   0.000209   0.000488   0.000249   0.000485   0.000333
     5  O   -0.020254   0.325249   0.322570   0.000506  -0.002398   0.000129
     6  O   -0.020580  -0.001220   0.000681   0.323585   0.319257   0.000899
     7  O    7.418532  -0.001400  -0.001309  -0.000441   0.000939   0.310048
     8  H   -0.001400   0.471386  -0.010205  -0.000771   0.006314  -0.000194
     9  H   -0.001309  -0.010205   0.487920   0.000110  -0.000774  -0.000239
    10  H   -0.000441  -0.000771   0.000110   0.478948  -0.006472   0.000095
    11  H    0.000939   0.006314  -0.000774  -0.006472   0.490515   0.000063
    12  H    0.310048  -0.000194  -0.000239   0.000095   0.000063   0.495751
    13  H    0.306712   0.005443   0.007289   0.000260   0.000105  -0.010583
    14  H   -0.001283  -0.000093   0.000020   0.005880  -0.000553   0.003472
    15  H   -0.001126   0.000028  -0.000132  -0.000767   0.000141   0.005095
    16  H    0.000436   0.000173  -0.000839  -0.000105   0.000012   0.002967
    17  H    0.002063  -0.000844   0.006522   0.000010  -0.000121   0.002940
    18  H    0.000155   0.000009   0.000122   0.000126   0.000013  -0.000156
    19  H    0.000143  -0.000041  -0.000460   0.000004   0.000124   0.000041
              13         14         15         16         17         18
     1  Fe  -0.020435  -0.014450  -0.018137  -0.017189  -0.017870  -0.015612
     2  O   -0.000093   0.325753   0.319235  -0.003017   0.000439   0.002686
     3  O    0.000807   0.000469  -0.003212   0.315764   0.315652  -0.000294
     4  O    0.000346   0.000421   0.000806   0.000923   0.000819   0.323014
     5  O    0.009421   0.000188   0.000196   0.000355  -0.001789  -0.000050
     6  O    0.000924  -0.000942   0.000444   0.000267   0.000256   0.000145
     7  O    0.306712  -0.001283  -0.001126   0.000436   0.002063   0.000155
     8  H    0.005443  -0.000093   0.000028   0.000173  -0.000844   0.000009
     9  H    0.007289   0.000020  -0.000132  -0.000839   0.006522   0.000122
    10  H    0.000260   0.005880  -0.000767  -0.000105   0.000010   0.000126
    11  H    0.000105  -0.000553   0.000141   0.000012  -0.000121   0.000013
    12  H   -0.010583   0.003472   0.005095   0.002967   0.002940  -0.000156
    13  H    0.505870  -0.000138  -0.000219   0.001258   0.003171   0.000053
    14  H   -0.000138   0.463020  -0.008696  -0.001117   0.000148  -0.000055
    15  H   -0.000219  -0.008696   0.497016   0.009838  -0.000899  -0.000650
    16  H    0.001258  -0.001117   0.009838   0.495609  -0.006982  -0.000148
    17  H    0.003171   0.000148  -0.000899  -0.006982   0.490534   0.000097
    18  H    0.000053  -0.000055  -0.000650  -0.000148   0.000097   0.473263
    19  H   -0.000160   0.000005   0.000088   0.000208  -0.000048  -0.009236
              19
     1  Fe  -0.015334
     2  O    0.000077
     3  O   -0.001098
     4  O    0.324875
     5  O    0.001480
     6  O   -0.000123
     7  O    0.000143
     8  H   -0.000041
     9  H   -0.000460
    10  H    0.000004
    11  H    0.000124
    12  H    0.000041
    13  H   -0.000160
    14  H    0.000005
    15  H    0.000088
    16  H    0.000208
    17  H   -0.000048
    18  H   -0.009236
    19  H    0.467663
 Mulliken charges:
               1
     1  Fe   0.226256
     2  O   -0.132724
     3  O   -0.127485
     4  O   -0.123640
     5  O   -0.131874
     6  O   -0.107650
     7  O   -0.140559
     8  H    0.221029
     9  H    0.208328
    10  H    0.216176
    11  H    0.208272
    12  H    0.199195
    13  H    0.189970
    14  H    0.227953
    15  H    0.200950
    16  H    0.201591
    17  H    0.205904
    18  H    0.226517
    19  H    0.231792
 Sum of Mulliken charges =   2.00000
 Mulliken charges with hydrogens summed into heavy atoms:
               1
     1  Fe   0.226256
     2  O    0.296179
     3  O    0.280009
     4  O    0.334668
     5  O    0.297483
     6  O    0.316798
     7  O    0.248606
 Electronic spatial extent (au):  <R**2>=            855.3087
 Charge=              2.0000 electrons
 Dipole moment (field-independent basis, Debye):
    X=             -0.6031    Y=              5.3923    Z=             -3.1584  Tot=              6.2783
 Quadrupole moment (field-independent basis, Debye-Ang):
   XX=            -22.0879   YY=            -27.2240   ZZ=            -27.0693
   XY=             -0.1844   XZ=             -2.5693   YZ=              2.0908
 Traceless Quadrupole moment (field-independent basis, Debye-Ang):
   XX=              3.3725   YY=             -1.7636   ZZ=             -1.6089
   XY=             -0.1844   XZ=             -2.5693   YZ=              2.0908
 Octapole moment (field-independent basis, Debye-Ang**2):
  XXX=            -11.8483  YYY=             32.4763  ZZZ=             -4.5875  XYY=             -2.3708
  XXY=              7.2792  XXZ=             -5.3894  XZZ=             11.0129  YZZ=             -7.3619
  YYZ=             -8.8185  XYZ=             -8.9471
 Hexadecapole moment (field-independent basis, Debye-Ang**3):
 XXXX=           -195.9938 YYYY=           -231.6263 ZZZZ=           -204.4860 XXXY=             10.6830
 XXXZ=             -3.9881 YYYX=             -3.5902 YYYZ=             18.8494 ZZZX=            -10.2146
 ZZZY=             -4.0025 XXYY=            -64.0618 XXZZ=            -75.5068 YYZZ=            -55.9788
 XXYZ=             -1.9933 YYXZ=              0.1254 ZZXY=             -8.5274
 N-N= 7.678155054721D+02 E-N=-5.594380072813D+03  KE= 1.717273280732D+03
 PrsmSu:  requested number of processors reduced to:  13 ShMem   1 Linda.
   1 Symmetry operations used in ECPInt.
 ECPInt:  NShTT=    3486 NPrTT=   13195 LenC2=    3466 LenP2D=   10866.
 LDataN:  DoStor=T MaxTD1= 7 Len=  274
 Calling FoFJK, ICntrl=      2127 FMM=F ISym2X=0 I1Cent= 0 IOpClX= 0 NMat=1 NMatS=1 NMatT=0.
 ***** Axes restored to original set *****
 -------------------------------------------------------------------
 Center     Atomic                   Forces (Hartrees/Bohr)
 Number     Number              X              Y              Z
 -------------------------------------------------------------------
      1       26          -0.000643592    0.013317096   -0.023990325
      2        8           0.033218645    0.001581144   -0.006659464
      3        8          -0.003131744   -0.034323617   -0.009170616
      4        8           0.000231282    0.005818451   -0.031643329
      5        8          -0.033933799   -0.002840609   -0.009052481
      6        8          -0.000442189    0.034140322   -0.010059059
      7        8           0.004049902    0.003649281    0.039138193
      8        1          -0.024523605    0.004093679    0.003763374
      9        1          -0.025765387   -0.002588727    0.002861851
     10        1          -0.000658461    0.022969504    0.006553309
     11        1           0.002190206    0.023061704    0.008540268
     12        1           0.002803194   -0.005204848    0.023607425
     13        1          -0.004643023   -0.005085303    0.023208096
     14        1           0.024154134    0.003214629    0.004534788
     15        1           0.026653944   -0.000662094    0.004598265
     16        1           0.001482853   -0.026618860    0.003525438
     17        1           0.000076398   -0.025579865    0.004558500
     18        1           0.005104082   -0.004930764   -0.017235902
     19        1          -0.006222841   -0.004011122   -0.017078329
 -------------------------------------------------------------------
 Cartesian Forces:  Max     0.039138193 RMS     0.016431309

 GradGradGradGradGradGradGradGradGradGradGradGradGradGradGradGradGradGrad
 Berny optimization.
 FormGI is forming the generalized inverse of G from B-inverse, IUseBI=4.
 Internal  Forces:  Max     0.086457783 RMS     0.021746252
 Search for a local minimum.
 Step number   1 out of a maximum of  114
 All quantities printed in internal units (Hartrees-Bohrs-Radians)
 Mixed Optimization -- RFO/linear search
 Second derivative matrix not updated -- first step.
 ITU=  0
     Eigenvalues ---    0.02336   0.02350   0.02353   0.04472   0.04472
     Eigenvalues ---    0.04472   0.04591   0.04656   0.04666   0.04684
     Eigenvalues ---    0.04723   0.04739   0.09272   0.09283   0.09406
     Eigenvalues ---    0.09599   0.09724   0.09727   0.14309   0.14744
     Eigenvalues ---    0.15149   0.15960   0.15983   0.15983   0.15996
     Eigenvalues ---    0.15998   0.16000   0.16000   0.16000   0.16000
     Eigenvalues ---    0.16000   0.16000   0.16000   0.22790   0.22791
     Eigenvalues ---    0.22791   0.22791   0.22791   0.22791   0.55473
     Eigenvalues ---    0.55473   0.55473   0.55473   0.55473   0.55473
     Eigenvalues ---    0.55473   0.55473   0.55473   0.55473   0.55473
     Eigenvalues ---    0.55473
 RFO step:  Lambda=-1.49332912D-01 EMin= 2.33646815D-02
 Linear search not attempted -- first point.
 Maximum step size (   0.300) exceeded in Quadratic search.
    -- Step size scaled by   0.470
 Iteration  1 RMS(Cart)=  0.06328449 RMS(Int)=  0.00079997
 Iteration  2 RMS(Cart)=  0.00063437 RMS(Int)=  0.00039928
 Iteration  3 RMS(Cart)=  0.00000029 RMS(Int)=  0.00039928
 Variable       Old X    -DE/DX   Delta X   Delta X   Delta X     New X
                                 (Linear)    (Quad)   (Total)
    R1        3.43930   0.08389   0.00000   0.10447   0.10447   3.54377
    R2        3.43930   0.08646   0.00000   0.10767   0.10767   3.54697
    R3        3.43930   0.06558   0.00000   0.08168   0.08167   3.52098
    R4        3.43930   0.08417   0.00000   0.10482   0.10482   3.54412
    R5        3.43930   0.08022   0.00000   0.09991   0.09991   3.53921
    R6        3.43930   0.08581   0.00000   0.10686   0.10686   3.54616
    R7        1.81414   0.01337   0.00000   0.00892   0.00892   1.82306
    R8        1.81414   0.01108   0.00000   0.00740   0.00740   1.82153
    R9        1.81414   0.01128   0.00000   0.00753   0.00753   1.82167
   R10        1.81414   0.01173   0.00000   0.00783   0.00783   1.82197
   R11        1.81414   0.01269   0.00000   0.00847   0.00847   1.82260
   R12        1.81414   0.01312   0.00000   0.00875   0.00875   1.82289
   R13        1.81414   0.01330   0.00000   0.00888   0.00888   1.82301
   R14        1.81414   0.01160   0.00000   0.00774   0.00774   1.82188
   R15        1.81414   0.00997   0.00000   0.00665   0.00665   1.82079
   R16        1.81414   0.00999   0.00000   0.00666   0.00666   1.82080
   R17        1.81414   0.01330   0.00000   0.00888   0.00888   1.82301
   R18        1.81414   0.01349   0.00000   0.00900   0.00900   1.82314
    A1        1.52415   0.00550   0.00000   0.00955   0.00953   1.53368
    A2        1.55216  -0.00247   0.00000  -0.00584  -0.00574   1.54642
    A3        1.61488  -0.00444   0.00000  -0.00740  -0.00743   1.60745
    A4        1.59859   0.00088   0.00000   0.00288   0.00278   1.60138
    A5        1.60864  -0.00463   0.00000  -0.00842  -0.00837   1.60027
    A6        1.58452  -0.00194   0.00000  -0.00272  -0.00280   1.58172
    A7        1.61197   0.00418   0.00000   0.00798   0.00791   1.61988
    A8        1.60268  -0.00676   0.00000  -0.01230  -0.01223   1.59045
    A9        1.52754  -0.00129   0.00000  -0.00330  -0.00324   1.52430
   A10        1.55970   0.00090   0.00000   0.00062   0.00055   1.56024
   A11        1.53235   0.00806   0.00000   0.01472   0.01463   1.54699
   A12        1.53505   0.00172   0.00000   0.00372   0.00369   1.53873
   A13        1.91063   0.02528   0.00000   0.03952   0.03872   1.94936
   A14        1.91063   0.03159   0.00000   0.04915   0.04835   1.95898
   A15        1.91063  -0.02502   0.00000  -0.03567  -0.03712   1.87351
   A16        1.91063   0.03077   0.00000   0.04789   0.04705   1.95768
   A17        1.91063   0.02837   0.00000   0.04424   0.04340   1.95403
   A18        1.91063  -0.02607   0.00000  -0.03729  -0.03881   1.87182
   A19        1.91063   0.01699   0.00000   0.02652   0.02626   1.93690
   A20        1.91063   0.01623   0.00000   0.02538   0.02513   1.93576
   A21        1.91063  -0.01466   0.00000  -0.02093  -0.02140   1.88923
   A22        1.91063   0.02674   0.00000   0.04200   0.04116   1.95179
   A23        1.91063   0.03019   0.00000   0.04729   0.04644   1.95707
   A24        1.91063  -0.02413   0.00000  -0.03379  -0.03533   1.87531
   A25        1.91063   0.02592   0.00000   0.04001   0.03941   1.95004
   A26        1.91063   0.02607   0.00000   0.04023   0.03963   1.95026
   A27        1.91063  -0.02431   0.00000  -0.03567  -0.03676   1.87387
   A28        1.91063   0.02543   0.00000   0.03973   0.03914   1.94978
   A29        1.91063   0.02479   0.00000   0.03878   0.03819   1.94882
   A30        1.91063  -0.02204   0.00000  -0.03143  -0.03249   1.87814
   A31        3.10867   0.00356   0.00000   0.00683   0.00672   3.11539
   A32        3.13904   0.00107   0.00000   0.00215   0.00209   3.14113
   A33        3.15075  -0.00159   0.00000  -0.00296  -0.00295   3.14780
   A34        3.12961   0.00895   0.00000   0.01762   0.01750   3.14711
   A35        3.13623  -0.00594   0.00000  -0.01177  -0.01166   3.12457
   A36        3.06289   0.00034   0.00000   0.00024   0.00029   3.06318
    D1       -2.61932  -0.00611   0.00000  -0.01316  -0.01321  -2.63252
    D2       -0.52492  -0.00192   0.00000  -0.00254  -0.00246  -0.52739
    D3        2.05431  -0.00147   0.00000  -0.00481  -0.00485   2.04945
    D4       -2.13448   0.00272   0.00000   0.00580   0.00589  -2.12860
    D5        0.52764  -0.00017   0.00000  -0.00139  -0.00155   0.52609
    D6        2.62204   0.00402   0.00000   0.00922   0.00919   2.63123
    D7       -1.00859  -0.00181   0.00000  -0.00505  -0.00514  -1.01373
    D8        1.08581   0.00238   0.00000   0.00556   0.00560   1.09141
    D9        0.00052   0.00024   0.00000   0.00055   0.00061   0.00113
   D10       -2.09009  -0.00755   0.00000  -0.01772  -0.01857  -2.10866
   D11        2.09114   0.00693   0.00000   0.01620   0.01713   2.10827
   D12        0.00052  -0.00086   0.00000  -0.00207  -0.00205  -0.00153
   D13        0.44492   0.00059   0.00000   0.00049   0.00035   0.44527
   D14        2.53932   0.00488   0.00000   0.01124   0.01132   2.55063
   D15        1.99527  -0.00144   0.00000  -0.00458  -0.00470   1.99057
   D16       -2.19352   0.00284   0.00000   0.00616   0.00626  -2.18726
   D17       -2.68469  -0.00835   0.00000  -0.01713  -0.01714  -2.70183
   D18       -0.59029  -0.00407   0.00000  -0.00638  -0.00618  -0.59647
   D19       -1.15180  -0.00031   0.00000  -0.00241  -0.00253  -1.15434
   D20        0.94259   0.00397   0.00000   0.00833   0.00843   0.95102
   D21        0.00006  -0.00086   0.00000  -0.00198  -0.00208  -0.00201
   D22       -2.09591  -0.00491   0.00000  -0.01130  -0.01199  -2.10790
   D23        2.09604   0.00542   0.00000   0.01266   0.01331   2.10934
   D24        0.00006   0.00137   0.00000   0.00334   0.00340   0.00346
   D25        0.58002   0.00212   0.00000   0.00273   0.00269   0.58271
   D26        2.67441   0.00451   0.00000   0.00888   0.00896   2.68338
   D27       -0.94338  -0.00339   0.00000  -0.00678  -0.00684  -0.95022
   D28        1.15101  -0.00100   0.00000  -0.00063  -0.00056   1.15045
   D29       -2.52913  -0.00103   0.00000  -0.00330  -0.00340  -2.53253
   D30       -0.43473   0.00136   0.00000   0.00284   0.00288  -0.43186
   D31        2.19576  -0.00219   0.00000  -0.00435  -0.00442   2.19134
   D32       -1.99303   0.00020   0.00000   0.00180   0.00186  -1.99117
   D33        0.00093   0.00094   0.00000   0.00223   0.00230   0.00324
   D34       -2.11816  -0.00460   0.00000  -0.01031  -0.01049  -2.12865
   D35        2.12002   0.00461   0.00000   0.01046   0.01066   2.13068
   D36        0.00093  -0.00094   0.00000  -0.00207  -0.00214  -0.00121
   D37        2.61948   0.00668   0.00000   0.01435   0.01432   2.63380
   D38        0.52508   0.00136   0.00000   0.00106   0.00088   0.52597
   D39       -2.05460   0.00188   0.00000   0.00566   0.00571  -2.04889
   D40        2.13419  -0.00344   0.00000  -0.00764  -0.00773   2.12646
   D41       -0.52744   0.00071   0.00000   0.00252   0.00263  -0.52481
   D42       -2.62184  -0.00461   0.00000  -0.01077  -0.01081  -2.63265
   D43        1.00800   0.00232   0.00000   0.00608   0.00616   1.01416
   D44       -1.08639  -0.00299   0.00000  -0.00721  -0.00728  -1.09367
   D45       -0.44510  -0.00168   0.00000  -0.00294  -0.00275  -0.44785
   D46       -2.53950  -0.00375   0.00000  -0.00839  -0.00834  -2.54783
   D47       -1.99531   0.00065   0.00000   0.00273   0.00279  -1.99252
   D48        2.19348  -0.00142   0.00000  -0.00272  -0.00280   2.19068
   D49        2.68468   0.00744   0.00000   0.01503   0.01501   2.69970
   D50        0.59029   0.00537   0.00000   0.00958   0.00943   0.59972
   D51        1.15196  -0.00058   0.00000   0.00036   0.00042   1.15238
   D52       -0.94244  -0.00265   0.00000  -0.00509  -0.00516  -0.94759
   D53       -0.58092  -0.00153   0.00000  -0.00123  -0.00111  -0.58203
   D54       -2.67532  -0.00529   0.00000  -0.01082  -0.01097  -2.68629
   D55        0.94432   0.00412   0.00000   0.00865   0.00877   0.95309
   D56       -1.15008   0.00036   0.00000  -0.00094  -0.00110  -1.15117
   D57        2.52727   0.00234   0.00000   0.00622   0.00638   2.53365
   D58        0.43288  -0.00141   0.00000  -0.00337  -0.00349   0.42939
   D59       -2.19486   0.00289   0.00000   0.00618   0.00632  -2.18853
   D60        1.99393  -0.00086   0.00000  -0.00341  -0.00355   1.99039
         Item               Value     Threshold  Converged?
 Maximum Force            0.086458     0.000450     NO 
 RMS     Force            0.021746     0.000300     NO 
 Maximum Displacement     0.206241     0.001800     NO 
 RMS     Displacement     0.063282     0.001200     NO 
 Predicted change in Energy=-6.064709D-02
 GradGradGradGradGradGradGradGradGradGradGradGradGradGradGradGradGradGrad

                          Input orientation:                          
 ---------------------------------------------------------------------
 Center     Atomic      Atomic             Coordinates (Angstroms)
 Number     Number       Type             X           Y           Z
 ---------------------------------------------------------------------
      1         26           0        6.204418    1.034044    0.181129
      2          8           0        8.079246    1.002679    0.154306
      3          8           0        6.241756   -0.841362    0.114079
      4          8           0        6.225284    1.155886   -1.677986
      5          8           0        4.329088    1.016677    0.195885
      6          8           0        6.167591    2.906223    0.216169
      7          8           0        6.174279    1.058514    2.057277
      8          1           0        3.966939    1.779864    0.661755
      9          1           0        3.976507    0.225534    0.619278
     10          1           0        6.972552    3.271730    0.599331
     11          1           0        5.425997    3.238999    0.733548
     12          1           0        6.908874    0.558363    2.432589
     13          1           0        5.356947    0.682114    2.405211
     14          1           0        8.455171    1.763374    0.613336
     15          1           0        8.436885    0.210281    0.570635
     16          1           0        7.059712   -1.201997    0.474851
     17          1           0        5.513420   -1.234364    0.608698
     18          1           0        6.972200    0.670260   -2.047455
     19          1           0        5.414145    0.795531   -2.055757
 ---------------------------------------------------------------------
                    Distance matrix (angstroms):
                    1          2          3          4          5
     1  Fe   0.000000
     2  O    1.875283   0.000000
     3  O    1.876976   2.603551   0.000000
     4  O    1.863220   2.611119   2.683425   0.000000
     5  O    1.875469   3.750415   2.667827   2.669519   0.000000
     6  O    1.872868   2.698469   3.749708   2.579695   2.636453
     7  O    1.876549   2.693198   2.718474   3.736880   2.621309
     8  H    2.406982   4.215755   3.513626   3.311172   0.964697
     9  H    2.410239   4.201503   2.554378   3.346637   0.964096
    10  H    2.402532   2.563477   4.205598   3.197089   3.497990
    11  H    2.402692   3.518008   4.206964   3.285379   2.535943
    12  H    2.406575   2.599570   2.789223   4.209651   3.445024
    13  H    2.405951   3.546865   2.890182   4.201305   2.459583
    14  H    2.405122   0.964720   3.454434   3.254473   4.213833
    15  H    2.411267   0.963914   2.476487   3.292665   4.202941
    16  H    2.411987   2.450061   0.963984   3.300090   3.529397
    17  H    2.409558   3.434283   0.964143   3.383633   2.576867
    18  H    2.385039   2.486725   2.736929   0.964481   3.484052
    19  H    2.384341   3.468437   2.841223   0.964632   2.509212
                    6          7          8          9         10
     6  O    0.000000
     7  O    2.608400   0.000000
     8  H    2.511991   2.709275   0.000000
     9  H    3.485604   2.755340   1.554939   0.000000
    10  H    0.963521   2.767881   3.356080   4.272703   0.000000
    11  H    0.963526   2.658325   2.064723   3.345900   1.552713
    12  H    3.312773   0.964697   3.644571   3.463762   3.275248
    13  H    3.224237   0.964762   2.485319   2.302962   3.546475
    14  H    2.587831   2.790029   4.488524   4.735337   2.115064
    15  H    3.541673   2.837074   4.738387   4.460670   3.393754
    16  H    4.211920   2.897926   4.300194   3.400714   4.476307
    17  H    4.210282   2.791488   3.388213   2.119792   4.736458
    18  H    3.281907   4.199552   4.195549   4.035272   3.711216
    19  H    3.191293   4.190944   3.232366   3.089905   3.950910
                   11         12         13         14         15
    11  H    0.000000
    12  H    3.503066   0.000000
    13  H    3.055631   1.557093   0.000000
    14  H    3.371619   2.674466   3.738841   0.000000
    15  H    4.273771   2.433691   3.615842   1.553787   0.000000
    16  H    4.739029   2.637112   3.189917   3.280230   1.974921
    17  H    4.475958   2.913372   2.631507   4.200042   3.261150
    18  H    4.089393   4.481888   4.736603   3.236341   3.035008
    19  H    3.708221   4.736636   4.462776   4.160363   4.046902
                   16         17         18         19
    16  H    0.000000
    17  H    1.552411   0.000000
    18  H    3.142456   3.579215   0.000000
    19  H    3.619667   3.351067   1.563105   0.000000
 Stoichiometry    FeH12O6(2+)
 Framework group  C1[X(FeH12O6)]
 Deg. of freedom    51
 Full point group                 C1      NOp   1
 Largest Abelian subgroup         C1      NOp   1
 Largest concise Abelian subgroup C1      NOp   1
                         Standard orientation:                         
 ---------------------------------------------------------------------
 Center     Atomic      Atomic             Coordinates (Angstroms)
 Number     Number       Type             X           Y           Z
 ---------------------------------------------------------------------
      1         26           0        0.007770   -0.023857    0.029772
      2          8           0        1.604869   -0.593575   -0.771091
      3          8           0        0.892126    1.563157    0.501301
      4          8           0        0.552083   -0.859706    1.603516
      5          8           0       -1.564359    0.583541    0.852487
      6          8           0       -0.864725   -1.620696   -0.413506
      7          8           0       -0.614567    0.694763   -1.588165
      8          1           0       -2.352702    0.216985    0.434404
      9          1           0       -1.641799    1.544080    0.823339
     10          1           0       -0.470453   -2.039987   -1.186239
     11          1           0       -1.796926   -1.475613   -0.609294
     12          1           0        0.107112    1.044407   -2.124420
     13          1           0       -1.242813    1.411979   -1.440948
     14          1           0        1.439730   -1.191506   -1.509936
     15          1           0        2.126758    0.143143   -1.108741
     16          1           0        1.626470    1.760192   -0.091305
     17          1           0        0.300171    2.324024    0.485761
     18          1           0        1.510358   -0.816446    1.703823
     19          1           0        0.148652   -0.440846    2.373136
 ---------------------------------------------------------------------
 Rotational constants (GHZ):           1.9031465           1.8580461           1.8330063
 Standard basis: def2SVP (5D, 7F)
 There are   186 symmetry adapted cartesian basis functions of A   symmetry.
 There are   175 symmetry adapted basis functions of A   symmetry.
   175 basis functions,   315 primitive gaussians,   186 cartesian basis functions
    42 alpha electrons       42 beta electrons
       nuclear repulsion energy       746.3133694552 Hartrees.
 NAtoms=   19 NActive=   19 NUniq=   19 SFac= 1.00D+00 NAtFMM=   60 NAOKFM=F Big=F
 Integral buffers will be    131072 words long.
 Raffenetti 2 integral format.
 Two-electron integral symmetry is turned on.
 One-electron integrals computed using PRISM.
 PrsmSu:  requested number of processors reduced to:  13 ShMem   1 Linda.
   1 Symmetry operations used in ECPInt.
 ECPInt:  NShTT=    3486 NPrTT=   13195 LenC2=    3466 LenP2D=   10786.
 LDataN:  DoStor=T MaxTD1= 6 Len=  172
 NBasis=   175 RedAO= T EigKep=  9.21D-03  NBF=   175
 NBsUse=   175 1.00D-06 EigRej= -1.00D+00 NBFU=   175
 Initial guess from the checkpoint file:  "/scratch/Gau-119128.chk"
 B after Tr=     0.000000   -0.000000   -0.000000
         Rot=    0.994565    0.102579    0.016415    0.006951 Ang=  11.95 deg.
 ExpMin= 3.37D-02 ExpMax= 6.09D+04 ExpMxC= 9.15D+03 IAcc=3 IRadAn=         5 AccDes= 0.00D+00
 Harris functional with IExCor=  402 and IRadAn=       5 diagonalized for initial guess.
 HarFok:  IExCor=  402 AccDes= 0.00D+00 IRadAn=         5 IDoV= 1 UseB2=F ITyADJ=14
 ICtDFT=  3500011 ScaDFX=  1.000000  1.000000  1.000000  1.000000
 FoFCou: FMM=F IPFlag=           0 FMFlag=      100000 FMFlg1=           0
         NFxFlg=           0 DoJE=T BraDBF=F KetDBF=T FulRan=T
         wScrn=  0.000000 ICntrl=       500 IOpCl=  0 I1Cent=   200000004 NGrid=           0
         NMat0=    1 NMatS0=      1 NMatT0=    0 NMatD0=    1 NMtDS0=    0 NMtDT0=    0
 Petite list used in FoFCou.
 Requested convergence on RMS density matrix=1.00D-08 within 128 cycles.
 Requested convergence on MAX density matrix=1.00D-06.
 Requested convergence on             energy=1.00D-06.
 No special actions if energy rises.
 SCF Done:  E(RB3LYP) =  -1721.22390656     A.U. after   14 cycles
            NFock= 14  Conv=0.52D-08     -V/T= 2.0027
 PrsmSu:  requested number of processors reduced to:  13 ShMem   1 Linda.
   1 Symmetry operations used in ECPInt.
 ECPInt:  NShTT=    3486 NPrTT=   13195 LenC2=    3466 LenP2D=   10786.
 LDataN:  DoStor=T MaxTD1= 7 Len=  274
 Calling FoFJK, ICntrl=      2127 FMM=F ISym2X=0 I1Cent= 0 IOpClX= 0 NMat=1 NMatS=1 NMatT=0.
 ***** Axes restored to original set *****
 -------------------------------------------------------------------
 Center     Atomic                   Forces (Hartrees/Bohr)
 Number     Number              X              Y              Z
 -------------------------------------------------------------------
      1       26          -0.000352175    0.009052784   -0.013562313
      2        8           0.018343914    0.000910751    0.000047852
      3        8          -0.001886017   -0.019316615   -0.001870427
      4        8          -0.000208700    0.000893513   -0.019294188
      5        8          -0.018602607   -0.002062612   -0.001503841
      6        8          -0.000140621    0.018675304   -0.004023760
      7        8           0.002255613   -0.001545586    0.023201971
      8        1          -0.017323603    0.002480163   -0.000280893
      9        1          -0.018480347   -0.001222637   -0.000564219
     10        1          -0.000602898    0.016661640    0.002933036
     11        1           0.001622445    0.016476628    0.004694848
     12        1           0.001098593   -0.001480519    0.016569307
     13        1          -0.001781933   -0.001474489    0.016222237
     14        1           0.017100149    0.002024755    0.000502730
     15        1           0.018735648   -0.000016864    0.000880658
     16        1           0.000642266   -0.018464334   -0.000028881
     17        1           0.000190677   -0.018000547    0.000749276
     18        1           0.002817409   -0.002092195   -0.012391560
     19        1          -0.003427815   -0.001499139   -0.012281835
 -------------------------------------------------------------------
 Cartesian Forces:  Max     0.023201971 RMS     0.010297410

 GradGradGradGradGradGradGradGradGradGradGradGradGradGradGradGradGradGrad
 Berny optimization.
 Using GEDIIS/GDIIS optimizer.
 FormGI is forming the generalized inverse of G from B-inverse, IUseBI=4.
 Internal  Forces:  Max     0.055904222 RMS     0.014400857
 Search for a local minimum.
 Step number   2 out of a maximum of  114
 All quantities printed in internal units (Hartrees-Bohrs-Radians)
 Mixed Optimization -- RFO/linear search
 Update second derivatives using D2CorX and points    1    2
 DE= -5.79D-02 DEPred=-6.06D-02 R= 9.55D-01
 TightC=F SS=  1.41D+00  RLast= 3.06D-01 DXNew= 5.0454D-01 9.1689D-01
 Trust test= 9.55D-01 RLast= 3.06D-01 DXMaxT set to 5.05D-01
 ITU=  1  0
 Use linear search instead of GDIIS.
 Linear search step of   0.599 exceeds DXMaxT=   0.505 but not scaled.
 Quartic linear search produced a step of  2.00000.
 Iteration  1 RMS(Cart)=  0.12100116 RMS(Int)=  0.00417046
 Iteration  2 RMS(Cart)=  0.00444270 RMS(Int)=  0.00208059
 Iteration  3 RMS(Cart)=  0.00000478 RMS(Int)=  0.00208059
 Iteration  4 RMS(Cart)=  0.00000001 RMS(Int)=  0.00208059
 Variable       Old X    -DE/DX   Delta X   Delta X   Delta X     New X
                                 (Linear)    (Quad)   (Total)
    R1        3.54377   0.05410   0.20894   0.00000   0.20894   3.75271
    R2        3.54697   0.05576   0.21534   0.00000   0.21534   3.76231
    R3        3.52098   0.04368   0.16335   0.00000   0.16335   3.68432
    R4        3.54412   0.05439   0.20964   0.00000   0.20964   3.75376
    R5        3.53921   0.05184   0.19981   0.00000   0.19981   3.73902
    R6        3.54616   0.05590   0.21372   0.00000   0.21373   3.75989
    R7        1.82306   0.00850   0.01784   0.00000   0.01784   1.84090
    R8        1.82153   0.00734   0.01479   0.00000   0.01479   1.83632
    R9        1.82167   0.00744   0.01506   0.00000   0.01506   1.83672
   R10        1.82197   0.00758   0.01566   0.00000   0.01566   1.83763
   R11        1.82260   0.00798   0.01693   0.00000   0.01693   1.83954
   R12        1.82289   0.00825   0.01751   0.00000   0.01751   1.84039
   R13        1.82301   0.00833   0.01775   0.00000   0.01775   1.84077
   R14        1.82188   0.00751   0.01548   0.00000   0.01548   1.83736
   R15        1.82079   0.00698   0.01331   0.00000   0.01331   1.83410
   R16        1.82080   0.00696   0.01333   0.00000   0.01333   1.83413
   R17        1.82301   0.00805   0.01775   0.00000   0.01775   1.84077
   R18        1.82314   0.00794   0.01800   0.00000   0.01800   1.84113
    A1        1.53368   0.00348   0.01905   0.00000   0.01893   1.55261
    A2        1.54642  -0.00171  -0.01147   0.00000  -0.01082   1.53560
    A3        1.60745  -0.00293  -0.01487   0.00000  -0.01507   1.59238
    A4        1.60138   0.00075   0.00557   0.00000   0.00493   1.60631
    A5        1.60027  -0.00345  -0.01674   0.00000  -0.01640   1.58387
    A6        1.58172  -0.00118  -0.00560   0.00000  -0.00603   1.57569
    A7        1.61988   0.00325   0.01582   0.00000   0.01536   1.63524
    A8        1.59045  -0.00497  -0.02445   0.00000  -0.02394   1.56652
    A9        1.52430  -0.00069  -0.00648   0.00000  -0.00606   1.51824
   A10        1.56024   0.00049   0.00110   0.00000   0.00069   1.56093
   A11        1.54699   0.00575   0.02927   0.00000   0.02872   1.57571
   A12        1.53873   0.00089   0.00737   0.00000   0.00711   1.54584
   A13        1.94936   0.01726   0.07745   0.00000   0.07287   2.02223
   A14        1.95898   0.02133   0.09670   0.00000   0.09216   2.05114
   A15        1.87351  -0.01827  -0.07424   0.00000  -0.08132   1.79219
   A16        1.95768   0.02038   0.09410   0.00000   0.08935   2.04703
   A17        1.95403   0.01928   0.08680   0.00000   0.08202   2.03605
   A18        1.87182  -0.01886  -0.07762   0.00000  -0.08503   1.78679
   A19        1.93690   0.01237   0.05253   0.00000   0.05104   1.98794
   A20        1.93576   0.01189   0.05025   0.00000   0.04875   1.98451
   A21        1.88923  -0.01110  -0.04280   0.00000  -0.04533   1.84390
   A22        1.95179   0.01807   0.08232   0.00000   0.07745   2.02924
   A23        1.95707   0.02091   0.09287   0.00000   0.08804   2.04511
   A24        1.87531  -0.01787  -0.07065   0.00000  -0.07816   1.79714
   A25        1.95004   0.01802   0.07881   0.00000   0.07541   2.02545
   A26        1.95026   0.01766   0.07926   0.00000   0.07585   2.02612
   A27        1.87387  -0.01779  -0.07352   0.00000  -0.07897   1.79491
   A28        1.94978   0.01760   0.07829   0.00000   0.07491   2.02469
   A29        1.94882   0.01707   0.07637   0.00000   0.07299   2.02181
   A30        1.87814  -0.01623  -0.06498   0.00000  -0.07037   1.80778
   A31        3.11539   0.00231   0.01345   0.00000   0.01290   3.12829
   A32        3.14113   0.00055   0.00418   0.00000   0.00386   3.14499
   A33        3.14780  -0.00097  -0.00591   0.00000  -0.00588   3.14191
   A34        3.14711   0.00653   0.03499   0.00000   0.03415   3.18125
   A35        3.12457  -0.00416  -0.02332   0.00000  -0.02262   3.10195
   A36        3.06318   0.00015   0.00058   0.00000   0.00084   3.06402
    D1       -2.63252  -0.00487  -0.02641   0.00000  -0.02637  -2.65889
    D2       -0.52739  -0.00114  -0.00493   0.00000  -0.00471  -0.53209
    D3        2.04945  -0.00139  -0.00971   0.00000  -0.00968   2.03977
    D4       -2.12860   0.00234   0.01178   0.00000   0.01198  -2.11661
    D5        0.52609  -0.00071  -0.00309   0.00000  -0.00375   0.52234
    D6        2.63123   0.00302   0.01839   0.00000   0.01791   2.64914
    D7       -1.01373  -0.00155  -0.01028   0.00000  -0.01052  -1.02425
    D8        1.09141   0.00218   0.01120   0.00000   0.01114   1.10255
    D9        0.00113   0.00025   0.00122   0.00000   0.00154   0.00267
   D10       -2.10866  -0.00681  -0.03714   0.00000  -0.04151  -2.15017
   D11        2.10827   0.00645   0.03426   0.00000   0.03912   2.14739
   D12       -0.00153  -0.00061  -0.00410   0.00000  -0.00393  -0.00546
   D13        0.44527   0.00007   0.00071   0.00000   0.00013   0.44540
   D14        2.55063   0.00390   0.02263   0.00000   0.02274   2.57337
   D15        1.99057  -0.00141  -0.00941   0.00000  -0.00981   1.98076
   D16       -2.18726   0.00242   0.01252   0.00000   0.01279  -2.17446
   D17       -2.70183  -0.00646  -0.03429   0.00000  -0.03402  -2.73585
   D18       -0.59647  -0.00263  -0.01236   0.00000  -0.01141  -0.60788
   D19       -1.15434  -0.00073  -0.00506   0.00000  -0.00548  -1.15981
   D20        0.95102   0.00310   0.01686   0.00000   0.01713   0.96815
   D21       -0.00201  -0.00076  -0.00416   0.00000  -0.00460  -0.00662
   D22       -2.10790  -0.00454  -0.02397   0.00000  -0.02749  -2.13539
   D23        2.10934   0.00491   0.02661   0.00000   0.02990   2.13924
   D24        0.00346   0.00112   0.00679   0.00000   0.00701   0.01047
   D25        0.58271   0.00109   0.00538   0.00000   0.00520   0.58791
   D26        2.68338   0.00328   0.01793   0.00000   0.01840   2.70177
   D27       -0.95022  -0.00243  -0.01368   0.00000  -0.01400  -0.96422
   D28        1.15045  -0.00024  -0.00113   0.00000  -0.00081   1.14964
   D29       -2.53253  -0.00104  -0.00680   0.00000  -0.00733  -2.53985
   D30       -0.43186   0.00115   0.00575   0.00000   0.00586  -0.42599
   D31        2.19134  -0.00175  -0.00883   0.00000  -0.00916   2.18219
   D32       -1.99117   0.00044   0.00372   0.00000   0.00403  -1.98714
   D33        0.00324   0.00076   0.00461   0.00000   0.00494   0.00818
   D34       -2.12865  -0.00390  -0.02099   0.00000  -0.02186  -2.15051
   D35        2.13068   0.00392   0.02131   0.00000   0.02225   2.15292
   D36       -0.00121  -0.00073  -0.00428   0.00000  -0.00456  -0.00577
   D37        2.63380   0.00526   0.02863   0.00000   0.02808   2.66188
   D38        0.52597   0.00067   0.00176   0.00000   0.00098   0.52694
   D39       -2.04889   0.00173   0.01142   0.00000   0.01144  -2.03746
   D40        2.12646  -0.00286  -0.01545   0.00000  -0.01567   2.11079
   D41       -0.52481   0.00110   0.00526   0.00000   0.00563  -0.51918
   D42       -2.63265  -0.00349  -0.02161   0.00000  -0.02147  -2.65412
   D43        1.01416   0.00193   0.01232   0.00000   0.01245   1.02661
   D44       -1.09367  -0.00266  -0.01455   0.00000  -0.01466  -1.10833
   D45       -0.44785  -0.00089  -0.00550   0.00000  -0.00451  -0.45237
   D46       -2.54783  -0.00289  -0.01667   0.00000  -0.01607  -2.56390
   D47       -1.99252   0.00071   0.00558   0.00000   0.00575  -1.98677
   D48        2.19068  -0.00129  -0.00559   0.00000  -0.00581   2.18488
   D49        2.69970   0.00571   0.03003   0.00000   0.02968   2.72938
   D50        0.59972   0.00371   0.01886   0.00000   0.01813   0.61785
   D51        1.15238  -0.00002   0.00085   0.00000   0.00104   1.15343
   D52       -0.94759  -0.00202  -0.01032   0.00000  -0.01051  -0.95811
   D53       -0.58203  -0.00058  -0.00221   0.00000  -0.00166  -0.58369
   D54       -2.68629  -0.00393  -0.02195   0.00000  -0.02269  -2.70898
   D55        0.95309   0.00304   0.01754   0.00000   0.01807   0.97116
   D56       -1.15117  -0.00031  -0.00219   0.00000  -0.00296  -1.15414
   D57        2.53365   0.00206   0.01276   0.00000   0.01352   2.54718
   D58        0.42939  -0.00128  -0.00698   0.00000  -0.00751   0.42188
   D59       -2.18853   0.00235   0.01265   0.00000   0.01333  -2.17520
   D60        1.99039  -0.00100  -0.00709   0.00000  -0.00770   1.98269
         Item               Value     Threshold  Converged?
 Maximum Force            0.055904     0.000450     NO 
 RMS     Force            0.014401     0.000300     NO 
 Maximum Displacement     0.401788     0.001800     NO 
 RMS     Displacement     0.124238     0.001200     NO 
 Predicted change in Energy=-4.651105D-02
 GradGradGradGradGradGradGradGradGradGradGradGradGradGradGradGradGradGrad

                          Input orientation:                          
 ---------------------------------------------------------------------
 Center     Atomic      Atomic             Coordinates (Angstroms)
 Number     Number       Type             X           Y           Z
 ---------------------------------------------------------------------
      1         26           0        6.205298    1.026550    0.203916
      2          8           0        8.190439    1.017672    0.151690
      3          8           0        6.229995   -0.961700    0.103656
      4          8           0        6.223294    1.150404   -1.741722
      5          8           0        4.219132    1.013007    0.176163
      6          8           0        6.171992    3.004757    0.225375
      7          8           0        6.187087    1.054318    2.193288
      8          1           0        3.776783    1.763604    0.611809
      9          1           0        3.774811    0.241352    0.566640
     10          1           0        6.958699    3.440353    0.590530
     11          1           0        5.447418    3.414036    0.724879
     12          1           0        6.911678    0.574951    2.633778
     13          1           0        5.385650    0.695835    2.615688
     14          1           0        8.630352    1.770859    0.585480
     15          1           0        8.646403    0.252101    0.539348
     16          1           0        7.024417   -1.414614    0.432981
     17          1           0        5.515391   -1.430818    0.567216
     18          1           0        6.964407    0.677896   -2.160147
     19          1           0        5.417763    0.801786   -2.163690
 ---------------------------------------------------------------------
                    Distance matrix (angstroms):
                    1          2          3          4          5
     1  Fe   0.000000
     2  O    1.985848   0.000000
     3  O    1.990929   2.786316   0.000000
     4  O    1.949659   2.733548   2.804719   0.000000
     5  O    1.986406   3.971386   2.819273   2.777378   0.000000
     6  O    1.978603   2.833384   3.968748   2.703836   2.789830
     7  O    1.989649   2.860573   2.903916   3.936350   2.818395
     8  H    2.570469   4.499831   3.701858   3.449716   0.974092
     9  H    2.579801   4.502514   2.773016   3.485683   0.972289
    10  H    2.558032   2.753024   4.488443   3.350237   3.683604
    11  H    2.558491   3.687177   4.488364   3.436588   2.752220
    12  H    2.570437   2.827011   3.037681   4.466545   3.671726
    13  H    2.568626   3.747226   3.125802   4.460415   2.722617
    14  H    2.565244   0.974160   3.668889   3.405108   4.494524
    15  H    2.582882   0.971741   2.739008   3.446982   4.506840
    16  H    2.585094   2.711964   0.971953   3.456942   3.718727
    17  H    2.578103   3.650157   0.972430   3.534831   2.793831
    18  H    2.507309   2.638787   2.890059   0.973442   3.620384
    19  H    2.505252   3.618746   2.985039   0.973895   2.637469
                    6          7          8          9         10
     6  O    0.000000
     7  O    2.770762   0.000000
     8  H    2.725219   2.968793   0.000000
     9  H    3.674146   3.020923   1.522923   0.000000
    10  H    0.970562   2.976135   3.596739   4.513460   0.000000
    11  H    0.970578   2.876040   2.351113   3.590067   1.517470
    12  H    3.500214   0.974092   3.915204   3.771509   3.519602
    13  H    3.415121   0.974286   2.782825   2.645742   3.756079
    14  H    2.774115   3.011316   4.853646   5.090779   2.362553
    15  H    3.714620   3.070391   5.099322   4.871681   3.607757
    16  H    4.505615   3.145700   4.547546   3.649662   4.857967
    17  H    4.496922   3.044862   3.637180   2.413664   5.080550
    18  H    3.425335   4.438278   4.361588   4.218941   3.898387
    19  H    3.336102   4.431578   3.364715   3.235442   4.113665
                   11         12         13         14         15
    11  H    0.000000
    12  H    3.721338   0.000000
    13  H    3.311736   1.530915   0.000000
    14  H    3.584764   2.929090   3.975615   0.000000
    15  H    4.501751   2.738639   3.891091   1.519543   0.000000
    16  H    5.088025   2.968937   3.450182   3.570648   2.328109
    17  H    4.847895   3.200532   2.955625   4.466996   3.554747
    18  H    4.255713   4.795321   5.030049   3.392405   3.209001
    19  H    3.894684   5.029805   4.780659   4.337945   4.246490
                   16         17         18         19
    16  H    0.000000
    17  H    1.515071   0.000000
    18  H    3.332644   3.739630   0.000000
    19  H    3.773124   3.528725   1.551601   0.000000
 Stoichiometry    FeH12O6(2+)
 Framework group  C1[X(FeH12O6)]
 Deg. of freedom    51
 Full point group                 C1      NOp   1
 Largest Abelian subgroup         C1      NOp   1
 Largest concise Abelian subgroup C1      NOp   1
                         Standard orientation:                         
 ---------------------------------------------------------------------
 Center     Atomic      Atomic             Coordinates (Angstroms)
 Number     Number       Type             X           Y           Z
 ---------------------------------------------------------------------
      1         26           0        0.004415   -0.006494    0.025009
      2          8           0        1.759443   -0.847195   -0.370828
      3          8           0        0.873978    1.780384   -0.096349
      4          8           0        0.452682   -0.124415    1.918768
      5          8           0       -1.722344    0.854986    0.496142
      6          8           0       -0.848937   -1.780541    0.223550
      7          8           0       -0.517675   -0.025583   -1.894824
      8          1           0       -2.528725    0.365202    0.253826
      9          1           0       -1.889107    1.742178    0.134996
     10          1           0       -0.431128   -2.511006   -0.260027
     11          1           0       -1.777054   -1.841167   -0.053839
     12          1           0        0.205741    0.097556   -2.535418
     13          1           0       -1.176125    0.640769   -2.162504
     14          1           0        1.725040   -1.716543   -0.809051
     15          1           0        2.379233   -0.350430   -0.930618
     16          1           0        1.675237    1.849852   -0.642106
     17          1           0        0.327129    2.509585   -0.435230
     18          1           0        1.401293   -0.013775    2.107142
     19          1           0       -0.003488    0.535522    2.470913
 ---------------------------------------------------------------------
 Rotational constants (GHZ):           1.6912536           1.6609590           1.6398921
 Standard basis: def2SVP (5D, 7F)
 There are   186 symmetry adapted cartesian basis functions of A   symmetry.
 There are   175 symmetry adapted basis functions of A   symmetry.
   175 basis functions,   315 primitive gaussians,   186 cartesian basis functions
    42 alpha electrons       42 beta electrons
       nuclear repulsion energy       707.1811222287 Hartrees.
 NAtoms=   19 NActive=   19 NUniq=   19 SFac= 1.00D+00 NAtFMM=   60 NAOKFM=F Big=F
 Integral buffers will be    131072 words long.
 Raffenetti 2 integral format.
 Two-electron integral symmetry is turned on.
 One-electron integrals computed using PRISM.
 PrsmSu:  requested number of processors reduced to:  13 ShMem   1 Linda.
   1 Symmetry operations used in ECPInt.
 ECPInt:  NShTT=    3486 NPrTT=   13195 LenC2=    3466 LenP2D=   10634.
 LDataN:  DoStor=T MaxTD1= 6 Len=  172
 NBasis=   175 RedAO= T EigKep=  1.44D-02  NBF=   175
 NBsUse=   175 1.00D-06 EigRej= -1.00D+00 NBFU=   175
 Initial guess from the checkpoint file:  "/scratch/Gau-119128.chk"
 B after Tr=    -0.000000    0.000000    0.000000
         Rot=    0.978300    0.203385    0.037056   -0.013786 Ang=  23.92 deg.
 ExpMin= 3.37D-02 ExpMax= 6.09D+04 ExpMxC= 9.15D+03 IAcc=3 IRadAn=         5 AccDes= 0.00D+00
 Harris functional with IExCor=  402 and IRadAn=       5 diagonalized for initial guess.
 HarFok:  IExCor=  402 AccDes= 0.00D+00 IRadAn=         5 IDoV= 1 UseB2=F ITyADJ=14
 ICtDFT=  3500011 ScaDFX=  1.000000  1.000000  1.000000  1.000000
 FoFCou: FMM=F IPFlag=           0 FMFlag=      100000 FMFlg1=           0
         NFxFlg=           0 DoJE=T BraDBF=F KetDBF=T FulRan=T
         wScrn=  0.000000 ICntrl=       500 IOpCl=  0 I1Cent=   200000004 NGrid=           0
         NMat0=    1 NMatS0=      1 NMatT0=    0 NMatD0=    1 NMtDS0=    0 NMtDT0=    0
 Petite list used in FoFCou.
 Requested convergence on RMS density matrix=1.00D-08 within 128 cycles.
 Requested convergence on MAX density matrix=1.00D-06.
 Requested convergence on             energy=1.00D-06.
 No special actions if energy rises.
 SCF Done:  E(RB3LYP) =  -1721.28178251     A.U. after   15 cycles
            NFock= 15  Conv=0.71D-08     -V/T= 2.0033
 PrsmSu:  requested number of processors reduced to:  13 ShMem   1 Linda.
   1 Symmetry operations used in ECPInt.
 ECPInt:  NShTT=    3486 NPrTT=   13195 LenC2=    3466 LenP2D=   10634.
 LDataN:  DoStor=T MaxTD1= 7 Len=  274
 Calling FoFJK, ICntrl=      2127 FMM=F ISym2X=0 I1Cent= 0 IOpClX= 0 NMat=1 NMatS=1 NMatT=0.
 ***** Axes restored to original set *****
 -------------------------------------------------------------------
 Center     Atomic                   Forces (Hartrees/Bohr)
 Number     Number              X              Y              Z
 -------------------------------------------------------------------
      1       26           0.000025857    0.004543313   -0.003904936
      2        8           0.005407302    0.000784828    0.011212115
      3        8          -0.000305793   -0.006257215    0.009887462
      4        8          -0.000974799   -0.007967767   -0.005716797
      5        8          -0.005243001   -0.000758892    0.010701513
      6        8           0.000417178    0.003685770    0.006634599
      7        8          -0.000181812   -0.011102741    0.007908103
      8        1          -0.004212455    0.000976233   -0.006452444
      9        1          -0.005448558   -0.000533956   -0.005762960
     10        1           0.000496018    0.005367575   -0.003236695
     11        1          -0.000454867    0.004999923   -0.001612591
     12        1          -0.000573328    0.004608638    0.004082706
     13        1           0.001446992    0.004489593    0.003862770
     14        1           0.004045851    0.000971236   -0.005903994
     15        1           0.005362465   -0.000573279   -0.004722407
     16        1           0.000889153   -0.004658676   -0.005445751
     17        1          -0.001084998   -0.004576765   -0.004902981
     18        1          -0.000833285    0.002981623   -0.003393960
     19        1           0.001222080    0.003020559   -0.003233751
[...]
 0024364,-0.01128972,0.00314042,-0.00011745,0.00140923,0.00011196,0.000
 35125,-0.00129879,-0.00785351,-0.00005041,0.00200180,0.00011579,0.0001
 7420,0.00195975,0.00006909,-0.00037077,-0.00166806,0.00746497,-0.01311
 445,0.00626737,0.00085219,0.00428239,-0.06942815,0.00221394,0.00006761
 ,-0.00077475,0.00040970,-0.00291725,-0.00266435,0.00045945,0.00011373,
 -0.00367878,-0.00337557,0.00015243,-0.00250127,0.00003441,0.00250270,-
 0.00156042,0.02308065,0.01075629,0.52580650,-0.00187597,0.01055332,-0.
 00175931,-0.00021406,-0.00134397,0.00007837,-0.00015809,-0.00014474,0.
 00003124,0.00076897,-0.00043577,-0.00024251,-0.19185175,0.22273608,-0.
 03615551,0.00303171,0.00039101,0.00036365,0.00006967,-0.00035656,0.000
 30348,0.17711732,0.00419492,0.00469205,-0.00004674,-0.00090732,-0.0005
 0654,-0.00002295,-0.00069057,0.00044631,0.00005092,-0.00038454,-0.0006
 5779,0.00045212,0.18231316,-0.36482821,0.03616159,0.00316884,-0.000974
 30,0.00018231,-0.00049667,-0.00064212,-0.00060715,-0.20711128,0.385737
 54,-0.00001183,-0.00091635,0.00003730,0.00000802,0.00016900,-0.0000117
 4,0.00024096,-0.00005419,0.00004022,-0.00068571,0.00046495,-0.00029551
 ,-0.03901018,0.04998093,-0.00965303,0.00029870,-0.00002000,-0.00201996
 ,0.00019536,-0.00056851,-0.00049120,0.03472500,-0.04145403,0.01183145,
 -0.00056847,-0.00894484,-0.00246436,-0.00017180,0.00119675,0.00018877,
 0.00284899,-0.00030804,0.00031577,0.00077589,0.00042885,-0.00023495,-0
 .22543924,-0.23061305,-0.05989480,0.00007306,0.00010780,0.00002109,0.0
 0011794,0.00024412,0.00032832,0.01490613,0.02065918,0.00423988,0.21007
 982,-0.00423140,0.00439996,0.00063559,0.00096144,-0.00046224,-0.000033
 79,-0.00266069,-0.00088729,-0.00015632,0.00034923,-0.00052561,-0.00047
 648,-0.18891817,-0.32459909,-0.06138946,0.00025294,0.00040291,-0.00005
 462,0.00043324,-0.00068956,0.00060892,-0.02435434,-0.02427054,-0.00776
 641,0.21696468,0.34567813,-0.00049271,0.00142142,-0.00077589,0.0000975
 3,-0.00020871,0.00004504,0.00001516,0.00005000,-0.00135432,-0.00053205
 ,-0.00046204,-0.00034957,-0.05988140,-0.07522426,-0.01823016,0.0003309
 6,0.00013640,0.00018777,0.00012781,0.00052558,-0.00045174,0.00267646,0
 .00517537,0.00028374,0.05753706,0.06866840,0.02030320,0.00008695,-0.00
 041718,-0.00194892,-0.00035640,-0.00074763,0.00048010,-0.00003185,0.00
 011298,0.00029318,-0.00179480,-0.00018113,-0.00010767,-0.00043413,0.00
 012526,-0.00050905,-0.01636260,-0.05191037,0.07192941,0.00004938,0.000
 36304,-0.00012154,-0.00035305,-0.00092989,0.00077390,-0.00020246,-0.00
 015249,-0.00008458,0.01863741,-0.00268936,-0.00194860,0.00960939,-0.00
 026593,0.00079437,-0.00036458,0.00022765,-0.00012051,-0.00126637,0.000
 11867,0.00296655,0.00049042,0.00033064,0.00008332,-0.00031072,-0.05309
 966,-0.21927657,0.22937385,0.00004157,-0.00002801,-0.00014518,-0.00054
 715,-0.00015971,0.00020960,-0.00017697,-0.00007609,0.00003404,0.051133
 75,0.20432976,-0.00092183,0.00391277,0.00485205,0.00050723,-0.00032317
 ,-0.00059544,0.00009042,-0.00090422,-0.00053481,-0.00004264,0.00324191
 ,-0.00083089,-0.00057380,-0.00052306,-0.00070406,0.06053788,0.18781040
 ,-0.33151914,0.00006102,-0.00055439,0.00043180,0.00047145,0.00022310,0
 .00058898,-0.00003972,0.00010994,0.00017411,-0.06657869,-0.21514304,0.
 35227068,-0.00061073,0.00004306,0.00127900,-0.00022185,-0.00054360,-0.
 00047797,0.00003595,0.00000368,-0.00020536,0.00013977,0.00022897,0.000
 04729,-0.00056650,0.00014571,0.00054779,-0.00374850,-0.02463917,-0.027
 46401,-0.00155364,-0.00000053,0.00002868,-0.00014624,-0.00092022,-0.00
 096301,-0.00023541,-0.00014918,0.00008266,-0.00012497,0.00412393,0.006
 84624,0.00634320,-0.00140208,-0.00059667,-0.00965103,-0.00031204,0.000
 63073,0.00042769,0.00005936,-0.00024231,0.00124923,0.00002931,0.000019
 33,0.00010933,0.00023831,0.00017338,0.00033666,-0.02063018,-0.20729521
 ,-0.23099448,0.00008506,0.00308671,-0.00020145,-0.00048981,-0.00015571
 ,-0.00029079,-0.00015313,-0.00010441,0.00000933,0.00122157,0.01531765,
 0.02351511,0.02059605,0.19140384,0.00014599,-0.00435259,0.00422575,-0.
 00047034,0.00036818,-0.00055028,-0.00001622,0.00095340,-0.00043002,-0.
 00008685,0.00041103,0.00045786,0.00058919,0.00046098,-0.00059781,-0.01
 597325,-0.18911518,-0.35670291,-0.00006276,-0.00279555,-0.00099450,-0.
 00059763,-0.00035637,0.00040673,-0.00003922,-0.00013540,0.00008934,-0.
 00353835,-0.02211409,-0.02430266,0.01958630,0.21514678,0.37791898,0.00
 519863,0.00029507,-0.00405983,-0.00073108,0.00006638,-0.00283643,-0.00
 067217,0.00052410,0.00031801,-0.00059534,-0.00004431,0.00094411,0.0004
 0144,-0.00003453,0.00029143,-0.00056900,-0.00050136,0.00030845,-0.3087
 4696,-0.00319307,-0.20125635,-0.00006965,0.00013167,-0.00013619,-0.000
 07414,-0.00012147,-0.00014511,0.00018977,-0.00001697,-0.00012249,0.000
 46798,0.00034855,-0.00014983,0.32848246,0.00081695,-0.00112495,-0.0000
 1470,0.00004617,-0.00137202,-0.00020266,0.00049167,-0.00046427,0.00029
 669,-0.00011782,0.00002974,0.00000813,-0.00000091,0.00021333,0.0000730
 0,-0.00047677,-0.00032168,-0.00038987,-0.00619331,0.00054192,-0.005530
 96,0.00002900,0.00014846,-0.00007746,0.00000034,0.00011712,0.00010429,
 -0.00006856,-0.00022458,0.00018307,0.00063617,-0.00052314,0.00100270,0
 .00398016,0.00278245,-0.00846444,-0.00067265,-0.00091774,-0.00045981,-
 0.00009637,0.00264973,0.00026770,0.00028263,0.00043006,0.00114460,0.00
 003719,-0.00004325,0.00012468,0.00000299,0.00013966,0.00029196,-0.0003
 5723,0.00050682,-0.24456698,-0.00409292,-0.26079683,-0.00015313,0.0000
 1996,-0.00024107,-0.00015818,0.00000650,-0.00023501,-0.00001235,0.0001
 4738,-0.00012640,-0.00022661,0.00066829,-0.00018321,0.23184285,0.00462
 211,0.24516761,0.00394307,-0.00036513,0.00452252,0.00049782,0.00005266
 ,-0.00066778,-0.00056442,-0.00053995,-0.00056695,-0.00039996,0.0000501
 5,-0.00091622,-0.00112881,-0.00010066,0.00296017,-0.00061485,0.0005349
 7,-0.00041996,-0.38412875,0.01577212,0.17755372,-0.00005028,0.00031920
 ,-0.00092951,-0.00010507,-0.00019680,-0.00089501,0.00010462,-0.0000390
 4,0.00014776,0.00045666,-0.00051085,0.00030719,-0.02362004,0.00155241,
 0.01938874,0.40499301,-0.00101304,-0.00007441,-0.00016057,-0.00006163,
 0.00003175,0.00015063,-0.00051503,-0.00042730,0.00021545,0.00015212,-0
 .00004765,0.00004739,-0.00003366,-0.00206602,-0.00011814,0.00055791,-0
 .00032177,-0.00062908,0.01884550,-0.00142695,-0.00970733,0.00025523,0.
 00049502,0.00093456,-0.00016552,0.00052266,-0.00084662,0.00006375,-0.0
 0022290,0.00020832,-0.00083169,-0.00056568,0.00098629,-0.00096574,-0.0
 0061805,0.00011914,-0.01701538,0.00467892,0.01047516,-0.00092311,-0.00
 080749,-0.00010640,0.00001555,-0.00015798,-0.00044322,0.00024515,0.000
 19286,-0.00132412,0.00007893,-0.00031907,0.00017134,-0.00006017,0.0031
 8206,-0.00042467,-0.00026637,0.00053607,0.21965013,-0.01007269,-0.1815
 1571,-0.00050002,0.00057975,-0.00037360,-0.00051393,-0.00051056,-0.000
 29218,0.00001056,0.00010168,-0.00014459,0.00028406,0.00058519,-0.00009
 355,-0.02696290,0.00105460,0.01545407,-0.20126971,0.00984459,0.1653167
 8,-0.00058366,-0.00895781,-0.00250755,-0.22472718,-0.23021662,-0.06075
 864,0.00006984,0.00010945,0.00002311,0.00011049,0.00024535,0.00032987,
 -0.00016782,0.00119767,0.00019317,0.00285286,-0.00030971,0.00032201,0.
 00078203,0.00043174,-0.00023632,-0.00045342,-0.00022830,0.00003521,0.0
 0006129,-0.00003377,-0.00000545,-0.00048828,0.00066611,-0.00045750,-0.
 00063005,0.00070955,0.00031530,-0.00030561,-0.00035181,0.00070887,-0.0
 0019206,-0.00000419,0.00012121,0.20941623,-0.00422995,0.00438972,0.000
 63644,-0.18860399,-0.32464832,-0.06221599,0.00025224,0.00040264,-0.000
 05556,0.00043528,-0.00069058,0.00060914,0.00095937,-0.00046177,-0.0000
 3371,-0.00266107,-0.00088796,-0.00015675,0.00035055,-0.00052422,-0.000
 47558,0.00024997,0.00043739,0.00000008,-0.00003318,-0.00012953,-0.0000
 1231,0.00102833,-0.00020916,0.00029811,0.00097935,-0.00018806,-0.00016
 539,-0.00025033,0.00041501,0.00036740,-0.00014994,0.00017073,0.0000048
 5,0.21660279,0.34575965,-0.00049455,0.00143969,-0.00076695,-0.06083182
 ,-0.07637842,-0.01885398,0.00033600,0.00013677,0.00018554,0.00012109,0
 .00052610,-0.00045371,0.00009953,-0.00021125,0.00004241,0.00002016,0.0
 0005236,-0.00135387,-0.00053441,-0.00046104,-0.00034636,0.00006377,0.0
 0001770,0.00017573,-0.00000584,-0.00001204,0.00014488,-0.00072938,0.00
 028690,0.00040811,0.00060508,-0.00028487,0.00049733,0.00101277,0.00066
 313,-0.00043748,0.00021622,-0.00005731,-0.00018828,0.05837523,0.069631
 35,0.02087370,-0.00191964,0.01057664,-0.00182068,-0.19136819,0.2223034
 6,-0.03743881,0.00302741,0.00038971,0.00037217,0.00006282,-0.00035263,
 0.00030284,-0.00021471,-0.00134556,0.00008269,-0.00015890,-0.00014496,
 0.00003150,0.00078113,-0.00043497,-0.00024152,0.00010835,0.00005413,-0
 .00001740,-0.00045315,0.00024982,0.00006352,-0.00019206,0.00008785,-0.
 00004277,-0.00019264,0.00012712,-0.00002512,-0.00025143,0.00030083,0.0
 0068935,-0.00019772,-0.00000072,0.00009348,0.01486723,-0.02430971,0.00
 278262,0.17671472,0.00418712,0.00470106,-0.00005699,0.18197363,-0.3645
 5720,0.03778227,0.00316922,-0.00097407,0.00018747,-0.00049686,-0.00064
 379,-0.00060939,-0.00090650,-0.00050578,-0.00002273,-0.00068996,0.0004
 4583,0.00005230,-0.00038400,-0.00065784,0.00045328,0.00005390,-0.00006
 815,-0.00001402,-0.00022817,0.00043734,0.00001806,0.00022290,-0.000195
 01,0.00014043,0.00022381,-0.00015216,-0.00014192,0.00024616,0.00051279
 ,-0.00036570,0.00013788,0.00014006,0.00000219,0.02063512,-0.02429620,0
 .00534880,-0.20674562,0.38548642,-0.00001544,-0.00094385,0.00005804,-0
 .04028651,0.05193166,-0.01031135,0.00030564,-0.00002013,-0.00201569,0.
 00019026,-0.00056774,-0.00049285,0.00001168,0.00017341,-0.00001436,0.0
 0024852,-0.00005661,0.00004019,-0.00069479,0.00046436,-0.00029504,-0.0
 0001805,-0.00001416,0.00013208,0.00003576,0.00000002,0.00017534,0.0000
 6063,-0.00001138,0.00012656,-0.00007859,-0.00002364,0.00016991,0.00102
 248,-0.00064511,-0.00053308,0.00023414,0.00008091,-0.00017579,0.004292
 13,-0.00790427,0.00033314,0.03594456,-0.04323680,0.01241433,-0.0006145
 9,0.00005526,0.00126775,-0.00056606,0.00014714,0.00054814,-0.00369881,
 -0.02437504,-0.02694544,-0.00156430,-0.00000169,0.00002900,-0.00022017
 ,-0.00054224,-0.00047920,0.00003562,0.00000235,-0.00020272,0.00014313,
 0.00022584,0.00004555,-0.00019249,0.00022378,-0.00007791,-0.00062601,0
 .00097510,0.00060631,0.00017226,0.00006729,0.00000828,0.00014272,0.000
 00206,0.00001722,0.00011129,0.00010274,0.00003421,0.00015981,-0.000067
 92,0.00004830,-0.00023498,-0.00014925,0.00008231,-0.00014220,-0.000919
 12,-0.00096390,0.00630860,-0.00138819,-0.00060396,-0.00967203,0.000238
 00,0.00017578,0.00033650,-0.02029117,-0.20691646,-0.23086902,0.0000829
 6,0.00309069,-0.00020211,-0.00031085,0.00062902,0.00042692,0.00005926,
 -0.00024146,0.00125023,0.00002948,0.00001824,0.00010815,0.00012638,-0.
 00015198,-0.00002370,0.00070574,-0.00018700,-0.00028403,0.00009172,-0.
 00044973,-0.00025759,0.00000159,0.00007390,-0.00003206,-0.00000470,-0.
 00022282,-0.00014974,-0.00000597,-0.00020928,-0.00016264,-0.00015246,-
 0.00010483,0.00000964,-0.00048816,-0.00015538,-0.00029103,0.02027758,0
 .19102014,0.00013667,-0.00435789,0.00422610,0.00058985,0.00045978,-0.0
 0059661,-0.01542601,-0.18903347,-0.35715297,-0.00006279,-0.00280448,-0
 .00099837,-0.00047202,0.00036959,-0.00055023,-0.00001623,0.00095320,-0
 .00043033,-0.00008665,0.00040890,0.00045727,-0.00002475,-0.00014231,0.
 00016907,0.00031595,-0.00016528,0.00049639,-0.00003281,0.00022342,0.00
 043877,0.00001714,-0.00003191,-0.00011309,-0.00011634,-0.00017014,-0.0
 0014031,0.00014814,-0.00017203,-0.00009410,-0.00004033,-0.00013575,0.0
 0008923,-0.00059949,-0.00035863,0.00040374,0.01901642,0.21503251,0.378
 33470,0.00008615,-0.00042507,-0.00195784,-0.00043177,0.00012100,-0.000
 50614,-0.01666901,-0.05243314,0.07264366,0.00005017,0.00036721,-0.0001
 2412,-0.00035460,-0.00075074,0.00047896,-0.00003165,0.00011481,0.00029
 486,-0.00180009,-0.00017530,-0.00010712,-0.00019232,0.00022295,0.00006
 146,-0.00049209,0.00103134,-0.00072804,0.00013689,-0.00002000,0.000005
 06,0.00017191,0.00009205,-0.00003318,0.00047842,-0.00076100,-0.0002341
 7,0.00048463,0.00082370,0.00034536,-0.00020187,-0.00015247,-0.00008391
 ,-0.00035343,-0.00092864,0.00076974,-0.00013940,0.00119034,-0.00350491
 ,0.01896390,-0.00270900,-0.00195386,0.00960388,0.00033191,0.00008078,-
 0.00030954,-0.05368895,-0.21947688,0.22927688,0.00004183,-0.00002625,-
 0.00014405,-0.00026695,0.00079824,-0.00036539,0.00022753,-0.00012149,-
 0.00126441,0.00012524,0.00295391,0.00049197,0.00008843,-0.00019534,-0.
 00001174,0.00066890,-0.00021013,0.00028808,-0.00001986,0.00008725,0.00
 005057,0.00006762,-0.00044854,0.00022280,-0.00044121,-0.00025099,-0.00
 059944,0.00049640,-0.00040222,-0.00056061,-0.00017717,-0.00007576,0.00
 003493,-0.00054713,-0.00015986,0.00020774,0.00417199,0.01531422,-0.022
 06244,0.05168730,0.20453550,-0.00093425,0.00391544,0.00485263,-0.00057
 417,-0.00052507,-0.00070310,0.06122488,0.18774563,-0.33103329,0.000061
 45,-0.00054916,0.00043024,0.00050715,-0.00032259,-0.00059756,0.0000912
 8,-0.00090475,-0.00053446,-0.00004017,0.00324017,-0.00083171,-0.000042
 20,0.00014051,0.00012807,-0.00045570,0.00029804,0.00041005,0.00000503,
 0.00005062,-0.00008597,0.00000882,-0.00025695,0.00043837,-0.00022433,-
 0.00104026,-0.00028099,0.00032843,-0.00093674,-0.00015993,-0.00004070,
 0.00010995,0.00017409,0.00046946,0.00022119,0.00059053,0.00690647,0.02
 353412,-0.02426590,-0.06731681,-0.21510953,0.35173710,0.00394606,-0.00
 036210,0.00452781,-0.00113012,-0.00010049,0.00295259,-0.00061585,0.000
 53635,-0.00042044,-0.38426580,0.01437666,0.17762477,0.00049711,0.00005
 007,-0.00066771,-0.00056349,-0.00053888,-0.00056624,-0.00040056,0.0000
 5080,-0.00091691,-0.00019581,0.00013788,0.00023335,-0.00019134,-0.0001
 4992,0.00021569,0.00048269,0.00049734,0.00032962,0.00016122,-0.0000053
 8,0.00014806,0.00043691,0.00001245,-0.00018207,-0.00007474,-0.00000411
 ,0.00004052,-0.00010200,-0.00019604,-0.00089058,-0.00004803,0.00031725
 ,-0.00092270,0.00045826,-0.00051222,0.00030686,0.00010365,-0.00003907,
 0.00014777,0.40509102,-0.00096178,-0.00008621,-0.00016112,-0.00002976,
 -0.00206898,-0.00011738,0.00055977,-0.00032635,-0.00062051,0.01697320,
 -0.00123044,-0.00843014,-0.00006008,0.00003360,0.00014125,-0.00051672,
 -0.00042408,0.00022353,0.00014522,-0.00004552,0.00004409,0.00000021,0.
 00014077,0.00008120,-0.00000408,0.00016965,-0.00005728,0.00082385,-0.0
 0040626,-0.00093914,-0.00006756,-0.00020964,-0.00017278,-0.00001933,0.
 00019918,0.00004868,-0.00000387,0.00014370,-0.00000799,-0.00016458,0.0
 0052242,-0.00084586,0.00025166,0.00049548,0.00093461,-0.00083493,-0.00
 056273,0.00098713,0.00006397,-0.00022384,0.00020732,-0.01544259,0.0045
 1791,0.01047412,-0.00085184,-0.00079485,0.00016860,-0.00006706,0.00316
 998,-0.00042375,-0.00026593,0.00052580,0.21972091,-0.00885747,-0.18159
 237,-0.00010656,0.00001407,-0.00015568,-0.00044523,0.00024519,0.000203
 81,-0.00132349,0.00007139,-0.00032031,0.00009462,0.00000352,-0.0001760
 6,0.00012084,0.00000523,-0.00018848,0.00034685,-0.00056487,-0.00016225
 ,0.00004795,-0.00016267,-0.00009484,0.00030466,0.00005329,-0.00044575,
 0.00004016,-0.00000924,0.00008615,-0.00051097,-0.00050949,-0.00028950,
 -0.00049433,0.00058022,-0.00036516,0.00028338,0.00058224,-0.00009201,0
 .00001040,0.00010215,-0.00014340,-0.20134885,0.00868258,0.16537180,0.0
 0520345,0.00026495,-0.00406673,0.00040110,-0.00003128,0.00029058,-0.00
 057117,-0.00050393,0.00031172,-0.30879760,-0.00136910,-0.20129894,-0.0
 0073332,0.00006943,-0.00283949,-0.00067151,0.00052303,0.00031426,-0.00
 059623,-0.00004323,0.00094522,-0.00024901,0.00024309,0.00101989,-0.000
 30395,-0.00024956,0.00101118,0.00048063,-0.00043972,-0.00022554,0.0001
 1114,-0.00000553,-0.00011650,-0.00013147,0.00000128,-0.00003522,0.0004
 3709,-0.00001959,0.00030485,-0.00007304,-0.00012196,-0.00014431,-0.000
 06958,0.00013188,-0.00013556,0.00046733,0.00035065,-0.00014870,0.00019
 052,-0.00001780,-0.00012242,-0.02358917,-0.00071261,-0.02695930,0.3284
 9482,0.00075247,-0.00113730,-0.00000135,-0.00000547,0.00021449,0.00005
 917,-0.00047937,-0.00032705,-0.00037983,-0.00389980,0.00065752,-0.0034
 9051,0.00004391,-0.00137509,-0.00020033,0.00049078,-0.00046067,0.00030
 674,-0.00010756,0.00003186,0.00000335,0.00030008,0.00051285,-0.0006431
 3,-0.00034936,0.00041371,0.00066427,-0.00076004,-0.00026174,-0.0010491
 3,0.00010201,-0.00022403,-0.00017081,0.00000096,0.00016250,0.00001179,
 0.00001178,0.00019940,0.00005166,-0.00000135,0.00011884,0.00010341,0.0
 0002821,0.00014645,-0.00007799,0.00063905,-0.00051638,0.00099982,-0.00
 006832,-0.00022472,0.00018208,0.00137200,-0.00063867,0.00094867,0.0019
 3001,0.00270802,-0.00846280,-0.00058759,-0.00090224,0.00012496,0.00000
 348,0.00013852,0.00029023,-0.00035715,0.00049511,-0.24461205,-0.002098
 47,-0.26089187,-0.00045853,-0.00010338,0.00264423,0.00026957,0.0002826
 1,0.00044392,0.00114384,0.00002969,-0.00004446,0.00068506,-0.00036313,
 -0.00053118,0.00070327,0.00036769,-0.00043253,-0.00023630,-0.00060707,
 -0.00028484,0.00003452,-0.00014981,-0.00014141,-0.00003497,0.00001015,
 0.00003316,-0.00018206,0.00004978,-0.00044574,-0.00015865,0.00000748,-
 0.00023405,-0.00015208,0.00001999,-0.00024055,-0.00022419,0.00066363,-
 0.00018135,-0.00001327,0.00014817,-0.00012478,0.01938846,0.00000182,0.
 01546312,0.23189499,0.00268211,0.24523694\\0.00006927,-0.00006550,0.00
 000111,-0.00005638,0.00004384,-0.00001871,-0.00003489,0.00002699,-0.00
 000652,-0.00001321,-0.00002363,0.00001202,0.00001379,0.00001406,-0.000
 01580,0.00001781,0.00000960,-0.00001680,0.00000782,-0.00000600,-0.0000
 0414,-0.00000477,-0.00000268,0.00001012,-0.00000731,0.00000458,0.00000
 432,-0.00000992,0.00000953,0.00000501,0.00000049,-0.00000360,0.0000022
 1,-0.00000854,0.00001063,0.00000503,0.00000201,-0.00000229,0.00000378,
 0.00000652,-0.00000756,0.00001278,-0.00000050,-0.00000388,0.00002112,0
 .00000715,-0.00000564,0.00000477,-0.00000141,-0.00000926,-0.00000663,0
 .00000101,0.00000863,-0.00000220,0.00001107,0.00000219,-0.00001150\\\@


 LEARN FROM YESTERDAY,
 LIVE FOR TODAY,
 LOOK TO TOMORROW,
 REST THIS AFTERNOON.

           -- SNOOPY
 Job cpu time:       0 days  0 hours 14 minutes 49.8 seconds.
 Elapsed time:       0 days  0 hours  0 minutes 56.9 seconds.
 File lengths (MBytes):  RWF=     77 Int=      0 D2E=      0 Chk=      4 Scr=      1
 Normal termination of Gaussian 16 at Sat May 14 21:26:01 2022.

Sender: Unischeduler System <lcz@mgt01>
Subject: Job 132095: <#!/bin/bash
#BSUB -J intel
#BSUB -o FeH2O62+-Opt.out
#BSUB -n 16
#BSUB -q cqueue
#BSUB -R span[hosts=1]
export g16root=/apps/software
source /apps/software/g16/bsd/g16.profile
export GAUSS_SCRDIR=/scratch
/apps/software/g16/g16 < FeH2O62+-Opt.inp > FeH2O62+-Opt.out> Done

Job <#!/bin/bash
#BSUB -J intel
#BSUB -o FeH2O62+-Opt.out
#BSUB -n 16
#BSUB -q cqueue
#BSUB -R span[hosts=1]
export g16root=/apps/software
source /apps/software/g16/bsd/g16.profile
export GAUSS_SCRDIR=/scratch
/apps/software/g16/g16 < FeH2O62+-Opt.inp > FeH2O62+-Opt.out> was submitted from host <mgt01> by user <lcz>.
Job was executed on host(s) <16*cnode06>, in queue <cqueue>, as user <lcz>.
</apps/users/lcz> was used as the home directory.
</apps/users/lcz/exe5/task1/Gaussian/B3LYP> was used as the working directory.
Started at 2022-05-14 21:16:13
Results reported at 2022-05-14 21:26:01

Your job looked like:

------------------------------------------------------------
# User input
#!/bin/bash
#BSUB -J intel
#BSUB -o FeH2O62+-Opt.out
#BSUB -n 16
#BSUB -q cqueue
#BSUB -R span[hosts=1]
export g16root=/apps/software
source /apps/software/g16/bsd/g16.profile
export GAUSS_SCRDIR=/scratch
/apps/software/g16/g16 < FeH2O62+-Opt.inp > FeH2O62+-Opt.out
------------------------------------------------------------

Successfully completed.

Resource usage summary:

    CPU time   :         8984.91 sec.
    Max Memory :               941 MB
    Max Processes  :               5


The output (if any) follows:

