[Molden Format]
[N_ATOMS]
           10
[Atoms]  AU
C     1    6      -3.153812        1.523264        0.000000
H     2    1      -2.669104        3.534007        0.000000
H     3    1      -5.159592        1.037028        0.000000
C     4    6      -1.352024       -0.263651        0.000000
H     5    1      -1.897611       -2.263346        0.000000
C     6    6       1.352024        0.263651        0.000000
H     7    1       1.897611        2.263346        0.000000
C     8    6       3.153812       -1.523264        0.000000
H     9    1       2.669104       -3.534007        0.000000
H    10    1       5.159592       -1.037028        0.000000
[5D7F9G]
[GTO]
    1
    s    8
   0.823600000E+04   0.542430189E-03
   0.123500000E+04   0.419642790E-02
   0.280800000E+03   0.215409141E-01
   0.792700000E+02   0.836149496E-01
   0.255900000E+02   0.239871619E+00
   0.899700000E+01   0.443751820E+00
   0.331900000E+01   0.353579696E+00
   0.364300000E+00  -0.917636608E-02
    s    8
   0.823600000E+04  -0.196392234E-03
   0.123500000E+04  -0.152595027E-02
   0.280800000E+03  -0.789044903E-02
   0.792700000E+02  -0.315148705E-01
   0.255900000E+02  -0.969100083E-01
   0.899700000E+01  -0.220541526E+00
   0.331900000E+01  -0.296069113E+00
   0.364300000E+00   0.104050343E+01
    s    1
   0.905900000E+00   0.100000000E+01
    s    1
   0.128500000E+00   0.100000000E+01
    p    3
   0.187100000E+02   0.394263872E-01
   0.413300000E+01   0.244088985E+00
   0.120000000E+01   0.815492009E+00
    p    1
   0.382700000E+00   0.100000000E+01
    p    1
   0.120900000E+00   0.100000000E+01
    d    1
   0.109700000E+01   0.100000000E+01
    d    1
   0.318000000E+00   0.100000000E+01
    f    1
   0.761000000E+00   0.100000000E+01
 
    2
    s    3
   0.338700000E+02   0.254948632E-01
   0.509500000E+01   0.190362766E+00
   0.115900000E+01   0.852162022E+00
    s    1
   0.325800000E+00   0.100000000E+01
    s    1
   0.102700000E+00   0.100000000E+01
    p    1
   0.140700000E+01   0.100000000E+01
    p    1
   0.388000000E+00   0.100000000E+01
    d    1
   0.105700000E+01   0.100000000E+01
 
    3
    s    3
   0.338700000E+02   0.254948632E-01
   0.509500000E+01   0.190362766E+00
   0.115900000E+01   0.852162022E+00
    s    1
   0.325800000E+00   0.100000000E+01
    s    1
   0.102700000E+00   0.100000000E+01
    p    1
   0.140700000E+01   0.100000000E+01
    p    1
   0.388000000E+00   0.100000000E+01
    d    1
   0.105700000E+01   0.100000000E+01
 
    4
    s    8
   0.823600000E+04   0.542430189E-03
   0.123500000E+04   0.419642790E-02
   0.280800000E+03   0.215409141E-01
   0.792700000E+02   0.836149496E-01
   0.255900000E+02   0.239871619E+00
   0.899700000E+01   0.443751820E+00
   0.331900000E+01   0.353579696E+00
   0.364300000E+00  -0.917636608E-02
    s    8
   0.823600000E+04  -0.196392234E-03
   0.123500000E+04  -0.152595027E-02
   0.280800000E+03  -0.789044903E-02
   0.792700000E+02  -0.315148705E-01
   0.255900000E+02  -0.969100083E-01
   0.899700000E+01  -0.220541526E+00
   0.331900000E+01  -0.296069113E+00
   0.364300000E+00   0.104050343E+01
    s    1
   0.905900000E+00   0.100000000E+01
    s    1
   0.128500000E+00   0.100000000E+01
    p    3
   0.187100000E+02   0.394263872E-01
   0.413300000E+01   0.244088985E+00
   0.120000000E+01   0.815492009E+00
    p    1
   0.382700000E+00   0.100000000E+01
    p    1
   0.120900000E+00   0.100000000E+01
    d    1
   0.109700000E+01   0.100000000E+01
    d    1
   0.318000000E+00   0.100000000E+01
    f    1
   0.761000000E+00   0.100000000E+01
 
    5
    s    3
   0.338700000E+02   0.254948632E-01
   0.509500000E+01   0.190362766E+00
   0.115900000E+01   0.852162022E+00
    s    1
   0.325800000E+00   0.100000000E+01
    s    1
   0.102700000E+00   0.100000000E+01
    p    1
   0.140700000E+01   0.100000000E+01
    p    1
   0.388000000E+00   0.100000000E+01
    d    1
   0.105700000E+01   0.100000000E+01
 
    6
    s    8
   0.823600000E+04   0.542430189E-03
   0.123500000E+04   0.419642790E-02
   0.280800000E+03   0.215409141E-01
   0.792700000E+02   0.836149496E-01
   0.255900000E+02   0.239871619E+00
   0.899700000E+01   0.443751820E+00
   0.331900000E+01   0.353579696E+00
   0.364300000E+00  -0.917636608E-02
    s    8
   0.823600000E+04  -0.196392234E-03
   0.123500000E+04  -0.152595027E-02
   0.280800000E+03  -0.789044903E-02
   0.792700000E+02  -0.315148705E-01
   0.255900000E+02  -0.969100083E-01
   0.899700000E+01  -0.220541526E+00
   0.331900000E+01  -0.296069113E+00
   0.364300000E+00   0.104050343E+01
    s    1
   0.905900000E+00   0.100000000E+01
    s    1
   0.128500000E+00   0.100000000E+01
    p    3
   0.187100000E+02   0.394263872E-01
   0.413300000E+01   0.244088985E+00
   0.120000000E+01   0.815492009E+00
    p    1
   0.382700000E+00   0.100000000E+01
    p    1
   0.120900000E+00   0.100000000E+01
    d    1
   0.109700000E+01   0.100000000E+01
    d    1
   0.318000000E+00   0.100000000E+01
    f    1
   0.761000000E+00   0.100000000E+01
 
    7
    s    3
   0.338700000E+02   0.254948632E-01
   0.509500000E+01   0.190362766E+00
   0.115900000E+01   0.852162022E+00
    s    1
   0.325800000E+00   0.100000000E+01
    s    1
   0.102700000E+00   0.100000000E+01
    p    1
   0.140700000E+01   0.100000000E+01
    p    1
   0.388000000E+00   0.100000000E+01
    d    1
   0.105700000E+01   0.100000000E+01
 
    8
    s    8
   0.823600000E+04   0.542430189E-03
   0.123500000E+04   0.419642790E-02
   0.280800000E+03   0.215409141E-01
   0.792700000E+02   0.836149496E-01
   0.255900000E+02   0.239871619E+00
   0.899700000E+01   0.443751820E+00
   0.331900000E+01   0.353579696E+00
   0.364300000E+00  -0.917636608E-02
    s    8
   0.823600000E+04  -0.196392234E-03
   0.123500000E+04  -0.152595027E-02
   0.280800000E+03  -0.789044903E-02
   0.792700000E+02  -0.315148705E-01
   0.255900000E+02  -0.969100083E-01
   0.899700000E+01  -0.220541526E+00
   0.331900000E+01  -0.296069113E+00
   0.364300000E+00   0.104050343E+01
    s    1
   0.905900000E+00   0.100000000E+01
    s    1
   0.128500000E+00   0.100000000E+01
    p    3
   0.187100000E+02   0.394263872E-01
   0.413300000E+01   0.244088985E+00
   0.120000000E+01   0.815492009E+00
    p    1
   0.382700000E+00   0.100000000E+01
    p    1
   0.120900000E+00   0.100000000E+01
    d    1
   0.109700000E+01   0.100000000E+01
    d    1
   0.318000000E+00   0.100000000E+01
    f    1
   0.761000000E+00   0.100000000E+01
 
    9
    s    3
   0.338700000E+02   0.254948632E-01
   0.509500000E+01   0.190362766E+00
   0.115900000E+01   0.852162022E+00
    s    1
   0.325800000E+00   0.100000000E+01
    s    1
   0.102700000E+00   0.100000000E+01
    p    1
   0.140700000E+01   0.100000000E+01
    p    1
   0.388000000E+00   0.100000000E+01
    d    1
   0.105700000E+01   0.100000000E+01
 
   10
    s    3
   0.338700000E+02   0.254948632E-01
   0.509500000E+01   0.190362766E+00
   0.115900000E+01   0.852162022E+00
    s    1
   0.325800000E+00   0.100000000E+01
    s    1
   0.102700000E+00   0.100000000E+01
    p    1
   0.140700000E+01   0.100000000E+01
    p    1
   0.388000000E+00   0.100000000E+01
    d    1
   0.105700000E+01   0.100000000E+01
 
[MO]
 Sym= Ag  
 Ene=         0.000000
 Spin= Alpha
 Occup=       0.000000
   1       -0.057572692
   2       -0.000023621
   3       -0.002578376
   4        0.000834210
   5       -0.000184770
   6        0.000139799
   7        0.000000000
   8        0.001054366
   9       -0.000608871
  10        0.000000000
  11        0.000899295
  12       -0.000331567
  13        0.000000000
  14       -0.000087085
  15        0.000000000
  16        0.000000000
  17       -0.000032948
  18       -0.000113951
  19        0.000063670
  20        0.000000000
  21        0.000000000
  22        0.000415048
  23       -0.000858206
  24        0.000000000
  25       -0.000117370
  26        0.000108243
  27        0.000000000
  28        0.000000000
  29       -0.000033741
  30       -0.000089261
  31        0.000030869
  32        0.000704939
  33        0.000053848
  34       -0.000003565
  35       -0.000027614
  36        0.000000000
  37        0.000033405
  38       -0.000296164
  39        0.000000000
  40       -0.000008536
  41        0.000000000
  42        0.000000000
  43       -0.000013951
  44       -0.000013396
  45       -0.000006741
  46        0.000654750
  47        0.000424476
  48        0.000049841
  49        0.000012599
  50        0.000000000
  51        0.000354284
  52       -0.000169118
  53        0.000000000
  54       -0.000030152
  55        0.000000000
  56        0.000000000
  57        0.000045811
  58       -0.000009076
  59       -0.689468252
  60       -0.001325541
  61       -0.029350124
  62       -0.003014455
  63       -0.000400078
  64        0.000175756
  65        0.000000000
  66        0.000428713
  67       -0.001377957
  68        0.000000000
  69        0.000349166
  70       -0.000855303
  71        0.000000000
  72        0.000432551
  73        0.000000000
  74        0.000000000
  75       -0.000036780
  76        0.000157450
  77       -0.000014782
  78        0.000000000
  79        0.000000000
  80        0.000570231
  81        0.000484354
  82        0.000000000
  83       -0.000140523
  84        0.000004773
  85        0.000000000
  86        0.000000000
  87       -0.000114138
  88       -0.000225534
  89       -0.000089209
  90       -0.000593006
  91        0.000140854
  92        0.000073615
  93        0.000146904
  94        0.000000000
  95        0.000088625
  96       -0.000298154
  97        0.000000000
  98       -0.000032060
  99        0.000000000
 100        0.000000000
 101       -0.000080173
 102        0.000112609
 103       -0.689468252
 104       -0.001325541
 105       -0.029350124
 106       -0.003014455
 107        0.000400078
 108       -0.000175756
 109        0.000000000
 110       -0.000428713
 111        0.001377957
 112        0.000000000
 113       -0.000349166
 114        0.000855303
 115        0.000000000
 116        0.000432551
 117        0.000000000
 118        0.000000000
 119       -0.000036780
 120        0.000157450
 121       -0.000014782
 122        0.000000000
 123        0.000000000
 124        0.000570231
 125        0.000484354
 126        0.000000000
 127        0.000140523
 128       -0.000004773
 129        0.000000000
 130        0.000000000
 131        0.000114138
 132        0.000225534
 133       -0.000089209
 134       -0.000593006
 135        0.000140854
 136       -0.000073615
 137       -0.000146904
 138        0.000000000
 139       -0.000088625
 140        0.000298154
 141        0.000000000
 142       -0.000032060
 143        0.000000000
 144        0.000000000
 145       -0.000080173
 146        0.000112609
 147       -0.057572692
 148       -0.000023621
 149       -0.002578376
 150        0.000834210
 151        0.000184770
 152       -0.000139799
 153        0.000000000
 154       -0.001054366
 155        0.000608871
 156        0.000000000
 157       -0.000899295
 158        0.000331567
 159        0.000000000
 160       -0.000087085
 161        0.000000000
 162        0.000000000
 163       -0.000032948
 164       -0.000113951
 165        0.000063670
 166        0.000000000
 167        0.000000000
 168        0.000415048
 169       -0.000858206
 170        0.000000000
 171        0.000117370
 172       -0.000108243
 173        0.000000000
 174        0.000000000
 175        0.000033741
 176        0.000089261
 177        0.000030869
 178        0.000704939
 179        0.000053848
 180        0.000003565
 181        0.000027614
 182        0.000000000
 183       -0.000033405
 184        0.000296164
 185        0.000000000
 186       -0.000008536
 187        0.000000000
 188        0.000000000
 189       -0.000013951
 190       -0.000013396
 191       -0.000006741
 192        0.000654750
 193        0.000424476
 194       -0.000049841
 195       -0.000012599
 196        0.000000000
 197       -0.000354284
 198        0.000169118
 199        0.000000000
 200       -0.000030152
 201        0.000000000
 202        0.000000000
 203        0.000045811
 204       -0.000009076
 Sym= Ag  
 Ene=         0.000000
 Spin= Alpha
 Occup=       0.000000
   1       -0.689531183
   2       -0.001176387
   3       -0.029237045
   4       -0.002675397
   5        0.000209811
   6       -0.000245746
   7        0.000000000
   8       -0.001379627
   9        0.001750011
  10        0.000000000
  11       -0.000425785
  12        0.000282546
  13        0.000000000
  14        0.000524807
  15        0.000000000
  16        0.000000000
  17       -0.000010328
  18        0.000146883
  19       -0.000139885
  20        0.000000000
  21        0.000000000
  22        0.000360252
  23        0.000986109
  24        0.000000000
  25        0.000005431
  26       -0.000006153
  27        0.000000000
  28        0.000000000
  29        0.000401567
  30        0.000382586
  31       -0.000074174
  32       -0.000859791
  33        0.000326983
  34       -0.000043319
  35       -0.000206804
  36        0.000000000
  37       -0.000064435
  38        0.000390655
  39        0.000000000
  40       -0.000035427
  41        0.000000000
  42        0.000000000
  43       -0.000149075
  44        0.000084785
  45       -0.000072318
  46       -0.001168245
  47        0.000256490
  48        0.000224425
  49        0.000047481
  50        0.000000000
  51       -0.000414326
  52       -0.000054444
  53        0.000000000
  54       -0.000053726
  55        0.000000000
  56        0.000000000
  57        0.000166838
  58        0.000070913
  59        0.058059154
  60        0.000367986
  61        0.002346597
  62        0.000681852
  63        0.000161574
  64       -0.000171344
  65        0.000000000
  66       -0.000544243
  67        0.001384578
  68        0.000000000
  69       -0.000171936
  70        0.000349436
  71        0.000000000
  72       -0.000197444
  73        0.000000000
  74        0.000000000
  75       -0.000030682
  76       -0.000098136
  77        0.000159232
  78        0.000000000
  79        0.000000000
  80        0.001023861
  81       -0.002307356
  82        0.000000000
  83        0.000070014
  84       -0.000111789
  85        0.000000000
  86        0.000000000
  87        0.000114024
  88        0.000127807
  89        0.000053486
  90        0.002256689
  91        0.000121275
  92       -0.000025607
  93        0.000016512
  94        0.000000000
  95       -0.000170511
  96        0.000975994
  97        0.000000000
  98        0.000000068
  99        0.000000000
 100        0.000000000
 101       -0.000061726
 102       -0.000067050
 103        0.058059154
 104        0.000367986
 105        0.002346597
 106        0.000681852
 107       -0.000161574
 108        0.000171344
 109        0.000000000
 110        0.000544243
 111       -0.001384578
 112        0.000000000
 113        0.000171936
 114       -0.000349436
 115        0.000000000
 116       -0.000197444
 117        0.000000000
 118        0.000000000
 119       -0.000030682
 120       -0.000098136
 121        0.000159232
 122        0.000000000
 123        0.000000000
 124        0.001023861
 125       -0.002307356
 126        0.000000000
 127       -0.000070014
 128        0.000111789
 129        0.000000000
 130        0.000000000
 131       -0.000114024
 132       -0.000127807
 133        0.000053486
 134        0.002256689
 135        0.000121275
 136        0.000025607
 137       -0.000016512
 138        0.000000000
 139        0.000170511
 140       -0.000975994
 141        0.000000000
 142        0.000000068
 143        0.000000000
 144        0.000000000
 145       -0.000061726
 146       -0.000067050
 147       -0.689531183
 148       -0.001176387
 149       -0.029237045
 150       -0.002675397
 151       -0.000209811
 152        0.000245746
 153        0.000000000
 154        0.001379627
 155       -0.001750011
 156        0.000000000
 157        0.000425785
 158       -0.000282546
 159        0.000000000
 160        0.000524807
 161        0.000000000
 162        0.000000000
 163       -0.000010328
 164        0.000146883
 165       -0.000139885
 166        0.000000000
 167        0.000000000
 168        0.000360252
 169        0.000986109
 170        0.000000000
 171       -0.000005431
 172        0.000006153
 173        0.000000000
 174        0.000000000
 175       -0.000401567
 176       -0.000382586
 177       -0.000074174
 178       -0.000859791
 179        0.000326983
 180        0.000043319
 181        0.000206804
 182        0.000000000
 183        0.000064435
 184       -0.000390655
 185        0.000000000
 186       -0.000035427
 187        0.000000000
 188        0.000000000
 189       -0.000149075
 190        0.000084785
 191       -0.000072318
 192       -0.001168245
 193        0.000256490
 194       -0.000224425
 195       -0.000047481
 196        0.000000000
 197        0.000414326
 198        0.000054444
 199        0.000000000
 200       -0.000053726
 201        0.000000000
 202        0.000000000
 203        0.000166838
 204        0.000070913
 Sym= Ag  
 Ene=         0.000000
 Spin= Alpha
 Occup=       0.000000
   1        0.008933021
   2       -0.200025899
   3       -0.040566120
   4       -0.070338011
   5       -0.034263819
   6        0.028051153
   7        0.000000000
   8       -0.031192933
   9        0.025468977
  10        0.000000000
  11       -0.005497671
  12        0.004004565
  13        0.000000000
  14        0.006692776
  15        0.000000000
  16        0.000000000
  17       -0.000844730
  18        0.004874539
  19        0.006926304
  20        0.000000000
  21        0.000000000
  22        0.007232874
  23        0.002189248
  24        0.000000000
  25        0.000302543
  26       -0.000220095
  27        0.000000000
  28        0.000000000
  29        0.003145111
  30        0.003281936
  31       -0.025989565
  32       -0.014213691
  33       -0.001376032
  34       -0.000184062
  35        0.002445106
  36        0.000000000
  37       -0.002379160
  38       -0.003803379
  39        0.000000000
  40        0.000150457
  41        0.000000000
  42        0.000000000
  43       -0.000098844
  44        0.000651899
  45       -0.023520552
  46       -0.019896250
  47       -0.000215454
  48       -0.002037419
  49        0.000098308
  50        0.000000000
  51        0.002234991
  52       -0.001238033
  53        0.000000000
  54       -0.000240389
  55        0.000000000
  56        0.000000000
  57        0.000371269
  58        0.000099806
  59        0.012904677
  60       -0.304824137
  61       -0.061621697
  62       -0.085484094
  63       -0.011165775
  64       -0.026754670
  65        0.000000000
  66       -0.017903336
  67       -0.018625952
  68        0.000000000
  69       -0.000817412
  70       -0.000575305
  71        0.000000000
  72        0.010758636
  73        0.000000000
  74        0.000000000
  75       -0.003975070
  76        0.003447689
  77        0.009807461
  78        0.000000000
  79        0.000000000
  80        0.009042741
  81       -0.005626247
  82        0.000000000
  83        0.000430044
  84        0.000062738
  85        0.000000000
  86        0.000000000
  87       -0.006008447
  88       -0.004404080
  89       -0.038813023
  90       -0.021109130
  91       -0.001439480
  92       -0.001121258
  93       -0.003173500
  94        0.000000000
  95        0.001099116
  96        0.007016588
  97        0.000000000
  98        0.000288765
  99        0.000000000
 100        0.000000000
 101       -0.000803826
 102        0.000149709
 103        0.012904677
 104       -0.304824137
 105       -0.061621697
 106       -0.085484094
 107        0.011165775
 108        0.026754670
 109        0.000000000
 110        0.017903336
 111        0.018625952
 112        0.000000000
 113        0.000817412
 114        0.000575305
 115        0.000000000
 116        0.010758636
 117        0.000000000
 118        0.000000000
 119       -0.003975070
 120        0.003447689
 121        0.009807461
 122        0.000000000
 123        0.000000000
 124        0.009042741
 125       -0.005626247
 126        0.000000000
 127       -0.000430044
 128       -0.000062738
 129        0.000000000
 130        0.000000000
 131        0.006008447
 132        0.004404080
 133       -0.038813023
 134       -0.021109130
 135       -0.001439480
 136        0.001121258
 137        0.003173500
 138        0.000000000
 139       -0.001099116
 140       -0.007016588
 141        0.000000000
 142        0.000288765
 143        0.000000000
 144        0.000000000
 145       -0.000803826
 146        0.000149709
 147        0.008933021
 148       -0.200025899
 149       -0.040566120
 150       -0.070338011
 151        0.034263819
 152       -0.028051153
 153        0.000000000
 154        0.031192933
 155       -0.025468977
 156        0.000000000
 157        0.005497671
 158       -0.004004565
 159        0.000000000
 160        0.006692776
 161        0.000000000
 162        0.000000000
 163       -0.000844730
 164        0.004874539
 165        0.006926304
 166        0.000000000
 167        0.000000000
 168        0.007232874
 169        0.002189248
 170        0.000000000
 171       -0.000302543
 172        0.000220095
 173        0.000000000
 174        0.000000000
 175       -0.003145111
 176       -0.003281936
 177       -0.025989565
 178       -0.014213691
 179       -0.001376032
 180        0.000184062
 181       -0.002445106
 182        0.000000000
 183        0.002379160
 184        0.003803379
 185        0.000000000
 186        0.000150457
 187        0.000000000
 188        0.000000000
 189       -0.000098844
 190        0.000651899
 191       -0.023520552
 192       -0.019896250
 193       -0.000215454
 194        0.002037419
 195       -0.000098308
 196        0.000000000
 197       -0.002234991
 198        0.001238033
 199        0.000000000
 200       -0.000240389
 201        0.000000000
 202        0.000000000
 203        0.000371269
 204        0.000099806
 Sym= Ag  
 Ene=         0.000000
 Spin= Alpha
 Occup=       0.000000
   1        0.005760314
   2       -0.258753924
   3       -0.052914969
   4       -0.153779942
   5        0.039672078
   6       -0.020458490
   7        0.000000000
   8        0.047257134
   9       -0.023570457
  10        0.000000000
  11        0.007526478
  12       -0.001693107
  13        0.000000000
  14        0.007413641
  15        0.000000000
  16        0.000000000
  17        0.000546638
  18       -0.001766813
  19        0.012731433
  20        0.000000000
  21        0.000000000
  22        0.005114150
  23       -0.002344572
  24        0.000000000
  25       -0.000424177
  26        0.000110349
  27        0.000000000
  28        0.000000000
  29        0.004831711
  30        0.003275653
  31       -0.059426810
  32       -0.067265817
  33       -0.014896357
  34        0.002175611
  35        0.005072313
  36        0.000000000
  37        0.001671824
  38        0.001162784
  39        0.000000000
  40        0.000353888
  41        0.000000000
  42        0.000000000
  43        0.000350901
  44       -0.000777669
  45       -0.071426770
  46       -0.089741274
  47       -0.016928676
  48       -0.006441256
  49       -0.001911881
  50        0.000000000
  51       -0.004338521
  52       -0.002550549
  53        0.000000000
  54        0.000603255
  55        0.000000000
  56        0.000000000
  57       -0.000909155
  58       -0.000444648
  59       -0.003562588
  60        0.169800595
  61        0.033339411
  62        0.100471476
  63        0.092600074
  64       -0.030463495
  65        0.000000000
  66        0.104828503
  67       -0.031256786
  68        0.000000000
  69        0.016349904
  70       -0.003078840
  71        0.000000000
  72       -0.005333396
  73        0.000000000
  74        0.000000000
  75        0.004010947
  76        0.007574692
  77       -0.010143175
  78        0.000000000
  79        0.000000000
  80        0.010588265
  81        0.003943755
  82        0.000000000
  83       -0.002004769
  84       -0.000108884
  85        0.000000000
  86        0.000000000
  87        0.004081572
  88        0.002628211
  89        0.036595525
  90        0.050469719
  91        0.008523181
  92        0.002446656
  93        0.002794760
  94        0.000000000
  95        0.004519813
  96        0.003630649
  97        0.000000000
  98       -0.000281612
  99        0.000000000
 100        0.000000000
 101        0.000033330
 102        0.001304480
 103       -0.003562588
 104        0.169800595
 105        0.033339411
 106        0.100471476
 107       -0.092600074
 108        0.030463495
 109        0.000000000
 110       -0.104828503
 111        0.031256786
 112        0.000000000
 113       -0.016349904
 114        0.003078840
 115        0.000000000
 116       -0.005333396
 117        0.000000000
 118        0.000000000
 119        0.004010947
 120        0.007574692
 121       -0.010143175
 122        0.000000000
 123        0.000000000
 124        0.010588265
 125        0.003943755
 126        0.000000000
 127        0.002004769
 128        0.000108884
 129        0.000000000
 130        0.000000000
 131       -0.004081572
 132       -0.002628211
 133        0.036595525
 134        0.050469719
 135        0.008523181
 136       -0.002446656
 137       -0.002794760
 138        0.000000000
 139       -0.004519813
 140       -0.003630649
 141        0.000000000
 142       -0.000281612
 143        0.000000000
 144        0.000000000
 145        0.000033330
 146        0.001304480
 147        0.005760314
 148       -0.258753924
 149       -0.052914969
 150       -0.153779942
 151       -0.039672078
 152        0.020458490
 153        0.000000000
 154       -0.047257134
 155        0.023570457
 156        0.000000000
 157       -0.007526478
 158        0.001693107
 159        0.000000000
 160        0.007413641
 161        0.000000000
 162        0.000000000
 163        0.000546638
 164       -0.001766813
 165        0.012731433
 166        0.000000000
 167        0.000000000
 168        0.005114150
 169       -0.002344572
 170        0.000000000
 171        0.000424177
 172       -0.000110349
 173        0.000000000
 174        0.000000000
 175       -0.004831711
 176       -0.003275653
 177       -0.059426810
 178       -0.067265817
 179       -0.014896357
 180       -0.002175611
 181       -0.005072313
 182        0.000000000
 183       -0.001671824
 184       -0.001162784
 185        0.000000000
 186        0.000353888
 187        0.000000000
 188        0.000000000
 189        0.000350901
 190       -0.000777669
 191       -0.071426770
 192       -0.089741274
 193       -0.016928676
 194        0.006441256
 195        0.001911881
 196        0.000000000
 197        0.004338521
 198        0.002550549
 199        0.000000000
 200        0.000603255
 201        0.000000000
 202        0.000000000
 203       -0.000909155
 204       -0.000444648
 Sym= Ag  
 Ene=         0.000000
 Spin= Alpha
 Occup=       0.000000
   1        0.001064579
   2       -0.014850163
   3       -0.002765478
   4       -0.002198431
   5       -0.046108814
   6       -0.131837717
   7        0.000000000
   8       -0.054817396
   9       -0.158429781
  10        0.000000000
  11       -0.019806658
  12       -0.065942392
  13        0.000000000
  14        0.000024702
  15        0.000000000
  16        0.000000000
  17        0.004256356
  18       -0.004875606
  19        0.002397326
  20        0.000000000
  21        0.000000000
  22       -0.002577026
  23       -0.005677272
  24        0.000000000
  25        0.000703922
  26        0.001615048
  27        0.000000000
  28        0.000000000
  29       -0.002688709
  30        0.001240747
  31       -0.092692634
  32       -0.146473293
  33       -0.042841471
  34        0.001359727
  35        0.008710866
  36        0.000000000
  37        0.002811985
  38        0.010943726
  39        0.000000000
  40        0.001243486
  41        0.000000000
  42        0.000000000
  43        0.002413520
  44       -0.000617416
  45        0.043591717
  46        0.074705247
  47        0.020826396
  48        0.004353269
  49       -0.001692665
  50        0.000000000
  51        0.008509522
  52       -0.002412704
  53        0.000000000
  54       -0.000856860
  55        0.000000000
  56        0.000000000
  57        0.001721244
  58       -0.001058104
  59       -0.000468541
  60        0.020399344
  61        0.005515909
  62        0.004180634
  63       -0.126005796
  64       -0.051371688
  65        0.000000000
  66       -0.155546335
  67       -0.067223775
  68        0.000000000
  69       -0.037798013
  70       -0.043258253
  71        0.000000000
  72       -0.000144905
  73        0.000000000
  74        0.000000000
  75       -0.005144575
  76       -0.002659951
  77        0.000454689
  78        0.000000000
  79        0.000000000
  80       -0.013908331
  81        0.005363733
  82        0.000000000
  83        0.003521520
  84        0.000690278
  85        0.000000000
  86        0.000000000
  87       -0.003995021
  88        0.003267647
  89        0.056851814
  90        0.074236506
  91        0.021351132
  92       -0.001194628
  93        0.005888963
  94        0.000000000
  95       -0.006192023
  96        0.002904900
  97        0.000000000
  98       -0.000627429
  99        0.000000000
 100        0.000000000
 101       -0.002203013
 102       -0.001404812
 103       -0.000468541
 104        0.020399344
 105        0.005515909
 106        0.004180634
 107        0.126005796
 108        0.051371688
 109        0.000000000
 110        0.155546335
 111        0.067223775
 112        0.000000000
 113        0.037798013
 114        0.043258253
 115        0.000000000
 116       -0.000144905
 117        0.000000000
 118        0.000000000