[Molden Format]
[N_ATOMS]
           10
[Atoms]  AU
C     1    6      -3.153812        1.523264        0.000000
H     2    1      -2.669104        3.534007        0.000000
H     3    1      -5.159592        1.037028        0.000000
C     4    6      -1.352024       -0.263651        0.000000
H     5    1      -1.897611       -2.263346        0.000000
C     6    6       1.352024        0.263651        0.000000
H     7    1       1.897611        2.263346        0.000000
C     8    6       3.153812       -1.523264        0.000000
H     9    1       2.669104       -3.534007        0.000000
H    10    1       5.159592       -1.037028        0.000000
[5D7F9G]
[GTO]
    1
    s    8
   0.823600000E+04   0.542430189E-03
   0.123500000E+04   0.419642790E-02
   0.280800000E+03   0.215409141E-01
   0.792700000E+02   0.836149496E-01
   0.255900000E+02   0.239871619E+00
   0.899700000E+01   0.443751820E+00
   0.331900000E+01   0.353579696E+00
   0.364300000E+00  -0.917636608E-02
    s    8
   0.823600000E+04  -0.196392234E-03
   0.123500000E+04  -0.152595027E-02
   0.280800000E+03  -0.789044903E-02
   0.792700000E+02  -0.315148705E-01
   0.255900000E+02  -0.969100083E-01
   0.899700000E+01  -0.220541526E+00
   0.331900000E+01  -0.296069113E+00
   0.364300000E+00   0.104050343E+01
    s    1
   0.905900000E+00   0.100000000E+01
    s    1
   0.128500000E+00   0.100000000E+01
    p    3
   0.187100000E+02   0.394263872E-01
   0.413300000E+01   0.244088985E+00
   0.120000000E+01   0.815492009E+00
    p    1
   0.382700000E+00   0.100000000E+01
    p    1
   0.120900000E+00   0.100000000E+01
    d    1
   0.109700000E+01   0.100000000E+01
    d    1
   0.318000000E+00   0.100000000E+01
    f    1
   0.761000000E+00   0.100000000E+01
 
    2
    s    3
   0.338700000E+02   0.254948632E-01
   0.509500000E+01   0.190362766E+00
   0.115900000E+01   0.852162022E+00
    s    1
   0.325800000E+00   0.100000000E+01
    s    1
   0.102700000E+00   0.100000000E+01
    p    1
   0.140700000E+01   0.100000000E+01
    p    1
   0.388000000E+00   0.100000000E+01
    d    1
   0.105700000E+01   0.100000000E+01
 
    3
    s    3
   0.338700000E+02   0.254948632E-01
   0.509500000E+01   0.190362766E+00
   0.115900000E+01   0.852162022E+00
    s    1
   0.325800000E+00   0.100000000E+01
    s    1
   0.102700000E+00   0.100000000E+01
    p    1
   0.140700000E+01   0.100000000E+01
    p    1
   0.388000000E+00   0.100000000E+01
    d    1
   0.105700000E+01   0.100000000E+01
 
    4
    s    8
   0.823600000E+04   0.542430189E-03
   0.123500000E+04   0.419642790E-02
   0.280800000E+03   0.215409141E-01
   0.792700000E+02   0.836149496E-01
   0.255900000E+02   0.239871619E+00
   0.899700000E+01   0.443751820E+00
   0.331900000E+01   0.353579696E+00
   0.364300000E+00  -0.917636608E-02
    s    8
   0.823600000E+04  -0.196392234E-03
   0.123500000E+04  -0.152595027E-02
   0.280800000E+03  -0.789044903E-02
   0.792700000E+02  -0.315148705E-01
   0.255900000E+02  -0.969100083E-01
   0.899700000E+01  -0.220541526E+00
   0.331900000E+01  -0.296069113E+00
   0.364300000E+00   0.104050343E+01
    s    1
   0.905900000E+00   0.100000000E+01
    s    1
   0.128500000E+00   0.100000000E+01
    p    3
   0.187100000E+02   0.394263872E-01
   0.413300000E+01   0.244088985E+00
   0.120000000E+01   0.815492009E+00
    p    1
   0.382700000E+00   0.100000000E+01
    p    1
   0.120900000E+00   0.100000000E+01
    d    1
   0.109700000E+01   0.100000000E+01
    d    1
   0.318000000E+00   0.100000000E+01
    f    1
   0.761000000E+00   0.100000000E+01
 
    5
    s    3
   0.338700000E+02   0.254948632E-01
   0.509500000E+01   0.190362766E+00
   0.115900000E+01   0.852162022E+00
    s    1
   0.325800000E+00   0.100000000E+01
    s    1
   0.102700000E+00   0.100000000E+01
    p    1
   0.140700000E+01   0.100000000E+01
    p    1
   0.388000000E+00   0.100000000E+01
    d    1
   0.105700000E+01   0.100000000E+01
 
    6
    s    8
   0.823600000E+04   0.542430189E-03
   0.123500000E+04   0.419642790E-02
   0.280800000E+03   0.215409141E-01
   0.792700000E+02   0.836149496E-01
   0.255900000E+02   0.239871619E+00
   0.899700000E+01   0.443751820E+00
   0.331900000E+01   0.353579696E+00
   0.364300000E+00  -0.917636608E-02
    s    8
   0.823600000E+04  -0.196392234E-03
   0.123500000E+04  -0.152595027E-02
   0.280800000E+03  -0.789044903E-02
   0.792700000E+02  -0.315148705E-01
   0.255900000E+02  -0.969100083E-01
   0.899700000E+01  -0.220541526E+00
   0.331900000E+01  -0.296069113E+00
   0.364300000E+00   0.104050343E+01
    s    1
   0.905900000E+00   0.100000000E+01
    s    1
   0.128500000E+00   0.100000000E+01
    p    3
   0.187100000E+02   0.394263872E-01
   0.413300000E+01   0.244088985E+00
   0.120000000E+01   0.815492009E+00
    p    1
   0.382700000E+00   0.100000000E+01
    p    1
   0.120900000E+00   0.100000000E+01
    d    1
   0.109700000E+01   0.100000000E+01
    d    1
   0.318000000E+00   0.100000000E+01
    f    1
   0.761000000E+00   0.100000000E+01
 
    7
    s    3
   0.338700000E+02   0.254948632E-01
   0.509500000E+01   0.190362766E+00
   0.115900000E+01   0.852162022E+00
    s    1
   0.325800000E+00   0.100000000E+01
    s    1
   0.102700000E+00   0.100000000E+01
    p    1
   0.140700000E+01   0.100000000E+01
    p    1
   0.388000000E+00   0.100000000E+01
    d    1
   0.105700000E+01   0.100000000E+01
 
    8
    s    8
   0.823600000E+04   0.542430189E-03
   0.123500000E+04   0.419642790E-02
   0.280800000E+03   0.215409141E-01
   0.792700000E+02   0.836149496E-01
   0.255900000E+02   0.239871619E+00
   0.899700000E+01   0.443751820E+00
   0.331900000E+01   0.353579696E+00
   0.364300000E+00  -0.917636608E-02
    s    8
   0.823600000E+04  -0.196392234E-03
   0.123500000E+04  -0.152595027E-02
   0.280800000E+03  -0.789044903E-02
   0.792700000E+02  -0.315148705E-01
   0.255900000E+02  -0.969100083E-01
   0.899700000E+01  -0.220541526E+00
   0.331900000E+01  -0.296069113E+00
   0.364300000E+00   0.104050343E+01
    s    1
   0.905900000E+00   0.100000000E+01
    s    1
   0.128500000E+00   0.100000000E+01
    p    3
   0.187100000E+02   0.394263872E-01
   0.413300000E+01   0.244088985E+00
   0.120000000E+01   0.815492009E+00
    p    1
   0.382700000E+00   0.100000000E+01
    p    1
   0.120900000E+00   0.100000000E+01
    d    1
   0.109700000E+01   0.100000000E+01
    d    1
   0.318000000E+00   0.100000000E+01
    f    1
   0.761000000E+00   0.100000000E+01
 
    9
    s    3
   0.338700000E+02   0.254948632E-01
   0.509500000E+01   0.190362766E+00
   0.115900000E+01   0.852162022E+00
    s    1
   0.325800000E+00   0.100000000E+01
    s    1
   0.102700000E+00   0.100000000E+01
    p    1
   0.140700000E+01   0.100000000E+01
    p    1
   0.388000000E+00   0.100000000E+01
    d    1
   0.105700000E+01   0.100000000E+01
 
   10
    s    3
   0.338700000E+02   0.254948632E-01
   0.509500000E+01   0.190362766E+00
   0.115900000E+01   0.852162022E+00
    s    1
   0.325800000E+00   0.100000000E+01
    s    1
   0.102700000E+00   0.100000000E+01
    p    1
   0.140700000E+01   0.100000000E+01
    p    1
   0.388000000E+00   0.100000000E+01
    d    1
   0.105700000E+01   0.100000000E+01
 
[MO]
 Sym= Ag  
 Ene=       -11.228219
 Spin= Alpha
 Occup=       2.000000
   1       -0.065305207
   2       -0.000047393
   3       -0.002925252
   4        0.000789884
   5       -0.000186163
   6        0.000140167
   7        0.000000000
   8        0.001022149
   9       -0.000564161
  10        0.000000000
  11        0.000884525
  12       -0.000328053
  13        0.000000000
  14       -0.000082930
  15        0.000000000
  16        0.000000000
  17       -0.000032744
  18       -0.000110038
  19        0.000061895
  20        0.000000000
  21        0.000000000
  22        0.000424815
  23       -0.000848834
  24        0.000000000
  25       -0.000117567
  26        0.000108072
  27        0.000000000
  28        0.000000000
  29       -0.000034522
  30       -0.000092194
  31        0.000028240
  32        0.000687279
  33        0.000058986
  34       -0.000002938
  35       -0.000027838
  36        0.000000000
  37        0.000035484
  38       -0.000286406
  39        0.000000000
  40       -0.000008453
  41        0.000000000
  42        0.000000000
  43       -0.000014588
  44       -0.000013969
  45       -0.000009462
  46        0.000630234
  47        0.000424655
  48        0.000050314
  49        0.000012676
  50        0.000000000
  51        0.000346169
  52       -0.000174754
  53        0.000000000
  54       -0.000030996
  55        0.000000000
  56        0.000000000
  57        0.000046867
  58       -0.000009832
  59       -0.688709181
  60       -0.001298631
  61       -0.029435331
  62       -0.002996233
  63       -0.000349516
  64        0.000152385
  65        0.000000000
  66        0.000387376
  67       -0.001328216
  68        0.000000000
  69        0.000345328
  70       -0.000827460
  71        0.000000000
  72        0.000409395
  73        0.000000000
  74        0.000000000
  75       -0.000034929
  76        0.000161570
  77       -0.000019373
  78        0.000000000
  79        0.000000000
  80        0.000593520
  81        0.000422682
  82        0.000000000
  83       -0.000139688
  84        0.000004157
  85        0.000000000
  86        0.000000000
  87       -0.000112730
  88       -0.000221561
  89       -0.000087916
  90       -0.000536881
  91        0.000150840
  92        0.000073953
  93        0.000148869
  94        0.000000000
  95        0.000086396
  96       -0.000273542
  97        0.000000000
  98       -0.000033013
  99        0.000000000
 100        0.000000000
 101       -0.000083902
 102        0.000113586
 103       -0.688709181
 104       -0.001298631
 105       -0.029435331
 106       -0.002996233
 107        0.000349516
 108       -0.000152385
 109        0.000000000
 110       -0.000387376
 111        0.001328216
 112        0.000000000
 113       -0.000345328
 114        0.000827460
 115        0.000000000
 116        0.000409395
 117        0.000000000
 118        0.000000000
 119       -0.000034929
 120        0.000161570
 121       -0.000019373
 122        0.000000000
 123        0.000000000
 124        0.000593520
 125        0.000422682
 126        0.000000000
 127        0.000139688
 128       -0.000004157
 129        0.000000000
 130        0.000000000
 131        0.000112730
 132        0.000221561
 133       -0.000087916
 134       -0.000536881
 135        0.000150840
 136       -0.000073953
 137       -0.000148869
 138        0.000000000
 139       -0.000086396
 140        0.000273542
 141        0.000000000
 142       -0.000033013
 143        0.000000000
 144        0.000000000
 145       -0.000083902
 146        0.000113586
 147       -0.065305207
 148       -0.000047393
 149       -0.002925252
 150        0.000789884
 151        0.000186163
 152       -0.000140167
 153        0.000000000
 154       -0.001022149
 155        0.000564161
 156        0.000000000
 157       -0.000884525
 158        0.000328053
 159        0.000000000
 160       -0.000082930
 161        0.000000000
 162        0.000000000
 163       -0.000032744
 164       -0.000110038
 165        0.000061895
 166        0.000000000
 167        0.000000000
 168        0.000424815
 169       -0.000848834
 170        0.000000000
 171        0.000117567
 172       -0.000108072
 173        0.000000000
 174        0.000000000
 175        0.000034522
 176        0.000092194
 177        0.000028240
 178        0.000687279
 179        0.000058986
 180        0.000002938
 181        0.000027838
 182        0.000000000
 183       -0.000035484
 184        0.000286406
 185        0.000000000
 186       -0.000008453
 187        0.000000000
 188        0.000000000
 189       -0.000014588
 190       -0.000013969
 191       -0.000009462
 192        0.000630234
 193        0.000424655
 194       -0.000050314
 195       -0.000012676
 196        0.000000000
 197       -0.000346169
 198        0.000174754
 199        0.000000000
 200       -0.000030996
 201        0.000000000
 202        0.000000000
 203        0.000046867
 204       -0.000009832
 Sym= Ag  
 Ene=       -11.219759
 Spin= Alpha
 Occup=       2.000000
   1       -0.688778719
   2       -0.001157771
   3       -0.029320739
   4       -0.002675959
   5        0.000187689
   6       -0.000223077
   7        0.000000000
   8       -0.001359933
   9        0.001727249
  10        0.000000000
  11       -0.000424694
  12        0.000276626
  13        0.000000000
  14        0.000504067
  15        0.000000000
  16        0.000000000
  17       -0.000010103
  18        0.000150314
  19       -0.000145586
  20        0.000000000
  21        0.000000000
  22        0.000356399
  23        0.000977775
  24        0.000000000
  25        0.000008116
  26       -0.000008663
  27        0.000000000
  28        0.000000000
  29        0.000401702
  30        0.000382934
  31       -0.000073439
  32       -0.000854805
  33        0.000330445
  34       -0.000043716
  35       -0.000207731
  36        0.000000000
  37       -0.000065699
  38        0.000387154
  39        0.000000000
  40       -0.000035827
  41        0.000000000
  42        0.000000000
  43       -0.000150325
  44        0.000086055
  45       -0.000071317
  46       -0.001161708
  47        0.000255584
  48        0.000225291
  49        0.000047802
  50        0.000000000
  51       -0.000411126
  52       -0.000051563
  53        0.000000000
  54       -0.000053978
  55        0.000000000
  56        0.000000000
  57        0.000167853
  58        0.000072303
  59        0.065777663
  60        0.000369219
  61        0.002681151
  62        0.000703246
  63        0.000162161
  64       -0.000171691
  65        0.000000000
  66       -0.000535253
  67        0.001378682
  68        0.000000000
  69       -0.000172344
  70        0.000347814
  71        0.000000000
  72       -0.000198978
  73        0.000000000
  74        0.000000000
  75       -0.000031977
  76       -0.000098935
  77        0.000162464
  78        0.000000000
  79        0.000000000
  80        0.001017643
  81       -0.002320470
  82        0.000000000
  83        0.000071978
  84       -0.000111734
  85        0.000000000
  86        0.000000000
  87        0.000118389
  88        0.000133498
  89        0.000053850
  90        0.002256662
  91        0.000114745
  92       -0.000027158
  93        0.000013490
  94        0.000000000
  95       -0.000177147
  96        0.000976308
  97        0.000000000
  98        0.000000906
  99        0.000000000
 100        0.000000000
 101       -0.000060372
 102       -0.000070435
 103        0.065777663
 104        0.000369219
 105        0.002681151
 106        0.000703246
 107       -0.000162161
 108        0.000171691
 109        0.000000000
 110        0.000535253
 111       -0.001378682
 112        0.000000000
 113        0.000172344
 114       -0.000347814
 115        0.000000000
 116       -0.000198978
 117        0.000000000
 118        0.000000000
 119       -0.000031977
 120       -0.000098935
 121        0.000162464
 122        0.000000000
 123        0.000000000
 124        0.001017643
 125       -0.002320470
 126        0.000000000
 127       -0.000071978
 128        0.000111734
 129        0.000000000
 130        0.000000000
 131       -0.000118389
 132       -0.000133498
 133        0.000053850
 134        0.002256662
 135        0.000114745
 136        0.000027158
 137       -0.000013490
 138        0.000000000
 139        0.000177147
 140       -0.000976308
 141        0.000000000
 142        0.000000906
 143        0.000000000
 144        0.000000000
 145       -0.000060372
 146       -0.000070435
 147       -0.688778719
 148       -0.001157771
 149       -0.029320739
 150       -0.002675959
 151       -0.000187689
 152        0.000223077
 153        0.000000000
 154        0.001359933
 155       -0.001727249
 156        0.000000000
 157        0.000424694
 158       -0.000276626
 159        0.000000000
 160        0.000504067
 161        0.000000000
 162        0.000000000
 163       -0.000010103
 164        0.000150314
 165       -0.000145586
 166        0.000000000
 167        0.000000000
 168        0.000356399
 169        0.000977775
 170        0.000000000
 171       -0.000008116
 172        0.000008663
 173        0.000000000
 174        0.000000000
 175       -0.000401702
 176       -0.000382934
 177       -0.000073439
 178       -0.000854805
 179        0.000330445
 180        0.000043716
 181        0.000207731
 182        0.000000000
 183        0.000065699
 184       -0.000387154
 185        0.000000000
 186       -0.000035827
 187        0.000000000
 188        0.000000000
 189       -0.000150325
 190        0.000086055
 191       -0.000071317
 192       -0.001161708
 193        0.000255584
 194       -0.000225291
 195       -0.000047802
 196        0.000000000
 197        0.000411126
 198        0.000051563
 199        0.000000000
 200       -0.000053978
 201        0.000000000
 202        0.000000000
 203        0.000167853
 204        0.000072303
 Sym= Ag  
 Ene=        -1.082618
 Spin= Alpha
 Occup=       2.000000
   1       -0.008987824
   2        0.200467547
   3        0.040342098
   4        0.071131694
   5        0.034276730
   6       -0.028145972
   7        0.000000000
   8        0.031450968
   9       -0.025797883
  10        0.000000000
  11        0.005301935
  12       -0.004238348
  13        0.000000000
  14       -0.006681953
  15        0.000000000
  16        0.000000000
  17        0.000834835
  18       -0.004921607
  19       -0.007065236
  20        0.000000000
  21        0.000000000
  22       -0.007016493
  23       -0.002141671
  24        0.000000000
  25       -0.000379007
  26        0.000299118
  27        0.000000000
  28        0.000000000
  29       -0.003129695
  30       -0.003257623
  31        0.026103585
  32        0.015039080
  33        0.001556347
  34        0.000172606
  35       -0.002455260
  36        0.000000000
  37        0.002365119
  38        0.003586394
  39        0.000000000
  40       -0.000161815
  41        0.000000000
  42        0.000000000
  43        0.000083845
  44       -0.000637148
  45        0.023659995
  46        0.020277207
  47        0.000245796
  48        0.002047212
  49       -0.000083600
  50        0.000000000
  51       -0.002092134
  52        0.001140845
  53        0.000000000
  54        0.000217980
  55        0.000000000
  56        0.000000000
  57       -0.000353423
  58       -0.000103950
  59       -0.012960941
  60        0.303711173
  61        0.060866562
  62        0.084801325
  63        0.010400685
  64        0.026798887
  65        0.000000000
  66        0.016930635
  67        0.019475406
  68        0.000000000
  69        0.001661144
  70       -0.000724658
  71        0.000000000
  72       -0.010621296
  73        0.000000000
  74        0.000000000
  75        0.003898948
  76       -0.003508525
  77       -0.009702636
  78        0.000000000
  79        0.000000000
  80       -0.008741918
  81        0.005209117
  82        0.000000000
  83       -0.000363078
  84       -0.000146766
  85        0.000000000
  86        0.000000000
  87        0.005895503
  88        0.004335508
  89        0.038847464
  90        0.022290829
  91        0.001319665
  92        0.001120495
  93        0.003186652
  94        0.000000000
  95       -0.001123968
  96       -0.006460675
  97        0.000000000
  98       -0.000321937
  99        0.000000000
 100        0.000000000
 101        0.000751000
 102       -0.000144925
 103       -0.012960941
 104        0.303711173
 105        0.060866562
 106        0.084801325
 107       -0.010400685
 108       -0.026798887
 109        0.000000000
 110       -0.016930635
 111       -0.019475406
 112        0.000000000
 113       -0.001661144
 114        0.000724658
 115        0.000000000
 116       -0.010621296
 117        0.000000000
 118        0.000000000
 119        0.003898948
 120       -0.003508525
 121       -0.009702636
 122        0.000000000
 123        0.000000000
 124       -0.008741918
 125        0.005209117
 126        0.000000000
 127        0.000363078
 128        0.000146766
 129        0.000000000
 130        0.000000000
 131       -0.005895503
 132       -0.004335508
 133        0.038847464
 134        0.022290829
 135        0.001319665
 136       -0.001120495
 137       -0.003186652
 138        0.000000000
 139        0.001123968
 140        0.006460675
 141        0.000000000
 142       -0.000321937
 143        0.000000000
 144        0.000000000
 145        0.000751000
 146       -0.000144925
 147       -0.008987824
 148        0.200467547
 149        0.040342098
 150        0.071131694
 151       -0.034276730
 152        0.028145972
 153        0.000000000
 154       -0.031450968
 155        0.025797883
 156        0.000000000
 157       -0.005301935
 158        0.004238348
 159        0.000000000
 160       -0.006681953
 161        0.000000000
 162        0.000000000
 163        0.000834835
 164       -0.004921607
 165       -0.007065236
 166        0.000000000
 167        0.000000000
 168       -0.007016493
 169       -0.002141671
 170        0.000000000
 171        0.000379007
 172       -0.000299118
 173        0.000000000
 174        0.000000000
 175        0.003129695
 176        0.003257623
 177        0.026103585
 178        0.015039080
 179        0.001556347
 180       -0.000172606
 181        0.002455260
 182        0.000000000
 183       -0.002365119
 184       -0.003586394
 185        0.000000000
 186       -0.000161815
 187        0.000000000
 188        0.000000000
 189        0.000083845
 190       -0.000637148
 191        0.023659995
 192        0.020277207
 193        0.000245796
 194       -0.002047212
 195        0.000083600
 196        0.000000000
 197        0.002092134
 198       -0.001140845
 199        0.000000000
 200        0.000217980
 201        0.000000000
 202        0.000000000
 203       -0.000353423
 204       -0.000103950
 Sym= Ag  
 Ene=        -0.818688
 Spin= Alpha
 Occup=       2.000000
   1       -0.005837506
   2        0.257378195
   3        0.052157159
   4        0.154418383
   5       -0.039671658
   6        0.020571988
   7        0.000000000
   8       -0.046743830
   9        0.023314566
  10        0.000000000
  11       -0.007418251
  12        0.001681743
  13        0.000000000
  14       -0.007234662
  15        0.000000000
  16        0.000000000
  17       -0.000545364
  18        0.001842232
  19       -0.012256031
  20        0.000000000
  21        0.000000000
  22       -0.005093044
  23        0.002318824
  24        0.000000000
  25        0.000426651
  26       -0.000108972
  27        0.000000000
  28        0.000000000
  29       -0.004746572
  30       -0.003215280
  31        0.059527929
  32        0.068129995
  33        0.015429270
  34       -0.002173412
  35       -0.005066793
  36        0.000000000
  37       -0.001672675
  38       -0.001355976
  39        0.000000000
  40       -0.000359986
  41        0.000000000
  42        0.000000000
  43       -0.000366184
  44        0.000777306
  45        0.071556516
  46        0.090811063
  47        0.017682296
  48        0.006431237
  49        0.001909796
  50        0.000000000
  51        0.004568071
  52        0.002526712
  53        0.000000000
  54       -0.000609594
  55        0.000000000
  56        0.000000000
  57        0.000922671
  58        0.000451350
  59        0.003676455
  60       -0.170267175
  61       -0.033083779
  62       -0.102370472
  63       -0.091386578
  64        0.030209049
  65        0.000000000
  66       -0.103534564
  67        0.030771964
  68        0.000000000
  69       -0.016257991
  70        0.002674035
  71        0.000000000
  72        0.005183942
  73        0.000000000
  74        0.000000000
  75       -0.003889530
  76       -0.007550802
  77        0.009739050
  78        0.000000000
  79        0.000000000
  80       -0.010291463
  81       -0.003839534
  82        0.000000000
  83        0.001999099
  84        0.000084883
  85        0.000000000
  86        0.000000000
  87       -0.004018221
  88       -0.002580868
  89       -0.036974265
  90       -0.051147311
  91       -0.009077132
  92       -0.002433468
  93       -0.002825907
  94        0.000000000
  95       -0.004460190
  96       -0.003688060
  97        0.000000000
  98        0.000282159
  99        0.000000000
 100        0.000000000
 101       -0.000016568
 102       -0.001291065
 103        0.003676455
 104       -0.170267175
 105       -0.033083779
 106       -0.102370472
 107        0.091386578
 108       -0.030209049
 109        0.000000000
 110        0.103534564
 111       -0.030771964
 112        0.000000000
 113        0.016257991
 114       -0.002674035
 115        0.000000000
 116        0.005183942
 117        0.000000000
 118        0.000000000
 119       -0.003889530
 120       -0.007550802
 121        0.009739050
 122        0.000000000
 123        0.000000000
 124       -0.010291463
 125       -0.003839534
 126        0.000000000
 127       -0.001999099
 128       -0.000084883
 129        0.000000000
 130        0.000000000
 131        0.004018221
 132        0.002580868
 133       -0.036974265
 134       -0.051147311
 135       -0.009077132
 136        0.002433468
 137        0.002825907
 138        0.000000000
 139        0.004460190
 140        0.003688060
 141        0.000000000
 142        0.000282159
 143        0.000000000
 144        0.000000000
 145       -0.000016568
 146       -0.001291065
 147       -0.005837506
 148        0.257378195
 149        0.052157159
 150        0.154418383
 151        0.039671658
 152       -0.020571988
 153        0.000000000
 154        0.046743830
 155       -0.023314566
 156        0.000000000
 157        0.007418251
 158       -0.001681743
 159        0.000000000
 160       -0.007234662
 161        0.000000000
 162        0.000000000
 163       -0.000545364
 164        0.001842232
 165       -0.012256031
 166        0.000000000
 167        0.000000000
 168       -0.005093044
 169        0.002318824
 170        0.000000000
 171       -0.000426651
 172        0.000108972
 173        0.000000000
 174        0.000000000
 175        0.004746572
 176        0.003215280
 177        0.059527929
 178        0.068129995
 179        0.015429270
 180        0.002173412
 181        0.005066793
 182        0.000000000
 183        0.001672675
 184        0.001355976
 185        0.000000000
 186       -0.000359986
 187        0.000000000
 188        0.000000000
 189       -0.000366184
 190        0.000777306
 191        0.071556516
 192        0.090811063
 193        0.017682296
 194       -0.006431237
 195       -0.001909796
 196        0.000000000
 197       -0.004568071
 198       -0.002526712
 199        0.000000000
 200       -0.000609594
 201        0.000000000
 202        0.000000000
 203        0.000922671
 204        0.000451350
 Sym= Ag  
 Ene=        -0.626116
 Spin= Alpha
 Occup=       2.000000
   1        0.001061509
   2       -0.014452642
   3       -0.002643188
   4       -0.001727627
   5       -0.047311868
   6       -0.130857970
   7        0.000000000
   8       -0.056339050
   9       -0.157437636
  10        0.000000000
  11       -0.020658101
  12       -0.066418184
  13        0.000000000
  14       -0.000014760
  15        0.000000000
  16        0.000000000
  17        0.004229853
  18       -0.004790377
  19        0.002235751
  20        0.000000000
  21        0.000000000
  22       -0.002696499
  23       -0.005581299
  24        0.000000000
  25        0.000725658
  26        0.001614539
  27        0.000000000
  28        0.000000000
  29       -0.002637783
  30        0.001237963
  31       -0.092896190
  32       -0.147292254
  33       -0.044108149
  34        0.001312173
  35        0.008668970
  36        0.000000000
  37        0.002699218
  38        0.010989034
  39        0.000000000
  40        0.001231612
  41        0.000000000
  42        0.000000000
  43        0.002409606
  44       -0.000598316
  45        0.044685700
  46        0.076619665
  47        0.021936159
  48        0.004424369
  49       -0.001669666
  50        0.000000000
  51        0.008615935
  52       -0.002394109
  53        0.000000000
  54       -0.000865662
  55        0.000000000
  56        0.000000000
  57        0.001734324
  58       -0.001033847
  59       -0.000476372
  60        0.019490932
  61        0.005226369
  62        0.003689099
  63       -0.124157137
  64       -0.051099564
  65        0.000000000
  66       -0.153845811
  67       -0.066706295
  68        0.000000000
  69       -0.037839064
  70       -0.043811957
  71        0.000000000
  72       -0.000180095
  73        0.000000000
  74        0.000000000
  75       -0.004874580
  76       -0.002562931
  77        0.000346590
  78        0.000000000
  79        0.000000000
  80       -0.013240862
  81        0.005208312
  82        0.000000000
  83        0.003481465
  84        0.000686745
  85        0.000000000
  86        0.000000000
  87       -0.003958869
  88        0.003277645
  89        0.056537725
  90        0.074404022
  91        0.021787394
  92       -0.001212947
  93        0.005822502
  94        0.000000000
  95       -0.006161540
  96        0.003020563
  97        0.000000000
  98       -0.000622683
  99        0.000000000
 100        0.000000000
 101       -0.002189898
 102       -0.001396299
 103       -0.000476372
 104        0.019490932
 105        0.005226369
 106        0.003689099
 107        0.124157137
 108        0.051099564
 109        0.000000000
 110        0.153845811
 111        0.066706295
 112        0.000000000
 113        0.037839064
 114        0.043811957
 115        0.000000000
 116       -0.000180095
 117        0.000000000
 118        0.000000000