 Entering Gaussian System, Link 0=/apps/software/g16/g16
 Initial command:
 /apps/software/g16/l1.exe "/scratch/Gau-257443.inp" -scrdir="/scratch/"
 Entering Link 1 = /apps/software/g16/l1.exe PID=    257444.
  
 Copyright (c) 1988,1990,1992,1993,1995,1998,2003,2009,2016,
            Gaussian, Inc.  All Rights Reserved.
  
 This is part of the Gaussian(R) 16 program.  It is based on
 the Gaussian(R) 09 system (copyright 2009, Gaussian, Inc.),
 the Gaussian(R) 03 system (copyright 2003, Gaussian, Inc.),
 the Gaussian(R) 98 system (copyright 1998, Gaussian, Inc.),
 the Gaussian(R) 94 system (copyright 1995, Gaussian, Inc.),
 the Gaussian 92(TM) system (copyright 1992, Gaussian, Inc.),
 the Gaussian 90(TM) system (copyright 1990, Gaussian, Inc.),
 the Gaussian 88(TM) system (copyright 1988, Gaussian, Inc.),
 the Gaussian 86(TM) system (copyright 1986, Carnegie Mellon
 University), and the Gaussian 82(TM) system (copyright 1983,
 Carnegie Mellon University). Gaussian is a federally registered
 trademark of Gaussian, Inc.
  
 This software contains proprietary and confidential information,
 including trade secrets, belonging to Gaussian, Inc.
  
 This software is provided under written license and may be
 used, copied, transmitted, or stored only in accord with that
 written license.
  
 The following legend is applicable only to US Government
 contracts under FAR:
  
                    RESTRICTED RIGHTS LEGEND
  
 Use, reproduction and disclosure by the US Government is
 subject to restrictions as set forth in subparagraphs (a)
 and (c) of the Commercial Computer Software - Restricted
 Rights clause in FAR 52.227-19.
  
 Gaussian, Inc.
 340 Quinnipiac St., Bldg. 40, Wallingford CT 06492
  
  
 ---------------------------------------------------------------
 Warning -- This program may not be used in any manner that
 competes with the business of Gaussian, Inc. or will provide
 assistance to any competitor of Gaussian, Inc.  The licensee
 of this program is prohibited from giving any competitor of
 Gaussian, Inc. access to this program.  By using this program,
 the user acknowledges that Gaussian, Inc. is engaged in the
 business of creating and licensing software in the field of
 computational chemistry and represents and warrants to the
 licensee that it is not a competitor of Gaussian, Inc. and that
 it will not use this program in any manner prohibited above.
 ---------------------------------------------------------------
  

 Cite this work as:
 Gaussian 16, Revision A.03,
 M. J. Frisch, G. W. Trucks, H. B. Schlegel, G. E. Scuseria, 
 M. A. Robb, J. R. Cheeseman, G. Scalmani, V. Barone, 
 G. A. Petersson, H. Nakatsuji, X. Li, M. Caricato, A. V. Marenich, 
 J. Bloino, B. G. Janesko, R. Gomperts, B. Mennucci, H. P. Hratchian, 
 J. V. Ortiz, A. F. Izmaylov, J. L. Sonnenberg, D. Williams-Young, 
 F. Ding, F. Lipparini, F. Egidi, J. Goings, B. Peng, A. Petrone, 
 T. Henderson, D. Ranasinghe, V. G. Zakrzewski, J. Gao, N. Rega, 
 G. Zheng, W. Liang, M. Hada, M. Ehara, K. Toyota, R. Fukuda, 
 J. Hasegawa, M. Ishida, T. Nakajima, Y. Honda, O. Kitao, H. Nakai, 
 T. Vreven, K. Throssell, J. A. Montgomery, Jr., J. E. Peralta, 
 F. Ogliaro, M. J. Bearpark, J. J. Heyd, E. N. Brothers, K. N. Kudin, 
 V. N. Staroverov, T. A. Keith, R. Kobayashi, J. Normand, 
 K. Raghavachari, A. P. Rendell, J. C. Burant, S. S. Iyengar, 
 J. Tomasi, M. Cossi, J. M. Millam, M. Klene, C. Adamo, R. Cammi, 
 J. W. Ochterski, R. L. Martin, K. Morokuma, O. Farkas, 
 J. B. Foresman, and D. J. Fox, Gaussian, Inc., Wallingford CT, 2016.
 
 ******************************************
 Gaussian 16:  ES64L-G16RevA.03 25-Dec-2016
                 3-Apr-2022 
 ******************************************
 -----------------------------------
 #p UM062X/6-31G(d) nosymm guess=mix
 -----------------------------------
 1/38=1,172=1/1;
 2/12=2,15=1,17=6,18=5,40=1/2;
 3/5=1,6=6,7=1,11=2,25=1,30=1,74=-55,116=2/1,2,3;
 4/13=-1/1;
 5/5=2,38=5/2;
 6/7=2,8=2,9=2,10=2,28=1/1;
 99/5=1,9=1/99;
 Leave Link    1 at Sun Apr  3 09:57:42 2022, MaxMem=           0 cpu:               0.0 elap:               0.0
 (Enter /apps/software/g16/l101.exe)
 ----------------
 tBuOOH guess=mix
 ----------------
 Symbolic Z-matrix:
 Charge =  0 Multiplicity = 1
 C                    -3.59509  -0.40108   0.45021 
 C                    -2.07308  -0.37481   0.35839 
 H                    -3.98463   0.6201    0.49162 
 H                    -4.02038  -0.90135  -0.42275 
 H                    -3.91243  -0.93573   1.35097 
 C                    -1.49026  -1.78253   0.27088 
 C                    -1.46082   0.405     1.51713 
 H                    -0.40235  -1.73512   0.15502 
 H                    -1.71505  -2.34532   1.18174 
 H                    -1.91675  -2.3238   -0.57772 
 H                    -1.71481  -0.07708   2.46539 
 H                    -0.37177   0.44175   1.42259 
 H                    -1.84548   1.42841   1.52944 
 O                    -1.66578   0.40114  -0.7807 
 O                    -2.36683  -0.40606  -2.35135 
 H                    -1.55594  -0.76398  -2.74739 
 
 ITRead=  0  0  0  0  0  0  0  0  0  0  0  0  0  0  0  0
 MicOpt= -1 -1 -1 -1 -1 -1 -1 -1 -1 -1 -1 -1 -1 -1 -1 -1
 NAtoms=     16 NQM=       16 NQMF=       0 NMMI=      0 NMMIF=      0
                NMic=       0 NMicF=      0.
                    Isotopes and Nuclear Properties:
 (Nuclear quadrupole moments (NQMom) in fm**2, nuclear magnetic moments (NMagM)
  in nuclear magnetons)

  Atom         1           2           3           4           5           6           7           8           9          10
 IAtWgt=          12          12           1           1           1          12          12           1           1           1
 AtmWgt=  12.0000000  12.0000000   1.0078250   1.0078250   1.0078250  12.0000000  12.0000000   1.0078250   1.0078250   1.0078250
 NucSpn=           0           0           1           1           1           0           0           1           1           1
 AtZEff=  -0.0000000  -0.0000000  -0.0000000  -0.0000000  -0.0000000  -0.0000000  -0.0000000  -0.0000000  -0.0000000  -0.0000000
 NQMom=    0.0000000   0.0000000   0.0000000   0.0000000   0.0000000   0.0000000   0.0000000   0.0000000   0.0000000   0.0000000
 NMagM=    0.0000000   0.0000000   2.7928460   2.7928460   2.7928460   0.0000000   0.0000000   2.7928460   2.7928460   2.7928460
 AtZNuc=   6.0000000   6.0000000   1.0000000   1.0000000   1.0000000   6.0000000   6.0000000   1.0000000   1.0000000   1.0000000

  Atom        11          12          13          14          15          16
 IAtWgt=           1           1           1          16          16           1
 AtmWgt=   1.0078250   1.0078250   1.0078250  15.9949146  15.9949146   1.0078250
 NucSpn=           1           1           1           0           0           1
 AtZEff=  -0.0000000  -0.0000000  -0.0000000  -0.0000000  -0.0000000  -0.0000000
 NQMom=    0.0000000   0.0000000   0.0000000   0.0000000   0.0000000   0.0000000
 NMagM=    2.7928460   2.7928460   2.7928460   0.0000000   0.0000000   2.7928460
 AtZNuc=   1.0000000   1.0000000   1.0000000   8.0000000   8.0000000   1.0000000
 Leave Link  101 at Sun Apr  3 09:57:43 2022, MaxMem=   104857600 cpu:               0.1 elap:               0.1
 (Enter /apps/software/g16/l202.exe)
                          Input orientation:                          
 ---------------------------------------------------------------------
 Center     Atomic      Atomic             Coordinates (Angstroms)
 Number     Number       Type             X           Y           Z
 ---------------------------------------------------------------------
      1          6           0       -3.595094   -0.401084    0.450212
      2          6           0       -2.073081   -0.374814    0.358389
      3          1           0       -3.984630    0.620104    0.491617
      4          1           0       -4.020375   -0.901351   -0.422755
      5          1           0       -3.912427   -0.935728    1.350968
      6          6           0       -1.490255   -1.782526    0.270880
      7          6           0       -1.460815    0.405004    1.517128
      8          1           0       -0.402350   -1.735121    0.155019
      9          1           0       -1.715054   -2.345319    1.181736
     10          1           0       -1.916752   -2.323798   -0.577719
     11          1           0       -1.714814   -0.077084    2.465392
     12          1           0       -0.371766    0.441750    1.422586
     13          1           0       -1.845481    1.428409    1.529441
     14          8           0       -1.665776    0.401145   -0.780699
     15          8           0       -2.366826   -0.406064   -2.351350
     16          1           0       -1.555936   -0.763985   -2.747392
 ---------------------------------------------------------------------
                    Distance matrix (angstroms):
                    1          2          3          4          5
     1  C    0.000000
     2  C    1.525007   0.000000
     3  H    1.093745   2.159081   0.000000
     4  H    1.092338   2.163188   1.775438   0.000000
     5  H    1.094489   2.164031   1.778851   1.777337   0.000000
     6  C    2.524062   1.526105   3.470340   2.767509   2.783985
     7  C    2.518578   1.525012   2.732688   3.467140   2.799209
     8  H    3.472810   2.164056   4.300362   3.757539   3.793411
     9  H    2.801737   2.165404   3.797496   3.158155   2.616111
    10  H    2.751418   2.167781   3.753153   2.544130   3.103110
    11  H    2.775136   2.157883   3.087705   3.786347   2.609351
    12  H    3.470695   2.166510   3.735144   4.303667   3.799849
    13  H    2.751895   2.162123   2.511253   3.737515   3.145356
    14  O    2.425073   1.437196   2.654019   2.714545   3.373229
    15  O    3.058990   2.725793   3.428232   2.588246   4.046800
    16  H    3.809795   3.172502   4.278486   3.390615   4.730656
                    6          7          8          9         10
     6  C    0.000000
     7  C    2.517794   0.000000
     8  H    1.095084   2.748786   0.000000
     9  H    1.094043   2.782337   1.774734   0.000000
    10  H    1.093158   3.470248   1.782375   1.771109   0.000000
    11  H    2.788340   1.093677   3.132008   2.606274   3.788011
    12  H    2.743146   1.093762   2.519212   3.103254   3.746526
    13  H    3.467025   1.093379   3.738928   3.791956   4.303982
    14  O    2.430030   2.306953   2.652441   3.375892   2.743994
    15  O    3.088546   4.055097   3.450717   4.082673   2.650668
    16  H    3.186175   4.422863   3.270758   4.238394   2.696422
                   11         12         13         14         15
    11  H    0.000000
    12  H    1.777754   0.000000
    13  H    1.777523   1.776724   0.000000
    14  O    3.281496   2.555499   2.534623   0.000000
    15  O    4.871791   4.352200   4.324075   1.900000   0.000000
    16  H    5.260246   4.499419   4.814741   2.288553   0.970824
                   16
    16  H    0.000000
 Symmetry turned off by external request.
 Stoichiometry    C4H10O2
 Framework group  C1[X(C4H10O2)]
 Deg. of freedom    42
 Full point group                 C1      NOp   1
 Rotational constants (GHZ):           4.5049266           2.4334163           2.4211550
 Leave Link  202 at Sun Apr  3 09:57:43 2022, MaxMem=   104857600 cpu:               0.0 elap:               0.0
 (Enter /apps/software/g16/l301.exe)
 Standard basis: 6-31G(d) (6D, 7F)
 Ernie: Thresh=  0.10000D-02 Tol=  0.10000D-05 Strict=F.
   110 basis functions,   208 primitive gaussians,   110 cartesian basis functions
    25 alpha electrons       25 beta electrons
       nuclear repulsion energy       260.2456244823 Hartrees.
 IExCor= 4336 DFT=T Ex+Corr=M062X ExCW=0 ScaHFX=  0.540000
 ScaDFX=  1.000000  1.000000  1.000000  1.000000 ScalE2=  1.000000  1.000000
 IRadAn=      5 IRanWt=     -1 IRanGd=            0 ICorTp=0 IEmpDi=  4
 NAtoms=   16 NActive=   16 NUniq=   16 SFac= 1.00D+00 NAtFMM=   60 NAOKFM=F Big=F
 Integral buffers will be    131072 words long.
 Raffenetti 2 integral format.
 Two-electron integral symmetry is turned off.
 Leave Link  301 at Sun Apr  3 09:57:43 2022, MaxMem=   104857600 cpu:               0.1 elap:               0.1
 (Enter /apps/software/g16/l302.exe)
 NPDir=0 NMtPBC=     1 NCelOv=     1 NCel=       1 NClECP=     1 NCelD=      1
         NCelK=      1 NCelE2=     1 NClLst=     1 CellRange=     0.0.
 One-electron integrals computed using PRISM.
 NBasis=   110 RedAO= T EigKep=  3.36D-03  NBF=   110
 NBsUse=   110 1.00D-06 EigRej= -1.00D+00 NBFU=   110
 Precomputing XC quadrature grid using
 IXCGrd= 4 IRadAn=           5 IRanWt=          -1 IRanGd=           0 AccXCQ= 0.00D+00.
 Generated NRdTot=       0 NPtTot=           0 NUsed=           0 NTot=          32
 NSgBfM=   110   110   110   110   110 MxSgAt=    16 MxSgA2=    16.
 Leave Link  302 at Sun Apr  3 09:57:43 2022, MaxMem=   104857600 cpu:               0.3 elap:               0.3
 (Enter /apps/software/g16/l303.exe)
 DipDrv:  MaxL=1.
 Leave Link  303 at Sun Apr  3 09:57:43 2022, MaxMem=   104857600 cpu:               0.0 elap:               0.0
 (Enter /apps/software/g16/l401.exe)
 ExpMin= 1.61D-01 ExpMax= 5.48D+03 ExpMxC= 8.25D+02 IAcc=3 IRadAn=         5 AccDes= 0.00D+00
 Harris functional with IExCor= 1009 and IRadAn=       5 diagonalized for initial guess.
 HarFok:  IExCor= 1009 AccDes= 0.00D+00 IRadAn=         5 IDoV= 1 UseB2=F ITyADJ=14
 ICtDFT=  3500011 ScaDFX=  1.000000  1.000000  1.000000  1.000000
 FoFCou: FMM=F IPFlag=           0 FMFlag=      100000 FMFlg1=           0
         NFxFlg=           0 DoJE=T BraDBF=F KetDBF=T FulRan=T
         wScrn=  0.000000 ICntrl=       500 IOpCl=  0 I1Cent=   200000004 NGrid=           0
         NMat0=    1 NMatS0=      1 NMatT0=    0 NMatD0=    1 NMtDS0=    0 NMtDT0=    0
 Symmetry not used in FoFCou.
 Harris En= -308.530983589238    
 JPrj=0 DoOrth=F DoCkMO=T.
 Mixing orbitals, IMix= 1 IMixAn=  0 NRI=1 NE=   25 Coef=  7.07106781D-01  7.07106781D-01
 Mixing orbitals, IMix= 1 IMixAn=  0 NRI=1 NE=   25 Coef= -7.07106781D-01  7.07106781D-01
 Initial guess <Sx>= 0.0000 <Sy>= 0.0000 <Sz>= 0.0000 <S**2>= 1.0000 S= 0.6180
 Leave Link  401 at Sun Apr  3 09:57:45 2022, MaxMem=   104857600 cpu:               1.9 elap:               2.0
 (Enter /apps/software/g16/l502.exe)
 Keep R1 and R2 ints in memory in canonical form, NReq=38212939.
 FoFCou: FMM=F IPFlag=           0 FMFlag=           0 FMFlg1=           0
         NFxFlg=           0 DoJE=F BraDBF=F KetDBF=F FulRan=T
         wScrn=  0.000000 ICntrl=       600 IOpCl=  0 I1Cent=           0 NGrid=           0
         NMat0=    1 NMatS0=   6105 NMatT0=    0 NMatD0=    1 NMtDS0=    0 NMtDT0=    0
 Symmetry not used in FoFCou.
 Two-electron integral symmetry not used.
 UHF open shell SCF:
 Using DIIS extrapolation, IDIIS=  1040.
 NGot=   104857600 LenX=    67554392 LenY=    67541851
 Requested convergence on RMS density matrix=1.00D-08 within 128 cycles.
 Requested convergence on MAX density matrix=1.00D-06.
 Requested convergence on             energy=1.00D-06.
 No special actions if energy rises.
 Integral accuracy reduced to 1.0D-05 until final iterations.

 Cycle   1  Pass 0  IDiag  1:
 E= -308.246870475691    
 DIIS: error= 4.87D-02 at cycle   1 NSaved=   1.
 NSaved= 1 IEnMin= 1 EnMin= -308.246870475691     IErMin= 1 ErrMin= 4.87D-02
 ErrMax= 4.87D-02  0.00D+00 EMaxC= 1.00D-01 BMatC= 1.23D+00 BMatP= 1.23D+00
 IDIUse=3 WtCom= 5.13D-01 WtEn= 4.87D-01
 Coeff-Com:  0.100D+01
 Coeff-En:   0.100D+01
 Coeff:      0.100D+01
 Gap=     0.259 Goal=   None    Shift=    0.000
 Gap=     0.242 Goal=   None    Shift=    0.000
 GapD=    0.242 DampG=1.000 DampE=0.500 DampFc=0.5000 IDamp=-1.
 Damping current iteration by 5.00D-01
 RMSDP=9.55D-03 MaxDP=2.55D-01              OVMax= 4.70D-01

 Cycle   2  Pass 0  IDiag  1:
 E= -308.332348012042     Delta-E=       -0.085477536350 Rises=F Damp=T
 DIIS: error= 2.77D-02 at cycle   2 NSaved=   2.
 NSaved= 2 IEnMin= 2 EnMin= -308.332348012042     IErMin= 2 ErrMin= 2.77D-02
 ErrMax= 2.77D-02  0.00D+00 EMaxC= 1.00D-01 BMatC= 3.18D-01 BMatP= 1.23D+00
 IDIUse=3 WtCom= 7.23D-01 WtEn= 2.77D-01
 Coeff-Com:  0.248D+00 0.752D+00
 Coeff-En:   0.328D+00 0.672D+00
 Coeff:      0.271D+00 0.729D+00
 Gap=     0.256 Goal=   None    Shift=    0.000
 Gap=     0.258 Goal=   None    Shift=    0.000
 RMSDP=3.79D-03 MaxDP=9.87D-02 DE=-8.55D-02 OVMax= 3.38D-01

 Cycle   3  Pass 0  IDiag  1:
 E= -308.506896021616     Delta-E=       -0.174548009574 Rises=F Damp=F
 DIIS: error= 2.39D-02 at cycle   3 NSaved=   3.
 NSaved= 3 IEnMin= 3 EnMin= -308.506896021616     IErMin= 3 ErrMin= 2.39D-02
 ErrMax= 2.39D-02  0.00D+00 EMaxC= 1.00D-01 BMatC= 2.58D-01 BMatP= 3.18D-01
 IDIUse=3 WtCom= 7.61D-01 WtEn= 2.39D-01
 Coeff-Com:  0.430D-01 0.460D+00 0.497D+00
 Coeff-En:   0.000D+00 0.000D+00 0.100D+01
 Coeff:      0.327D-01 0.350D+00 0.618D+00
 Gap=     0.254 Goal=   None    Shift=    0.000
 Gap=     0.244 Goal=   None    Shift=    0.000
 RMSDP=3.07D-03 MaxDP=9.67D-02 DE=-1.75D-01 OVMax= 2.24D-01

 Cycle   4  Pass 0  IDiag  1:
 E= -308.543638377108     Delta-E=       -0.036742355492 Rises=F Damp=F
 DIIS: error= 1.97D-02 at cycle   4 NSaved=   4.
 NSaved= 4 IEnMin= 4 EnMin= -308.543638377108     IErMin= 4 ErrMin= 1.97D-02
 ErrMax= 1.97D-02  0.00D+00 EMaxC= 1.00D-01 BMatC= 1.52D-01 BMatP= 2.58D-01
 IDIUse=3 WtCom= 8.03D-01 WtEn= 1.97D-01
 Coeff-Com:  0.523D-01-0.964D-01 0.380D+00 0.664D+00
 Coeff-En:   0.000D+00 0.000D+00 0.335D+00 0.665D+00
 Coeff:      0.420D-01-0.774D-01 0.371D+00 0.664D+00
 Gap=     0.288 Goal=   None    Shift=    0.000
 Gap=     0.266 Goal=   None    Shift=    0.000
 RMSDP=1.41D-03 MaxDP=3.71D-02 DE=-3.67D-02 OVMax= 8.48D-02

 Cycle   5  Pass 0  IDiag  1:
 E= -308.578889604150     Delta-E=       -0.035251227042 Rises=F Damp=F
 DIIS: error= 4.37D-03 at cycle   5 NSaved=   5.
 NSaved= 5 IEnMin= 5 EnMin= -308.578889604150     IErMin= 5 ErrMin= 4.37D-03
 ErrMax= 4.37D-03  0.00D+00 EMaxC= 1.00D-01 BMatC= 3.07D-03 BMatP= 1.52D-01
 IDIUse=3 WtCom= 9.56D-01 WtEn= 4.37D-02
 Coeff-Com: -0.204D-01 0.127D-01-0.324D-01 0.145D-02 0.104D+01
 Coeff-En:   0.000D+00 0.000D+00 0.000D+00 0.000D+00 0.100D+01
 Coeff:     -0.196D-01 0.122D-01-0.310D-01 0.139D-02 0.104D+01
 Gap=     0.272 Goal=   None    Shift=    0.000
 Gap=     0.264 Goal=   None    Shift=    0.000
 RMSDP=7.79D-04 MaxDP=1.84D-02 DE=-3.53D-02 OVMax= 5.93D-02

 Cycle   6  Pass 0  IDiag  1:
 E= -308.583518385379     Delta-E=       -0.004628781229 Rises=F Damp=F
 DIIS: error= 2.79D-03 at cycle   6 NSaved=   6.
 NSaved= 6 IEnMin= 6 EnMin= -308.583518385379     IErMin= 6 ErrMin= 2.79D-03
 ErrMax= 2.79D-03  0.00D+00 EMaxC= 1.00D-01 BMatC= 1.48D-03 BMatP= 3.07D-03
 IDIUse=3 WtCom= 9.72D-01 WtEn= 2.79D-02
 Coeff-Com: -0.200D-01 0.391D-01-0.989D-01-0.172D+00 0.422D+00 0.830D+00
 Coeff-En:   0.000D+00 0.000D+00 0.000D+00 0.000D+00 0.000D+00 0.100D+01
 Coeff:     -0.194D-01 0.380D-01-0.962D-01-0.167D+00 0.410D+00 0.835D+00
 Gap=     0.275 Goal=   None    Shift=    0.000
 Gap=     0.267 Goal=   None    Shift=    0.000
 RMSDP=5.76D-04 MaxDP=1.46D-02 DE=-4.63D-03 OVMax= 3.90D-02

 Cycle   7  Pass 0  IDiag  1:
 E= -308.586117510270     Delta-E=       -0.002599124891 Rises=F Damp=F
 DIIS: error= 2.05D-03 at cycle   7 NSaved=   7.
 NSaved= 7 IEnMin= 7 EnMin= -308.586117510270     IErMin= 7 ErrMin= 2.05D-03
 ErrMax= 2.05D-03  0.00D+00 EMaxC= 1.00D-01 BMatC= 6.31D-04 BMatP= 1.48D-03
 IDIUse=3 WtCom= 9.79D-01 WtEn= 2.05D-02
 Coeff-Com:  0.144D-01-0.129D-01 0.216D-01 0.284D-01-0.777D+00-0.148D+00
 Coeff-Com:  0.187D+01
 Coeff-En:   0.000D+00 0.000D+00 0.000D+00 0.000D+00 0.000D+00 0.000D+00
 Coeff-En:   0.100D+01
 Coeff:      0.141D-01-0.126D-01 0.211D-01 0.278D-01-0.762D+00-0.145D+00
 Coeff:      0.186D+01
 Gap=     0.277 Goal=   None    Shift=    0.000
 Gap=     0.270 Goal=   None    Shift=    0.000
 RMSDP=1.11D-03 MaxDP=2.66D-02 DE=-2.60D-03 OVMax= 8.75D-02

 Cycle   8  Pass 0  IDiag  1:
 E= -308.589391481047     Delta-E=       -0.003273970776 Rises=F Damp=F
 DIIS: error= 1.19D-03 at cycle   8 NSaved=   8.
 NSaved= 8 IEnMin= 8 EnMin= -308.589391481047     IErMin= 8 ErrMin= 1.19D-03
 ErrMax= 1.19D-03  0.00D+00 EMaxC= 1.00D-01 BMatC= 2.38D-04 BMatP= 6.31D-04
 IDIUse=3 WtCom= 9.88D-01 WtEn= 1.19D-02
 Coeff-Com:  0.286D-02-0.819D-02 0.433D-01 0.822D-01-0.828D-01-0.266D+00
 Coeff-Com: -0.380D+00 0.161D+01
 Coeff-En:   0.000D+00 0.000D+00 0.000D+00 0.000D+00 0.000D+00 0.000D+00
 Coeff-En:   0.000D+00 0.100D+01
 Coeff:      0.282D-02-0.809D-02 0.428D-01 0.812D-01-0.819D-01-0.263D+00
 Coeff:     -0.376D+00 0.160D+01
 Gap=     0.277 Goal=   None    Shift=    0.000
 Gap=     0.270 Goal=   None    Shift=    0.000
 RMSDP=7.77D-04 MaxDP=1.77D-02 DE=-3.27D-03 OVMax= 5.93D-02

 Cycle   9  Pass 0  IDiag  1:
 E= -308.590668157509     Delta-E=       -0.001276676462 Rises=F Damp=F
 DIIS: error= 7.97D-04 at cycle   9 NSaved=   9.
 NSaved= 9 IEnMin= 9 EnMin= -308.590668157509     IErMin= 9 ErrMin= 7.97D-04
 ErrMax= 7.97D-04  0.00D+00 EMaxC= 1.00D-01 BMatC= 8.34D-05 BMatP= 2.38D-04
 IDIUse=3 WtCom= 9.92D-01 WtEn= 7.97D-03
 Coeff-Com: -0.294D-02-0.656D-03 0.140D-01 0.235D-01 0.189D+00-0.501D-01
 Coeff-Com: -0.791D+00 0.548D+00 0.107D+01
 Coeff-En:   0.000D+00 0.000D+00 0.000D+00 0.000D+00 0.000D+00 0.000D+00
 Coeff-En:   0.000D+00 0.000D+00 0.100D+01
 Coeff:     -0.292D-02-0.651D-03 0.138D-01 0.233D-01 0.187D+00-0.497D-01
 Coeff:     -0.785D+00 0.544D+00 0.107D+01
 Gap=     0.276 Goal=   None    Shift=    0.000
 Gap=     0.271 Goal=   None    Shift=    0.000
 RMSDP=5.16D-04 MaxDP=1.27D-02 DE=-1.28D-03 OVMax= 3.86D-02

 Cycle  10  Pass 0  IDiag  1:
 E= -308.591136355027     Delta-E=       -0.000468197518 Rises=F Damp=F
 DIIS: error= 5.46D-04 at cycle  10 NSaved=  10.
 NSaved=10 IEnMin=10 EnMin= -308.591136355027     IErMin=10 ErrMin= 5.46D-04
 ErrMax= 5.46D-04  0.00D+00 EMaxC= 1.00D-01 BMatC= 3.64D-05 BMatP= 8.34D-05
 IDIUse=3 WtCom= 9.95D-01 WtEn= 5.46D-03
 Coeff-Com: -0.704D-03 0.263D-02-0.113D-01-0.259D-01 0.240D-01 0.113D+00
 Coeff-Com:  0.775D-01-0.612D+00 0.152D+00 0.128D+01
 Coeff-En:   0.000D+00 0.000D+00 0.000D+00 0.000D+00 0.000D+00 0.000D+00
 Coeff-En:   0.000D+00 0.000D+00 0.000D+00 0.100D+01
 Coeff:     -0.700D-03 0.262D-02-0.112D-01-0.257D-01 0.239D-01 0.112D+00
 Coeff:      0.771D-01-0.609D+00 0.151D+00 0.128D+01
 Gap=     0.275 Goal=   None    Shift=    0.000
 Gap=     0.269 Goal=   None    Shift=    0.000
 RMSDP=3.04D-04 MaxDP=8.46D-03 DE=-4.68D-04 OVMax= 2.17D-02

 Cycle  11  Pass 0  IDiag  1:
 E= -308.591334457898     Delta-E=       -0.000198102871 Rises=F Damp=F
 DIIS: error= 4.61D-04 at cycle  11 NSaved=  11.
 NSaved=11 IEnMin=11 EnMin= -308.591334457898     IErMin=11 ErrMin= 4.61D-04
 ErrMax= 4.61D-04  0.00D+00 EMaxC= 1.00D-01 BMatC= 2.48D-05 BMatP= 3.64D-05
 IDIUse=3 WtCom= 9.95D-01 WtEn= 4.61D-03
 Coeff-Com: -0.276D-03 0.157D-02-0.426D-02-0.106D-01 0.796D-02 0.369D-01
 Coeff-Com:  0.354D-01-0.188D+00 0.675D-02 0.341D+00 0.773D+00
 Coeff-En:   0.000D+00 0.000D+00 0.000D+00 0.000D+00 0.000D+00 0.000D+00
 Coeff-En:   0.000D+00 0.000D+00 0.000D+00 0.000D+00 0.100D+01
 Coeff:     -0.274D-03 0.156D-02-0.424D-02-0.105D-01 0.792D-02 0.368D-01
 Coeff:      0.353D-01-0.187D+00 0.672D-02 0.340D+00 0.774D+00
 Gap=     0.275 Goal=   None    Shift=    0.000
 Gap=     0.270 Goal=   None    Shift=    0.000
 RMSDP=6.72D-05 MaxDP=1.53D-03 DE=-1.98D-04 OVMax= 5.82D-03

 Cycle  12  Pass 0  IDiag  1:
 E= -308.591394164513     Delta-E=       -0.000059706616 Rises=F Damp=F
 DIIS: error= 4.73D-04 at cycle  12 NSaved=  12.
 NSaved=12 IEnMin=12 EnMin= -308.591394164513     IErMin=11 ErrMin= 4.61D-04
 ErrMax= 4.73D-04  0.00D+00 EMaxC= 1.00D-01 BMatC= 2.57D-05 BMatP= 2.48D-05
 IDIUse=3 WtCom= 9.95D-01 WtEn= 4.61D-03
 Coeff-Com: -0.817D-04 0.155D-02-0.511D-02-0.122D-01-0.432D-02 0.396D-01
 Coeff-Com:  0.826D-01-0.233D+00-0.377D-01 0.402D+00 0.159D+01-0.824D+00
 Coeff-En:   0.000D+00 0.000D+00 0.000D+00 0.000D+00 0.000D+00 0.000D+00
 Coeff-En:   0.000D+00 0.000D+00 0.000D+00 0.000D+00 0.000D+00 0.100D+01
 Coeff:     -0.813D-04 0.154D-02-0.508D-02-0.121D-01-0.430D-02 0.394D-01
 Coeff:      0.822D-01-0.232D+00-0.375D-01 0.400D+00 0.158D+01-0.816D+00
 Gap=     0.275 Goal=   None    Shift=    0.000
 Gap=     0.270 Goal=   None    Shift=    0.000
 RMSDP=4.85D-05 MaxDP=9.81D-04 DE=-5.97D-05 OVMax= 4.18D-03

 Cycle  13  Pass 0  IDiag  1:
 E= -308.591349529010     Delta-E=        0.000044635503 Rises=F Damp=F
 DIIS: error= 4.50D-04 at cycle  13 NSaved=  13.
 NSaved=13 IEnMin=12 EnMin= -308.591394164513     IErMin=13 ErrMin= 4.50D-04
 ErrMax= 4.50D-04  0.00D+00 EMaxC= 1.00D-01 BMatC= 2.45D-05 BMatP= 2.48D-05
 IDIUse=3 WtCom= 9.96D-01 WtEn= 4.50D-03
 Rare condition: small coef for last iteration:  0.000D+00
 Coeff-Com:  0.254D-04 0.102D-02 0.844D-03 0.135D-02-0.508D-02-0.165D-01
 Coeff-Com:  0.246D-01 0.842D-01-0.136D+00-0.315D+00 0.161D+01-0.597D+01
 Coeff-Com:  0.572D+01
 Coeff-En:   0.000D+00 0.000D+00 0.000D+00 0.000D+00 0.000D+00 0.000D+00
 Coeff-En:   0.000D+00 0.000D+00 0.000D+00 0.000D+00 0.000D+00 0.000D+00
 Coeff-En:   0.100D+01
 Coeff:      0.254D-04 0.102D-02 0.844D-03 0.135D-02-0.508D-02-0.165D-01
 Coeff:      0.246D-01 0.842D-01-0.136D+00-0.315D+00 0.161D+01-0.597D+01
 Coeff:      0.572D+01
 Gap=     0.274 Goal=   None    Shift=    0.000
 Gap=     0.269 Goal=   None    Shift=    0.000
 RMSDP=2.01D-04 MaxDP=4.89D-03 DE= 4.46D-05 OVMax= 1.61D-02

 Cycle  14  Pass 0  IDiag  1:
 E= -308.591183820285     Delta-E=        0.000165708725 Rises=F Damp=F
 DIIS: error= 4.09D-04 at cycle  14 NSaved=  14.
 NSaved=14 IEnMin=12 EnMin= -308.591394164513     IErMin=14 ErrMin= 4.09D-04
 ErrMax= 4.09D-04  0.00D+00 EMaxC= 1.00D-01 BMatC= 2.01D-05 BMatP= 2.45D-05
 IDIUse=3 WtCom= 9.96D-01 WtEn= 4.09D-03
 Rare condition: small coef for last iteration:  0.000D+00
 Coeff-Com: -0.134D-02 0.154D-02 0.470D-02 0.535D-02 0.782D-01-0.319D-01
 Coeff-Com: -0.307D+00 0.453D+00 0.122D+00-0.946D+00-0.324D+01-0.228D+01
 Coeff-Com:  0.405D+01 0.310D+01
 Coeff-En:   0.000D+00 0.000D+00 0.000D+00 0.000D+00 0.000D+00 0.000D+00
 Coeff-En:   0.000D+00 0.000D+00 0.000D+00 0.000D+00 0.000D+00 0.000D+00
 Coeff-En:   0.000D+00 0.100D+01
 Coeff:     -0.134D-02 0.154D-02 0.470D-02 0.535D-02 0.782D-01-0.319D-01
 Coeff:     -0.307D+00 0.453D+00 0.122D+00-0.946D+00-0.324D+01-0.228D+01
 Coeff:      0.405D+01 0.310D+01
 Gap=     0.272 Goal=   None    Shift=    0.000
 Gap=     0.270 Goal=   None    Shift=    0.000
 RMSDP=4.21D-04 MaxDP=1.14D-02 DE= 1.66D-04 OVMax= 2.97D-02

 Problem detected with inexpensive integrals.
 Switching to full accuracy and repeating last cycle.
 Cycle  15  Pass 1  IDiag  1:
 E= -308.591216028121     Delta-E=       -0.000032207836 Rises=F Damp=F
 DIIS: error= 4.05D-04 at cycle   1 NSaved=   1.
 NSaved= 1 IEnMin= 1 EnMin= -308.591216028121     IErMin= 1 ErrMin= 4.05D-04
 ErrMax= 4.05D-04  0.00D+00 EMaxC= 1.00D-01 BMatC= 2.01D-05 BMatP= 2.01D-05
 IDIUse=3 WtCom= 9.96D-01 WtEn= 4.05D-03
 Coeff-Com:  0.100D+01
 Coeff-En:   0.100D+01
 Coeff:      0.100D+01
 Gap=     0.274 Goal=   None    Shift=    0.000
 Gap=     0.269 Goal=   None    Shift=    0.000
 RMSDP=6.50D-05 MaxDP=1.37D-03 DE=-3.22D-05 OVMax= 5.35D-03

 Cycle  16  Pass 1  IDiag  1:
 E= -308.591265348555     Delta-E=       -0.000049320434 Rises=F Damp=F
 DIIS: error= 4.31D-04 at cycle   2 NSaved=   2.
 NSaved= 2 IEnMin= 2 EnMin= -308.591265348555     IErMin= 1 ErrMin= 4.05D-04
 ErrMax= 4.31D-04  0.00D+00 EMaxC= 1.00D-01 BMatC= 2.44D-05 BMatP= 2.01D-05
 IDIUse=3 WtCom= 3.25D-01 WtEn= 6.75D-01
 Coeff-Com:  0.668D+00 0.332D+00
 Coeff-En:   0.000D+00 0.100D+01
 Coeff:      0.217D+00 0.783D+00
 Gap=     0.275 Goal=   None    Shift=    0.000
 Gap=     0.270 Goal=   None    Shift=    0.000
 RMSDP=5.37D-05 MaxDP=1.26D-03 DE=-4.93D-05 OVMax= 5.37D-03

 Cycle  17  Pass 1  IDiag  1:
 E= -308.591304049038     Delta-E=       -0.000038700482 Rises=F Damp=F
 DIIS: error= 5.64D-04 at cycle   3 NSaved=   3.
 NSaved= 3 IEnMin= 3 EnMin= -308.591304049038     IErMin= 1 ErrMin= 4.05D-04
 ErrMax= 5.64D-04  0.00D+00 EMaxC= 1.00D-01 BMatC= 3.47D-05 BMatP= 2.01D-05
 IDIUse=3 WtCom= 2.96D-01 WtEn= 7.04D-01
 Coeff-Com:  0.577D+00 0.367D+00 0.558D-01
 Coeff-En:   0.000D+00 0.000D+00 0.100D+01
 Coeff:      0.171D+00 0.109D+00 0.720D+00
 Gap=     0.274 Goal=   None    Shift=    0.000
 Gap=     0.269 Goal=   None    Shift=    0.000
 RMSDP=4.94D-05 MaxDP=1.71D-03 DE=-3.87D-05 OVMax= 4.64D-03

 Cycle  18  Pass 1  IDiag  1:
 E= -308.591332201269     Delta-E=       -0.000028152231 Rises=F Damp=F
 DIIS: error= 6.63D-04 at cycle   4 NSaved=   4.
 NSaved= 4 IEnMin= 4 EnMin= -308.591332201269     IErMin= 1 ErrMin= 4.05D-04
 ErrMax= 6.63D-04  0.00D+00 EMaxC= 1.00D-01 BMatC= 5.99D-05 BMatP= 2.01D-05
 IDIUse=3 WtCom= 2.80D-01 WtEn= 7.20D-01
 Coeff-Com:  0.777D+00 0.137D+01-0.469D+00-0.678D+00
 Coeff-En:   0.000D+00 0.000D+00 0.000D+00 0.100D+01
 Coeff:      0.217D+00 0.383D+00-0.131D+00 0.531D+00
 Gap=     0.275 Goal=   None    Shift=    0.000
 Gap=     0.270 Goal=   None    Shift=    0.000
 RMSDP=4.94D-05 MaxDP=1.54D-03 DE=-2.82D-05 OVMax= 2.98D-03

 Cycle  19  Pass 1  IDiag  1:
 E= -308.591319323500     Delta-E=        0.000012877769 Rises=F Damp=F
 DIIS: error= 9.01D-04 at cycle   5 NSaved=   5.
 NSaved= 5 IEnMin= 4 EnMin= -308.591332201269     IErMin= 1 ErrMin= 4.05D-04
 ErrMax= 9.01D-04  0.00D+00 EMaxC= 1.00D-01 BMatC= 1.37D-04 BMatP= 2.01D-05
 IDIUse=3 WtCom= 2.50D-01 WtEn= 7.50D-01
 Large coefficients: NSaved=  5 BigCof=   14.52 CofMax=   10.00 Det=-2.11D-08
 Inversion failed.  Reducing to  4 matrices.
 Coeff-Com:  0.222D+01 0.489D+01-0.306D+01-0.306D+01
 Coeff-En:   0.000D+00 0.000D+00 0.657D+00 0.343D+00
 Coeff:      0.556D+00 0.122D+01-0.273D+00-0.506D+00
 Gap=     0.274 Goal=   None    Shift=    0.000
 Gap=     0.270 Goal=   None    Shift=    0.000
 RMSDP=4.93D-05 MaxDP=1.56D-03 DE= 1.29D-05 OVMax= 4.95D-03

 Cycle  20  Pass 1  IDiag  1:
 E= -308.591309121733     Delta-E=        0.000010201767 Rises=F Damp=F
 DIIS: error= 4.24D-04 at cycle   6 NSaved=   5.
 NSaved= 5 IEnMin= 3 EnMin= -308.591332201269     IErMin= 5 ErrMin= 4.24D-04
 ErrMax= 4.24D-04  0.00D+00 EMaxC= 1.00D-01 BMatC= 2.04D-05 BMatP= 2.44D-05
 IDIUse=3 WtCom= 9.96D-01 WtEn= 4.24D-03
 Large coefficients: NSaved=  5 BigCof=   44.12 CofMax=   10.00 Det=-1.98D-08
 Inversion failed.  Reducing to  4 matrices.
 Large coefficients: NSaved=  4 BigCof=   28.05 CofMax=   10.00 Det=-5.02D-08
 Inversion failed.  Reducing to  3 matrices.
 Large coefficients: NSaved=  3 BigCof=   16.41 CofMax=   10.00 Det=-1.08D-07
 Inversion failed.  Reducing to  2 matrices.
 Coeff-Com: -0.962D-01 0.110D+01
 Coeff-En:   0.000D+00 0.100D+01
 Coeff:     -0.958D-01 0.110D+01
 Gap=     0.275 Goal=   None    Shift=    0.000
 Gap=     0.270 Goal=   None    Shift=    0.000
 RMSDP=6.12D-05 MaxDP=1.22D-03 DE= 1.02D-05 OVMax= 5.17D-03

 Cycle  21  Pass 1  IDiag  1:
 E= -308.591360161833     Delta-E=       -0.000051040100 Rises=F Damp=F
 DIIS: error= 4.21D-04 at cycle   7 NSaved=   3.
 NSaved= 3 IEnMin= 3 EnMin= -308.591360161833     IErMin= 3 ErrMin= 4.21D-04
 ErrMax= 4.21D-04  0.00D+00 EMaxC= 1.00D-01 BMatC= 2.13D-05 BMatP= 2.04D-05
 IDIUse=3 WtCom= 9.96D-01 WtEn= 4.21D-03
 Coeff-Com: -0.456D+00 0.765D+01-0.619D+01
 Coeff-En:   0.000D+00 0.000D+00 0.100D+01
 Coeff:     -0.454D+00 0.761D+01-0.616D+01
 Gap=     0.273 Goal=   None    Shift=    0.000
 Gap=     0.269 Goal=   None    Shift=    0.000
 RMSDP=4.07D-04 MaxDP=8.49D-03 DE=-5.10D-05 OVMax= 3.42D-02

 Cycle  22  Pass 1  IDiag  1:
 E= -308.591064306415     Delta-E=        0.000295855419 Rises=F Damp=F
 DIIS: error= 3.72D-04 at cycle   8 NSaved=   4.
 NSaved= 4 IEnMin= 3 EnMin= -308.591360161833     IErMin= 4 ErrMin= 3.72D-04
 ErrMax= 3.72D-04  0.00D+00 EMaxC= 1.00D-01 BMatC= 1.32D-05 BMatP= 2.04D-05
 IDIUse=3 WtCom= 9.96D-01 WtEn= 3.72D-03
 Large coefficients: NSaved=  4 BigCof=   14.29 CofMax=   10.00 Det=-9.63D-09
 Inversion failed.  Reducing to  3 matrices.
 Rare condition: small coef for last iteration:  0.000D+00
 Coeff-Com: -0.864D-01-0.376D+00 0.146D+01
 Coeff-En:   0.000D+00 0.000D+00 0.100D+01
 Coeff:     -0.864D-01-0.376D+00 0.146D+01
 Gap=     0.272 Goal=   None    Shift=    0.000
 Gap=     0.270 Goal=   None    Shift=    0.000
 RMSDP=1.52D-04 MaxDP=3.87D-03 DE= 2.96D-04 OVMax= 1.20D-02

 Cycle  23  Pass 1  IDiag  1:
 E= -308.590994614539     Delta-E=        0.000069691875 Rises=F Damp=F
 DIIS: error= 3.64D-04 at cycle   9 NSaved=   4.
 NSaved= 4 IEnMin= 2 EnMin= -308.591360161833     IErMin= 4 ErrMin= 3.64D-04
 ErrMax= 3.64D-04  0.00D+00 EMaxC= 1.00D-01 BMatC= 9.19D-06 BMatP= 1.32D-05
 IDIUse=3 WtCom= 9.96D-01 WtEn= 3.64D-03
 Rare condition: small coef for last iteration:  0.000D+00
 Coeff-Com:  0.106D+00 0.309D+00-0.293D+01 0.352D+01
 Coeff-En:   0.000D+00 0.000D+00 0.000D+00 0.100D+01
 Coeff:      0.106D+00 0.309D+00-0.293D+01 0.352D+01
 Gap=     0.271 Goal=   None    Shift=    0.000
 Gap=     0.270 Goal=   None    Shift=    0.000
 RMSDP=2.15D-04 MaxDP=7.56D-03 DE= 6.97D-05 OVMax= 1.39D-02

 Cycle  24  Pass 1  IDiag  1:
 E= -308.590953266254     Delta-E=        0.000041348286 Rises=F Damp=F
 DIIS: error= 2.38D-04 at cycle  10 NSaved=   5.
 NSaved= 5 IEnMin= 2 EnMin= -308.591360161833     IErMin= 5 ErrMin= 2.38D-04
 ErrMax= 2.38D-04  0.00D+00 EMaxC= 1.00D-01 BMatC= 4.80D-06 BMatP= 9.19D-06
 IDIUse=3 WtCom= 9.98D-01 WtEn= 2.38D-03
 Rare condition: small coef for last iteration:  0.000D+00
 Coeff-Com:  0.114D+00 0.471D+00-0.284D+01 0.219D+01 0.107D+01
 Coeff-En:   0.000D+00 0.000D+00 0.000D+00 0.000D+00 0.100D+01
 Coeff:      0.114D+00 0.471D+00-0.284D+01 0.219D+01 0.107D+01
 Gap=     0.271 Goal=   None    Shift=    0.000
 Gap=     0.270 Goal=   None    Shift=    0.000
 RMSDP=1.40D-04 MaxDP=5.57D-03 DE= 4.13D-05 OVMax= 9.88D-03

 Cycle  25  Pass 1  IDiag  1:
 E= -308.590950003421     Delta-E=        0.000003262833 Rises=F Damp=F
 DIIS: error= 1.44D-04 at cycle  11 NSaved=   6.
 NSaved= 6 IEnMin= 2 EnMin= -308.591360161833     IErMin= 6 ErrMin= 1.44D-04
 ErrMax= 1.44D-04  0.00D+00 EMaxC= 1.00D-01 BMatC= 1.48D-06 BMatP= 4.80D-06
 IDIUse=3 WtCom= 9.99D-01 WtEn= 1.44D-03
 Rare condition: small coef for last iteration:  0.000D+00
 Coeff-Com: -0.652D-01-0.284D+00 0.189D+01-0.194D+01-0.240D+00 0.163D+01
 Coeff-En:   0.000D+00 0.000D+00 0.000D+00 0.000D+00 0.000D+00 0.100D+01
 Coeff:     -0.652D-01-0.284D+00 0.189D+01-0.194D+01-0.240D+00 0.163D+01
 Gap=     0.271 Goal=   None    Shift=    0.000
 Gap=     0.271 Goal=   None    Shift=    0.000
 RMSDP=7.59D-05 MaxDP=2.94D-03 DE= 3.26D-06 OVMax= 5.40D-03

 Cycle  26  Pass 1  IDiag  1:
 E= -308.590953441519     Delta-E=       -0.000003438099 Rises=F Damp=F
 DIIS: error= 8.68D-05 at cycle  12 NSaved=   7.
 NSaved= 7 IEnMin= 2 EnMin= -308.591360161833     IErMin= 7 ErrMin= 8.68D-05
 ErrMax= 8.68D-05  0.00D+00 EMaxC= 1.00D-01 BMatC= 6.47D-07 BMatP= 1.48D-06
 IDIUse=1 WtCom= 1.00D+00 WtEn= 0.00D+00
 Coeff-Com: -0.738D-01-0.239D+00 0.163D+01-0.141D+01-0.494D+00 0.516D+00
 Coeff-Com:  0.107D+01
 Coeff:     -0.738D-01-0.239D+00 0.163D+01-0.141D+01-0.494D+00 0.516D+00
 Coeff:      0.107D+01
 Gap=     0.271 Goal=   None    Shift=    0.000
 Gap=     0.271 Goal=   None    Shift=    0.000
 RMSDP=3.43D-05 MaxDP=1.23D-03 DE=-3.44D-06 OVMax= 2.78D-03

 Cycle  27  Pass 1  IDiag  1:
 E= -308.590955857184     Delta-E=       -0.000002415665 Rises=F Damp=F
 DIIS: error= 4.81D-05 at cycle  13 NSaved=   8.
 NSaved= 8 IEnMin= 2 EnMin= -308.591360161833     IErMin= 8 ErrMin= 4.81D-05
 ErrMax= 4.81D-05  0.00D+00 EMaxC= 1.00D-01 BMatC= 2.70D-07 BMatP= 6.47D-07
 IDIUse=1 WtCom= 1.00D+00 WtEn= 0.00D+00
 Coeff-Com:  0.267D-01 0.127D+00-0.745D+00 0.779D+00 0.256D-01-0.712D+00
 Coeff-Com:  0.234D+00 0.127D+01
 Coeff:      0.267D-01 0.127D+00-0.745D+00 0.779D+00 0.256D-01-0.712D+00
 Coeff:      0.234D+00 0.127D+01
 Gap=     0.271 Goal=   None    Shift=    0.000
 Gap=     0.271 Goal=   None    Shift=    0.000
 RMSDP=2.36D-05 MaxDP=5.95D-04 DE=-2.42D-06 OVMax= 1.68D-03

 Cycle  28  Pass 1  IDiag  1:
 E= -308.590957105698     Delta-E=       -0.000001248514 Rises=F Damp=F
 DIIS: error= 3.00D-05 at cycle  14 NSaved=   9.
 NSaved= 9 IEnMin= 2 EnMin= -308.591360161833     IErMin= 9 ErrMin= 3.00D-05
 ErrMax= 3.00D-05  0.00D+00 EMaxC= 1.00D-01 BMatC= 1.18D-07 BMatP= 2.70D-07
 IDIUse=1 WtCom= 1.00D+00 WtEn= 0.00D+00
 Coeff-Com:  0.811D-02-0.642D-01 0.211D+00-0.145D+00-0.212D-01-0.273D-01
 Coeff-Com: -0.241D+00 0.168D+00 0.111D+01
 Coeff:      0.811D-02-0.642D-01 0.211D+00-0.145D+00-0.212D-01-0.273D-01
 Coeff:     -0.241D+00 0.168D+00 0.111D+01
 Gap=     0.271 Goal=   None    Shift=    0.000
 Gap=     0.271 Goal=   None    Shift=    0.000
 RMSDP=1.35D-05 MaxDP=3.87D-04 DE=-1.25D-06 OVMax= 1.18D-03

 Cycle  29  Pass 1  IDiag  1:
 E= -308.590957519454     Delta-E=       -0.000000413757 Rises=F Damp=F
 DIIS: error= 2.48D-05 at cycle  15 NSaved=  10.
 NSaved=10 IEnMin= 2 EnMin= -308.591360161833     IErMin=10 ErrMin= 2.48D-05
 ErrMax= 2.48D-05  0.00D+00 EMaxC= 1.00D-01 BMatC= 4.96D-08 BMatP= 1.18D-07
 IDIUse=1 WtCom= 1.00D+00 WtEn= 0.00D+00
 Coeff-Com: -0.250D-01-0.538D-04 0.215D+00-0.277D+00-0.303D-01 0.366D+00
 Coeff-Com:  0.161D+00-0.723D+00-0.901D+00 0.221D+01
 Coeff:     -0.250D-01-0.538D-04 0.215D+00-0.277D+00-0.303D-01 0.366D+00
 Coeff:      0.161D+00-0.723D+00-0.901D+00 0.221D+01
 Gap=     0.271 Goal=   None    Shift=    0.000
 Gap=     0.271 Goal=   None    Shift=    0.000
 RMSDP=1.17D-05 MaxDP=2.86D-04 DE=-4.14D-07 OVMax= 8.89D-04

 Cycle  30  Pass 1  IDiag  1:
 E= -308.590957844677     Delta-E=       -0.000000325223 Rises=F Damp=F
 DIIS: error= 1.74D-05 at cycle  16 NSaved=  11.
 NSaved=11 IEnMin= 2 EnMin= -308.591360161833     IErMin=11 ErrMin= 1.74D-05
 ErrMax= 1.74D-05  0.00D+00 EMaxC= 1.00D-01 BMatC= 2.24D-08 BMatP= 4.96D-08
 IDIUse=1 WtCom= 1.00D+00 WtEn= 0.00D+00
 Coeff-Com: -0.139D-01 0.384D-01-0.820D-01 0.444D-01-0.108D-01 0.672D-01
 Coeff-Com:  0.234D+00-0.203D+00-0.939D+00-0.433D-01 0.191D+01
 Coeff:     -0.139D-01 0.384D-01-0.820D-01 0.444D-01-0.108D-01 0.672D-01
 Coeff:      0.234D+00-0.203D+00-0.939D+00-0.433D-01 0.191D+01
 Gap=     0.271 Goal=   None    Shift=    0.000
 Gap=     0.271 Goal=   None    Shift=    0.000
 RMSDP=1.43D-05 MaxDP=3.38D-04 DE=-3.25D-07 OVMax= 1.22D-03

 Cycle  31  Pass 1  IDiag  1:
 E= -308.590958050815     Delta-E=       -0.000000206137 Rises=F Damp=F
 DIIS: error= 5.08D-06 at cycle  17 NSaved=  12.
 NSaved=12 IEnMin= 2 EnMin= -308.591360161833     IErMin=12 ErrMin= 5.08D-06
 ErrMax= 5.08D-06  0.00D+00 EMaxC= 1.00D-01 BMatC= 4.68D-09 BMatP= 2.24D-08
 IDIUse=1 WtCom= 1.00D+00 WtEn= 0.00D+00
 Coeff-Com:  0.493D-03-0.406D-02-0.138D-01 0.366D-01-0.118D-01-0.701D-01
 Coeff-Com:  0.362D-01 0.152D+00-0.131D-01-0.754D+00 0.743D+00 0.899D+00
 Coeff:      0.493D-03-0.406D-02-0.138D-01 0.366D-01-0.118D-01-0.701D-01
 Coeff:      0.362D-01 0.152D+00-0.131D-01-0.754D+00 0.743D+00 0.899D+00
 Gap=     0.271 Goal=   None    Shift=    0.000
 Gap=     0.271 Goal=   None    Shift=    0.000
 RMSDP=4.40D-06 MaxDP=1.19D-04 DE=-2.06D-07 OVMax= 3.79D-04

 Cycle  32  Pass 1  IDiag  1:
 E= -308.590958066128     Delta-E=       -0.000000015314 Rises=F Damp=F
 DIIS: error= 1.44D-06 at cycle  18 NSaved=  13.
 NSaved=13 IEnMin= 2 EnMin= -308.591360161833     IErMin=13 ErrMin= 1.44D-06
 ErrMax= 1.44D-06  0.00D+00 EMaxC= 1.00D-01 BMatC= 5.48D-10 BMatP= 4.68D-09
 IDIUse=1 WtCom= 1.00D+00 WtEn= 0.00D+00
 Coeff-Com:  0.169D-02-0.215D-02-0.305D-02 0.690D-02 0.502D-02-0.136D-01
 Coeff-Com: -0.411D-01 0.260D-01 0.161D+00 0.145D-01-0.312D+00 0.317D-02
 Coeff-Com:  0.115D+01
 Coeff:      0.169D-02-0.215D-02-0.305D-02 0.690D-02 0.502D-02-0.136D-01
 Coeff:     -0.411D-01 0.260D-01 0.161D+00 0.145D-01-0.312D+00 0.317D-02
 Coeff:      0.115D+01
 Gap=     0.271 Goal=   None    Shift=    0.000
 Gap=     0.271 Goal=   None    Shift=    0.000
 RMSDP=6.82D-07 MaxDP=1.56D-05 DE=-1.53D-08 OVMax= 5.81D-05

 Cycle  33  Pass 1  IDiag  1:
 E= -308.590958066950     Delta-E=       -0.000000000822 Rises=F Damp=F
 DIIS: error= 5.39D-07 at cycle  19 NSaved=  14.
 NSaved=14 IEnMin= 2 EnMin= -308.591360161833     IErMin=14 ErrMin= 5.39D-07
 ErrMax= 5.39D-07  0.00D+00 EMaxC= 1.00D-01 BMatC= 6.91D-11 BMatP= 5.48D-10
 IDIUse=1 WtCom= 1.00D+00 WtEn= 0.00D+00
 Coeff-Com: -0.472D-03 0.141D-02 0.182D-02-0.559D-02 0.143D-02 0.110D-01
 Coeff-Com: -0.450D-02-0.224D-01-0.770D-03 0.100D+00-0.927D-01-0.126D+00
 Coeff-Com: -0.282D-01 0.116D+01
 Coeff:     -0.472D-03 0.141D-02 0.182D-02-0.559D-02 0.143D-02 0.110D-01
 Coeff:     -0.450D-02-0.224D-01-0.770D-03 0.100D+00-0.927D-01-0.126D+00
 Coeff:     -0.282D-01 0.116D+01
 Gap=     0.271 Goal=   None    Shift=    0.000
 Gap=     0.271 Goal=   None    Shift=    0.000
 RMSDP=3.03D-07 MaxDP=8.67D-06 DE=-8.22D-10 OVMax= 2.16D-05

 Cycle  34  Pass 1  IDiag  1:
 E= -308.590958067024     Delta-E=       -0.000000000075 Rises=F Damp=F
 DIIS: error= 2.04D-07 at cycle  20 NSaved=  15.
 NSaved=15 IEnMin= 2 EnMin= -308.591360161833     IErMin=15 ErrMin= 2.04D-07
 ErrMax= 2.04D-07  0.00D+00 EMaxC= 1.00D-01 BMatC= 1.67D-11 BMatP= 6.91D-11
 IDIUse=1 WtCom= 1.00D+00 WtEn= 0.00D+00
 Coeff-Com: -0.555D-03-0.709D-03 0.851D-02-0.894D-02-0.201D-02 0.697D-02
 Coeff-Com:  0.603D-02-0.943D-02-0.266D-01 0.210D-01 0.297D-01-0.341D-01
 Coeff-Com: -0.187D+00 0.271D+00 0.926D+00
 Coeff:     -0.555D-03-0.709D-03 0.851D-02-0.894D-02-0.201D-02 0.697D-02
 Coeff:      0.603D-02-0.943D-02-0.266D-01 0.210D-01 0.297D-01-0.341D-01
 Coeff:     -0.187D+00 0.271D+00 0.926D+00
 Gap=     0.271 Goal=   None    Shift=    0.000
 Gap=     0.271 Goal=   None    Shift=    0.000
 RMSDP=4.59D-08 MaxDP=1.28D-06 DE=-7.48D-11 OVMax= 2.39D-06

 Cycle  35  Pass 1  IDiag  1:
 E= -308.590958067038     Delta-E=       -0.000000000014 Rises=F Damp=F
 DIIS: error= 6.93D-08 at cycle  21 NSaved=  16.
 NSaved=16 IEnMin= 2 EnMin= -308.591360161833     IErMin=16 ErrMin= 6.93D-08
 ErrMax= 6.93D-08  0.00D+00 EMaxC= 1.00D-01 BMatC= 2.10D-12 BMatP= 1.67D-11
 IDIUse=1 WtCom= 1.00D+00 WtEn= 0.00D+00
 Coeff-Com: -0.355D-05-0.167D-03 0.784D-03-0.672D-03-0.499D-03 0.192D-03
 Coeff-Com:  0.253D-02 0.281D-03-0.877D-02-0.746D-02 0.212D-01 0.989D-02
 Coeff-Com: -0.383D-01-0.123D+00 0.190D+00 0.954D+00
 Coeff:     -0.355D-05-0.167D-03 0.784D-03-0.672D-03-0.499D-03 0.192D-03
 Coeff:      0.253D-02 0.281D-03-0.877D-02-0.746D-02 0.212D-01 0.989D-02
 Coeff:     -0.383D-01-0.123D+00 0.190D+00 0.954D+00
 Gap=     0.271 Goal=   None    Shift=    0.000
 Gap=     0.271 Goal=   None    Shift=    0.000
 RMSDP=3.27D-08 MaxDP=7.47D-07 DE=-1.38D-11 OVMax= 2.39D-06

 Cycle  36  Pass 1  IDiag  1:
 E= -308.590958067039     Delta-E=       -0.000000000001 Rises=F Damp=F
 DIIS: error= 3.32D-08 at cycle  22 NSaved=  17.
 NSaved=17 IEnMin= 2 EnMin= -308.591360161833     IErMin=17 ErrMin= 3.32D-08
 ErrMax= 3.32D-08  0.00D+00 EMaxC= 1.00D-01 BMatC= 2.16D-13 BMatP= 2.10D-12
 IDIUse=1 WtCom= 1.00D+00 WtEn= 0.00D+00
 Coeff-Com:  0.854D-04 0.100D-03-0.113D-02 0.110D-02 0.209D-03-0.707D-03
 Coeff-Com: -0.139D-03 0.716D-03 0.119D-02-0.275D-02-0.225D-03 0.539D-02
 Coeff-Com:  0.125D-01-0.415D-01-0.829D-01 0.111D+00 0.997D+00
 Coeff:      0.854D-04 0.100D-03-0.113D-02 0.110D-02 0.209D-03-0.707D-03
 Coeff:     -0.139D-03 0.716D-03 0.119D-02-0.275D-02-0.225D-03 0.539D-02
 Coeff:      0.125D-01-0.415D-01-0.829D-01 0.111D+00 0.997D+00
 Gap=     0.271 Goal=   None    Shift=    0.000
 Gap=     0.271 Goal=   None    Shift=    0.000
 RMSDP=8.06D-09 MaxDP=2.52D-07 DE=-1.25D-12 OVMax= 7.77D-07

 SCF Done:  E(UM062X) =  -308.590958067     A.U. after   36 cycles
            NFock= 36  Conv=0.81D-08     -V/T= 2.0096
 <Sx>= 0.0000 <Sy>= 0.0000 <Sz>= 0.0000 <S**2>= 0.0000 S= 0.0000
 <L.S>=  0.00000000000    
 KE= 3.056683566996D+02 PE=-1.240996447150D+03 EE= 3.664915079011D+02
 Annihilation of the first spin contaminant:
 S**2 before annihilation     0.0000,   after    -0.0000
 Leave Link  502 at Sun Apr  3 09:59:55 2022, MaxMem=   104857600 cpu:             129.6 elap:             129.9
 (Enter /apps/software/g16/l601.exe)
 Copying SCF densities to generalized density rwf, IOpCl= 1 IROHF=0.

 **********************************************************************

            Population analysis using the SCF density.

 **********************************************************************

 Alpha  occ. eigenvalues --  -19.70900 -19.68977 -10.61037 -10.54992 -10.53665
 Alpha  occ. eigenvalues --  -10.53015  -1.13720  -1.06254  -0.88305  -0.79081
 Alpha  occ. eigenvalues --   -0.78273  -0.62733  -0.54299  -0.53582  -0.52787
 Alpha  occ. eigenvalues --   -0.50944  -0.47224  -0.46162  -0.43875  -0.43267
 Alpha  occ. eigenvalues --   -0.42109  -0.41791  -0.38528  -0.36860  -0.34797
 Alpha virt. eigenvalues --   -0.07720   0.11755   0.15326   0.16114   0.18934
 Alpha virt. eigenvalues --    0.19892   0.21133   0.21624   0.23822   0.24377
 Alpha virt. eigenvalues --    0.24929   0.27292   0.28009   0.29406   0.29821
 Alpha virt. eigenvalues --    0.54339   0.54609   0.58386   0.61717   0.62491
 Alpha virt. eigenvalues --    0.65312   0.69864   0.73252   0.73732   0.78101
 Alpha virt. eigenvalues --    0.79296   0.86830   0.90388   0.90899   0.93949
 Alpha virt. eigenvalues --    0.94885   0.95974   0.96582   0.97912   0.99134
 Alpha virt. eigenvalues --    0.99787   1.00510   1.01863   1.05107   1.07023
 Alpha virt. eigenvalues --    1.09354   1.12468   1.19951   1.23465   1.29633
 Alpha virt. eigenvalues --    1.41291   1.43525   1.46713   1.48054   1.55701
 Alpha virt. eigenvalues --    1.73262   1.74354   1.77310   1.77850   1.82918
 Alpha virt. eigenvalues --    1.84341   1.86098   1.89825   1.91728   1.96517
 Alpha virt. eigenvalues --    2.00888   2.03698   2.14626   2.15115   2.19223
 Alpha virt. eigenvalues --    2.26849   2.28217   2.28919   2.30963   2.31974
 Alpha virt. eigenvalues --    2.34366   2.41568   2.48832   2.59986   2.62927
 Alpha virt. eigenvalues --    2.69467   2.75443   2.75948   2.94204   3.57669
 Alpha virt. eigenvalues --    3.79897   4.21077   4.33456   4.34197   4.65938
  Beta  occ. eigenvalues --  -19.70900 -19.68977 -10.61037 -10.54992 -10.53665
  Beta  occ. eigenvalues --  -10.53015  -1.13720  -1.06254  -0.88305  -0.79081
  Beta  occ. eigenvalues --   -0.78273  -0.62733  -0.54299  -0.53582  -0.52787
  Beta  occ. eigenvalues --   -0.50944  -0.47224  -0.46162  -0.43875  -0.43267
  Beta  occ. eigenvalues --   -0.42109  -0.41791  -0.38528  -0.36860  -0.34797
  Beta virt. eigenvalues --   -0.07720   0.11755   0.15326   0.16114   0.18934
  Beta virt. eigenvalues --    0.19892   0.21133   0.21624   0.23822   0.24377
  Beta virt. eigenvalues --    0.24929   0.27292   0.28009   0.29406   0.29821
  Beta virt. eigenvalues --    0.54339   0.54609   0.58386   0.61717   0.62491
  Beta virt. eigenvalues --    0.65312   0.69864   0.73252   0.73732   0.78101
  Beta virt. eigenvalues --    0.79296   0.86830   0.90388   0.90899   0.93949
  Beta virt. eigenvalues --    0.94885   0.95974   0.96582   0.97912   0.99134
  Beta virt. eigenvalues --    0.99787   1.00510   1.01863   1.05107   1.07023
  Beta virt. eigenvalues --    1.09354   1.12468   1.19951   1.23465   1.29633
  Beta virt. eigenvalues --    1.41291   1.43525   1.46713   1.48054   1.55701
  Beta virt. eigenvalues --    1.73262   1.74354   1.77310   1.77850   1.82918
  Beta virt. eigenvalues --    1.84341   1.86098   1.89825   1.91728   1.96517
  Beta virt. eigenvalues --    2.00888   2.03698   2.14626   2.15115   2.19223
  Beta virt. eigenvalues --    2.26849   2.28217   2.28919   2.30963   2.31974
  Beta virt. eigenvalues --    2.34366   2.41568   2.48832   2.59986   2.62927
  Beta virt. eigenvalues --    2.69467   2.75443   2.75948   2.94204   3.57669
  Beta virt. eigenvalues --    3.79897   4.21077   4.33456   4.34197   4.65938
          Condensed to atoms (all electrons):
               1          2          3          4          5          6
     1  C    5.206132   0.371855   0.371732   0.378572   0.358379  -0.084753
     2  C    0.371855   4.715920  -0.026952  -0.024208  -0.027093   0.364649
     3  H    0.371732  -0.026952   0.530810  -0.022811  -0.025864   0.005702
     4  H    0.378572  -0.024208  -0.022811   0.497782  -0.026243  -0.004625
     5  H    0.358379  -0.027093  -0.025864  -0.026243   0.571107  -0.000714
     6  C   -0.084753   0.364649   0.005702  -0.004625  -0.000714   5.221835
     7  C   -0.067015   0.369212  -0.005314   0.004573  -0.002880  -0.062956
     8  H    0.005834  -0.027185  -0.000174  -0.000016  -0.000101   0.369073
     9  H   -0.000508  -0.026344  -0.000111   0.000118   0.000932   0.359063
    10  H   -0.005132  -0.027555  -0.000001   0.003046   0.000125   0.374790
    11  H   -0.002521  -0.026837  -0.000027   0.000040   0.001636  -0.003026
    12  H    0.006015  -0.026675  -0.000066  -0.000151  -0.000106  -0.006963
    13  H   -0.006626  -0.026804   0.004124  -0.000047   0.000214   0.006042
    14  O   -0.056328   0.168075   0.000920  -0.004238   0.003371  -0.054272
    15  O   -0.006588  -0.010197  -0.000216   0.006600   0.000150  -0.004428
    16  H    0.000325  -0.001018   0.000003  -0.000247  -0.000015   0.001379
               7          8          9         10         11         12
     1  C   -0.067015   0.005834  -0.000508  -0.005132  -0.002521   0.006015
     2  C    0.369212  -0.027185  -0.026344  -0.027555  -0.026837  -0.026675
     3  H   -0.005314  -0.000174  -0.000111  -0.000001  -0.000027  -0.000066
     4  H    0.004573  -0.000016   0.000118   0.003046   0.000040  -0.000151
     5  H   -0.002880  -0.000101   0.000932   0.000125   0.001636  -0.000106
     6  C   -0.062956   0.369073   0.359063   0.374790  -0.003026  -0.006963
     7  C    5.187167  -0.005512  -0.002329   0.005025   0.371390   0.371289
     8  H   -0.005512   0.542319  -0.025272  -0.025497   0.000022   0.004161
     9  H   -0.002329  -0.025272   0.559596  -0.025074   0.001381   0.000232
    10  H    0.005025  -0.025497  -0.025074   0.519823   0.000009  -0.000054
    11  H    0.371390   0.000022   0.001381   0.000009   0.526373  -0.024453
    12  H    0.371289   0.004161   0.000232  -0.000054  -0.024453   0.524216
    13  H    0.372647  -0.000088  -0.000097  -0.000154  -0.023969  -0.025717
    14  O   -0.048971   0.001269   0.003284  -0.003546   0.003072   0.000007
    15  O    0.001892  -0.000399   0.000232   0.009205  -0.000030  -0.000033
    16  H   -0.000085   0.000162  -0.000022  -0.000245   0.000001   0.000002
              13         14         15         16
     1  C   -0.006626  -0.056328  -0.006588   0.000325
     2  C   -0.026804   0.168075  -0.010197  -0.001018
     3  H    0.004124   0.000920  -0.000216   0.000003
     4  H   -0.000047  -0.004238   0.006600  -0.000247
     5  H    0.000214   0.003371   0.000150  -0.000015
     6  C    0.006042  -0.054272  -0.004428   0.001379
     7  C    0.372647  -0.048971   0.001892  -0.000085
     8  H   -0.000088   0.001269  -0.000399   0.000162
     9  H   -0.000097   0.003284   0.000232  -0.000022
    10  H   -0.000154  -0.003546   0.009205  -0.000245
    11  H   -0.023969   0.003072  -0.000030   0.000001
    12  H   -0.025717   0.000007  -0.000033   0.000002
    13  H    0.516723  -0.000183  -0.000029   0.000001
    14  O   -0.000183   8.167634   0.126465  -0.002236
    15  O   -0.000029   0.126465   8.150895   0.209176
    16  H    0.000001  -0.002236   0.209176   0.366621
          Atomic-Atomic Spin Densities.
               1          2          3          4          5          6
     1  C   -0.000000   0.000000   0.000000  -0.000000   0.000000   0.000000
     2  C    0.000000  -0.000000   0.000000   0.000000   0.000000   0.000000
     3  H    0.000000   0.000000   0.000000  -0.000000  -0.000000   0.000000
     4  H   -0.000000   0.000000  -0.000000   0.000000   0.000000  -0.000000
     5  H    0.000000   0.000000  -0.000000   0.000000   0.000000  -0.000000
     6  C    0.000000   0.000000   0.000000  -0.000000  -0.000000   0.000000
     7  C   -0.000000   0.000000  -0.000000   0.000000   0.000000  -0.000000
     8  H   -0.000000   0.000000   0.000000  -0.000000   0.000000   0.000000
     9  H   -0.000000   0.000000  -0.000000   0.000000  -0.000000   0.000000
    10  H   -0.000000   0.000000  -0.000000  -0.000000   0.000000  -0.000000
    11  H    0.000000   0.000000   0.000000  -0.000000  -0.000000   0.000000
    12  H   -0.000000   0.000000   0.000000  -0.000000   0.000000   0.000000
    13  H    0.000000  -0.000000   0.000000  -0.000000  -0.000000   0.000000
    14  O   -0.000000  -0.000000  -0.000000   0.000000   0.000000  -0.000000
    15  O    0.000000  -0.000000   0.000000  -0.000000  -0.000000   0.000000
    16  H    0.000000   0.000000  -0.000000  -0.000000   0.000000  -0.000000
               7          8          9         10         11         12
     1  C   -0.000000  -0.000000  -0.000000  -0.000000   0.000000  -0.000000
     2  C    0.000000   0.000000   0.000000   0.000000   0.000000   0.000000
     3  H   -0.000000   0.000000  -0.000000  -0.000000   0.000000   0.000000
     4  H    0.000000  -0.000000   0.000000  -0.000000  -0.000000  -0.000000
     5  H    0.000000   0.000000  -0.000000   0.000000  -0.000000   0.000000
     6  C   -0.000000   0.000000   0.000000  -0.000000   0.000000   0.000000
     7  C    0.000000  -0.000000   0.000000  -0.000000  -0.000000  -0.000000
     8  H   -0.000000  -0.000000   0.000000  -0.000000   0.000000  -0.000000
     9  H    0.000000   0.000000  -0.000000   0.000000  -0.000000  -0.000000
    10  H   -0.000000  -0.000000   0.000000  -0.000000  -0.000000   0.000000
    11  H   -0.000000   0.000000  -0.000000  -0.000000   0.000000   0.000000
    12  H   -0.000000  -0.000000  -0.000000   0.000000   0.000000   0.000000
    13  H   -0.000000   0.000000   0.000000  -0.000000   0.000000  -0.000000
    14  O   -0.000000  -0.000000  -0.000000   0.000000   0.000000   0.000000
    15  O    0.000000   0.000000  -0.000000  -0.000000  -0.000000   0.000000
    16  H   -0.000000   0.000000   0.000000  -0.000000   0.000000   0.000000
              13         14         15         16
     1  C    0.000000  -0.000000   0.000000   0.000000
     2  C   -0.000000  -0.000000  -0.000000   0.000000
     3  H    0.000000  -0.000000   0.000000  -0.000000
     4  H   -0.000000   0.000000  -0.000000  -0.000000
     5  H   -0.000000   0.000000  -0.000000   0.000000
     6  C    0.000000  -0.000000   0.000000  -0.000000
     7  C   -0.000000  -0.000000   0.000000  -0.000000
     8  H    0.000000  -0.000000   0.000000   0.000000
     9  H    0.000000  -0.000000  -0.000000   0.000000
    10  H   -0.000000   0.000000  -0.000000  -0.000000
    11  H    0.000000   0.000000  -0.000000   0.000000
    12  H   -0.000000   0.000000   0.000000   0.000000
    13  H    0.000000   0.000000   0.000000  -0.000000
    14  O    0.000000   0.000000   0.000000  -0.000000
    15  O    0.000000   0.000000  -0.000000   0.000000
    16  H   -0.000000  -0.000000   0.000000  -0.000000
 Mulliken charges and spin densities:
               1          2
     1  C   -0.469372  -0.000000
     2  C    0.261157  -0.000000
     3  H    0.168245   0.000000
     4  H    0.191857   0.000000
     5  H    0.147105   0.000000
     6  C   -0.480795   0.000000
     7  C   -0.488131   0.000000
     8  H    0.161404  -0.000000
     9  H    0.154918  -0.000000
    10  H    0.175235  -0.000000
    11  H    0.176939   0.000000
    12  H    0.178297   0.000000
    13  H    0.183962   0.000000
    14  O   -0.304321   0.000000
    15  O   -0.482697  -0.000000
    16  H    0.426198  -0.000000
 Sum of Mulliken charges =  -0.00000  -0.00000
 Mulliken charges and spin densities with hydrogens summed into heavy atoms:
               1          2
     1  C    0.037834   0.000000
     2  C    0.261157  -0.000000
     6  C    0.010762   0.000000
     7  C    0.051067   0.000000
    14  O   -0.304321   0.000000
    15  O   -0.056499  -0.000000
 Electronic spatial extent (au):  <R**2>=           1478.2569
 Charge=             -0.0000 electrons
 Dipole moment (field-independent basis, Debye):
    X=              0.9829    Y=             -1.4269    Z=              1.4091  Tot=              2.2333
 Quadrupole moment (field-independent basis, Debye-Ang):
   XX=            -41.7063   YY=            -37.4321   ZZ=            -35.3794
   XY=              1.9335   XZ=             -5.9775   YZ=              3.0505
 Traceless Quadrupole moment (field-independent basis, Debye-Ang):
   XX=             -3.5337   YY=              0.7405   ZZ=              2.7932
   XY=              1.9335   XZ=             -5.9775   YZ=              3.0505
 Octapole moment (field-independent basis, Debye-Ang**2):
  XXX=            253.8075  YYY=             48.0298  ZZZ=            -11.3119  XYY=             79.0077
  XXY=             13.6786  XXZ=             17.1960  XZZ=             84.8821  YZZ=              6.5139
  YYZ=             -1.6836  XYZ=             -3.6003
 Hexadecapole moment (field-independent basis, Debye-Ang**3):
 XXXX=          -1276.6044 YYYY=           -244.0756 ZZZZ=           -353.1624 XXXY=            -97.4874
 XXXZ=            -54.4564 YYYX=            -98.4047 YYYZ=             -7.8951 ZZZX=            -18.7836
 ZZZY=              9.9750 XXYY=           -242.9621 XXZZ=           -301.2279 YYZZ=            -99.9984
 XXYZ=              0.1157 YYXZ=             -3.6648 ZZXY=            -18.6946
 N-N= 2.602456244823D+02 E-N=-1.240996448016D+03  KE= 3.056683566996D+02
                          Isotropic Fermi Contact Couplings
        Atom                 a.u.       MegaHertz       Gauss      10(-4) cm-1
     1  C(13)             -0.00000      -0.00000      -0.00000      -0.00000
     2  C(13)             -0.00000      -0.00001      -0.00001      -0.00000
     3  H(1)               0.00000       0.00000       0.00000       0.00000
     4  H(1)               0.00000       0.00001       0.00000       0.00000
     5  H(1)               0.00000       0.00000       0.00000       0.00000
     6  C(13)              0.00000       0.00001       0.00000       0.00000
     7  C(13)              0.00000       0.00001       0.00000       0.00000
     8  H(1)              -0.00000      -0.00000      -0.00000      -0.00000
     9  H(1)              -0.00000      -0.00001      -0.00000      -0.00000
    10  H(1)              -0.00000      -0.00000      -0.00000      -0.00000
    11  H(1)               0.00000       0.00000       0.00000       0.00000
    12  H(1)              -0.00000      -0.00000      -0.00000      -0.00000
    13  H(1)               0.00000       0.00000       0.00000       0.00000
    14  O(17)             -0.00000       0.00008       0.00003       0.00003
    15  O(17)             -0.00000       0.00006       0.00002       0.00002
    16  H(1)               0.00000       0.00000       0.00000       0.00000
 --------------------------------------------------------
       Center         ----  Spin Dipole Couplings  ----
                      3XX-RR        3YY-RR        3ZZ-RR
 --------------------------------------------------------
     1   Atom        0.000000     -0.000000     -0.000000
     2   Atom        0.000000      0.000000     -0.000000
     3   Atom        0.000000     -0.000000     -0.000000
     4   Atom        0.000000      0.000000     -0.000000
     5   Atom        0.000000      0.000000     -0.000000
     6   Atom       -0.000000      0.000000     -0.000000
     7   Atom       -0.000000     -0.000000      0.000000
     8   Atom        0.000000      0.000000     -0.000000
     9   Atom       -0.000000      0.000000      0.000000
    10   Atom       -0.000000      0.000000     -0.000000
    11   Atom       -0.000000     -0.000000      0.000000
    12   Atom        0.000000     -0.000000      0.000000
    13   Atom       -0.000000     -0.000000      0.000000
    14   Atom       -0.000001      0.000002     -0.000001
    15   Atom        0.000000     -0.000000     -0.000000
    16   Atom       -0.000000      0.000000      0.000000
 --------------------------------------------------------
                        XY            XZ            YZ
 --------------------------------------------------------
     1   Atom        0.000000     -0.000000     -0.000000
     2   Atom        0.000000      0.000000      0.000000
     3   Atom        0.000000     -0.000000     -0.000000
     4   Atom        0.000000      0.000000      0.000000
     5   Atom        0.000000      0.000000      0.000000
     6   Atom       -0.000000     -0.000000     -0.000000
     7   Atom        0.000000      0.000000      0.000000
     8   Atom       -0.000000     -0.000000     -0.000000
     9   Atom        0.000000     -0.000000     -0.000000
    10   Atom        0.000000      0.000000      0.000000
    11   Atom        0.000000     -0.000000     -0.000000
    12   Atom       -0.000000      0.000000     -0.000000
    13   Atom       -0.000000     -0.000000      0.000000
    14   Atom        0.000001     -0.000000      0.000002
    15   Atom       -0.000001     -0.000000     -0.000001
    16   Atom        0.000000      0.000000     -0.000000
 --------------------------------------------------------


 ---------------------------------------------------------------------------------
              Anisotropic Spin Dipole Couplings in Principal Axis System
 ---------------------------------------------------------------------------------

       Atom             a.u.   MegaHertz   Gauss  10(-4) cm-1        Axes

              Baa    -0.0000    -0.000    -0.000    -0.000  0.0884  0.3001  0.9498
     1 C(13)  Bbb    -0.0000    -0.000    -0.000    -0.000 -0.1073  0.9509 -0.2904
              Bcc     0.0000     0.000     0.000     0.000  0.9903  0.0763 -0.1162
 
              Baa    -0.0000    -0.000    -0.000    -0.000 -0.0578 -0.2034  0.9774
     2 C(13)  Bbb     0.0000     0.000     0.000     0.000  0.9464 -0.3228 -0.0112
              Bcc     0.0000     0.000     0.000     0.000  0.3177  0.9244  0.2111
 
              Baa    -0.0000    -0.000    -0.000    -0.000  0.0956  0.3120  0.9453
     3 H(1)   Bbb    -0.0000    -0.000    -0.000    -0.000 -0.2281  0.9312 -0.2843
              Bcc     0.0000     0.000     0.000     0.000  0.9689  0.1885 -0.1602
 
              Baa    -0.0000    -0.000    -0.000    -0.000 -0.2434 -0.0378  0.9692
     4 H(1)   Bbb     0.0000     0.000     0.000     0.000 -0.3708  0.9270 -0.0569
              Bcc     0.0000     0.000     0.000     0.000  0.8963  0.3732  0.2397
 
              Baa    -0.0000    -0.000    -0.000    -0.000 -0.0130 -0.1132  0.9935
     5 H(1)   Bbb    -0.0000    -0.000    -0.000    -0.000 -0.2724  0.9564  0.1054
              Bcc     0.0000     0.000     0.000     0.000  0.9621  0.2692  0.0433
 
              Baa    -0.0000    -0.000    -0.000    -0.000  0.8238  0.2178  0.5234
     6 C(13)  Bbb    -0.0000    -0.000    -0.000    -0.000 -0.5583  0.1512  0.8158
              Bcc     0.0000     0.000     0.000     0.000 -0.0985  0.9642 -0.2462
 
              Baa    -0.0000    -0.000    -0.000    -0.000  0.7856  0.3069 -0.5373
     7 C(13)  Bbb    -0.0000    -0.000    -0.000    -0.000 -0.4415  0.8864 -0.1392
              Bcc     0.0000     0.000     0.000     0.000  0.4335  0.3465  0.8318
 
              Baa    -0.0000    -0.000    -0.000    -0.000  0.1773  0.2595  0.9493
     8 H(1)   Bbb     0.0000     0.000     0.000     0.000  0.5425  0.7791 -0.3143
              Bcc     0.0000     0.000     0.000     0.000  0.8212 -0.5707  0.0027
 
              Baa    -0.0000    -0.000    -0.000    -0.000  0.9330  0.0818  0.3505
     9 H(1)   Bbb    -0.0000    -0.000    -0.000    -0.000 -0.2586  0.8297  0.4947
              Bcc     0.0000     0.000     0.000     0.000 -0.2504 -0.5522  0.7952
 
              Baa    -0.0000    -0.000    -0.000    -0.000  0.1229 -0.5583  0.8205
    10 H(1)   Bbb    -0.0000    -0.000    -0.000    -0.000  0.9334 -0.2158 -0.2867
              Bcc     0.0000     0.000     0.000     0.000  0.3371  0.8011  0.4946
 
              Baa    -0.0000    -0.000    -0.000    -0.000 -0.3967  0.8995  0.1830
    11 H(1)   Bbb    -0.0000    -0.000    -0.000    -0.000  0.9161  0.3750  0.1421
              Bcc     0.0000     0.000     0.000     0.000 -0.0592 -0.2240  0.9728
 
              Baa    -0.0000    -0.000    -0.000    -0.000  0.0093  0.9904  0.1377
    12 H(1)   Bbb    -0.0000    -0.000    -0.000    -0.000  0.8194  0.0713 -0.5687
              Bcc     0.0000     0.000     0.000     0.000  0.5731 -0.1181  0.8109
 
              Baa    -0.0000    -0.000    -0.000    -0.000  0.9835 -0.0025  0.1811
    13 H(1)   Bbb    -0.0000    -0.000    -0.000    -0.000  0.0908  0.8721 -0.4808
              Bcc     0.0000     0.000     0.000     0.000 -0.1568  0.4893  0.8579
 
              Baa    -0.0000     0.000     0.000     0.000  0.4193 -0.4219  0.8039
    14 O(17)  Bbb    -0.0000     0.000     0.000     0.000  0.8813 -0.0233 -0.4719
              Bcc     0.0000    -0.000    -0.000    -0.000  0.2178  0.9064  0.3621
 
              Baa    -0.0000     0.000     0.000     0.000  0.3058  0.6697  0.6767
    15 O(17)  Bbb     0.0000    -0.000    -0.000    -0.000  0.8566  0.1167 -0.5026
              Bcc     0.0000    -0.000    -0.000    -0.000 -0.4156  0.7334 -0.5380
 
              Baa    -0.0000    -0.000    -0.000    -0.000  0.9261 -0.2932 -0.2373
    16 H(1)   Bbb     0.0000     0.000     0.000     0.000  0.3771  0.7370  0.5609
              Bcc     0.0000     0.000     0.000     0.000  0.0104 -0.6090  0.7931
 

 ---------------------------------------------------------------------------------

 No NMR shielding tensors so no spin-rotation constants.
 Leave Link  601 at Sun Apr  3 09:59:55 2022, MaxMem=   104857600 cpu:               0.1 elap:               0.1
 (Enter /apps/software/g16/l9999.exe)
 1\1\GINC-CNODE14\SP\UM062X\6-31G(d)\C4H10O2\LCZ\03-Apr-2022\0\\#p UM06
 2X/6-31G(d) nosymm guess=mix\\tBuOOH guess=mix\\0,1\C,0,-3.59509438,-0
 .40108447,0.45021209\C,0,-2.07308138,-0.37481447,0.35838909\H,0,-3.984
 63038,0.62010353,0.49161709\H,0,-4.02037538,-0.90135147,-0.42275491\H,
 0,-3.91242738,-0.93572847,1.35096809\C,0,-1.49025538,-1.78252647,0.270
 88009\C,0,-1.46081538,0.40500353,1.51712809\H,0,-0.40235038,-1.7351214
 7,0.15501909\H,0,-1.71505438,-2.34531947,1.18173609\H,0,-1.91675238,-2
 .32379847,-0.57771891\H,0,-1.71481438,-0.07708447,2.46539209\H,0,-0.37
 176638,0.44174953,1.42258609\H,0,-1.84548138,1.42840853,1.52944109\O,0
 ,-1.66577638,0.40114453,-0.78069891\O,0,-2.36682562,-0.40606353,-2.351
 35009\H,0,-1.55593562,-0.76398453,-2.74739209\\Version=ES64L-G16RevA.0
 3\HF=-308.5909581\S2=0.\S2-1=0.\S2A=0.\RMSD=8.059e-09\Dipole=0.3867204
 ,-0.5613687,0.5543722\Quadrupole=-2.6272443,0.5505456,2.0766987,1.4375
 013,-4.4441288,2.2679588\PG=C01 [X(C4H10O2)]\\@


 KNOWLEDGE IS EXPERIMENT'S DAUGHTER.
 -- LEONARDO DA VINCI, IN "PENSIERI" CA. 1492
 Job cpu time:       0 days  0 hours  2 minutes 12.4 seconds.
 Elapsed time:       0 days  0 hours  2 minutes 12.6 seconds.
 File lengths (MBytes):  RWF=     14 Int=      0 D2E=      0 Chk=      2 Scr=      1
 Normal termination of Gaussian 16 at Sun Apr  3 09:59:55 2022.

Sender: Unischeduler System <lcz@mgt01>
Subject: Job 113754: <#!/bin/bash
#BSUB -J intel
#BSUB -o tBu-unopt.out
#BSUB -n 8
#BSUB -q cqueue
#BSUB -R span[hosts=1]
export g16root=/apps/software
source /apps/software/g16/bsd/g16.profile
export GAUSS_SCRDIR=/scratch
/apps/software/g16/g16 < tBu-unopt.gjf > tBu-unopt.out> Done

Job <#!/bin/bash
#BSUB -J intel
#BSUB -o tBu-unopt.out
#BSUB -n 8
#BSUB -q cqueue
#BSUB -R span[hosts=1]
export g16root=/apps/software
source /apps/software/g16/bsd/g16.profile
export GAUSS_SCRDIR=/scratch
/apps/software/g16/g16 < tBu-unopt.gjf > tBu-unopt.out> was submitted from host <mgt01> by user <lcz>.
Job was executed on host(s) <8*cnode14>, in queue <cqueue>, as user <lcz>.
</apps/users/lcz> was used as the home directory.
</apps/users/lcz/exe4/task4/tBuOOH/opt/geomopt/onlyguess> was used as the working directory.
Started at 2022-04-03 09:57:42
Results reported at 2022-04-03 09:59:55

Your job looked like:

------------------------------------------------------------
# User input
#!/bin/bash
#BSUB -J intel
#BSUB -o tBu-unopt.out
#BSUB -n 8
#BSUB -q cqueue
#BSUB -R span[hosts=1]
export g16root=/apps/software
source /apps/software/g16/bsd/g16.profile
export GAUSS_SCRDIR=/scratch
/apps/software/g16/g16 < tBu-unopt.gjf > tBu-unopt.out
------------------------------------------------------------

Successfully completed.

Resource usage summary:

    CPU time   :          127.83 sec.
    Max Memory :               464 MB
    Max Processes  :               5


The output (if any) follows:

