
                                        *****************
                                        * O   R   C   A *
                                        *****************

                                            #,                                       
                                            ###                                      
                                            ####                                     
                                            #####                                    
                                            ######                                   
                                           ########,                                 
                                     ,,################,,,,,                         
                               ,,#################################,,                 
                          ,,##########################################,,             
                       ,#########################################, ''#####,          
                    ,#############################################,,   '####,        
                  ,##################################################,,,,####,       
                ,###########''''           ''''###############################       
              ,#####''   ,,,,##########,,,,          '''####'''          '####       
            ,##' ,,,,###########################,,,                        '##       
           ' ,,###''''                  '''############,,,                           
         ,,##''                                '''############,,,,        ,,,,,,###''
      ,#''                                            '''#######################'''  
     '                                                          ''''####''''         
             ,#######,   #######,   ,#######,      ##                                
            ,#'     '#,  ##    ##  ,#'     '#,    #''#        ######   ,####,        
            ##       ##  ##   ,#'  ##            #'  '#       #        #'  '#        
            ##       ##  #######   ##           ,######,      #####,   #    #        
            '#,     ,#'  ##    ##  '#,     ,#' ,#      #,         ##   #,  ,#        
             '#######'   ##     ##  '#######'  #'      '#     #####' # '####'        



                  #######################################################
                  #                        -***-                        #
                  #          Department of theory and spectroscopy      #
                  #    Directorship and core code : Frank Neese         #
                  #        Max Planck Institute fuer Kohlenforschung    #
                  #                Kaiser Wilhelm Platz 1               #
                  #                 D-45470 Muelheim/Ruhr               #
                  #                      Germany                        #
                  #                                                     #
                  #                  All rights reserved                #
                  #                        -***-                        #
                  #######################################################


                         Program Version 5.0.0 -  RELEASE  -
                                (SVN: $Rev: 19529$)
                ($Date: 2021-06-28 11:36:33 +0200 (Mo, 28 Jun 2021) $)


 With contributions from (in alphabetic order):
   Daniel Aravena         : Magnetic Suceptibility
   Michael Atanasov       : Ab Initio Ligand Field Theory (pilot matlab implementation)
   Alexander A. Auer      : GIAO ZORA, VPT2 properties, NMR spectrum
   Ute Becker             : Parallelization
   Giovanni Bistoni       : ED, misc. LED, open-shell LED, HFLD
   Martin Brehm           : Molecular dynamics
   Dmytro Bykov           : SCF Hessian
   Vijay G. Chilkuri      : MRCI spin determinant printing, contributions to CSF-ICE
   Dipayan Datta          : RHF DLPNO-CCSD density
   Achintya Kumar Dutta   : EOM-CC, STEOM-CC
   Dmitry Ganyushin       : Spin-Orbit,Spin-Spin,Magnetic field MRCI
   Miquel Garcia          : C-PCM Hessian, Gaussian charge scheme
   Yang Guo               : DLPNO-NEVPT2, F12-NEVPT2, CIM, IAO-localization
   Andreas Hansen         : Spin unrestricted coupled pair/coupled cluster methods
   Benjamin Helmich-Paris : MC-RPA, TRAH-SCF, COSX integrals
   Lee Huntington         : MR-EOM, pCC
   Robert Izsak           : Overlap fitted RIJCOSX, COSX-SCS-MP3, EOM
   Marcus Kettner         : VPT2
   Christian Kollmar      : KDIIS, OOCD, Brueckner-CCSD(T), CCSD density, CASPT2, CASPT2-K
   Simone Kossmann        : Meta GGA functionals, TD-DFT gradient, OOMP2, MP2 Hessian
   Martin Krupicka        : Initial AUTO-CI
   Lucas Lang             : DCDCAS
   Marvin Lechner         : AUTO-CI (C++ implementation), FIC-MRCC
   Dagmar Lenk            : GEPOL surface, SMD
   Dimitrios Liakos       : Extrapolation schemes; Compound Job, initial MDCI parallelization
   Dimitrios Manganas     : Further ROCIS development; embedding schemes
   Dimitrios Pantazis     : SARC Basis sets
   Anastasios Papadopoulos: AUTO-CI, single reference methods and gradients
   Taras Petrenko         : DFT Hessian,TD-DFT gradient, ASA, ECA, R-Raman, ABS, FL, XAS/XES, NRVS
   Peter Pinski           : DLPNO-MP2, DLPNO-MP2 Gradient
   Christoph Reimann      : Effective Core Potentials
   Marius Retegan         : Local ZFS, SOC
   Christoph Riplinger    : Optimizer, TS searches, QM/MM, DLPNO-CCSD(T), (RO)-DLPNO pert. Triples
   Tobias Risthaus        : Range-separated hybrids, TD-DFT gradient, RPA, STAB
   Michael Roemelt        : Original ROCIS implementation
   Masaaki Saitow         : Open-shell DLPNO-CCSD energy and density
   Barbara Sandhoefer     : DKH picture change effects
   Avijit Sen             : IP-ROCIS
   Kantharuban Sivalingam : CASSCF convergence, NEVPT2, FIC-MRCI
   Bernardo de Souza      : ESD, SOC TD-DFT
   Georgi Stoychev        : AutoAux, RI-MP2 NMR
   Willem Van den Heuvel  : Paramagnetic NMR
   Boris Wezisla          : Elementary symmetry handling
   Frank Wennmohs         : Technical directorship


 We gratefully acknowledge several colleagues who have allowed us to
 interface, adapt or use parts of their codes:
   Stefan Grimme, W. Hujo, H. Kruse, P. Pracht,  : VdW corrections, initial TS optimization,
                  C. Bannwarth, S. Ehlert          DFT functionals, gCP, sTDA/sTD-DF
   Ed Valeev, F. Pavosevic, A. Kumar             : LibInt (2-el integral package), F12 methods
   Garnet Chan, S. Sharma, J. Yang, R. Olivares  : DMRG
   Ulf Ekstrom                                   : XCFun DFT Library
   Mihaly Kallay                                 : mrcc  (arbitrary order and MRCC methods)
   Jiri Pittner, Ondrej Demel                    : Mk-CCSD
   Frank Weinhold                                : gennbo (NPA and NBO analysis)
   Christopher J. Cramer and Donald G. Truhlar   : smd solvation model
   Lars Goerigk                                  : TD-DFT with DH, B97 family of functionals
   V. Asgeirsson, H. Jonsson                     : NEB implementation
   FAccTs GmbH                                   : IRC, NEB, NEB-TS, DLPNO-Multilevel, CI-OPT
                                                   MM, QMMM, 2- and 3-layer-ONIOM, Crystal-QMMM,
                                                   LR-CPCM, SF, NACMEs, symmetry and pop. for TD-DFT,
                                                   nearIR, NL-DFT gradient (VV10), updates on ESD,
                                                   ML-optimized integration grids
   S Lehtola, MJT Oliveira, MAL Marques          : LibXC Library
   Liviu Ungur et al                             : ANISO software


 Your calculation uses the libint2 library for the computation of 2-el integrals
 For citations please refer to: http://libint.valeyev.net

 Your ORCA version has been built with support for libXC version: 5.1.0
 For citations please refer to: https://tddft.org/programs/libxc/

 This ORCA versions uses:
   CBLAS   interface :  Fast vector & matrix operations
   LAPACKE interface :  Fast linear algebra routines
   SCALAPACK package :  Parallel linear algebra routines
   Shared memory     :  Shared parallel matrices
   BLAS/LAPACK       :  OpenBLAS 0.3.15  USE64BITINT DYNAMIC_ARCH NO_AFFINITY SkylakeX SINGLE_THREADED
        Core in use  :  SkylakeX
   Copyright (c) 2011-2014, The OpenBLAS Project


================================================================================

----- Orbital basis set information -----
Your calculation utilizes the basis: def2-TZVP
   F. Weigend and R. Ahlrichs, Phys. Chem. Chem. Phys. 7, 3297 (2005).

================================================================================
                                        WARNINGS
                       Please study these warnings very carefully!
================================================================================


WARNING: Broken symmetry calculations need fully converged wavefunctions
  ===> : Setting SCFConvForced true
         You can overwrite this default with %scf ConvForced false 


INFO   : the flag for use of the SHARK integral package has been found!

================================================================================
                                       INPUT FILE
================================================================================
NAME = /scratch/RC2-flipspin_670/RC2-flipspin.inp
|  1> ! UKS B3LYP def2-TZVP Slowconv NoTrah NoRI VeryTightSCF
|  2> ! MORead
|  3> 
|  4> %pal
|  5>     nprocs  16
|  6> end
|  7> 
|  8> %moinp  "RC2-highspin.gbw"
|  9> 
| 10> %scf
| 11>     MaxIter         500
| 12>     FlipSpin        44
| 13>     FinalMs         0.5
| 14> end
| 15> 
| 16> *xyz +1 12
| 17> C		41.75734		53.28449		36.46919
| 18>  N		42.79051		53.11573		35.57330
| 19>  H		43.17228		53.83016		34.93276
| 20>  C		43.13470		51.81354		35.56329
| 21>  H		43.91258		51.37948		34.93820
| 22>  N		42.38034		51.13480		36.42217
| 23>  C		41.51102		52.03696		36.99860
| 24>  H		40.83095		51.72793		37.79245
| 25>  C		40.09781		47.27650		33.80529
| 26>  N		40.02170		48.59447		33.39932
| 27>  H		39.44553		49.01241		32.66056
| 28>  C		40.82359		49.32561		34.20213
| 29>  H		40.95446		50.40104		34.10028
| 30>  N		41.40873		48.54956		35.10172
| 31>  C		40.96816		47.26932		34.87055
| 32>  H		41.28796		46.44831		35.50461
| 33>  C		38.24452		48.45120		37.81512
| 34>  H		38.05954		49.38046		37.26339
| 35>  H		37.98665		48.64263		38.86852
| 36>  C		39.72949		48.13040		37.79333
| 37>  O		40.09429		46.93627		38.07351
| 38>  O		40.51997		49.08118		37.60316
| 39>  C		38.64927		43.85206		40.73245
| 40>  N		39.75373		43.46182		41.46772
| 41>  H		39.79496		42.88382		42.31310
| 42>  C		40.85618		43.95072		40.86918
| 43>  H		41.86248		43.73518		41.21408
| 44>  N		40.53224		44.65285		39.79009
| 45>  C		39.15837		44.58557		39.68680
| 46>  H		38.64146		45.07274		38.87046
| 47>  C		42.78261		43.20374		35.50847
| 48>  N		41.70457		42.56369		36.07793
| 49>  H		41.38806		41.60804		35.87571
| 50>  C		41.22829		43.34611		37.06176
| 51>  H		40.41508		43.05921		37.72131
| 52>  N		41.93561		44.46974		37.14515
| 53>  C		42.91935		44.39163		36.18162
| 54>  H		43.65310		45.17946		36.03202
| 55>  C		45.76058		48.09668		34.01433
| 56>  H		45.12510		47.65198		33.22625
| 57>  H		46.65442		47.46412		34.10910
| 58>  C		44.94912		48.01873		35.29961
| 59>  O		44.13484		48.94943		35.55949
| 60>  O		45.08257		46.97820		36.01440
| 61>  Fe		42.54704		49.05340		36.88791
| 62>  Fe		41.81454		46.03362		38.62691
| 63>  O		42.83673		47.18336		37.38865
| 64>  H		43.73372		46.94370		37.02075
| 65>  C		43.49278		47.06016		40.65639
| 66>  C		43.63065		47.67500		42.05411
| 67>  C		45.10402		47.59104		42.50255
| 68>  C		45.62433		46.15327		42.46003
| 69>  C		45.40442		45.48020		41.08199
| 70>  C		43.93248		45.59938		40.69958
| 71>  O		42.19054		47.11944		40.15943
| 72>  O		42.78039		47.01168		42.97373
| 73>  O		45.28803		48.11581		43.80122
| 74>  O		46.99863		46.17840		42.81016
| 75>  O		45.74779		44.11749		41.08768
| 76>  O		43.60537		45.05344		39.42059
| 77>  H		44.16891		47.60985		39.96716
| 78>  H		43.37366		48.74650		41.98883
| 79>  H		45.70535		48.16646		41.76817
| 80>  H		45.03997		45.57270		43.19200
| 81>  H		46.02107		46.03839		40.34306
| 82>  H		43.34294		45.09136		41.47918
| 83>  H		42.11013		47.68750		43.28882
| 84>  H		45.23162		49.11556		43.72066
| 85>  H		47.38293		45.25457		42.73301
| 86>  H		46.61533		43.98339		41.55425
| 87>  H		43.52006		44.03995		39.45021
| 88>  O		42.85959		49.69549		38.87779
| 89>  O		44.06259		49.60890		38.41687
| 90>  H		41.30606		54.24869		36.70311
| 91>  H		39.55759		46.43186		33.37773
| 92>  H		37.59815		47.66320		37.42867
| 93>  H		37.60541		43.64578		40.96882
| 94>  H		43.42741		42.77068		34.74377
| 95>  H		46.04094		49.08905		33.66124
| 96> *
| 97> 
| 98> 
| 99>                          ****END OF INPUT****
================================================================================

                       ****************************
                       * Single Point Calculation *
                       ****************************

---------------------------------
CARTESIAN COORDINATES (ANGSTROEM)
---------------------------------
  C     41.757340   53.284490   36.469190
  N     42.790510   53.115730   35.573300
  H     43.172280   53.830160   34.932760
  C     43.134700   51.813540   35.563290
  H     43.912580   51.379480   34.938200
  N     42.380340   51.134800   36.422170
  C     41.511020   52.036960   36.998600
  H     40.830950   51.727930   37.792450
  C     40.097810   47.276500   33.805290
  N     40.021700   48.594470   33.399320
  H     39.445530   49.012410   32.660560
  C     40.823590   49.325610   34.202130
  H     40.954460   50.401040   34.100280
  N     41.408730   48.549560   35.101720
  C     40.968160   47.269320   34.870550
  H     41.287960   46.448310   35.504610
  C     38.244520   48.451200   37.815120
  H     38.059540   49.380460   37.263390
  H     37.986650   48.642630   38.868520
  C     39.729490   48.130400   37.793330
  O     40.094290   46.936270   38.073510
  O     40.519970   49.081180   37.603160
  C     38.649270   43.852060   40.732450
  N     39.753730   43.461820   41.467720
  H     39.794960   42.883820   42.313100
  C     40.856180   43.950720   40.869180
  H     41.862480   43.735180   41.214080
  N     40.532240   44.652850   39.790090
  C     39.158370   44.585570   39.686800
  H     38.641460   45.072740   38.870460
  C     42.782610   43.203740   35.508470
  N     41.704570   42.563690   36.077930
  H     41.388060   41.608040   35.875710
  C     41.228290   43.346110   37.061760
  H     40.415080   43.059210   37.721310
  N     41.935610   44.469740   37.145150
  C     42.919350   44.391630   36.181620
  H     43.653100   45.179460   36.032020
  C     45.760580   48.096680   34.014330
  H     45.125100   47.651980   33.226250
  H     46.654420   47.464120   34.109100
  C     44.949120   48.018730   35.299610
  O     44.134840   48.949430   35.559490
  O     45.082570   46.978200   36.014400
  Fe    42.547040   49.053400   36.887910
  Fe    41.814540   46.033620   38.626910
  O     42.836730   47.183360   37.388650
  H     43.733720   46.943700   37.020750
  C     43.492780   47.060160   40.656390
  C     43.630650   47.675000   42.054110
  C     45.104020   47.591040   42.502550
  C     45.624330   46.153270   42.460030
  C     45.404420   45.480200   41.081990
  C     43.932480   45.599380   40.699580
  O     42.190540   47.119440   40.159430
  O     42.780390   47.011680   42.973730
  O     45.288030   48.115810   43.801220
  O     46.998630   46.178400   42.810160
  O     45.747790   44.117490   41.087680
  O     43.605370   45.053440   39.420590
  H     44.168910   47.609850   39.967160
  H     43.373660   48.746500   41.988830
  H     45.705350   48.166460   41.768170
  H     45.039970   45.572700   43.192000
  H     46.021070   46.038390   40.343060
  H     43.342940   45.091360   41.479180
  H     42.110130   47.687500   43.288820
  H     45.231620   49.115560   43.720660
  H     47.382930   45.254570   42.733010
  H     46.615330   43.983390   41.554250
  H     43.520060   44.039950   39.450210
  O     42.859590   49.695490   38.877790
  O     44.062590   49.608900   38.416870
  H     41.306060   54.248690   36.703110
  H     39.557590   46.431860   33.377730
  H     37.598150   47.663200   37.428670
  H     37.605410   43.645780   40.968820
  H     43.427410   42.770680   34.743770
  H     46.040940   49.089050   33.661240

----------------------------
CARTESIAN COORDINATES (A.U.)
----------------------------
  NO LB      ZA    FRAG     MASS         X           Y           Z
   0 C     6.0000    0    12.011   78.909937  100.693093   68.916781
   1 N     7.0000    0    14.007   80.862345  100.374183   67.223795
   2 H     1.0000    0     1.008   81.583786  101.724260   66.013350
   3 C     6.0000    0    12.011   81.512770   97.913401   67.204879
   4 H     1.0000    0     1.008   82.982750   97.093146   66.023630
   5 N     7.0000    0    14.007   80.087236   96.630768   68.827927
   6 C     6.0000    0    12.011   78.444459   98.335603   69.917221
   7 H     1.0000    0     1.008   77.159313   97.751621   71.417380
   8 C     6.0000    0    12.011   75.773879   89.339638   63.882740
   9 N     7.0000    0    14.007   75.630052   91.830240   63.115568
  10 H     1.0000    0     1.008   74.541249   92.620032   61.719514
  11 C     6.0000    0    12.011   77.145405   93.211894   64.632659
  12 H     1.0000    0     1.008   77.392713   95.244162   64.440190
  13 N     7.0000    0    14.007   78.251159   91.745372   66.332638
  14 C     6.0000    0    12.011   77.418603   89.326069   65.895790
  15 H     1.0000    0     1.008   78.022937   87.774585   67.093989
  16 C     6.0000    0    12.011   72.271669   91.559499   71.460221
  17 H     1.0000    0     1.008   71.922107   93.315546   70.417602
  18 H     1.0000    0     1.008   71.784365   91.921249   73.450858
  19 C     6.0000    0    12.011   75.077856   90.953275   71.419043
  20 O     8.0000    0    15.999   75.767228   88.696696   71.948507
  21 O     8.0000    0    15.999   76.571646   92.749989   71.059674
  22 C     6.0000    0    12.011   73.036536   82.868384   76.973175
  23 N     7.0000    0    14.007   75.123663   82.130937   78.362634
  24 H     1.0000    0     1.008   75.201576   81.038675   79.960171
  25 C     6.0000    0    12.011   77.206991   83.054824   77.231558
  26 H     1.0000    0     1.008   79.108622   82.647513   77.883324
  27 N     7.0000    0    14.007   76.594833   84.381658   75.192373
  28 C     6.0000    0    12.011   73.998595   84.254517   74.997183
  29 H     1.0000    0     1.008   73.021777   85.175135   73.454524
  30 C     6.0000    0    12.011   80.847416   81.643237   67.101284
  31 N     7.0000    0    14.007   78.810216   80.433717   68.177407
  32 H     1.0000    0     1.008   78.212099   78.627801   67.795267
  33 C     6.0000    0    12.011   77.910177   81.912277   70.036576
  34 H     1.0000    0     1.008   76.373433   81.370114   71.282945
  35 N     7.0000    0    14.007   79.246818   84.035630   70.194161
  36 C     6.0000    0    12.011   81.105817   83.888023   68.373353
  37 H     1.0000    0     1.008   82.492404   85.376806   68.090650
  38 C     6.0000    0    12.011   86.474964   90.889553   64.277768
  39 H     1.0000    0     1.008   85.274081   90.049192   62.788513
  40 H     1.0000    0     1.008   88.164077   89.694188   64.456858
  41 C     6.0000    0    12.011   84.941527   90.742249   66.706596
  42 O     8.0000    0    15.999   83.402761   92.501017   67.197698
  43 O     8.0000    0    15.999   85.193711   88.775932   68.057353
  44 Fe   26.0000    0    55.850   80.402253   92.697492   69.708048
  45 Fe   26.0000    0    55.850   79.018029   86.990935   72.994281
  46 O     8.0000    0    15.999   80.949688   89.163628   70.654309
  47 H     1.0000    0     1.008   82.644754   88.710737   69.959079
  48 C     6.0000    0    12.011   82.189443   88.930814   76.829443
  49 C     6.0000    0    12.011   82.449980   90.092693   79.470751
  50 C     6.0000    0    12.011   85.234245   89.934032   80.318179
  51 C     6.0000    0    12.011   86.217489   87.217040   80.237828
  52 C     6.0000    0    12.011   85.801919   85.945123   77.633710
  53 C     6.0000    0    12.011   83.020356   86.170340   76.911060
  54 O     8.0000    0    15.999   79.728566   89.042837   75.890324
  55 O     8.0000    0    15.999   80.843221   88.839200   81.208581
  56 O     8.0000    0    15.999   85.581974   90.925704   82.772310
  57 O     8.0000    0    15.999   88.814539   87.264529   80.899478
  58 O     8.0000    0    15.999   86.450794   83.369974   77.644463
  59 O     8.0000    0    15.999   82.402207   85.138663   74.494119
  60 H     1.0000    0     1.008   83.467144   89.969578   75.526987
  61 H     1.0000    0     1.008   81.964339   92.117535   79.347389
  62 H     1.0000    0     1.008   86.370594   91.021418   78.930402
  63 H     1.0000    0     1.008   85.113208   86.119922   81.621051
  64 H     1.0000    0     1.008   86.967219   86.999949   76.237335
  65 H     1.0000    0     1.008   81.906286   85.210321   78.384290
  66 H     1.0000    0     1.008   79.576613   90.116315   81.804014
  67 H     1.0000    0     1.008   85.475374   92.814957   82.620074
  68 H     1.0000    0     1.008   89.540761   85.518744   80.753686
  69 H     1.0000    0     1.008   88.090207   83.116562   78.526152
  70 H     1.0000    0     1.008   82.240995   83.223444   74.550093
  71 O     8.0000    0    15.999   80.992887   93.910866   73.468376
  72 O     8.0000    0    15.999   83.266228   93.747235   72.597363
  73 H     1.0000    0     1.008   78.057141  102.515167   69.358826
  74 H     1.0000    0     1.008   74.753012   87.743499   63.074769
  75 H     1.0000    0     1.008   71.050207   90.070395   70.729936
  76 H     1.0000    0     1.008   71.063926   82.478571   77.419850
  77 H     1.0000    0     1.008   82.065912   80.824872   65.656210
  78 H     1.0000    0     1.008   87.004768   92.764861   63.610525

--------------------------------
INTERNAL COORDINATES (ANGSTROEM)
--------------------------------
 C      0   0   0     0.000000000000     0.00000000     0.00000000
 N      1   0   0     1.377874841413     0.00000000     0.00000000
 H      2   1   0     1.032690684281   126.56690754     0.00000000
 C      2   1   3     1.346946826085   108.35158006   186.56018908
 H      4   2   1     1.088229243358   124.92766287   178.98437847
 N      4   2   1     1.329444188975   110.10748531   359.35947821
 C      1   2   3     1.377417725819   105.84666528   173.99902137
 H      7   1   2     1.090042461696   130.40979987   174.90689854
 C      6   4   2     5.190807550401   107.65597249   124.41301292
 N      9   6   4     1.381176778657    57.52939409   306.92484037
 H     10   9   6     1.025871361380   129.15152137   189.01941182
 C     10   9   6     1.349850794644   108.01764599     6.20346507
 H     12  10   9     1.088140645459   123.44233235   179.77801141
 N     12  10   9     1.324350629629   110.43018933   359.92760131
 C     14  12  10     1.373519548969   106.86653561     0.00000000
 H     15  14  12     1.085523626505   120.80761376   181.82736043
 C     14  12  10     4.169465094434    96.92506748   277.32786463
 H     17  14  12     1.096424981884    77.32412073   336.25796610
 H     17  14  12     1.101269241285   142.75857726   234.54965608
 C     17  14  12     1.519382553869    41.74938597   195.88908203
 O     20  17  14     1.279658676874   118.19707780   239.17921252
 O     20  17  14     1.251001945522   117.34051995    64.59710379
 C     21  20  17     4.320925369420   134.86787992   326.07680708
 N     23  21  20     1.383018843726   105.15859614   231.81570289
 H     24  23  21     1.024915243959   129.03282297   167.49683015
 C     24  23  21     1.346354093134   108.36712514   346.04559810
 H     26  24  23     1.085381588014   123.07933143   183.89869231
 N     26  24  23     1.327538658044   110.70834564     0.70912672
 C     23  21  20     1.374992237287    13.45045254   140.58425548
 H     29  23  24     1.082100527955   129.56906142   179.60030123
 C     16  15  14     3.572286103744   144.17769988   233.79635781
 N     31  16  15     1.376996345565    95.45465794   240.67009495
 H     32  31  16     1.026809831955   126.33332646   145.36367549
 C     32  31  16     1.344226604297   108.03007121   318.18916445
 H     34  32  31     1.085646497070   123.79488349   183.95187621
 N     34  32  31     1.330338246988   110.43305053     0.80083441
 C     31  16  15     1.372192188507    41.92271004   132.55488454
 H     37  31  16     1.086943113231   128.84480837   259.96734611
 C      5   4   2     3.878842045882   144.58232096   179.62505438
 H     39   5   4     1.105740931141   103.66947843    86.57997890
 H     39   5   4     1.099119398473   148.64845069   257.47756316
 C     39   5   4     1.522001383869    65.68191657   345.01328108
 O     42  39   5     1.263642363487   118.65344313    12.11235222
 O     42  39   5     1.269423620191   117.47984728   188.43130010
 Fe    43  42  39     2.072828574026   131.47951446   163.21136705
 Fe    21  20  17     2.019972436693   136.03436399   197.76568162
 O     45  43  42     1.957475528659    90.15243816   356.96668550
 H     47  45  43     0.998688332614   105.54179856    13.49314191
 C     46  21  20     2.826493046091   122.68845254    46.63948465
 C     49  46  21     1.533185429392   148.60727908    44.27832165
 C     50  49  46     1.542389987033   109.21568117   165.04840333
 C     51  50  49     1.529612048658   111.59362003   304.14512468
 C     52  51  50     1.549315292186   112.63064217    53.36196156
 C     53  52  51     1.525466697146   109.02556304   306.58945733
 O     49  46  21     1.395102998922    37.38531499    19.26663124
 O     50  49  46     1.417263713781   110.48127529    42.63886663
 O     51  50  49     1.412723257365   111.80654919   181.38722744
 O     52  51  50     1.418422723944   107.82206950   176.67090476
 O     53  52  51     1.405316290769   112.51821496   186.53375912
 O     54  53  52     1.428589113706   114.55182161   178.00140537
 H     49  46  21     1.111012540838    95.48583514   264.82311977
 H     50  49  46     1.103819545261   108.32633262   281.25979141
 H     51  50  49     1.109963931711   107.27332604    60.48064646
 H     52  51  50     1.101961077080   107.23974806   296.32603153
 H     53  52  51     1.112587454315   107.10399959    64.64625203
 H     54  53  52     1.101552491713   107.63570455   300.10753198
 H     56  50  49     1.002627970934   106.82791102   243.83497053
 H     57  51  50     1.004575564206   106.77670987   285.55335149
 H     58  52  51     1.003543960871   109.61780637   183.64752810
 H     59  53  52     0.994130789434   110.23829718   315.21720152
 H     60  54  53     1.017505341804   111.94898443    79.10026779
 O     45  43  42     2.114140365491   120.34424512    88.88161015
 O     72  45  43     1.291183207179    77.37200598   352.74349713
 H      1   2   3     1.089978827684   123.94054873   351.18175040
 H      9   6   4     1.089982537291   172.60394341   180.52973945
 H     17  14  12     1.089991641895   103.67159097    83.58905266
 H     23  21  20     1.089984364521   126.07201173    35.85243795
 H     31  16  15     1.089988116266   127.41709390    23.06269607
 H     39   5   4     1.089987382771    55.19134929   187.28548628

---------------------------
INTERNAL COORDINATES (A.U.)
---------------------------
 C      0   0   0     0.000000000000     0.00000000     0.00000000
 N      1   0   0     2.603806097091     0.00000000     0.00000000
 H      2   1   0     1.951502574342   126.56690754     0.00000000
 C      2   1   3     2.545360618255   108.35158006   186.56018908
 H      4   2   1     2.056455240871   124.92766287   178.98437847
 N      4   2   1     2.512285427496   110.10748531   359.35947821
 C      1   2   3     2.602942273806   105.84666528   173.99902137
 H      7   1   2     2.059881726951   130.40979987   174.90689854
 C      6   4   2     9.809204684149   107.65597249   124.41301292
 N      9   6   4     2.610045854192    57.52939409   306.92484037
 H     10   9   6     1.938615921641   129.15152137   189.01941182
 C     10   9   6     2.550848323532   108.01764599     6.20346507
 H     12  10   9     2.056287815106   123.44233235   179.77801141
 N     12  10   9     2.502659995286   110.43018933   359.92760131
 C     14  12  10     2.595575787138   106.86653561     0.00000000
 H     15  14  12     2.051342365995   120.80761376   181.82736043
 C     14  12  10     7.879147153424    96.92506748   277.32786463
 H     17  14  12     2.071942942151    77.32412073   336.25796610
 H     17  14  12     2.081097265740   142.75857726   234.54965608
 C     17  14  12     2.871216919469    41.74938597   195.88908203
 O     20  17  14     2.418204444189   118.19707780   239.17921252
 O     20  17  14     2.364051070039   117.34051995    64.59710379
 C     21  20  17     8.165365593317   134.86787992   326.07680708
 N     23  21  20     2.613526852694   105.15859614   231.81570289
 H     24  23  21     1.936809121564   129.03282297   167.49683015
 C     24  23  21     2.544240515308   108.36712514   346.04559810
 H     26  24  23     2.051073952147   123.07933143   183.89869231
 N     26  24  23     2.508684495896   110.70834564     0.70912672
 C     23  21  20     2.598358764740    13.45045254   140.58425548
 H     29  23  24     2.044873647206   129.56906142   179.60030123
 C     16  15  14     6.750642408088   144.17769988   233.79635781
 N     31  16  15     2.602145980529    95.45465794   240.67009495
 H     32  31  16     1.940389374013   126.33332646   145.36367549
 C     32  31  16     2.540220144052   108.03007121   318.18916445
 H     34  32  31     2.051574557713   123.79488349   183.95187621
 N     34  32  31     2.513974952289   110.43305053     0.80083441
 C     31  16  15     2.593067439385    41.92271004   132.55488454
 H     37  31  16     2.054024807158   128.84480837   259.96734611
 C      5   4   2     7.329949183455   144.58232096   179.62505438
 H     39   5   4     2.089547534923   103.66947843    86.57997890
 H     39   5   4     2.077034651595   148.64845069   257.47756316
 C     39   5   4     2.876165790962    65.68191657   345.01328108
 O     42  39   5     2.387937998212   118.65344313    12.11235222
 O     42  39   5     2.398862990093   117.47984728   188.43130010
 Fe    43  42  39     3.917078327476   131.47951446   163.21136705
 Fe    21  20  17     3.817194703420   136.03436399   197.76568162
 O     45  43  42     3.699092663019    90.15243816   356.96668550
 H     47  45  43     1.887247441784   105.54179856    13.49314191
 C     46  21  20     5.341297776545   122.68845254    46.63948465
 C     49  46  21     2.897300574069   148.60727908    44.27832165
 C     50  49  46     2.914694667195   109.21568117   165.04840333
 C     51  50  49     2.890547863110   111.59362003   304.14512468
 C     52  51  50     2.927781597327   112.63064217    53.36196156
 C     53  52  51     2.882714284022   109.02556304   306.58945733
 O     49  46  21     2.636362596574    37.38531499    19.26663124
 O     50  49  46     2.678240278590   110.48127529    42.63886663
 O     51  50  49     2.669660059441   111.80654919   181.38722744
 O     52  51  50     2.680430490384   107.82206950   176.67090476
 O     53  52  51     2.655662921091   112.51821496   186.53375912
 O     54  53  52     2.699642182806   114.55182161   178.00140537
 H     49  46  21     2.099509433536    95.48583514   264.82311977
 H     50  49  46     2.085916641813   108.32633262   281.25979141
 H     51  50  49     2.097527849465   107.27332604    60.48064646
 H     52  51  50     2.082404645923   107.23974806   296.32603153
 H     53  52  51     2.102485588693   107.10399959    64.64625203
 H     54  53  52     2.081632531477   107.63570455   300.10753198
 H     56  50  49     1.894692279275   106.82791102   243.83497053
 H     57  51  50     1.898372697179   106.77670987   285.55335149
 H     58  52  51     1.896423249396   109.61780637   183.64752810
 H     59  53  52     1.878634933329   110.23829718   315.21720152
 H     60  54  53     1.922806435812   111.94898443    79.10026779
 O     45  43  42     3.995146299447   120.34424512    88.88161015
 O     72  45  43     2.439982650286    77.37200598   352.74349713
 H      1   2   3     2.059761476096   123.94054873   351.18175040
 H      9   6   4     2.059768486237   172.60394341   180.52973945
 H     17  14  12     2.059785691444   103.67159097    83.58905266
 H     23  21  20     2.059771939201   126.07201173    35.85243795
 H     31  16  15     2.059779028971   127.41709390    23.06269607
 H     39   5   4     2.059777642867    55.19134929   187.28548628

---------------------
BASIS SET INFORMATION
---------------------
There are 5 groups of distinct atoms

 Group   1 Type C   : 11s6p2d1f contracted to 5s3p2d1f pattern {62111/411/11/1}
 Group   2 Type N   : 11s6p2d1f contracted to 5s3p2d1f pattern {62111/411/11/1}
 Group   3 Type H   : 5s1p contracted to 3s1p pattern {311/1}
 Group   4 Type O   : 11s6p2d1f contracted to 5s3p2d1f pattern {62111/411/11/1}
 Group   5 Type Fe  : 17s11p7d1f contracted to 6s4p4d1f pattern {842111/6311/4111/1}

Atom   0C    basis set group =>   1
Atom   1N    basis set group =>   2
Atom   2H    basis set group =>   3
Atom   3C    basis set group =>   1
Atom   4H    basis set group =>   3
Atom   5N    basis set group =>   2
Atom   6C    basis set group =>   1
Atom   7H    basis set group =>   3
Atom   8C    basis set group =>   1
Atom   9N    basis set group =>   2
Atom  10H    basis set group =>   3
Atom  11C    basis set group =>   1
Atom  12H    basis set group =>   3
Atom  13N    basis set group =>   2
Atom  14C    basis set group =>   1
Atom  15H    basis set group =>   3
Atom  16C    basis set group =>   1
Atom  17H    basis set group =>   3
Atom  18H    basis set group =>   3
Atom  19C    basis set group =>   1
Atom  20O    basis set group =>   4
Atom  21O    basis set group =>   4
Atom  22C    basis set group =>   1
Atom  23N    basis set group =>   2
Atom  24H    basis set group =>   3
Atom  25C    basis set group =>   1
Atom  26H    basis set group =>   3
Atom  27N    basis set group =>   2
Atom  28C    basis set group =>   1
Atom  29H    basis set group =>   3
Atom  30C    basis set group =>   1
Atom  31N    basis set group =>   2
Atom  32H    basis set group =>   3
Atom  33C    basis set group =>   1
Atom  34H    basis set group =>   3
Atom  35N    basis set group =>   2
Atom  36C    basis set group =>   1
Atom  37H    basis set group =>   3
Atom  38C    basis set group =>   1
Atom  39H    basis set group =>   3
Atom  40H    basis set group =>   3
Atom  41C    basis set group =>   1
Atom  42O    basis set group =>   4
Atom  43O    basis set group =>   4
Atom  44Fe   basis set group =>   5
Atom  45Fe   basis set group =>   5
Atom  46O    basis set group =>   4
Atom  47H    basis set group =>   3
Atom  48C    basis set group =>   1
Atom  49C    basis set group =>   1
Atom  50C    basis set group =>   1
Atom  51C    basis set group =>   1
Atom  52C    basis set group =>   1
Atom  53C    basis set group =>   1
Atom  54O    basis set group =>   4
Atom  55O    basis set group =>   4
Atom  56O    basis set group =>   4
Atom  57O    basis set group =>   4
Atom  58O    basis set group =>   4
Atom  59O    basis set group =>   4
Atom  60H    basis set group =>   3
Atom  61H    basis set group =>   3
Atom  62H    basis set group =>   3
Atom  63H    basis set group =>   3
Atom  64H    basis set group =>   3
Atom  65H    basis set group =>   3
Atom  66H    basis set group =>   3
Atom  67H    basis set group =>   3
Atom  68H    basis set group =>   3
Atom  69H    basis set group =>   3
Atom  70H    basis set group =>   3
Atom  71O    basis set group =>   4
Atom  72O    basis set group =>   4
Atom  73H    basis set group =>   3
Atom  74H    basis set group =>   3
Atom  75H    basis set group =>   3
Atom  76H    basis set group =>   3
Atom  77H    basis set group =>   3
Atom  78H    basis set group =>   3
--------------------------------------------------------------------------
WARNING: There was an error initializing an OpenFabrics device.

  Local host:   cnode01
  Local device: mlx5_0
--------------------------------------------------------------------------


           ************************************************************
           *        Program running with 16 parallel MPI-processes    *
           *              working on a common directory               *
           ************************************************************
------------------------------------------------------------------------------
                           ORCA GTO INTEGRAL CALCULATION
------------------------------------------------------------------------------
------------------------------------------------------------------------------
                   ___                                                        
                  /   \      - P O W E R E D   B Y -                         
                 /     \                                                     
                 |  |  |   _    _      __       _____    __    __             
                 |  |  |  | |  | |    /  \     |  _  \  |  |  /  |          
                  \  \/   | |  | |   /    \    | | | |  |  | /  /          
                 / \  \   | |__| |  /  /\  \   | |_| |  |  |/  /          
                |  |  |   |  __  | /  /__\  \  |    /   |      \           
                |  |  |   | |  | | |   __   |  |    \   |  |\   \          
                \     /   | |  | | |  |  |  |  | |\  \  |  | \   \       
                 \___/    |_|  |_| |__|  |__|  |_| \__\ |__|  \__/        
                                                                              
                      - O R C A' S   B I G   F R I E N D -                    
                                      &                                       
                       - I N T E G R A L  F E E D E R -                       
                                                                              
 v1 FN, 2020, v2 2021                                                         
------------------------------------------------------------------------------


Reading SHARK input file /scratch/RC2-flipspin_670/RC2-flipspin.SHARKINP.tmp ... ok
----------------------
SHARK INTEGRAL PACKAGE
----------------------

Number of atoms                             ...     79
Number of basis functions                   ...   1627
Number of shells                            ...    639
Maximum angular momentum                    ...      3
Integral batch strategy                     ... SHARK/LIBINT Hybrid
RI-J (if used) integral strategy            ... SPLIT-RIJ (Revised 2003 algorithm where possible)
Printlevel                                  ...      1
Contraction scheme used                     ... SEGMENTED contraction
Coulomb Range Separation                    ... NOT USED
Exchange Range Separation                   ... NOT USED
Finite Nucleus Model                        ... NOT USED
Auxiliary Coulomb fitting basis             ... NOT available
Auxiliary J/K fitting basis                 ... NOT available
Auxiliary Correlation fitting basis         ... NOT available
Auxiliary 'external' fitting basis          ... NOT available
Integral threshold                          ...     1.000000e-12
Primitive cut-off                           ...     1.000000e-14
Primitive pair pre-selection threshold      ...     1.000000e-14

Calculating pre-screening integrals         ... done (  1.1 sec) Dimension = 639
Organizing shell pair data                  ... done (  0.9 sec)
Shell pair information
Total number of shell pairs                 ...    204480
Shell pairs after pre-screening             ...    119768
Total number of primitive shell pairs       ...    646982
Primitive shell pairs kept                  ...    232939
          la=0 lb=0:  31441 shell pairs
          la=1 lb=0:  35147 shell pairs
          la=1 lb=1:   9903 shell pairs
          la=2 lb=0:  17109 shell pairs
          la=2 lb=1:   9842 shell pairs
          la=2 lb=2:   2440 shell pairs
          la=3 lb=0:   7264 shell pairs
          la=3 lb=1:   4265 shell pairs
          la=3 lb=2:   1956 shell pairs
          la=3 lb=3:    401 shell pairs

Calculating one electron integrals          ... done (  0.2 sec)
Calculating Nuclear repulsion               ... done (  0.0 sec) ENN=   8199.259930178932 Eh

SHARK setup successfully completed in   2.3 seconds

Maximum memory used throughout the entire GTOINT-calculation: 175.0 MB
[cnode01:160729] 15 more processes have sent help message help-mpi-btl-openib.txt / error in device init
[cnode01:160729] Set MCA parameter "orte_base_help_aggregate" to 0 to see all help / error messages
--------------------------------------------------------------------------
WARNING: There was an error initializing an OpenFabrics device.

  Local host:   cnode01
  Local device: mlx5_0
--------------------------------------------------------------------------


           ************************************************************
           *        Program running with 16 parallel MPI-processes    *
           *              working on a common directory               *
           ************************************************************
-------------------------------------------------------------------------------
                                 ORCA SCF
-------------------------------------------------------------------------------

------------
SCF SETTINGS
------------
Hamiltonian:
 Density Functional     Method          .... DFT(GTOs)
 Exchange Functional    Exchange        .... B88
   X-Alpha parameter    XAlpha          ....  0.666667
   Becke's b parameter  XBeta           ....  0.004200
 Correlation Functional Correlation     .... LYP
 LDA part of GGA corr.  LDAOpt          .... VWN-5
 Gradients option       PostSCFGGA      .... off
 Hybrid DFT is turned on
   Fraction HF Exchange ScalHFX         ....  0.200000
   Scaling of DF-GGA-X  ScalDFX         ....  0.720000
   Scaling of DF-GGA-C  ScalDFC         ....  0.810000
   Scaling of DF-LDA-C  ScalLDAC        ....  1.000000
   Perturbative correction              ....  0.000000
   Density functional embedding theory  .... OFF
   NL short-range parameter             ....  4.800000


General Settings:
 Integral files         IntName         .... /scratch/RC2-flipspin_670/RC2-flipspin
 Hartree-Fock type      HFTyp           .... UHF
 Total Charge           Charge          ....    1
 Multiplicity           Mult            ....   12
 Number of Electrons    NEL             ....  377
 Basis Dimension        Dim             .... 1627
 Nuclear Repulsion      ENuc            ....   8199.2599301789 Eh

Convergence Acceleration:
 DIIS                   CNVDIIS         .... on
   Start iteration      DIISMaxIt       ....     0
   Startup error        DIISStart       ....  0.200000
   # of expansion vecs  DIISMaxEq       ....     5
   Bias factor          DIISBfac        ....   1.050
   Max. coefficient     DIISMaxC        ....  10.000
 Trust-Rad. Augm. Hess. CNVTRAH         .... off
 SOSCF                  CNVSOSCF        .... off
 Level Shifting         CNVShift        .... on
   Level shift para.    LevelShift      ....    0.2500
   Turn off err/grad.   ShiftErr        ....    0.0000
 Zerner damping         CNVZerner       .... off
 Static damping         CNVDamp         .... on
   Fraction old density DampFac         ....    0.8500
   Max. Damping (<1)    DampMax         ....    0.9800
   Min. Damping (>=0)   DampMin         ....    0.0000
   Turn off err/grad.   DampErr         ....    0.0300
 Fernandez-Rico         CNVRico         .... off

SCF Procedure:
 Maximum # iterations   MaxIter         ....   500
 SCF integral mode      SCFMode         .... Direct
   Integral package                     .... SHARK and LIBINT hybrid scheme
 Reset frequency        DirectResetFreq ....    20
 Integral Threshold     Thresh          ....  1.000e-12 Eh
 Primitive CutOff       TCut            ....  1.000e-14 Eh

Convergence Tolerance:
 Convergence Check Mode ConvCheckMode   .... Total+1el-Energy
 Convergence forced     ConvForced      .... 1
 Energy Change          TolE            ....  1.000e-09 Eh
 1-El. energy change                    ....  1.000e-06 Eh
 DIIS Error             TolErr          ....  1.000e-08


The Flip-Spin feature is operative for generating broken symmetry solutions
 Fe44
We will now do a high-spin calculation with                 Ms=  5.5
and then try to converge to the broken symmetry state with Ms=  0.5


Diagonalization of the overlap matrix:
Smallest eigenvalue                        ... 3.228e-05
Time for diagonalization                   ...    0.327 sec
Threshold for overlap eigenvalues          ... 1.000e-08
Number of eigenvalues below threshold      ... 0
Time for construction of square roots      ...    0.431 sec
Total time needed                          ...    0.767 sec

---------------------
INITIAL GUESS: MOREAD
---------------------
Guess MOs are being read from file: RC2-highspin.gbw
Input Geometry matches current geometry (good)
Input basis set matches current basis set (good)
MOs were renormalized
[cnode01:160853] 15 more processes have sent help message help-mpi-btl-openib.txt / error in device init
[cnode01:160853] Set MCA parameter "orte_base_help_aggregate" to 0 to see all help / error messages
MOs were reorthogonalized (Cholesky)
                      ------------------
                      INITIAL GUESS DONE (   3.5 sec)
                      ------------------
-------------------
DFT GRID GENERATION
-------------------

General Integration Accuracy     IntAcc      ... 4.388
Radial Grid Type                 RadialGrid  ... OptM3 with GC (2021)
Angular Grid (max. ang.)         AngularGrid ... 4 (Lebedev-302)
Angular grid pruning method      GridPruning ... 4 (adaptive)
Weight generation scheme         WeightScheme... Becke
Basis function cutoff            BFCut       ... 1.0000e-12
Integration weight cutoff        WCut        ... 1.0000e-14
Angular grids for H and He will be reduced by one unit
Partially contracted basis set               ... off
Rotationally invariant grid construction     ... off

Total number of grid points                  ...   385150
Total number of batches                      ...     6059
Average number of points per batch           ...       63
Average number of grid points per atom       ...     4875
Time for grid setup =    2.857 sec

--------------
SCF ITERATIONS
--------------
ITER       Energy         Delta-E        Max-DP      RMS-DP      [F,P]     Damp
               ***  Starting incremental Fock matrix formation  ***
  0  -4801.6620692405   0.000000000000 0.00000064  0.00000000  0.0000000 0.8500
  1  -4801.6620691841   0.000000056362 0.00000088  0.00000000  0.0000000 0.8500
                               ***Turning on DIIS***
                            ***DIIS convergence achieved***

               *****************************************************
               *                     SUCCESS                       *
               *           SCF CONVERGED AFTER   2 CYCLES          *
               *****************************************************


----------------
TOTAL SCF ENERGY
----------------

Total Energy       :        -4801.66206915 Eh         -130659.86752 eV

Components:
Nuclear Repulsion  :         8199.25993018 Eh          223113.20556 eV
Electronic Energy  :       -13000.92199932 Eh         -353773.07308 eV
One Electron Energy:       -22924.66370918 Eh         -623811.81351 eV
Two Electron Energy:         9923.74170986 Eh          270038.74043 eV

Virial components:
Potential Energy   :        -9589.60974817 Eh         -260946.54751 eV
Kinetic Energy     :         4787.94767903 Eh          130286.67999 eV
Virial Ratio       :            2.00286436


DFT components:
N(Alpha)           :      194.000206139965 electrons
N(Beta)            :      183.000187607804 electrons
N(Total)           :      377.000393747769 electrons
E(X)               :     -314.235284247845 Eh       
E(C)               :      -16.091895781325 Eh       
E(XC)              :     -330.327180029170 Eh       
DFET-embed. en.    :        0.000000000000 Eh       

---------------
SCF CONVERGENCE
---------------

  Last Energy change         ...    3.8597e-08  Tolerance :   1.0000e-09
  Last MAX-Density change    ...    1.3120e-06  Tolerance :   1.0000e-08
  Last RMS-Density change    ...    5.7694e-09  Tolerance :   1.0000e-09
  Last DIIS Error            ...    1.9077e-08  Tolerance :   1.0000e-08

             **** THE GBW FILE WAS UPDATED (/scratch/RC2-flipspin_670/RC2-flipspin.gbw) ****
             **** DENSITY /scratch/RC2-flipspin_670/RC2-flipspin.scfp WAS UPDATED ****
             **** ENERGY FILE WAS UPDATED (/scratch/RC2-flipspin_670/RC2-flipspin.en.tmp) ****
----------------------
UHF SPIN CONTAMINATION
----------------------

Warning: in a DFT calculation there is little theoretical justification to 
         calculate <S**2> as in Hartree-Fock theory. We will do it anyways
         but you should keep in mind that the values have only limited relevance

Expectation value of <S**2>     :    35.777938
Ideal value S*(S+1) for S=5.5   :    35.750000
Deviation                       :     0.027938

             **** THE GBW FILE WAS UPDATED (/scratch/RC2-flipspin_670/RC2-flipspin.gbw) ****
             **** DENSITY /scratch/RC2-flipspin_670/RC2-flipspin.scfp WAS UPDATED ****
----------------
ORBITAL ENERGIES
----------------
                 SPIN UP ORBITALS
  NO   OCC          E(Eh)            E(eV) 
   0   1.0000    -256.241314     -6972.6806 
   1   1.0000    -256.202027     -6971.6116 
   2   1.0000     -30.235871      -822.7599 
   3   1.0000     -30.190572      -821.5272 
   4   1.0000     -26.091774      -709.9933 
   5   1.0000     -26.087578      -709.8791 
   6   1.0000     -26.084420      -709.7932 
   7   1.0000     -26.050610      -708.8731 
   8   1.0000     -26.040398      -708.5952 
   9   1.0000     -26.039063      -708.5589 
  10   1.0000     -19.276051      -524.5280 
  11   1.0000     -19.275045      -524.5006 
  12   1.0000     -19.260060      -524.0929 
  13   1.0000     -19.214821      -522.8619 
  14   1.0000     -19.198183      -522.4091 
  15   1.0000     -19.192812      -522.2630 
  16   1.0000     -19.192469      -522.2536 
  17   1.0000     -19.185135      -522.0541 
  18   1.0000     -19.181917      -521.9665 
  19   1.0000     -19.167100      -521.5633 
  20   1.0000     -19.161850      -521.4205 
  21   1.0000     -19.158260      -521.3228 
  22   1.0000     -19.136101      -520.7198 
  23   1.0000     -14.492799      -394.3691 
  24   1.0000     -14.491909      -394.3449 
  25   1.0000     -14.476941      -393.9376 
  26   1.0000     -14.474664      -393.8756 
  27   1.0000     -14.434330      -392.7781 
  28   1.0000     -14.434278      -392.7767 
  29   1.0000     -14.416931      -392.3046 
  30   1.0000     -14.409906      -392.1135 
  31   1.0000     -10.368240      -282.1342 
  32   1.0000     -10.348062      -281.5851 
  33   1.0000     -10.346497      -281.5425 
  34   1.0000     -10.331189      -281.1260 
  35   1.0000     -10.328370      -281.0492 
  36   1.0000     -10.326490      -280.9981 
  37   1.0000     -10.314732      -280.6781 
  38   1.0000     -10.307853      -280.4909 
  39   1.0000     -10.307098      -280.4704 
  40   1.0000     -10.298838      -280.2456 
  41   1.0000     -10.298401      -280.2337 
  42   1.0000     -10.297628      -280.2127 
  43   1.0000     -10.296532      -280.1829 
  44   1.0000     -10.290688      -280.0239 
  45   1.0000     -10.289596      -279.9941 
  46   1.0000     -10.285882      -279.8931 
  47   1.0000     -10.285474      -279.8820 
  48   1.0000     -10.283947      -279.8404 
  49   1.0000     -10.282072      -279.7894 
  50   1.0000     -10.278073      -279.6806 
  51   1.0000     -10.245366      -278.7906 
  52   1.0000     -10.219322      -278.0819 
  53   1.0000      -3.722012      -101.2811 
  54   1.0000      -3.678738      -100.1035 
  55   1.0000      -2.504366       -68.1473 
  56   1.0000      -2.495175       -67.8972 
  57   1.0000      -2.489225       -67.7353 
  58   1.0000      -2.469438       -67.1968 
  59   1.0000      -2.447277       -66.5938 
  60   1.0000      -2.444495       -66.5181 
  61   1.0000      -1.253982       -34.1226 
  62   1.0000      -1.146180       -31.1891 
  63   1.0000      -1.144435       -31.1417 
  64   1.0000      -1.137501       -30.9530 
  65   1.0000      -1.136818       -30.9344 
  66   1.0000      -1.120904       -30.5014 
  67   1.0000      -1.117818       -30.4174 
  68   1.0000      -1.113100       -30.2890 
  69   1.0000      -1.107478       -30.1360 
  70   1.0000      -1.095190       -29.8016 
  71   1.0000      -1.082338       -29.4519 
  72   1.0000      -1.066903       -29.0319 
  73   1.0000      -1.056740       -28.7554 
  74   1.0000      -1.043288       -28.3893 
  75   1.0000      -1.022928       -27.8353 
  76   1.0000      -1.009435       -27.4681 
  77   1.0000      -0.995419       -27.0867 
  78   1.0000      -0.992745       -27.0140 
  79   1.0000      -0.977763       -26.6063 
  80   1.0000      -0.974306       -26.5122 
  81   1.0000      -0.879816       -23.9410 
  82   1.0000      -0.864321       -23.5194 
  83   1.0000      -0.862623       -23.4732 
  84   1.0000      -0.858550       -23.3623 
  85   1.0000      -0.844163       -22.9708 
  86   1.0000      -0.842528       -22.9264 
  87   1.0000      -0.807597       -21.9758 
  88   1.0000      -0.798655       -21.7325 
  89   1.0000      -0.781468       -21.2648 
  90   1.0000      -0.777417       -21.1546 
  91   1.0000      -0.735661       -20.0184 
  92   1.0000      -0.734139       -19.9769 
  93   1.0000      -0.718075       -19.5398 
  94   1.0000      -0.717073       -19.5126 
  95   1.0000      -0.709211       -19.2986 
  96   1.0000      -0.706452       -19.2235 
  97   1.0000      -0.700355       -19.0576 
  98   1.0000      -0.693408       -18.8686 
  99   1.0000      -0.688865       -18.7450 
 100   1.0000      -0.682335       -18.5673 
 101   1.0000      -0.675851       -18.3909 
 102   1.0000      -0.671308       -18.2672 
 103   1.0000      -0.662324       -18.0227 
 104   1.0000      -0.658045       -17.9063 
 105   1.0000      -0.648321       -17.6417 
 106   1.0000      -0.637792       -17.3552 
 107   1.0000      -0.621063       -16.9000 
 108   1.0000      -0.610367       -16.6089 
 109   1.0000      -0.600604       -16.3433 
 110   1.0000      -0.593858       -16.1597 
 111   1.0000      -0.586030       -15.9467 
 112   1.0000      -0.581882       -15.8338 
 113   1.0000      -0.572887       -15.5891 
 114   1.0000      -0.570865       -15.5340 
 115   1.0000      -0.569431       -15.4950 
 116   1.0000      -0.565580       -15.3902 
 117   1.0000      -0.563332       -15.3290 
 118   1.0000      -0.561976       -15.2922 
 119   1.0000      -0.559019       -15.2117 
 120   1.0000      -0.558528       -15.1983 
 121   1.0000      -0.554248       -15.0818 
 122   1.0000      -0.553031       -15.0487 
 123   1.0000      -0.550094       -14.9688 
 124   1.0000      -0.548203       -14.9174 
 125   1.0000      -0.544433       -14.8148 
 126   1.0000      -0.543360       -14.7856 
 127   1.0000      -0.541526       -14.7357 
 128   1.0000      -0.538749       -14.6601 
 129   1.0000      -0.537246       -14.6192 
 130   1.0000      -0.535128       -14.5616 
 131   1.0000      -0.534290       -14.5388 
 132   1.0000      -0.531574       -14.4649 
 133   1.0000      -0.530047       -14.4233 
 134   1.0000      -0.528841       -14.3905 
 135   1.0000      -0.527994       -14.3674 
 136   1.0000      -0.523884       -14.2556 
 137   1.0000      -0.520261       -14.1570 
 138   1.0000      -0.516634       -14.0583 
 139   1.0000      -0.514407       -13.9977 
 140   1.0000      -0.511962       -13.9312 
 141   1.0000      -0.510225       -13.8839 
 142   1.0000      -0.508442       -13.8354 
 143   1.0000      -0.506953       -13.7949 
 144   1.0000      -0.501190       -13.6381 
 145   1.0000      -0.498522       -13.5655 
 146   1.0000      -0.497025       -13.5247 
 147   1.0000      -0.493242       -13.4218 
 148   1.0000      -0.483954       -13.1691 
 149   1.0000      -0.477719       -12.9994 
 150   1.0000      -0.476772       -12.9736 
 151   1.0000      -0.475857       -12.9487 
 152   1.0000      -0.475231       -12.9317 
 153   1.0000      -0.467821       -12.7301 
 154   1.0000      -0.465923       -12.6784 
 155   1.0000      -0.463471       -12.6117 
 156   1.0000      -0.458726       -12.4826 
 157   1.0000      -0.457288       -12.4434 
 158   1.0000      -0.448923       -12.2158 
 159   1.0000      -0.447079       -12.1656 
 160   1.0000      -0.443603       -12.0710 
 161   1.0000      -0.435941       -11.8626 
 162   1.0000      -0.425541       -11.5796 
 163   1.0000      -0.420089       -11.4312 
 164   1.0000      -0.419252       -11.4084 
 165   1.0000      -0.413208       -11.2440 
 166   1.0000      -0.411720       -11.2035 
 167   1.0000      -0.409557       -11.1446 
 168   1.0000      -0.407245       -11.0817 
 169   1.0000      -0.396201       -10.7812 
 170   1.0000      -0.394587       -10.7373 
 171   1.0000      -0.389968       -10.6116 
 172   1.0000      -0.381787       -10.3890 
 173   1.0000      -0.379549       -10.3280 
 174   1.0000      -0.368797       -10.0355 
 175   1.0000      -0.364137        -9.9087 
 176   1.0000      -0.361245        -9.8300 
 177   1.0000      -0.357317        -9.7231 
 178   1.0000      -0.356327        -9.6961 
 179   1.0000      -0.353949        -9.6314 
 180   1.0000      -0.350889        -9.5482 
 181   1.0000      -0.345873        -9.4117 
 182   1.0000      -0.344038        -9.3618 
 183   1.0000      -0.343348        -9.3430 
 184   1.0000      -0.339057        -9.2262 
 185   1.0000      -0.336265        -9.1502 
 186   1.0000      -0.332951        -9.0601 
 187   1.0000      -0.330370        -8.9898 
 188   1.0000      -0.328411        -8.9365 
 189   1.0000      -0.322270        -8.7694 
 190   1.0000      -0.318386        -8.6637 
 191   1.0000      -0.311493        -8.4762 
 192   1.0000      -0.309195        -8.4136 
 193   1.0000      -0.302402        -8.2288 
 194   0.0000      -0.107399        -2.9225 
 195   0.0000      -0.100508        -2.7350 
 196   0.0000      -0.087750        -2.3878 
 197   0.0000      -0.082276        -2.2388 
 198   0.0000      -0.078127        -2.1259 
 199   0.0000      -0.073566        -2.0018 
 200   0.0000      -0.068933        -1.8758 
 201   0.0000      -0.068757        -1.8710 
 202   0.0000      -0.066481        -1.8090 
 203   0.0000      -0.064001        -1.7416 
 204   0.0000      -0.063423        -1.7258 
 205   0.0000      -0.060346        -1.6421 
 206   0.0000      -0.057416        -1.5624 
 207   0.0000      -0.052324        -1.4238 
 208   0.0000      -0.046821        -1.2741 
 209   0.0000      -0.042651        -1.1606 
 210   0.0000      -0.035598        -0.9687 
 211   0.0000      -0.028355        -0.7716 
 212   0.0000      -0.023461        -0.6384 
 213   0.0000      -0.022080        -0.6008 
 214   0.0000      -0.018490        -0.5031 
 215   0.0000      -0.016973        -0.4619 
 216   0.0000      -0.010310        -0.2805 
 217   0.0000      -0.008852        -0.2409 
 218   0.0000      -0.007758        -0.2111 
 219   0.0000      -0.002044        -0.0556 
 220   0.0000       0.000950         0.0259 
 221   0.0000       0.003862         0.1051 
 222   0.0000       0.012788         0.3480 
 223   0.0000       0.015928         0.4334 
 224   0.0000       0.020848         0.5673 
 225   0.0000       0.029309         0.7975 
 226   0.0000       0.031576         0.8592 
 227   0.0000       0.034717         0.9447 
 228   0.0000       0.037573         1.0224 
 229   0.0000       0.040958         1.1145 
 230   0.0000       0.044337         1.2065 
 231   0.0000       0.045458         1.2370 
 232   0.0000       0.048224         1.3122 
 233   0.0000       0.050678         1.3790 
 234   0.0000       0.054702         1.4885 
 235   0.0000       0.058715         1.5977 
 236   0.0000       0.061677         1.6783 
 237   0.0000       0.063395         1.7251 
 238   0.0000       0.066470         1.8087 
 239   0.0000       0.068226         1.8565 
 240   0.0000       0.070070         1.9067 
 241   0.0000       0.070240         1.9113 
 242   0.0000       0.074331         2.0227 
 243   0.0000       0.077897         2.1197 
 244   0.0000       0.079360         2.1595 
 245   0.0000       0.085055         2.3145 
 246   0.0000       0.086622         2.3571 
 247   0.0000       0.087695         2.3863 
 248   0.0000       0.090226         2.4552 
 249   0.0000       0.094155         2.5621 
 250   0.0000       0.098441         2.6787 
 251   0.0000       0.099148         2.6979 
 252   0.0000       0.101702         2.7674 
 253   0.0000       0.103116         2.8059 
 254   0.0000       0.104523         2.8442 
 255   0.0000       0.104999         2.8572 
 256   0.0000       0.108230         2.9451 
 257   0.0000       0.111684         3.0391 
 258   0.0000       0.114486         3.1153 
 259   0.0000       0.118300         3.2191 
 260   0.0000       0.119389         3.2487 
 261   0.0000       0.122283         3.3275 
 262   0.0000       0.125030         3.4022 
 263   0.0000       0.129080         3.5125 
 264   0.0000       0.130427         3.5491 
 265   0.0000       0.132896         3.6163 
 266   0.0000       0.136308         3.7091 
 267   0.0000       0.139528         3.7967 
 268   0.0000       0.142640         3.8814 
 269   0.0000       0.143761         3.9119 
 270   0.0000       0.144579         3.9342 
 271   0.0000       0.149328         4.0634 
 272   0.0000       0.150425         4.0933 
 273   0.0000       0.153778         4.1845 
 274   0.0000       0.158690         4.3182 
 275   0.0000       0.161061         4.3827 
 276   0.0000       0.165642         4.5073 
 277   0.0000       0.167512         4.5582 
 278   0.0000       0.168868         4.5951 
 279   0.0000       0.172524         4.6946 
 280   0.0000       0.174173         4.7395 
 281   0.0000       0.177982         4.8431 
 282   0.0000       0.181421         4.9367 
 283   0.0000       0.184819         5.0292 
 284   0.0000       0.188259         5.1228 
 285   0.0000       0.189926         5.1681 
 286   0.0000       0.191809         5.2194 
 287   0.0000       0.192738         5.2447 
 288   0.0000       0.195154         5.3104 
 289   0.0000       0.197996         5.3878 
 290   0.0000       0.199078         5.4172 
 291   0.0000       0.200092         5.4448 
 292   0.0000       0.204649         5.5688 
 293   0.0000       0.209570         5.7027 
 294   0.0000       0.213326         5.8049 
 295   0.0000       0.217609         5.9214 
 296   0.0000       0.220877         6.0104 
 297   0.0000       0.223051         6.0695 
 298   0.0000       0.229251         6.2382 
 299   0.0000       0.231991         6.3128 
 300   0.0000       0.233697         6.3592 
 301   0.0000       0.236204         6.4274 
 302   0.0000       0.238685         6.4950 
 303   0.0000       0.240880         6.5547 
 304   0.0000       0.243347         6.6218 
 305   0.0000       0.246493         6.7074 
 306   0.0000       0.248853         6.7716 
 307   0.0000       0.252577         6.8730 
 308   0.0000       0.254427         6.9233 
 309   0.0000       0.258736         7.0406 
 310   0.0000       0.260528         7.0893 
 311   0.0000       0.261236         7.1086 
 312   0.0000       0.263875         7.1804 
 313   0.0000       0.267979         7.2921 
 314   0.0000       0.270913         7.3719 
 315   0.0000       0.272088         7.4039 
 316   0.0000       0.277064         7.5393 
 317   0.0000       0.277565         7.5529 
 318   0.0000       0.280501         7.6328 
 319   0.0000       0.285572         7.7708 
 320   0.0000       0.285852         7.7784 
 321   0.0000       0.289958         7.8902 
 322   0.0000       0.290804         7.9132 
 323   0.0000       0.291187         7.9236 
 324   0.0000       0.293971         7.9993 
 325   0.0000       0.296632         8.0718 
 326   0.0000       0.298484         8.1222 
 327   0.0000       0.300396         8.1742 
 328   0.0000       0.303043         8.2462 
 329   0.0000       0.303807         8.2670 
 330   0.0000       0.304569         8.2878 
 331   0.0000       0.310319         8.4442 
 332   0.0000       0.313261         8.5243 
 333   0.0000       0.314866         8.5679 
 334   0.0000       0.316610         8.6154 
 335   0.0000       0.318658         8.6711 
 336   0.0000       0.320715         8.7271 
 337   0.0000       0.323233         8.7956 
 338   0.0000       0.323497         8.8028 
 339   0.0000       0.326021         8.8715 
 340   0.0000       0.327619         8.9150 
 341   0.0000       0.329901         8.9771 
 342   0.0000       0.332828         9.0567 
 343   0.0000       0.334560         9.1038 
 344   0.0000       0.336125         9.1464 
 345   0.0000       0.339883         9.2487 
 346   0.0000       0.340868         9.2755 
 347   0.0000       0.342592         9.3224 
 348   0.0000       0.344005         9.3609 
 349   0.0000       0.346059         9.4167 
 350   0.0000       0.348174         9.4743 
 351   0.0000       0.353581         9.6214 
 352   0.0000       0.355871         9.6837 
 353   0.0000       0.357181         9.7194 
 354   0.0000       0.358921         9.7667 
 355   0.0000       0.361834         9.8460 
 356   0.0000       0.364862         9.9284 
 357   0.0000       0.370346        10.0776 
 358   0.0000       0.371350        10.1049 
 359   0.0000       0.371851        10.1186 
 360   0.0000       0.375129        10.2078 
 361   0.0000       0.376826        10.2540 
 362   0.0000       0.378848        10.3090 
 363   0.0000       0.380008        10.3406 
 364   0.0000       0.382990        10.4217 
 365   0.0000       0.385512        10.4903 
 366   0.0000       0.387485        10.5440 
 367   0.0000       0.387935        10.5562 
 368   0.0000       0.390019        10.6129 
 369   0.0000       0.393033        10.6950 
 370   0.0000       0.396422        10.7872 
 371   0.0000       0.397743        10.8231 
 372   0.0000       0.398073        10.8321 
 373   0.0000       0.402674        10.9573 
 374   0.0000       0.403890        10.9904 
 375   0.0000       0.405508        11.0344 
 376   0.0000       0.407793        11.0966 
 377   0.0000       0.409666        11.1476 
 378   0.0000       0.413289        11.2462 
 379   0.0000       0.415825        11.3152 
 380   0.0000       0.416067        11.3217 
 381   0.0000       0.420857        11.4521 
 382   0.0000       0.422730        11.5031 
 383   0.0000       0.425469        11.5776 
 384   0.0000       0.428922        11.6715 
 385   0.0000       0.430192        11.7061 
 386   0.0000       0.433690        11.8013 
 387   0.0000       0.435073        11.8389 
 388   0.0000       0.436348        11.8736 
 389   0.0000       0.439556        11.9609 
 390   0.0000       0.440470        11.9858 
 391   0.0000       0.444478        12.0949 
 392   0.0000       0.445312        12.1176 
 393   0.0000       0.453758        12.3474 
 394   0.0000       0.456053        12.4098 
 395   0.0000       0.459944        12.5157 
 396   0.0000       0.461367        12.5544 
 397   0.0000       0.463637        12.6162 
 398   0.0000       0.465216        12.6592 
 399   0.0000       0.467025        12.7084 
 400   0.0000       0.470263        12.7965 
 401   0.0000       0.473523        12.8852 
 402   0.0000       0.477175        12.9846 
 403   0.0000       0.481832        13.1113 
 404   0.0000       0.483070        13.1450 
 405   0.0000       0.484925        13.1955 
 406   0.0000       0.490539        13.3482 
 407   0.0000       0.491787        13.3822 
 408   0.0000       0.496275        13.5043 
 409   0.0000       0.497594        13.5402 
 410   0.0000       0.499516        13.5925 
 411   0.0000       0.501687        13.6516 
 412   0.0000       0.505068        13.7436 
 413   0.0000       0.511471        13.9178 
 414   0.0000       0.512631        13.9494 
 415   0.0000       0.516685        14.0597 
 416   0.0000       0.521646        14.1947 
 417   0.0000       0.521751        14.1976 
 418   0.0000       0.523266        14.2388 
 419   0.0000       0.527492        14.3538 
 420   0.0000       0.528461        14.3802 
 421   0.0000       0.532674        14.4948 
 422   0.0000       0.536696        14.6042 
 423   0.0000       0.538523        14.6539 
 424   0.0000       0.541179        14.7262 
 425   0.0000       0.542623        14.7655 
 426   0.0000       0.547000        14.8846 
 427   0.0000       0.549315        14.9476 
 428   0.0000       0.550855        14.9895 
 429   0.0000       0.555624        15.1193 
 430   0.0000       0.562483        15.3060 
 431   0.0000       0.564483        15.3604 
 432   0.0000       0.566078        15.4038 
 433   0.0000       0.569411        15.4945 
 434   0.0000       0.574705        15.6385 
 435   0.0000       0.579333        15.7645 
 436   0.0000       0.581115        15.8129 
 437   0.0000       0.582535        15.8516 
 438   0.0000       0.586892        15.9701 
 439   0.0000       0.594362        16.1734 
 440   0.0000       0.594819        16.1858 
 441   0.0000       0.601485        16.3672 
 442   0.0000       0.603979        16.4351 
 443   0.0000       0.607435        16.5291 
 444   0.0000       0.612296        16.6614 
 445   0.0000       0.615227        16.7412 
 446   0.0000       0.617826        16.8119 
 447   0.0000       0.621397        16.9091 
 448   0.0000       0.625457        17.0195 
 449   0.0000       0.631385        17.1809 
 450   0.0000       0.636136        17.3101 
 451   0.0000       0.641097        17.4451 
 452   0.0000       0.643305        17.5052 
 453   0.0000       0.645701        17.5704 
 454   0.0000       0.650483        17.7005 
 455   0.0000       0.655570        17.8390 
 456   0.0000       0.659152        17.9364 
 457   0.0000       0.662539        18.0286 
 458   0.0000       0.665903        18.1202 
 459   0.0000       0.668307        18.1856 
 460   0.0000       0.670378        18.2419 
 461   0.0000       0.675848        18.3908 
 462   0.0000       0.677349        18.4316 
 463   0.0000       0.681892        18.5552 
 464   0.0000       0.687218        18.7002 
 465   0.0000       0.690730        18.7957 
 466   0.0000       0.692832        18.8529 
 467   0.0000       0.694522        18.8989 
 468   0.0000       0.700968        19.0743 
 469   0.0000       0.704828        19.1793 
 470   0.0000       0.706625        19.2282 
 471   0.0000       0.708780        19.2869 
 472   0.0000       0.712999        19.4017 
 473   0.0000       0.718806        19.5597 
 474   0.0000       0.720061        19.5939 
 475   0.0000       0.724019        19.7015 
 476   0.0000       0.725949        19.7541 
 477   0.0000       0.734676        19.9916 
 478   0.0000       0.736853        20.0508 
 479   0.0000       0.737981        20.0815 
 480   0.0000       0.745074        20.2745 
 481   0.0000       0.747703        20.3460 
 482   0.0000       0.751320        20.4445 
 483   0.0000       0.757849        20.6221 
 484   0.0000       0.760240        20.6872 
 485   0.0000       0.762647        20.7527 
 486   0.0000       0.767266        20.8784 
 487   0.0000       0.770651        20.9705 
 488   0.0000       0.774847        21.0847 
 489   0.0000       0.778267        21.1777 
 490   0.0000       0.782027        21.2800 
 491   0.0000       0.784792        21.3553 
 492   0.0000       0.788556        21.4577 
 493   0.0000       0.794575        21.6215 
 494   0.0000       0.796116        21.6634 
 495   0.0000       0.798911        21.7395 
 496   0.0000       0.803445        21.8629 
 497   0.0000       0.808564        22.0022 
 498   0.0000       0.812924        22.1208 
 499   0.0000       0.814619        22.1669 
 500   0.0000       0.818065        22.2607 
 501   0.0000       0.822261        22.3748 
 502   0.0000       0.828230        22.5373 
 503   0.0000       0.833067        22.6689 
 504   0.0000       0.837656        22.7938 
 505   0.0000       0.840005        22.8577 
 506   0.0000       0.843791        22.9607 
 507   0.0000       0.847463        23.0606 
 508   0.0000       0.850204        23.1352 
 509   0.0000       0.850680        23.1482 
 510   0.0000       0.856163        23.2974 
 511   0.0000       0.858748        23.3677 
 512   0.0000       0.862469        23.4690 
 513   0.0000       0.866314        23.5736 
 514   0.0000       0.871234        23.7075 
 515   0.0000       0.873271        23.7629 
 516   0.0000       0.877360        23.8742 
 517   0.0000       0.882849        24.0235 
 518   0.0000       0.888045        24.1649 
 519   0.0000       0.893518        24.3139 
 520   0.0000       0.896607        24.3979 
 521   0.0000       0.898063        24.4375 
 522   0.0000       0.900942        24.5159 
 523   0.0000       0.905123        24.6297 
 524   0.0000       0.908061        24.7096 
 525   0.0000       0.910766        24.7832 
 526   0.0000       0.915909        24.9232 
 527   0.0000       0.918780        25.0013 
 528   0.0000       0.920626        25.0515 
 529   0.0000       0.923802        25.1379 
 530   0.0000       0.925627        25.1876 
 531   0.0000       0.931630        25.3509 
 532   0.0000       0.933319        25.3969 
 533   0.0000       0.937613        25.5138 
 534   0.0000       0.939679        25.5700 
 535   0.0000       0.943467        25.6731 
 536   0.0000       0.945548        25.7297 
 537   0.0000       0.947689        25.7879 
 538   0.0000       0.950267        25.8581 
 539   0.0000       0.961276        26.1577 
 540   0.0000       0.966006        26.2864 
 541   0.0000       0.971776        26.4434 
 542   0.0000       0.976405        26.5693 
 543   0.0000       0.978749        26.6331 
 544   0.0000       0.982616        26.7383 
 545   0.0000       0.986045        26.8316 
 546   0.0000       0.988198        26.8902 
 547   0.0000       0.992635        27.0110 
 548   0.0000       1.001548        27.2535 
 549   0.0000       1.003011        27.2933 
 550   0.0000       1.006307        27.3830 
 551   0.0000       1.009124        27.4597 
 552   0.0000       1.012601        27.5543 
 553   0.0000       1.020885        27.7797 
 554   0.0000       1.021337        27.7920 
 555   0.0000       1.025486        27.9049 
 556   0.0000       1.029607        28.0170 
 557   0.0000       1.030798        28.0494 
 558   0.0000       1.033896        28.1337 
 559   0.0000       1.044657        28.4266 
 560   0.0000       1.045910        28.4607 
 561   0.0000       1.051607        28.6157 
 562   0.0000       1.055321        28.7167 
 563   0.0000       1.057664        28.7805 
 564   0.0000       1.060210        28.8498 
 565   0.0000       1.061599        28.8876 
 566   0.0000       1.063178        28.9306 
 567   0.0000       1.070767        29.1371 
 568   0.0000       1.072406        29.1817 
 569   0.0000       1.077026        29.3074 
 570   0.0000       1.079792        29.3826 
 571   0.0000       1.084884        29.5212 
 572   0.0000       1.091862        29.7111 
 573   0.0000       1.095558        29.8117 
 574   0.0000       1.097903        29.8755 
 575   0.0000       1.103825        30.0366 
 576   0.0000       1.108570        30.1657 
 577   0.0000       1.116268        30.3752 
 578   0.0000       1.119767        30.4704 
 579   0.0000       1.124066        30.5874 
 580   0.0000       1.132286        30.8111 
 581   0.0000       1.135900        30.9094 
 582   0.0000       1.137165        30.9438 
 583   0.0000       1.141310        31.0566 
 584   0.0000       1.145847        31.1801 
 585   0.0000       1.148096        31.2413 
 586   0.0000       1.150207        31.2987 
 587   0.0000       1.157483        31.4967 
 588   0.0000       1.163520        31.6610 
 589   0.0000       1.166845        31.7515 
 590   0.0000       1.171640        31.8819 
 591   0.0000       1.174245        31.9528 
 592   0.0000       1.174586        31.9621 
 593   0.0000       1.179747        32.1025 
 594   0.0000       1.185501        32.2591 
 595   0.0000       1.192691        32.4548 
 596   0.0000       1.194066        32.4922 
 597   0.0000       1.198431        32.6110 
 598   0.0000       1.199405        32.6375 
 599   0.0000       1.202288        32.7159 
 600   0.0000       1.205566        32.8051 
 601   0.0000       1.208829        32.8939 
 602   0.0000       1.212407        32.9913 
 603   0.0000       1.218851        33.1666 
 604   0.0000       1.226004        33.3613 
 605   0.0000       1.231756        33.5178 
 606   0.0000       1.234069        33.5807 
 607   0.0000       1.235968        33.6324 
 608   0.0000       1.238869        33.7113 
 609   0.0000       1.245157        33.8824 
 610   0.0000       1.249648        34.0046 
 611   0.0000       1.254837        34.1459 
 612   0.0000       1.258046        34.2332 
 613   0.0000       1.267240        34.4834 
 614   0.0000       1.277788        34.7704 
 615   0.0000       1.282445        34.8971 
 616   0.0000       1.283042        34.9133 
 617   0.0000       1.288393        35.0590 
 618   0.0000       1.292594        35.1733 
 619   0.0000       1.296201        35.2714 
 620   0.0000       1.299539        35.3622 
 621   0.0000       1.303013        35.4568 
 622   0.0000       1.311541        35.6888 
 623   0.0000       1.315290        35.7908 
 624   0.0000       1.321817        35.9685 
 625   0.0000       1.322594        35.9896 
 626   0.0000       1.325785        36.0764 
 627   0.0000       1.330666        36.2093 
 628   0.0000       1.331406        36.2294 
 629   0.0000       1.338354        36.4185 
 630   0.0000       1.341822        36.5128 
 631   0.0000       1.345827        36.6218 
 632   0.0000       1.352030        36.7906 
 633   0.0000       1.353833        36.8397 
 634   0.0000       1.356805        36.9205 
 635   0.0000       1.359889        37.0045 
 636   0.0000       1.364221        37.1223 
 637   0.0000       1.367460        37.2105 
 638   0.0000       1.370723        37.2993 
 639   0.0000       1.373428        37.3729 
 640   0.0000       1.376801        37.4647 
 641   0.0000       1.377318        37.4787 
 642   0.0000       1.383763        37.6541 
 643   0.0000       1.387410        37.7533 
 644   0.0000       1.390430        37.8355 
 645   0.0000       1.398781        38.0628 
 646   0.0000       1.401645        38.1407 
 647   0.0000       1.407886        38.3105 
 648   0.0000       1.410362        38.3779 
 649   0.0000       1.412879        38.4464 
 650   0.0000       1.419395        38.6237 
 651   0.0000       1.422848        38.7177 
 652   0.0000       1.428269        38.8652 
 653   0.0000       1.433362        39.0038 
 654   0.0000       1.436494        39.0890 
 655   0.0000       1.438945        39.1557 
 656   0.0000       1.442696        39.2578 
 657   0.0000       1.448338        39.4113 
 658   0.0000       1.449906        39.4540 
 659   0.0000       1.453460        39.5507 
 660   0.0000       1.458976        39.7008 
 661   0.0000       1.463374        39.8204 
 662   0.0000       1.464776        39.8586 
 663   0.0000       1.465674        39.8830 
 664   0.0000       1.467265        39.9263 
[...]
 35 N      7.1926     7.0000    -0.1926     3.0544     3.0518     0.0026
 36 C      6.1273     6.0000    -0.1273     3.8807     3.8807     0.0000
 37 H      0.7808     1.0000     0.2192     0.9986     0.9986     0.0000
 38 C      6.3498     6.0000    -0.3498     3.8823     3.8823     0.0000
 39 H      0.8908     1.0000     0.1092     0.9718     0.9718     0.0000
 40 H      0.8649     1.0000     0.1351     0.9818     0.9818     0.0000
 41 C      5.5821     6.0000     0.4179     4.0862     4.0861     0.0001
 42 O      8.4637     8.0000    -0.4637     1.9101     1.9050     0.0051
 43 O      8.5331     8.0000    -0.5331     1.9414     1.9414     0.0000
 44 Fe    25.2029    26.0000     0.7971     6.8499     3.2900     3.5599
 45 Fe    25.2125    26.0000     0.7875     7.0307     3.3938     3.6369
 46 O      8.8482     8.0000    -0.8482     1.5639     1.5570     0.0069
 47 H      0.6369     1.0000     0.3631     0.9715     0.9715     0.0000
 48 C      5.7624     6.0000     0.2376     3.5259     3.5258     0.0001
 49 C      5.9948     6.0000     0.0052     4.0397     4.0396     0.0001
 50 C      5.8929     6.0000     0.1071     3.8068     3.8068     0.0000
 51 C      5.9479     6.0000     0.0521     3.9822     3.9822     0.0000
 52 C      5.9639     6.0000     0.0361     4.1111     4.1110     0.0000
 53 C      5.9233     6.0000     0.0767     3.7211     3.7209     0.0001
 54 O      8.5228     8.0000    -0.5228     1.9339     1.8789     0.0550
 55 O      8.4650     8.0000    -0.4650     1.9727     1.9727     0.0000
 56 O      8.4236     8.0000    -0.4236     1.9971     1.9971     0.0000
 57 O      8.3950     8.0000    -0.3950     2.0048     2.0048     0.0000
 58 O      8.4456     8.0000    -0.4456     1.9423     1.9423     0.0000
 59 O      8.4500     8.0000    -0.4500     1.8992     1.8969     0.0023
 60 H      0.8920     1.0000     0.1080     0.9902     0.9901     0.0001
 61 H      0.9008     1.0000     0.0992     0.9644     0.9644     0.0000
 62 H      0.9188     1.0000     0.0812     0.9807     0.9807     0.0000
 63 H      0.9261     1.0000     0.0739     0.9954     0.9954     0.0000
 64 H      0.9116     1.0000     0.0884     0.9962     0.9962     0.0000
 65 H      0.9230     1.0000     0.0770     0.9892     0.9892     0.0000
 66 H      0.6814     1.0000     0.3186     0.9085     0.9085     0.0000
 67 H      0.6951     1.0000     0.3049     0.9177     0.9177     0.0000
 68 H      0.7280     1.0000     0.2720     0.9459     0.9459     0.0000
 69 H      0.7148     1.0000     0.2852     0.9464     0.9464     0.0000
 70 H      0.6580     1.0000     0.3420     0.9009     0.9009     0.0000
 71 O      8.1413     8.0000    -0.1413     2.0956     1.8033     0.2923
 72 O      8.1528     8.0000    -0.1528     2.0438     1.7249     0.3189
 73 H      0.8322     1.0000     0.1678     0.9712     0.9712     0.0000
 74 H      0.8426     1.0000     0.1574     0.9745     0.9745     0.0000
 75 H      0.8810     1.0000     0.1190     0.9725     0.9725     0.0000
 76 H      0.8255     1.0000     0.1745     0.9698     0.9698     0.0000
 77 H      0.8232     1.0000     0.1768     0.9678     0.9678     0.0000
 78 H      0.8863     1.0000     0.1137     0.9692     0.9692     0.0000

  Mayer bond orders larger than 0.100000
B(  0-C ,  1-N ) :   1.1447 B(  0-C ,  6-C ) :   1.6312 B(  0-C , 73-H ) :   0.9408 
B(  1-N ,  2-H ) :   0.9056 B(  1-N ,  3-C ) :   1.2835 B(  3-C ,  4-H ) :   0.9378 
B(  3-C ,  5-N ) :   1.4574 B(  5-N ,  6-C ) :   1.2079 B(  5-N , 44-Fe) :   0.5422 
B(  6-C ,  7-H ) :   0.9625 B(  8-C ,  9-N ) :   1.1564 B(  8-C , 14-C ) :   1.6306 
B(  8-C , 74-H ) :   0.9463 B(  9-N , 10-H ) :   0.9093 B(  9-N , 11-C ) :   1.2820 
B( 11-C , 12-H ) :   0.9453 B( 11-C , 13-N ) :   1.4962 B( 13-N , 14-C ) :   1.2259 
B( 13-N , 44-Fe) :   0.4174 B( 14-C , 15-H ) :   0.9500 B( 16-C , 17-H ) :   0.9834 
B( 16-C , 18-H ) :   0.9513 B( 16-C , 19-C ) :   0.9450 B( 16-C , 75-H ) :   0.9705 
B( 19-C , 20-O ) :   1.3905 B( 19-C , 21-O ) :   1.5878 B( 20-O , 45-Fe) :   0.5005 
B( 21-O , 44-Fe) :   0.3360 B( 22-C , 23-N ) :   1.1452 B( 22-C , 28-C ) :   1.6347 
B( 22-C , 76-H ) :   0.9418 B( 23-N , 24-H ) :   0.9055 B( 23-N , 25-C ) :   1.3101 
B( 25-C , 26-H ) :   0.9378 B( 25-C , 27-N ) :   1.4524 B( 27-N , 28-C ) :   1.2168 
B( 27-N , 45-Fe) :   0.4229 B( 28-C , 29-H ) :   0.9601 B( 30-C , 31-N ) :   1.1512 
B( 30-C , 36-C ) :   1.6525 B( 30-C , 77-H ) :   0.9358 B( 31-N , 32-H ) :   0.9062 
B( 31-N , 33-C ) :   1.3020 B( 33-C , 34-H ) :   0.9409 B( 33-C , 35-N ) :   1.4578 
B( 35-N , 36-C ) :   1.1830 B( 35-N , 45-Fe) :   0.4687 B( 36-C , 37-H ) :   0.9170 
B( 38-C , 39-H ) :   0.9464 B( 38-C , 40-H ) :   0.9810 B( 38-C , 41-C ) :   0.9657 
B( 38-C , 78-H ) :   0.9704 B( 41-C , 42-O ) :   1.4591 B( 41-C , 43-O ) :   1.6208 
B( 42-O , 44-Fe) :   0.4574 B( 43-O , 47-H ) :   0.1696 B( 44-Fe, 46-O ) :   0.4211 
B( 44-Fe, 71-O ) :   0.5168 B( 44-Fe, 72-O ) :   0.4253 B( 45-Fe, 46-O ) :   0.5025 
B( 45-Fe, 54-O ) :   0.9446 B( 45-Fe, 59-O ) :   0.2687 B( 46-O , 47-H ) :   0.7459 
B( 48-C , 49-C ) :   0.8547 B( 48-C , 53-C ) :   0.9341 B( 48-C , 54-O ) :   0.8688 
B( 48-C , 55-O ) :  -0.1416 B( 48-C , 60-H ) :   0.9541 B( 49-C , 50-C ) :   0.9038 
B( 49-C , 55-O ) :   1.2092 B( 49-C , 61-H ) :   0.9647 B( 50-C , 51-C ) :   0.9291 
B( 50-C , 56-O ) :   1.0818 B( 50-C , 62-H ) :   0.9669 B( 51-C , 52-C ) :   0.9556 
B( 51-C , 57-O ) :   1.0438 B( 51-C , 63-H ) :   0.9669 B( 52-C , 53-C ) :   0.9331 
B( 52-C , 58-O ) :   1.0305 B( 52-C , 64-H ) :   0.9741 B( 53-C , 59-O ) :   0.7644 
B( 53-C , 65-H ) :   0.9647 B( 55-O , 66-H ) :   0.8876 B( 56-O , 67-H ) :   0.8894 
B( 57-O , 68-H ) :   0.8939 B( 58-O , 69-H ) :   0.8851 B( 59-O , 70-H ) :   0.8531 
B( 71-O , 72-O ) :   1.3078 

-------
TIMINGS
-------

Total SCF time: 0 days 5 hours 47 min 41 sec 

Total time                  ....   20861.829 sec
Sum of individual times     ....   21314.663 sec  (102.2%)

Fock matrix formation       ....   21023.788 sec  (100.8%)
  XC integration            ....     385.062 sec  (  1.8% of F)
    Basis function eval.    ....      54.713 sec  ( 14.2% of XC)
    Density eval.           ....     215.662 sec  ( 56.0% of XC)
    XC-Functional eval.     ....       5.249 sec  (  1.4% of XC)
    XC-Potential eval.      ....      80.697 sec  ( 21.0% of XC)
Diagonalization             ....     131.495 sec  (  0.6%)
Density matrix formation    ....       9.106 sec  (  0.0%)
Population analysis         ....       1.701 sec  (  0.0%)
Initial guess               ....       3.532 sec  (  0.0%)
Orbital Transformation      ....       0.000 sec  (  0.0%)
Orbital Orthonormalization  ....       3.148 sec  (  0.0%)
DIIS solution               ....     138.913 sec  (  0.7%)
Grid generation             ....       6.127 sec  (  0.0%)
--------------------------
UHF CORRESPONDING ORBITALS
--------------------------
Transforming orbitals                         ... done
Choosing virtual orbitals in the orth. comp.  ... done

                ***UHF Corresponding Orbitals were saved in /scratch/RC2-flipspin_670/RC2-flipspin.uco***


Now the overlap between the corresponding orbitals will be plotted
Since there are an equal number of alpha and beta orbitals each orbital in the
alpha set is matched by an orbital in the beta set. If all overlaps are close to
one you have a normal UHF solution with some spin polarization
If you have a broken symmetry solution there will be overlaps that are
significantly smaller than one. These orbitals are the non-orthogonal magnetic
orbitals of the broken symmetry UHF solution.

----------------------
 Orbital    Overlap(*)
----------------------
   0:      1.00000
   1:      1.00000
   2:      1.00000
   3:      1.00000
   4:      1.00000
   5:      1.00000
   6:      1.00000
   7:      1.00000
   8:      1.00000
   9:      1.00000
  10:      1.00000
  11:      1.00000
  12:      1.00000
  13:      1.00000
  14:      1.00000
  15:      1.00000
  16:      1.00000
  17:      1.00000
  18:      1.00000
  19:      1.00000
  20:      1.00000
  21:      1.00000
  22:      1.00000
  23:      1.00000
  24:      1.00000
  25:      1.00000
  26:      1.00000
  27:      1.00000
  28:      1.00000
  29:      1.00000
  30:      1.00000
  31:      1.00000
  32:      1.00000
  33:      1.00000
  34:      1.00000
  35:      1.00000
  36:      1.00000
  37:      1.00000
  38:      1.00000
  39:      1.00000
  40:      1.00000
  41:      1.00000
  42:      1.00000
  43:      1.00000
  44:      1.00000
  45:      1.00000
  46:      1.00000
  47:      1.00000
  48:      1.00000
  49:      1.00000
  50:      1.00000
  51:      1.00000
  52:      1.00000
  53:      1.00000
  54:      1.00000
  55:      1.00000
  56:      1.00000
  57:      1.00000
  58:      1.00000
  59:      1.00000
  60:      1.00000
  61:      1.00000
  62:      1.00000
  63:      1.00000
  64:      1.00000
  65:      1.00000
  66:      1.00000
  67:      1.00000
  68:      1.00000
  69:      1.00000
  70:      1.00000
  71:      1.00000
  72:      1.00000
  73:      1.00000
  74:      1.00000
  75:      1.00000
  76:      1.00000
  77:      1.00000
  78:      1.00000
  79:      1.00000
  80:      1.00000
  81:      1.00000
  82:      1.00000
  83:      1.00000
  84:      1.00000
  85:      1.00000
  86:      1.00000
  87:      1.00000
  88:      1.00000
  89:      1.00000
  90:      1.00000
  91:      1.00000
  92:      1.00000
  93:      1.00000
  94:      1.00000
  95:      1.00000
  96:      1.00000
  97:      1.00000
  98:      1.00000
  99:      1.00000
 100:      1.00000
 101:      1.00000
 102:      1.00000
 103:      1.00000
 104:      1.00000
 105:      1.00000
 106:      1.00000
 107:      1.00000
 108:      1.00000
 109:      1.00000
 110:      1.00000
 111:      1.00000
 112:      1.00000
 113:      1.00000
 114:      1.00000
 115:      1.00000
 116:      1.00000
 117:      1.00000
 118:      1.00000
 119:      1.00000
 120:      1.00000
 121:      1.00000
 122:      1.00000
 123:      1.00000
 124:      1.00000
 125:      1.00000
 126:      1.00000
 127:      1.00000
 128:      1.00000
 129:      1.00000
 130:      1.00000
 131:      1.00000
 132:      1.00000
 133:      1.00000
 134:      1.00000
 135:      1.00000
 136:      1.00000
 137:      1.00000
 138:      1.00000
 139:      1.00000
 140:      1.00000
 141:      1.00000
 142:      1.00000
 143:      1.00000
 144:      0.99999
 145:      0.99999
 146:      0.99999
 147:      0.99999
 148:      0.99999
 149:      0.99999
 150:      0.99999
 151:      0.99999
 152:      0.99998
 153:      0.99998
 154:      0.99998
 155:      0.99997
 156:      0.99997
 157:      0.99997
 158:      0.99996
 159:      0.99996
 160:      0.99994
 161:      0.99993
 162:      0.99992
 163:      0.99991
 164:      0.99991
 165:      0.99991
 166:      0.99990
 167:      0.99989
 168:      0.99987
 169:      0.99986
 170:      0.99986
 171:      0.99983
 172:      0.99982
 173:      0.99977
 174:      0.99972
 175:      0.99965
 176:      0.99963
 177:      0.99959
 178:      0.99942
 179:      0.99896
 180:      0.99871
 181:      0.99827
 182:      0.99715
 183:      0.18930
 184:      0.12266
 185:      0.07403
 186:      0.01890
 187:      0.00941
 188:     -0.00000
(*)  the overlap is weighted by the product of occupation numbers
     NOTE: the whole analysis is not valid for fractional occupations

------------------------------------------
BROKEN SYMMETRY MAGNETIC COUPLING ANALYSIS
------------------------------------------

S(High-Spin)      =   5.5    
<S**2>(High-Spin) =  35.7779    
<S**2>(BrokenSym) =   5.7150    
E(High-Spin)      = -4801.662069 Eh
E(BrokenSym)      = -4801.657165 Eh
E(High-Spin)-E(BrokenSym)= -0.1335 eV  -1076.345 cm**-1 (FERROMAGNETIC coupling)

          ---------------------------------------------------------
          | Spin-Hamiltonian Analysis based on H(HDvV)= -2J*SA*SB |
    -------                                                       -----------
    | J(1) =      35.58 cm**-1    (from -(E[HS]-E[BS])/Smax**2)             |
    | J(2) =      30.11 cm**-1    (from -(E[HS]-E[BS])/(Smax*(Smax+1))      |
    | J(3) =      35.80 cm**-1    (from -(E[HS]-E[BS])/(<S**2>HS-<S**2>BS)) |
    -------------------------------------------------------------------------

  J(1): (a) A.P. Ginsberg J. Am. Chem. Soc. 102 (1980), 111
        (b) L. Noodleman J. Chem. Phys. 74 (1981), 5737
        (c) L. Noodleman E.R. Davidson Chem. Phys. 109 (1985), 131
  J(2)  (d) A. Bencini D. Gatteschi J. Am. Chem. Soc. 108 (1980), 5763
  J(3)  (e) K. Yamaguchi Y. Takahara T. Fueno in: V.H. Smith (Ed.)
            Applied Quantum Chemistry. Reidel, Dordrecht (1986), pp 155
        (f) T.Soda et al. Chem. Phys. Lett., 319, (2000), 223

-------
TIMINGS
-------

Total SCF time: 0 days 5 hours 56 min 4 sec 

Total time                  ....   21364.361 sec
Sum of individual times     ....   20875.660 sec  ( 97.7%)

Fock matrix formation       ....       0.000 sec  (  0.0%)
Diagonalization             ....       0.000 sec  (  0.0%)
Density matrix formation    ....       0.000 sec  (  0.0%)
Population analysis         ....   20875.660 sec  ( 97.7%)
Initial guess               ....       0.000 sec  (  0.0%)
Orbital Transformation      ....       0.000 sec  (  0.0%)
Orbital Orthonormalization  ....       0.000 sec  (  0.0%)
DIIS solution               ....       0.000 sec  (  0.0%)
Grid generation             ....       0.000 sec  (  0.0%)

Maximum memory used throughout the entire SCF-calculation: 570.7 MB

-------------------------   --------------------
FINAL SINGLE POINT ENERGY     -4801.657164500371
-------------------------   --------------------


                            ***************************************
                            *     ORCA property calculations      *
                            ***************************************

                                    ---------------------
                                    Active property flags
                                    ---------------------
   (+) Dipole Moment


------------------------------------------------------------------------------
                       ORCA ELECTRIC PROPERTIES CALCULATION
------------------------------------------------------------------------------

Dipole Moment Calculation                       ... on
Quadrupole Moment Calculation                   ... off
Polarizability Calculation                      ... off
GBWName                                         ... /scratch/RC2-flipspin_670/RC2-flipspin.gbw
Electron density file                           ... /scratch/RC2-flipspin_670/RC2-flipspin.scfp
The origin for moment calculation is the CENTER OF MASS  = (80.282014, 89.286797 72.193302)

-------------
DIPOLE MOMENT
-------------
                                X             Y             Z
Electronic contribution:     -6.99648       6.67796      -6.25886
Nuclear contribution   :      2.82395      -8.54805       3.28465
                        -----------------------------------------
Total Dipole Moment    :     -4.17253      -1.87010      -2.97420
                        -----------------------------------------
Magnitude (a.u.)       :      5.45465
Magnitude (Debye)      :     13.86461



--------------------
Rotational spectrum 
--------------------
 
Rotational constants in cm-1:     0.002821     0.001898     0.001592 
Rotational constants in MHz :    84.561491    56.909288    47.739255 

 Dipole components along the rotational axes: 
x,y,z [a.u.] :    -2.033719    -4.967301     0.971125 
x,y,z [Debye]:    -5.169303   -12.625876     2.468403 

 
--------------------------------------------------------------------------
WARNING: There was an error initializing an OpenFabrics device.

  Local host:   cnode01
  Local device: mlx5_0
--------------------------------------------------------------------------
[cnode01:206839] 15 more processes have sent help message help-mpi-btl-openib.txt / error in device init
[cnode01:206839] Set MCA parameter "orte_base_help_aggregate" to 0 to see all help / error messages

Timings for individual modules:

Sum of individual times         ...    21373.858 sec (= 356.231 min)
GTO integral calculation        ...        3.055 sec (=   0.051 min)   0.0 %
SCF iterations                  ...    21370.803 sec (= 356.180 min) 100.0 %
                             ****ORCA TERMINATED NORMALLY****
TOTAL RUN TIME: 0 days 5 hours 56 minutes 15 seconds 197 msec

Sender: Unischeduler System <lcz@mgt01>
Subject: Job 133130: <#!/bin/bash
#BSUB -J intel
#BSUB -o RC2-flipspin.out
#BSUB -n 16
#BSUB -q cqueue
export LD_LIBRARY_PATH=/apps/software/openmpi-4.1.1/lib:/apps/software/orca_5_0_0:$LD_LIBRARY_PATH
export PATH=/apps/software/openmpi-4.1.1/bin:/apps/software/orca_5_0_0:$PATH
mkdir /scratch/RC2-flipspin_670
scp $USER@mgt01:/apps/users/lcz/newexe8/exe8/task2/RC2/NoTrah/RC2-flipspin.inp /scratch/RC2-flipspin_670
scp $USER@mgt01:/apps/users/lcz/newexe8/exe8/task2/RC2/NoTrah/RC2-highspin.gbw /scratch/RC2-flipspin_670
/apps/software/orca_5_0_0/orca /scratch/RC2-flipspin_670/RC2-flipspin.inp >& RC2-flipspin.out
scp /scratch/RC2-flipspin_670/*.gbw $USER@mgt01:/apps/users/lcz/newexe8/exe8/task2/RC2/NoTrah
scp /scratch/RC2-flipspin_670/*.xyz $USER@mgt01:/apps/users/lcz/newexe8/exe8/task2/RC2/NoTrah
scp /scratch/RC2-flipspin_670/*.trj $USER@mgt01:/apps/users/lcz/newexe8/exe8/task2/RC2/NoTrah> Exited

Job <#!/bin/bash
#BSUB -J intel
#BSUB -o RC2-flipspin.out
#BSUB -n 16
#BSUB -q cqueue
export LD_LIBRARY_PATH=/apps/software/openmpi-4.1.1/lib:/apps/software/orca_5_0_0:$LD_LIBRARY_PATH
export PATH=/apps/software/openmpi-4.1.1/bin:/apps/software/orca_5_0_0:$PATH
mkdir /scratch/RC2-flipspin_670
scp $USER@mgt01:/apps/users/lcz/newexe8/exe8/task2/RC2/NoTrah/RC2-flipspin.inp /scratch/RC2-flipspin_670
scp $USER@mgt01:/apps/users/lcz/newexe8/exe8/task2/RC2/NoTrah/RC2-highspin.gbw /scratch/RC2-flipspin_670
/apps/software/orca_5_0_0/orca /scratch/RC2-flipspin_670/RC2-flipspin.inp >& RC2-flipspin.out
scp /scratch/RC2-flipspin_670/*.gbw $USER@mgt01:/apps/users/lcz/newexe8/exe8/task2/RC2/NoTrah
scp /scratch/RC2-flipspin_670/*.xyz $USER@mgt01:/apps/users/lcz/newexe8/exe8/task2/RC2/NoTrah
scp /scratch/RC2-flipspin_670/*.trj $USER@mgt01:/apps/users/lcz/newexe8/exe8/task2/RC2/NoTrah> was submitted from host <mgt01> by user <lcz>.
Job was executed on host(s) <16*cnode01>, in queue <cqueue>, as user <lcz>.
</apps/users/lcz> was used as the home directory.
</apps/users/lcz/newexe8/exe8/task2/RC2/NoTrah> was used as the working directory.
Started at 2022-05-18 22:08:19
Results reported at 2022-05-19 04:04:37

Your job looked like:

------------------------------------------------------------
# User input
#!/bin/bash
#BSUB -J intel
#BSUB -o RC2-flipspin.out
#BSUB -n 16
#BSUB -q cqueue
export LD_LIBRARY_PATH=/apps/software/openmpi-4.1.1/lib:/apps/software/orca_5_0_0:$LD_LIBRARY_PATH
export PATH=/apps/software/openmpi-4.1.1/bin:/apps/software/orca_5_0_0:$PATH
mkdir /scratch/RC2-flipspin_670
scp $USER@mgt01:/apps/users/lcz/newexe8/exe8/task2/RC2/NoTrah/RC2-flipspin.inp /scratch/RC2-flipspin_670
scp $USER@mgt01:/apps/users/lcz/newexe8/exe8/task2/RC2/NoTrah/RC2-highspin.gbw /scratch/RC2-flipspin_670
/apps/software/orca_5_0_0/orca /scratch/RC2-flipspin_670/RC2-flipspin.inp >& RC2-flipspin.out
scp /scratch/RC2-flipspin_670/*.gbw $USER@mgt01:/apps/users/lcz/newexe8/exe8/task2/RC2/NoTrah
scp /scratch/RC2-flipspin_670/*.xyz $USER@mgt01:/apps/users/lcz/newexe8/exe8/task2/RC2/NoTrah
scp /scratch/RC2-flipspin_670/*.trj $USER@mgt01:/apps/users/lcz/newexe8/exe8/task2/RC2/NoTrah
------------------------------------------------------------

Exited with exit code 1.

Resource usage summary:

    CPU time   :       341234.27 sec.
    Max Memory :             11929 MB
    Max Processes  :              21


The output (if any) follows:

/scratch/RC2-flipspin_670/*.xyz: No such file or directory
/scratch/RC2-flipspin_670/*.trj: No such file or directory
