[Molden Format]
[N_ATOMS]
           19
[Atoms]  AU
Fe    1   26      -0.000272        0.000191       -0.000032
O     2    8       1.773088       -2.836754        1.792887
H     3    1       2.355630       -4.254928        0.768061
O     4    8       0.184755        2.379520        2.951405
H     5    1      -0.505332        2.018231        4.619702
O     6    8      -0.184219       -2.380438       -2.950324
H     7    1       0.507345       -2.021028       -4.618411
O     8    8      -1.772817        2.837516       -1.793184
H     9    1      -2.357245        4.254605       -0.767918
O    10    8      -3.206001       -1.668002        1.161061
H    11    1      -3.060515       -2.980189        2.448680
O    12    8       3.205716        1.667830       -1.161625
H    13    1       3.060058        2.982632       -2.446536
H    14    1      -4.782920       -0.773571        1.482553
H    15    1       1.768941        3.287445        3.210201
H    16    1       4.782019        0.773275       -1.485691
H    17    1       3.009930       -2.601345        3.136299
H    18    1      -1.767283       -3.290197       -3.209416
H    19    1      -3.007735        2.602739       -3.138462
[5D7F9G]
[GTO]
    1
    s    6
   0.609236406E+05   0.175522431E-02
   0.914788940E+04   0.134490232E-01
   0.208135059E+04   0.666788746E-01
   0.587559771E+03   0.231763486E+00
   0.191090440E+03   0.469455503E+00
   0.657327301E+02   0.359682494E+00
    s    3
   0.127258919E+03  -0.107234318E+00
   0.148309130E+02   0.629716163E+00
   0.606533074E+01   0.444723179E+00
    s    3
   0.104499437E+02  -0.216942892E+00
   0.172452280E+01   0.694578674E+00
   0.717721770E+00   0.432983089E+00
    s    1
   0.914498300E-01   0.100000000E+01
    s    1
   0.337066900E-01   0.100000000E+01
    p    5
   0.773437510E+03   0.914405298E-02
   0.182151497E+03   0.678875772E-01
   0.575472728E+02   0.261679789E+00
   0.206149889E+02   0.510880401E+00
   0.763485579E+01   0.332354756E+00
    p    3
   0.387193280E+01   0.331938591E+00
   0.149247241E+01   0.555366656E+00
   0.560612850E+00   0.231060342E+00
    p    1
   0.134915000E+00   0.100000000E+01
    d    4
   0.389681334E+02   0.333359386E-01
   0.108000671E+02   0.177662125E+00
   0.361364580E+01   0.441281782E+00
   0.121299679E+01   0.570892005E+00
    d    1
   0.365243930E+00   0.100000000E+01
    f    1
   0.159800000E+01   0.100000000E+01
 
    2
    s    5
   0.226617678E+04  -0.538935040E-02
   0.340870102E+03  -0.402347214E-01
   0.773631352E+02  -0.180081842E+00
   0.214796449E+02  -0.468288577E+00
   0.665894331E+01  -0.446926172E+00
    s    1
   0.809759760E+00   0.100000000E+01
    s    1
   0.255307720E+00   0.100000000E+01
    p    3
   0.177215043E+02   0.626302488E-01
   0.386355054E+01   0.333311385E+00
   0.104809209E+01   0.741486383E+00
    p    1
   0.276415440E+00   0.100000000E+01
    d    1
   0.120000000E+01   0.100000000E+01
 
    3
    s    3
   0.130107010E+02   0.334854848E-01
   0.196225720E+01   0.234721871E+00
   0.444537960E+00   0.813770285E+00
    s    1
   0.121949620E+00   0.100000000E+01
    p    1
   0.800000000E+00   0.100000000E+01
 
    4
    s    5
   0.226617678E+04  -0.538935040E-02
   0.340870102E+03  -0.402347214E-01
   0.773631352E+02  -0.180081842E+00
   0.214796449E+02  -0.468288577E+00
   0.665894331E+01  -0.446926172E+00
    s    1
   0.809759760E+00   0.100000000E+01
    s    1
   0.255307720E+00   0.100000000E+01
    p    3
   0.177215043E+02   0.626302488E-01
   0.386355054E+01   0.333311385E+00
   0.104809209E+01   0.741486383E+00
    p    1
   0.276415440E+00   0.100000000E+01
    d    1
   0.120000000E+01   0.100000000E+01
 
    5
    s    3
   0.130107010E+02   0.334854848E-01
   0.196225720E+01   0.234721871E+00
   0.444537960E+00   0.813770285E+00
    s    1
   0.121949620E+00   0.100000000E+01
    p    1
   0.800000000E+00   0.100000000E+01
 
    6
    s    5
   0.226617678E+04  -0.538935040E-02
   0.340870102E+03  -0.402347214E-01
   0.773631352E+02  -0.180081842E+00
   0.214796449E+02  -0.468288577E+00
   0.665894331E+01  -0.446926172E+00
    s    1
   0.809759760E+00   0.100000000E+01
    s    1
   0.255307720E+00   0.100000000E+01
    p    3
   0.177215043E+02   0.626302488E-01
   0.386355054E+01   0.333311385E+00
   0.104809209E+01   0.741486383E+00
    p    1
   0.276415440E+00   0.100000000E+01
    d    1
   0.120000000E+01   0.100000000E+01
 
    7
    s    3
   0.130107010E+02   0.334854848E-01
   0.196225720E+01   0.234721871E+00
   0.444537960E+00   0.813770285E+00
    s    1
   0.121949620E+00   0.100000000E+01
    p    1
   0.800000000E+00   0.100000000E+01
 
    8
    s    5
   0.226617678E+04  -0.538935040E-02
   0.340870102E+03  -0.402347214E-01
   0.773631352E+02  -0.180081842E+00
   0.214796449E+02  -0.468288577E+00
   0.665894331E+01  -0.446926172E+00
    s    1
   0.809759760E+00   0.100000000E+01
    s    1
   0.255307720E+00   0.100000000E+01
    p    3
   0.177215043E+02   0.626302488E-01
   0.386355054E+01   0.333311385E+00
   0.104809209E+01   0.741486383E+00
    p    1
   0.276415440E+00   0.100000000E+01
    d    1
   0.120000000E+01   0.100000000E+01
 
    9
    s    3
   0.130107010E+02   0.334854848E-01
   0.196225720E+01   0.234721871E+00
   0.444537960E+00   0.813770285E+00
    s    1
   0.121949620E+00   0.100000000E+01
    p    1
   0.800000000E+00   0.100000000E+01
 
   10
    s    5
   0.226617678E+04  -0.538935040E-02
   0.340870102E+03  -0.402347214E-01
   0.773631352E+02  -0.180081842E+00
   0.214796449E+02  -0.468288577E+00
   0.665894331E+01  -0.446926172E+00
    s    1
   0.809759760E+00   0.100000000E+01
    s    1
   0.255307720E+00   0.100000000E+01
    p    3
   0.177215043E+02   0.626302488E-01
   0.386355054E+01   0.333311385E+00
   0.104809209E+01   0.741486383E+00
    p    1
   0.276415440E+00   0.100000000E+01
    d    1
   0.120000000E+01   0.100000000E+01
 
   11
    s    3
   0.130107010E+02   0.334854848E-01
   0.196225720E+01   0.234721871E+00
   0.444537960E+00   0.813770285E+00
    s    1
   0.121949620E+00   0.100000000E+01
    p    1
   0.800000000E+00   0.100000000E+01
 
   12
    s    5
   0.226617678E+04  -0.538935040E-02
   0.340870102E+03  -0.402347214E-01
   0.773631352E+02  -0.180081842E+00
   0.214796449E+02  -0.468288577E+00
   0.665894331E+01  -0.446926172E+00
    s    1
   0.809759760E+00   0.100000000E+01
    s    1
   0.255307720E+00   0.100000000E+01
    p    3
   0.177215043E+02   0.626302488E-01
   0.386355054E+01   0.333311385E+00
   0.104809209E+01   0.741486383E+00
    p    1
   0.276415440E+00   0.100000000E+01
    d    1
   0.120000000E+01   0.100000000E+01
 
   13
    s    3
   0.130107010E+02   0.334854848E-01
   0.196225720E+01   0.234721871E+00
   0.444537960E+00   0.813770285E+00
    s    1
   0.121949620E+00   0.100000000E+01
    p    1
   0.800000000E+00   0.100000000E+01
 
   14
    s    3
   0.130107010E+02   0.334854848E-01
   0.196225720E+01   0.234721871E+00
   0.444537960E+00   0.813770285E+00
    s    1
   0.121949620E+00   0.100000000E+01
    p    1
   0.800000000E+00   0.100000000E+01
 
   15
    s    3
   0.130107010E+02   0.334854848E-01
   0.196225720E+01   0.234721871E+00
   0.444537960E+00   0.813770285E+00
    s    1
   0.121949620E+00   0.100000000E+01
    p    1
   0.800000000E+00   0.100000000E+01
 
   16
    s    3
   0.130107010E+02   0.334854848E-01
   0.196225720E+01   0.234721871E+00
   0.444537960E+00   0.813770285E+00
    s    1
   0.121949620E+00   0.100000000E+01
    p    1
   0.800000000E+00   0.100000000E+01
 
   17
    s    3
   0.130107010E+02   0.334854848E-01
   0.196225720E+01   0.234721871E+00
   0.444537960E+00   0.813770285E+00
    s    1
   0.121949620E+00   0.100000000E+01
    p    1
   0.800000000E+00   0.100000000E+01
 
   18
    s    3
   0.130107010E+02   0.334854848E-01
   0.196225720E+01   0.234721871E+00
   0.444537960E+00   0.813770285E+00
    s    1
   0.121949620E+00   0.100000000E+01
    p    1
   0.800000000E+00   0.100000000E+01
 
   19
    s    3
   0.130107010E+02   0.334854848E-01
   0.196225720E+01   0.234721871E+00
   0.444537960E+00   0.813770285E+00
    s    1
   0.121949620E+00   0.100000000E+01
    p    1
   0.800000000E+00   0.100000000E+01
 
[MO]
 Sym= A   
 Ene=      -261.568297
 Spin= Alpha
 Occup=       1.000000
   1        0.995425495
   2        0.014668119
   3       -0.003750085
   4        0.004918761
   5       -0.000486409
   6        0.000000037
   7       -0.000000025
   8        0.000000011
   9       -0.000000138
  10        0.000000105
  11       -0.000000042
  12        0.000001166
  13       -0.000001150
  14        0.000000273
  15        0.000018885
  16       -0.000000015
  17       -0.000000017
  18        0.000029233
  19       -0.000014522
  20       -0.000084097
  21        0.000000078
  22        0.000000146
  23       -0.000130281
  24        0.000064686
  25        0.000000017
  26        0.000000017
  27        0.000000010
  28        0.000000016
  29       -0.000000008
  30       -0.000000011
  31       -0.000000002
  32        0.000040816
  33        0.000452308
  34       -0.001232184
  35       -0.000057876
  36        0.000106521
  37       -0.000054123
  38        0.000322965
  39       -0.000615076
  40        0.000340283
  41       -0.000004397
  42       -0.000036858
  43        0.000018144
  44        0.000016798
  45        0.000028009
  46        0.000031476
  47       -0.000110305
  48       -0.000016108
  49        0.000041101
  50       -0.000044152
  51        0.000040800
  52        0.000452116
  53       -0.001231416
  54       -0.000014382
  55       -0.000089607
  56       -0.000096826
  57        0.000054817
  58        0.000526496
  59        0.000563553
  60       -0.000027723
  61        0.000016238
  62       -0.000037590
  63        0.000010702
  64       -0.000014576
  65        0.000068186
  66       -0.000123679
  67       -0.000008035
  68       -0.000057293
  69       -0.000039900
  70        0.000040802
  71        0.000452124
  72       -0.001231510
  73        0.000014323
  74        0.000089688
  75        0.000096747
  76       -0.000054999
  77       -0.000527022
  78       -0.000563527
  79       -0.000027744
  80        0.000016277
  81       -0.000037600
  82        0.000010714
  83       -0.000014550
  84        0.000068154
  85       -0.000123707
  86        0.000008097
  87        0.000057385
  88        0.000039898
  89        0.000040786
  90        0.000451888
  91       -0.001230530
  92        0.000057794
  93       -0.000106474
  94        0.000054099
  95       -0.000322582
  96        0.000614608
  97       -0.000339892
  98       -0.000004444
  99       -0.000036787
 100        0.000018128
 101        0.000016805
 102        0.000028015
 103        0.000031421
 104       -0.000110398
 105        0.000016019
 106       -0.000041032
 107        0.000044082
 108        0.000040794
 109        0.000452039
 110       -0.001231202
 111        0.000105546
 112        0.000068117
 113       -0.000042775
 114       -0.000628029
 115       -0.000391223
 116        0.000223734
 117        0.000032130
 118        0.000020509
 119        0.000019502
 120       -0.000027446
 121       -0.000013504
 122        0.000031808
 123       -0.000110517
 124        0.000057576
 125        0.000023851
 126        0.000000323
 127        0.000040811
 128        0.000452158
 129       -0.001231412
 130       -0.000105551
 131       -0.000068160
 132        0.000042838
 133        0.000628005
 134        0.000391737
 135       -0.000224220
 136        0.000032188
 137        0.000020584
 138        0.000019410
 139       -0.000027419
 140       -0.000013476
 141        0.000031400
 142       -0.000110472
 143       -0.000057698
 144       -0.000023742
 145       -0.000000390
 146        0.000068070
 147       -0.000123580
 148        0.000049380
 149        0.000047553
 150       -0.000015364
 151        0.000031603
 152       -0.000110366
 153        0.000016620
 154       -0.000041276
 155       -0.000043696
 156        0.000068152
 157       -0.000123520
 158       -0.000049436
 159       -0.000047599
 160        0.000015450
 161        0.000068349
 162       -0.000123713
 163       -0.000018018
 164        0.000063366
 165       -0.000024619
 166        0.000031188
 167       -0.000110329
 168       -0.000016810
 169        0.000041263
 170        0.000043712
 171        0.000068260
 172       -0.000123753
 173        0.000017943
 174       -0.000063336
 175        0.000024537
 Sym= A   
 Ene=       -32.138126
 Spin= Alpha
 Occup=       1.000000
   1        0.335303888
   2       -1.045125436
   3       -0.015515835
   4        0.007696453
   5       -0.001050256
   6        0.000000258
   7       -0.000000730
   8        0.000000193
   9       -0.000000209
  10        0.000000121
  11       -0.000000060
  12        0.000001814
  13       -0.000001581
  14        0.000000477
  15       -0.000161955
  16       -0.000000005
  17       -0.000000117
  18       -0.000251117
  19        0.000125130
  20       -0.000022158
  21        0.000000870
  22       -0.000000124
  23       -0.000033359
  24        0.000016178
  25        0.000000019
  26        0.000000019
  27        0.000000012
  28        0.000000012
  29       -0.000000012
  30       -0.000000018
  31       -0.000000003
  32        0.000051734
  33        0.000631978
  34       -0.001854981
  35       -0.000065199
  36        0.000131009
  37       -0.000063528
  38        0.000375095
  39       -0.000847290
  40        0.000414034
  41       -0.000004011
  42       -0.000055795
  43        0.000018632
  44        0.000018096
  45        0.000035603
  46        0.000056731
  47       -0.000139070
  48       -0.000002181
  49        0.000047531
  50       -0.000034047
  51        0.000051731
  52        0.000631606
  53       -0.001853458
  54       -0.000017722
  55       -0.000111641
  56       -0.000112540
  57        0.000092165
  58        0.000737253
  59        0.000689670
  60       -0.000043087
  61        0.000023025
  62       -0.000043721
  63        0.000013689
  64       -0.000023917
  65        0.000163648
  66       -0.000128160
  67        0.000005160
  68       -0.000060480
  69       -0.000069838
  70        0.000051730
  71        0.000631596
  72       -0.001853652
  73        0.000017662
  74        0.000111731
  75        0.000112429
  76       -0.000092487
  77       -0.000737780
  78       -0.000689491
  79       -0.000043113
  80        0.000023102
  81       -0.000043748
  82        0.000013680
  83       -0.000023903
  84        0.000163686
  85       -0.000128184
  86       -0.000005113
  87        0.000060615
  88        0.000069861
  89        0.000051688
  90        0.000631335
  91       -0.001852528
  92        0.000065086
  93       -0.000130926
  94        0.000063486
  95       -0.000374595
  96        0.000846520
  97       -0.000413365
  98       -0.000004105
  99       -0.000055708
 100        0.000018609
 101        0.000018106
 102        0.000035614
 103        0.000056670
 104       -0.000139226
 105        0.000002082
 106       -0.000047411
 107        0.000033929
 108        0.000051715
 109        0.000631494
 110       -0.001853151
 111        0.000124763
 112        0.000086411
 113       -0.000049043
 114       -0.000789080
 115       -0.000572795
 116        0.000276806
 117        0.000044496
 118        0.000032599
 119        0.000025223
 120       -0.000035820
 121       -0.000009683
 122        0.000057176
 123       -0.000139429
 124        0.000045213
 125        0.000036395
 126        0.000005702
 127        0.000051740
 128        0.000631715
 129       -0.001853631
 130       -0.000124783
 131       -0.000086483
 132        0.000049139
 133        0.000789108
 134        0.000573638
 135       -0.000277488
 136        0.000044579
 137        0.000032732
 138        0.000025088
 139       -0.000035790
 140       -0.000009660
 141        0.000056542
 142       -0.000139356
 143       -0.000045393
 144       -0.000036256
 145       -0.000005843
 146        0.000163473
 147       -0.000128006
 148        0.000081252
 149        0.000040163
 150       -0.000018550
 151        0.000056899
 152       -0.000139197
 153        0.000011781
 154       -0.000049779
 155       -0.000028081
 156        0.000163658
 157       -0.000127914
 158       -0.000081359
 159       -0.000040232
 160        0.000018743
 161        0.000163839
 162       -0.000128264
 163       -0.000036679
 164        0.000067847
 165       -0.000051339
 166        0.000056401
 167       -0.000139049
 168       -0.000011978
 169        0.000049780
 170        0.000028116
 171        0.000163715
 172       -0.000128285
 173        0.000036545
 174       -0.000067810
 175        0.000051265
 Sym= A   
 Ene=       -27.632926
 Spin= Alpha
 Occup=       1.000000
   1        0.000000089
   2       -0.000000324
   3       -0.000000744
   4        0.000002699
   5        0.000002374
   6       -0.834297259
   7        0.196171396
   8       -0.502505591
   9       -0.015249594
  10        0.003585789
  11       -0.009183165
  12        0.006024991
  13       -0.001418007
  14        0.003494085
  15       -0.000000071
  16       -0.000000005
  17       -0.000000094
  18       -0.000000043
  19       -0.000000009
  20        0.000000297
  21        0.000000086
  22        0.000000374
  23        0.000000175
  24       -0.000000181
  25       -0.000079520
  26       -0.000050887
  27        0.000009918
  28       -0.000109513
  29        0.000009848
  30       -0.000153525
  31        0.000129362
  32        0.000029617
  33        0.000602227
  34       -0.002707611
  35        0.000085095
  36        0.000094132
  37        0.000007897
  38       -0.000442897
  39       -0.001246058
  40       -0.000027568
  41       -0.000004588
  42       -0.000114408
  43        0.000021071
  44        0.000011283
  45       -0.000002511
  46        0.000048501
  47       -0.000147845
  48        0.000177651
  49        0.000044552
  50        0.000061818
  51        0.000008957
  52        0.000286088
  53       -0.001421239
  54        0.000149955
  55       -0.000100800
  56        0.000045526
  57       -0.001157931
  58        0.000512643
  59       -0.000251074
  60        0.000048231
  61        0.000043195
  62       -0.000042278
  63       -0.000005140
  64       -0.000010509
  65        0.000246417
  66       -0.000029578
  67        0.000251457
  68       -0.000020653
  69        0.000018192
  70       -0.000008899
  71       -0.000285155
  72        0.001418215
  73        0.000150042
  74       -0.000100698
  75        0.000045834
  76       -0.001158420
  77        0.000510758
  78       -0.000252914
  79       -0.000048446
  80       -0.000043235
  81        0.000042217
  82        0.000005065
  83        0.000010570
  84       -0.000245567
  85        0.000028657
  86        0.000251396
  87       -0.000020745
  88        0.000018557
  89       -0.000029584
  90       -0.000601817
  91        0.002706213
  92        0.000085242
  93        0.000094113
  94        0.000007903
  95       -0.000443484
  96       -0.001244940
  97       -0.000028174
  98        0.000004893
  99        0.000114342
 100       -0.000021004
 101       -0.000011485
 102        0.000002440
 103       -0.000049157
 104        0.000147227
 105        0.000177622
 106        0.000044676
 107        0.000062247
 108       -0.000020583
 109       -0.000315416
 110        0.001284501
 111        0.000069815
 112       -0.000065020
 113        0.000119766
 114       -0.000245370
 115        0.001166368
 116       -0.001090210
 117       -0.000062680
 118       -0.000103894
 119        0.000045457
 120        0.000038510
 121       -0.000046911
 122        0.000625637
 123       -0.000004438
 124        0.000004703
 125        0.000093080
 126       -0.000118219
 127        0.000020652
 128        0.000315907
 129       -0.001284757
 130        0.000069601
 131       -0.000065089
 132        0.000119927
 133       -0.000243453
 134        0.001167223
 135       -0.001090249
 136        0.000062212
 137        0.000104066
 138       -0.000045619
 139       -0.000038536
 140        0.000046689
 141       -0.000625604
 142        0.000002632
 143        0.000004509
 144        0.000093812
 145       -0.000117805
 146       -0.000607750
 147        0.000266563
 148       -0.000091955
 149        0.000041892
 150        0.000194572
 151        0.000674029
 152       -0.000151379
 153       -0.000120872
 154       -0.000152482
 155        0.000128060
 156        0.000606509
 157       -0.000266989
 158       -0.000091592
 159        0.000041283
 160        0.000194925
 161        0.000852454
 162       -0.000296930
 163       -0.000088489
 164       -0.000038044
 165       -0.000194589
 166       -0.000673801
 167        0.000149675
 168       -0.000120624
 169       -0.000152937
 170        0.000127800
 171       -0.000852266
 172        0.000296183
 173       -0.000087967
 174       -0.000037870
 175       -0.000194904
 Sym= A   
 Ene=       -27.632875
 Spin= Alpha
 Occup=       1.000000
   1       -0.000000001
   2       -0.000000006
   3       -0.000000169
   4        0.000000892
   5       -0.000000781
   6       -0.489110664
   7        0.115249564
   8        0.857050077
   9       -0.008938960
  10        0.002106310
  11        0.015665792
  12        0.003402083
  13       -0.000802123
  14       -0.006186076
  15        0.000000053
  16        0.000000070
  17        0.000000053
  18       -0.000000036
  19        0.000000031
  20       -0.000000330
  21       -0.000000379
  22       -0.000000016
  23        0.000000057
  24       -0.000000322
  25        0.000127427
  26       -0.000038926
  27       -0.000023087
  28        0.000148232
  29       -0.000071246
  30       -0.000081260
  31        0.000099316
  32       -0.000006703
  33       -0.000016620
  34       -0.000080672
  35        0.000106841
  36       -0.000015312
  37       -0.000147369
  38       -0.000748536
  39        0.000677529
  40        0.001116012
  41       -0.000049047
  42        0.000078864
  43       -0.000008715
  44        0.000066039
  45        0.000007914
  46        0.000749971
  47       -0.000088559
  48        0.000022015
  49        0.000154307
  50        0.000120511
  51       -0.000028943
  52       -0.000529162
  53        0.002302499
  54        0.000089184
  55        0.000072886
  56       -0.000039947
  57       -0.000961536
  58       -0.001193188
  59        0.000020794
  60        0.000119411
  61       -0.000049871
  62       -0.000007249
  63       -0.000055901
  64        0.000028309
  65       -0.000842510
  66        0.000325280
  67       -0.000015940
  68       -0.000041487
  69        0.000200478
  70        0.000028937
  71        0.000529214
  72       -0.002303347
  73        0.000089065
  74        0.000073025
  75       -0.000040030
  76       -0.000961234
  77       -0.001193662
  78        0.000021989
  79       -0.000119361
  80        0.000050173
  81        0.000007108
  82        0.000055649
  83       -0.000028247
  84        0.000843113
  85       -0.000324810
  86       -0.000016396
  87       -0.000041028
  88        0.000200708
  89        0.000006720
  90        0.000017010
  91        0.000078923
  92        0.000106893
  93       -0.000015379
  94       -0.000147349
  95       -0.000748774
  96        0.000677926
  97        0.001116690
  98        0.000048851
  99       -0.000079256
 100        0.000008738
 101       -0.000065922
 102       -0.000008042
 103       -0.000750616
 104        0.000089664
 105        0.000021521
 106        0.000154016
 107        0.000120754
 108       -0.000022236
 109       -0.000512407
 110        0.002382092
 111       -0.000027266
 112       -0.000097445
 113       -0.000126062
 114        0.000376004
 115        0.000829575
 116        0.000759745
 117       -0.000073605
 118        0.000002903
 119       -0.000019335
 120        0.000023913
 121       -0.000000393
 122       -0.000418096
 123        0.000172853
 124        0.000127366
 125       -0.000184198
 126       -0.000058518
 127        0.000022260
 128        0.000512683
 129       -0.002383010
 130       -0.000027349
 131       -0.000097380
 132       -0.000125992
 133        0.000376193
 134        0.000830126
 135        0.000759018
 136        0.000073905
 137       -0.000002661
 138        0.000019095
 139       -0.000023968
 140        0.000000474
 141        0.000416595
 142       -0.000172256
 143        0.000126929
 144       -0.000184093
 145       -0.000059268
 146       -0.000633940
 147        0.000187841
 148       -0.000165227
 149        0.000094467
 150       -0.000147936
 151        0.000333357
 152        0.000083104
 153       -0.000078830
 154        0.000013471
 155       -0.000124900
 156        0.000634750
 157       -0.000187361
 158       -0.000165696
 159        0.000094665
 160       -0.000147304
 161       -0.000207370
 162        0.000137043
 163        0.000198894
 164       -0.000057394
 165       -0.000126570
 166       -0.000333220
 167       -0.000082884
 168       -0.000078598
 169        0.000013347
 170       -0.000125077
 171        0.000208996
 172       -0.000137556
 173        0.000199293
 174       -0.000057252
 175       -0.000126086
 Sym= A   
 Ene=       -27.614826
 Spin= Alpha
 Occup=       1.000000
   1        0.000000194
   2       -0.000000628
   3       -0.000000295
   4        0.000001333
   5        0.000000039
   6        0.227477619
   7        0.966916331
   8       -0.000204146
   9        0.004293543
  10        0.018250449
  11       -0.000003870
  12       -0.002339215
  13       -0.009946620
  14        0.000001772
  15        0.000000057
  16        0.000000047
  17       -0.000000154
  18        0.000000008
  19       -0.000000018
  20       -0.000000459
  21       -0.000000284
  22        0.000000698
  23       -0.000000223
  24        0.000000118
  25       -0.000058073
  26       -0.000038875
  27       -0.000234264
  28        0.000040880
  29       -0.000019776
  30       -0.000198285
  31       -0.000232322
  32        0.000042917
  33        0.000631145
  34       -0.002480454
  35       -0.000158847
  36       -0.000058252
  37       -0.000065995
  38        0.001514631
  39       -0.000067703
  40        0.001410083
  41       -0.000010970
  42        0.000002779
  43       -0.000035514
  44        0.000004203
  45        0.000138792
  46        0.000519970
  47       -0.000315738
  48       -0.000206135
  49        0.000024256
  50        0.000063598
  51       -0.000042944
  52       -0.000631560
  53        0.002482215
  54       -0.000008255
  55       -0.000093449
  56        0.000155420
  57        0.000527347
  58        0.000160702
  59       -0.001995551
  60        0.000028150
  61        0.000042802
  62        0.000084734
  63        0.000084205
  64        0.000061276
  65        0.000571504
  66        0.000131235
  67        0.000058515
  68        0.000026696
  69       -0.000098191
  70        0.000042938
  71        0.000632027
  72       -0.002485492
  73       -0.000008375
  74       -0.000093191
  75        0.000155354
  76        0.000528826
  77        0.000158990
  78       -0.001995079
  79       -0.000028173
  80       -0.000042821
  81       -0.000084805
  82       -0.000084034
  83       -0.000061545
  84       -0.000570685
  85       -0.000131501
  86        0.000058449
  87        0.000026299
  88       -0.000097985
  89       -0.000042926
  90       -0.000631105
  91        0.002479585
  92       -0.000158856
  93       -0.000058287
  94       -0.000066174
  95        0.001514166
  96       -0.000069033
  97        0.001410946
  98        0.000010840
  99       -0.000002873
 100        0.000035314
 101       -0.000004035
 102       -0.000138894
 103       -0.000519278
 104        0.000316753
 105       -0.000206148
 106        0.000023740
 107        0.000063259
 108        0.000042962
 109        0.000631550
 110       -0.002481177
 111        0.000103323
 112       -0.000119771
 113       -0.000089271
 114       -0.001851198
 115        0.000719077
 116        0.000585383
 117       -0.000044712
 118        0.000040212
 119        0.000119904
 120       -0.000050002
 121       -0.000013036
 122        0.000518075
 123       -0.000316940
 124        0.000041429
 125       -0.000034849
 126       -0.000209812
 127       -0.000042941
 128       -0.000631478
 129        0.002481373
 130        0.000103267
 131       -0.000119761
 132       -0.000089282
 133       -0.001850685
 134        0.000721333
 135        0.000585203
 136        0.000044501
 137       -0.000040048
 138       -0.000120243
 139        0.000049611
 140        0.000012927
 141       -0.000520083
 142        0.000316326
 143        0.000041208
 144       -0.000033872
 145       -0.000210197
 146       -0.000571540
 147       -0.000131427
 148       -0.000098603
 149        0.000063774
 150        0.000004497
 151       -0.000519662
 152        0.000316462
 153        0.000148446
 154       -0.000059220
 155        0.000146442
 156        0.000571948
 157        0.000131165
 158       -0.000098652
 159        0.000063611
 160        0.000005068
 161       -0.000572113
 162       -0.000131094
 163        0.000067140
 164        0.000025004
 165        0.000093189
 166        0.000520634
 167       -0.000315999
 168        0.000148553
 169       -0.000058431
 170        0.000146684
 171        0.000572369
 172        0.000130898
 173        0.000066871
 174        0.000025005
 175        0.000093522
 Sym= A   
 Ene=       -20.906490
 Spin= Alpha
 Occup=       1.000000
   1       -0.000064269
   2        0.000113660
   3       -0.001168560
   4        0.006885284
   5       -0.000807159
   6       -0.000048752
   7        0.000038016
   8       -0.000035975
   9        0.000200250
  10       -0.000148661
  11        0.000142930
  12       -0.004158725
  13        0.002595372
  14       -0.002588573