[Molden Format]
[N_ATOMS]
           19
[Atoms]  AU
Fe    1   26      -0.000272        0.000191       -0.000032
O     2    8       1.773088       -2.836754        1.792887
H     3    1       2.355630       -4.254928        0.768061
O     4    8       0.184755        2.379520        2.951405
H     5    1      -0.505332        2.018231        4.619702
O     6    8      -0.184219       -2.380438       -2.950324
H     7    1       0.507345       -2.021028       -4.618411
O     8    8      -1.772817        2.837516       -1.793184
H     9    1      -2.357245        4.254605       -0.767918
O    10    8      -3.206001       -1.668002        1.161061
H    11    1      -3.060515       -2.980189        2.448680
O    12    8       3.205716        1.667830       -1.161625
H    13    1       3.060058        2.982632       -2.446536
H    14    1      -4.782920       -0.773571        1.482553
H    15    1       1.768941        3.287445        3.210201
H    16    1       4.782019        0.773275       -1.485691
H    17    1       3.009930       -2.601345        3.136299
H    18    1      -1.767283       -3.290197       -3.209416
H    19    1      -3.007735        2.602739       -3.138462
[5D7F9G]
[GTO]
    1
    s    6
   0.609236406E+05   0.175522431E-02
   0.914788940E+04   0.134490232E-01
   0.208135059E+04   0.666788746E-01
   0.587559771E+03   0.231763486E+00
   0.191090440E+03   0.469455503E+00
   0.657327301E+02   0.359682494E+00
    s    3
   0.127258919E+03  -0.107234318E+00
   0.148309130E+02   0.629716163E+00
   0.606533074E+01   0.444723179E+00
    s    3
   0.104499437E+02  -0.216942892E+00
   0.172452280E+01   0.694578674E+00
   0.717721770E+00   0.432983089E+00
    s    1
   0.914498300E-01   0.100000000E+01
    s    1
   0.337066900E-01   0.100000000E+01
    p    5
   0.773437510E+03   0.914405298E-02
   0.182151497E+03   0.678875772E-01
   0.575472728E+02   0.261679789E+00
   0.206149889E+02   0.510880401E+00
   0.763485579E+01   0.332354756E+00
    p    3
   0.387193280E+01   0.331938591E+00
   0.149247241E+01   0.555366656E+00
   0.560612850E+00   0.231060342E+00
    p    1
   0.134915000E+00   0.100000000E+01
    d    4
   0.389681334E+02   0.333359386E-01
   0.108000671E+02   0.177662125E+00
   0.361364580E+01   0.441281782E+00
   0.121299679E+01   0.570892005E+00
    d    1
   0.365243930E+00   0.100000000E+01
    f    1
   0.159800000E+01   0.100000000E+01
 
    2
    s    5
   0.226617678E+04  -0.538935040E-02
   0.340870102E+03  -0.402347214E-01
   0.773631352E+02  -0.180081842E+00
   0.214796449E+02  -0.468288577E+00
   0.665894331E+01  -0.446926172E+00
    s    1
   0.809759760E+00   0.100000000E+01
    s    1
   0.255307720E+00   0.100000000E+01
    p    3
   0.177215043E+02   0.626302488E-01
   0.386355054E+01   0.333311385E+00
   0.104809209E+01   0.741486383E+00
    p    1
   0.276415440E+00   0.100000000E+01
    d    1
   0.120000000E+01   0.100000000E+01
 
    3
    s    3
   0.130107010E+02   0.334854848E-01
   0.196225720E+01   0.234721871E+00
   0.444537960E+00   0.813770285E+00
    s    1
   0.121949620E+00   0.100000000E+01
    p    1
   0.800000000E+00   0.100000000E+01
 
    4
    s    5
   0.226617678E+04  -0.538935040E-02
   0.340870102E+03  -0.402347214E-01
   0.773631352E+02  -0.180081842E+00
   0.214796449E+02  -0.468288577E+00
   0.665894331E+01  -0.446926172E+00
    s    1
   0.809759760E+00   0.100000000E+01
    s    1
   0.255307720E+00   0.100000000E+01
    p    3
   0.177215043E+02   0.626302488E-01
   0.386355054E+01   0.333311385E+00
   0.104809209E+01   0.741486383E+00
    p    1
   0.276415440E+00   0.100000000E+01
    d    1
   0.120000000E+01   0.100000000E+01
 
    5
    s    3
   0.130107010E+02   0.334854848E-01
   0.196225720E+01   0.234721871E+00
   0.444537960E+00   0.813770285E+00
    s    1
   0.121949620E+00   0.100000000E+01
    p    1
   0.800000000E+00   0.100000000E+01
 
    6
    s    5
   0.226617678E+04  -0.538935040E-02
   0.340870102E+03  -0.402347214E-01
   0.773631352E+02  -0.180081842E+00
   0.214796449E+02  -0.468288577E+00
   0.665894331E+01  -0.446926172E+00
    s    1
   0.809759760E+00   0.100000000E+01
    s    1
   0.255307720E+00   0.100000000E+01
    p    3
   0.177215043E+02   0.626302488E-01
   0.386355054E+01   0.333311385E+00
   0.104809209E+01   0.741486383E+00
    p    1
   0.276415440E+00   0.100000000E+01
    d    1
   0.120000000E+01   0.100000000E+01
 
    7
    s    3
   0.130107010E+02   0.334854848E-01
   0.196225720E+01   0.234721871E+00
   0.444537960E+00   0.813770285E+00
    s    1
   0.121949620E+00   0.100000000E+01
    p    1
   0.800000000E+00   0.100000000E+01
 
    8
    s    5
   0.226617678E+04  -0.538935040E-02
   0.340870102E+03  -0.402347214E-01
   0.773631352E+02  -0.180081842E+00
   0.214796449E+02  -0.468288577E+00
   0.665894331E+01  -0.446926172E+00
    s    1
   0.809759760E+00   0.100000000E+01
    s    1
   0.255307720E+00   0.100000000E+01
    p    3
   0.177215043E+02   0.626302488E-01
   0.386355054E+01   0.333311385E+00
   0.104809209E+01   0.741486383E+00
    p    1
   0.276415440E+00   0.100000000E+01
    d    1
   0.120000000E+01   0.100000000E+01
 
    9
    s    3
   0.130107010E+02   0.334854848E-01
   0.196225720E+01   0.234721871E+00
   0.444537960E+00   0.813770285E+00
    s    1
   0.121949620E+00   0.100000000E+01
    p    1
   0.800000000E+00   0.100000000E+01
 
   10
    s    5
   0.226617678E+04  -0.538935040E-02
   0.340870102E+03  -0.402347214E-01
   0.773631352E+02  -0.180081842E+00
   0.214796449E+02  -0.468288577E+00
   0.665894331E+01  -0.446926172E+00
    s    1
   0.809759760E+00   0.100000000E+01
    s    1
   0.255307720E+00   0.100000000E+01
    p    3
   0.177215043E+02   0.626302488E-01
   0.386355054E+01   0.333311385E+00
   0.104809209E+01   0.741486383E+00
    p    1
   0.276415440E+00   0.100000000E+01
    d    1
   0.120000000E+01   0.100000000E+01
 
   11
    s    3
   0.130107010E+02   0.334854848E-01
   0.196225720E+01   0.234721871E+00
   0.444537960E+00   0.813770285E+00
    s    1
   0.121949620E+00   0.100000000E+01
    p    1
   0.800000000E+00   0.100000000E+01
 
   12
    s    5
   0.226617678E+04  -0.538935040E-02
   0.340870102E+03  -0.402347214E-01
   0.773631352E+02  -0.180081842E+00
   0.214796449E+02  -0.468288577E+00
   0.665894331E+01  -0.446926172E+00
    s    1
   0.809759760E+00   0.100000000E+01
    s    1
   0.255307720E+00   0.100000000E+01
    p    3
   0.177215043E+02   0.626302488E-01
   0.386355054E+01   0.333311385E+00
   0.104809209E+01   0.741486383E+00
    p    1
   0.276415440E+00   0.100000000E+01
    d    1
   0.120000000E+01   0.100000000E+01
 
   13
    s    3
   0.130107010E+02   0.334854848E-01
   0.196225720E+01   0.234721871E+00
   0.444537960E+00   0.813770285E+00
    s    1
   0.121949620E+00   0.100000000E+01
    p    1
   0.800000000E+00   0.100000000E+01
 
   14
    s    3
   0.130107010E+02   0.334854848E-01
   0.196225720E+01   0.234721871E+00
   0.444537960E+00   0.813770285E+00
    s    1
   0.121949620E+00   0.100000000E+01
    p    1
   0.800000000E+00   0.100000000E+01
 
   15
    s    3
   0.130107010E+02   0.334854848E-01
   0.196225720E+01   0.234721871E+00
   0.444537960E+00   0.813770285E+00
    s    1
   0.121949620E+00   0.100000000E+01
    p    1
   0.800000000E+00   0.100000000E+01
 
   16
    s    3
   0.130107010E+02   0.334854848E-01
   0.196225720E+01   0.234721871E+00
   0.444537960E+00   0.813770285E+00
    s    1
   0.121949620E+00   0.100000000E+01
    p    1
   0.800000000E+00   0.100000000E+01
 
   17
    s    3
   0.130107010E+02   0.334854848E-01
   0.196225720E+01   0.234721871E+00
   0.444537960E+00   0.813770285E+00
    s    1
   0.121949620E+00   0.100000000E+01
    p    1
   0.800000000E+00   0.100000000E+01
 
   18
    s    3
   0.130107010E+02   0.334854848E-01
   0.196225720E+01   0.234721871E+00
   0.444537960E+00   0.813770285E+00
    s    1
   0.121949620E+00   0.100000000E+01
    p    1
   0.800000000E+00   0.100000000E+01
 
   19
    s    3
   0.130107010E+02   0.334854848E-01
   0.196225720E+01   0.234721871E+00
   0.444537960E+00   0.813770285E+00
    s    1
   0.121949620E+00   0.100000000E+01
    p    1
   0.800000000E+00   0.100000000E+01
 
[MO]
 Sym= A   
 Ene=      -261.596609
 Spin= Alpha
 Occup=       2.000000
   1       -0.995425368
   2       -0.014668665
   3        0.003751878
   4       -0.004918317
   5        0.000486813
   6       -0.000000036
   7        0.000000025
   8       -0.000000011
   9        0.000000138
  10       -0.000000105
  11        0.000000042
  12       -0.000001166
  13        0.000001150
  14       -0.000000273
  15       -0.000012858
  16        0.000000028
  17        0.000000008
  18       -0.000019942
  19        0.000009917
  20        0.000086275
  21       -0.000000073
  22       -0.000000147
  23        0.000133627
  24       -0.000066345
  25       -0.000000017
  26       -0.000000017
  27       -0.000000010
  28       -0.000000016
  29        0.000000008
  30        0.000000011
  31        0.000000002
  32       -0.000040800
  33       -0.000452269
  34        0.001232250
  35        0.000057592
  36       -0.000106775
  37        0.000054165
  38       -0.000322999
  39        0.000615010
  40       -0.000340002
  41        0.000004386
  42        0.000036832
  43       -0.000018144
  44       -0.000016841
  45       -0.000027995
  46       -0.000031247
  47        0.000110343
  48        0.000016059
  49       -0.000041101
  50        0.000044165
  51       -0.000040785
  52       -0.000452076
  53        0.001231481
  54        0.000014310
  55        0.000089947
  56        0.000096658
  57       -0.000055048
  58       -0.000526362
  59       -0.000563427
  60        0.000027676
  61       -0.000016234
  62        0.000037598
  63       -0.000010724
  64        0.000014584
  65       -0.000068594
  66        0.000123460
  67        0.000008002
  68        0.000057300
  69        0.000039944
  70       -0.000040787
  71       -0.000452083
  72        0.001231574
  73       -0.000014251
  74       -0.000090028
  75       -0.000096578
  76        0.000055231
  77        0.000526888
  78        0.000563402
  79        0.000027698
  80       -0.000016273
  81        0.000037608
  82       -0.000010736
  83        0.000014559
  84       -0.000068562
  85        0.000123488
  86       -0.000008064
  87       -0.000057392
  88       -0.000039942
  89       -0.000040770
  90       -0.000451848
  91        0.001230597
  92       -0.000057510
  93        0.000106728
  94       -0.000054140
  95        0.000322618
  96       -0.000614541
  97        0.000339611
  98        0.000004433
  99        0.000036761
 100       -0.000018129
 101       -0.000016848
 102       -0.000028001
 103       -0.000031192
 104        0.000110435
 105       -0.000015971
 106        0.000041032
 107       -0.000044095
 108       -0.000040778
 109       -0.000451998
 110        0.001231272
 111       -0.000105545
 112       -0.000068437
 113        0.000042563
 114        0.000627785
 115        0.000391205
 116       -0.000223893
 117       -0.000032138
 118       -0.000020487
 119       -0.000019510
 120        0.000027409
 121        0.000013532
 122       -0.000031581
 123        0.000110554
 124       -0.000057566
 125       -0.000023865
 126       -0.000000370
 127       -0.000040795
 128       -0.000452117
 129        0.001231480
 130        0.000105550
 131        0.000068480
 132       -0.000042626
 133       -0.000627761
 134       -0.000391720
 135        0.000224379
 136       -0.000032196
 137       -0.000020562
 138       -0.000019418
 139        0.000027383
 140        0.000013504
 141       -0.000031173
 142        0.000110509
 143        0.000057688
 144        0.000023755
 145        0.000000438
 146       -0.000068477
 147        0.000123360
 148       -0.000049434
 149       -0.000047540
 150        0.000015357
 151       -0.000031375
 152        0.000110403
 153       -0.000016652
 154        0.000041295
 155        0.000043661
 156       -0.000068560
 157        0.000123300
 158        0.000049489
 159        0.000047586
 160       -0.000015443
 161       -0.000068757
 162        0.000123494
 163        0.000018039
 164       -0.000063370
 165        0.000024670
 166       -0.000030960
 167        0.000110366
 168        0.000016842
 169       -0.000041281
 170       -0.000043677
 171       -0.000068668
 172        0.000123533
 173       -0.000017964
 174        0.000063340
 175       -0.000024587
 Sym= A   
 Ene=       -32.163312
 Spin= Alpha
 Occup=       2.000000
   1        0.335397761
   2       -1.045483265
   3       -0.014659267
   4        0.007697435
   5       -0.000895605
   6        0.000000573
   7       -0.000000827
   8        0.000000056
   9       -0.000000133
  10        0.000000180
  11        0.000000024
  12        0.000001582
  13       -0.000001732
  14        0.000000311
  15        0.002033689
  16        0.000004846
  17       -0.000003335
  18        0.003134040
  19       -0.001552678
  20        0.000777518
  21        0.000002653
  22       -0.000000632
  23        0.001195811
  24       -0.000592914
  25        0.000000018
  26        0.000000019
  27        0.000000013
  28        0.000000016
  29       -0.000000012
  30       -0.000000015
  31       -0.000000000
  32        0.000055795
  33        0.000630885
  34       -0.001792380
  35       -0.000164442
  36        0.000036200
  37       -0.000046406
  38        0.000347784
  39       -0.000854347
  40        0.000498784
  41       -0.000007918
  42       -0.000064813
  43        0.000017949
  44        0.000001818
  45        0.000038543
  46        0.000136275
  47       -0.000122713
  48       -0.000017447
  49        0.000045494
  50       -0.000027822
  51        0.000055757
  52        0.000630621
  53       -0.001791373
  54       -0.000043195
  55        0.000013587
  56       -0.000168970
  57        0.000011010
  58        0.000771432
  59        0.000710807
  60       -0.000059449
  61        0.000024531
  62       -0.000038690
  63        0.000005849
  64       -0.000020126
  65        0.000019260
  66       -0.000200319
  67       -0.000005889
  68       -0.000056488
  69       -0.000054948
  70        0.000055787
  71        0.000630705
  72       -0.001791638
  73        0.000043183
  74       -0.000013350
  75        0.000169105
  76       -0.000011160
  77       -0.000771875
  78       -0.000710433
  79       -0.000059489
  80        0.000024609
  81       -0.000038745
  82        0.000005835
  83       -0.000020120
  84        0.000019289
  85       -0.000200374
  86        0.000005950
  87        0.000056597
  88        0.000054987
  89        0.000055799
  90        0.000630362
  91       -0.001789801
  92        0.000164525
  93       -0.000036068
  94        0.000046480
  95       -0.000347008
  96        0.000853746
  97       -0.000498069
  98       -0.000008011
  99       -0.000064737
 100        0.000017936
 101        0.000001823
 102        0.000038560
 103        0.000136079
 104       -0.000122976
 105        0.000017365
 106       -0.000045351
 107        0.000027737
 108        0.000056040
 109        0.000630960
 110       -0.001789695
 111        0.000120972
 112       -0.000030543
 113       -0.000123390
 114       -0.000851096
 115       -0.000571885
 116        0.000211978
 117        0.000041083
 118        0.000040071
 119        0.000020830
 120       -0.000048186
 121        0.000001676
 122        0.000135676
 123       -0.000123483
 124        0.000045835
 125        0.000030588
 126       -0.000009852
 127        0.000056012
 128        0.000631047
 129       -0.001790290
 130       -0.000120856
 131        0.000030314
 132        0.000123401
 133        0.000851159
 134        0.000572435
 135       -0.000212737
 136        0.000041162
 137        0.000040195
 138        0.000020702
 139       -0.000048144
 140        0.000001704
 141        0.000135320
 142       -0.000123325
 143       -0.000045965
 144       -0.000030516
 145        0.000009720
 146        0.000019137
 147       -0.000200313
 148        0.000062629
 149        0.000043094
 150       -0.000021170
 151        0.000135993
 152       -0.000123031
 153        0.000000803
 154       -0.000041556
 155       -0.000037546
 156        0.000019332
 157       -0.000200176
 158       -0.000062734
 159       -0.000043151
 160        0.000021299
 161        0.000019319
 162       -0.000200540
 163       -0.000030006
 164        0.000064886
 165       -0.000033817
 166        0.000135601
 167       -0.000122895
 168       -0.000000990
 169        0.000041589
 170        0.000037609
 171        0.000019200
 172       -0.000200562
 173        0.000029921
 174       -0.000064840
 175        0.000033721
 Sym= A   
 Ene=       -27.655648
 Spin= Alpha
 Occup=       2.000000
   1       -0.000000045
   2        0.000000165
   3        0.000000353
   4       -0.000001089
   5       -0.000002125
   6        0.181958626
   7       -0.040986789
   8        0.975860667
   9        0.003314867
  10       -0.000746292
  11        0.017770695
  12       -0.001396065
  13        0.000310970
  14       -0.006883732
  15        0.000000103
  16        0.000000041
  17        0.000000115
  18       -0.000000019
  19        0.000000042
  20       -0.000000446
  21       -0.000000323
  22       -0.000000259
  23       -0.000000078
  24       -0.000000118
  25        0.000189241
  26       -0.000047905
  27       -0.000276204
  28        0.000313296
  29        0.000077943
  30        0.000176152
  31        0.000134850
  32       -0.000024175
  33       -0.000404436
  34        0.001703259
  35        0.000024097
  36       -0.000072053
  37       -0.000115824
  38       -0.000268997
  39        0.001319758
  40        0.000845994
  41       -0.000033749
  42        0.000132725
  43       -0.000019657
  44        0.000041484
  45        0.000007627
  46        0.000526425
  47        0.000030287
  48       -0.000099124
  49        0.000084936
  50        0.000050295
  51       -0.000027306
  52       -0.000582096
  53        0.002647161
  54       -0.000031419
  55        0.000119214
  56       -0.000059860
  57        0.000038417
  58       -0.001227103
  59        0.000167464
  60        0.000057082
  61       -0.000065599
  62        0.000022023
  63       -0.000038169
  64        0.000027732
  65       -0.000785074
  66        0.000262335
  67       -0.000174637
  68       -0.000015883
  69        0.000137304
  70        0.000027263
  71        0.000581526
  72       -0.002645822
  73       -0.000031562
  74        0.000119249
  75       -0.000060123
  76        0.000038971
  77       -0.001226240
  78        0.000169545
  79       -0.000056905
  80        0.000065848
  81       -0.000022086
  82        0.000038028
  83       -0.000027725
  84        0.000784965
  85       -0.000261388
  86       -0.000174935
  87       -0.000015482
  88        0.000137235
  89        0.000024167
  90        0.000404461
  91       -0.001703656
  92        0.000024041
  93       -0.000072093
  94       -0.000115812
  95       -0.000268791
  96        0.001319330
  97        0.000846896
  98        0.000033406
  99       -0.000132973
 100        0.000019630
 101       -0.000041264
 102       -0.000007675
 103       -0.000526478
 104       -0.000029062
 105       -0.000099473
 106        0.000084637
 107        0.000050197
 108       -0.000002980
 109       -0.000175050
 110        0.000932562
 111       -0.000065762
 112       -0.000030576
 113       -0.000172812
 114        0.000438633
 115       -0.000139407
 116        0.001273283
 117       -0.000014506
 118        0.000070353
 119       -0.000043047
 120       -0.000006883
 121        0.000030143
 122       -0.000716389
 123        0.000131540
 124        0.000091170
 125       -0.000197028
 126        0.000032708
 127        0.000002954
 128        0.000174934
 129       -0.000933071
 130       -0.000065686
 131       -0.000030485
 132       -0.000172867
 133        0.000437521
 134       -0.000139553
 135        0.001272765
 136        0.000015031
 137       -0.000070284
 138        0.000042975
 139        0.000006859
 140       -0.000029939
 141        0.000715246
 142       -0.000129922
 143        0.000090971
 144       -0.000197423
 145        0.000031882
 146       -0.000076582
 147       -0.000033765
 148       -0.000063364
 149        0.000042647
 150       -0.000236197
 151       -0.000191214
 152        0.000161863
 153        0.000019299
 154        0.000109691
 155       -0.000174643
 156        0.000077992
 157        0.000034398
 158       -0.000063947
 159        0.000043190
 160       -0.000235956
 161       -0.000709183
 162        0.000295703
 163        0.000205305
 164       -0.000018978
 165        0.000032561
 166        0.000191166
 167       -0.000160590
 168        0.000019308
 169        0.000109895
 170       -0.000174604
 171        0.000710273
 172       -0.000295601
 173        0.000205263
 174       -0.000018987
 175        0.000033125
 Sym= A   
 Ene=       -27.655563
 Spin= Alpha
 Occup=       2.000000
   1        0.000000186
   2       -0.000000626
   3       -0.000000677
   4        0.000002594
   5        0.000001258
   6       -0.949664187
   7        0.224598704
   8        0.186507384
   9       -0.017295328
  10        0.004090786
  11        0.003397799
  12        0.006700802
  13       -0.001589734
  14       -0.001428958
  15       -0.000000042
  16        0.000000030
  17       -0.000000041
  18       -0.000000016
  19        0.000000015
  20        0.000000012
  21       -0.000000175
  22        0.000000267
  23        0.000000160
  24       -0.000000340
  25        0.000028894
  26       -0.000113493
  27       -0.000143685
  28       -0.000119371
  29       -0.000335969
  30       -0.000145961
  31        0.000286394
  32        0.000017589
  33        0.000438654
  34       -0.002072687
  35        0.000133425
  36        0.000059670
  37       -0.000090262
  38       -0.000810564
  39       -0.000491770
  40        0.000710269
  41       -0.000035919
  42       -0.000033839
  43        0.000010328
  44        0.000051383
  45        0.000002738
  46        0.000524004
  47       -0.000168887
  48        0.000145834
  49        0.000133571
  50        0.000123103
  51       -0.000012267
  52       -0.000132853
  53        0.000446771
  54        0.000170449
  55       -0.000028455
  56        0.000008009
  57       -0.001485097
  58       -0.000396706
  59       -0.000177074
  60        0.000113271
  61        0.000000352
  62       -0.000036067
  63       -0.000039859
  64        0.000011411
  65       -0.000364157
  66        0.000190149
  67        0.000176606
  68       -0.000041918
  69        0.000143678
  70        0.000012306
  71        0.000133582
  72       -0.000449573
  73        0.000170436
  74       -0.000028289
  75        0.000008187
  76       -0.001485256
  77       -0.000398415
  78       -0.000177661
  79       -0.000113399
  80       -0.000000185
  81        0.000035929
  82        0.000039641
  83       -0.000011327
  84        0.000365179
  85       -0.000190531
  86        0.000176263
  87       -0.000041690
  88        0.000144097
  89       -0.000017554
  90       -0.000438095
  91        0.002070510
  92        0.000133569
  93        0.000059612
  94       -0.000090244
  95       -0.000811161
  96       -0.000490679
  97        0.000710266
  98        0.000036018
  99        0.000033535
 100       -0.000010263
 101       -0.000051457
 102       -0.000002874
 103       -0.000524914
 104        0.000169147
 105        0.000145493
 106        0.000133476
 107        0.000123579
 108       -0.000029653
 109       -0.000568737
 110        0.002508927
 111        0.000035256
 112       -0.000111420
 113        0.000007019
 114        0.000068697
 115        0.001412252
 116       -0.000318483
 117       -0.000094527
 118       -0.000074960
 119        0.000021245
 120        0.000043743
 121       -0.000035266
 122        0.000193609
 123        0.000109679
 124        0.000084807
 125       -0.000050914
 126       -0.000126297
 127        0.000029718
 128        0.000569277
 129       -0.002509706
 130        0.000035045
 131       -0.000111427
 132        0.000007183
 133        0.000070249
 134        0.001413237
 135       -0.000318987
 136        0.000094374
 137        0.000075245
 138       -0.000021524
 139       -0.000043798
 140        0.000035155
 141       -0.000194561
 142       -0.000110632
 143        0.000084379
 144       -0.000050298
 145       -0.000126474
 146       -0.000864226
 147        0.000321298
 148       -0.000176308
 149        0.000091170
 150        0.000048688
 151        0.000716743
 152       -0.000058257
 153       -0.000140700
 154       -0.000104051
 155        0.000014430
 156        0.000863824
 157       -0.000321304
 158       -0.000176339
 159        0.000090846
 160        0.000049360
 161        0.000497664
 162       -0.000132445
 163        0.000063531
 164       -0.000064336
 165       -0.000226743
 166       -0.000716483
 167        0.000057135
 168       -0.000140364
 169       -0.000104469
 170        0.000014121
 171       -0.000496467
 172        0.000131554
 173        0.000064178
 174       -0.000064115
 175       -0.000226662
 Sym= A   
 Ene=       -27.648583
 Spin= Alpha
 Occup=       2.000000
   1        0.000000194
   2       -0.000000629
   3       -0.000000286
   4        0.000001323
   5        0.000000043
   6        0.228271259
   7        0.966816724
   8       -0.001956652
   9        0.004253614
  10        0.018016920
  11       -0.000035987
  12       -0.002338844
  13       -0.009921573
  14        0.000014279
  15        0.000000070
  16        0.000000046
  17       -0.000000160
  18        0.000000015
  19       -0.000000055
  20       -0.000000450
  21       -0.000000289
  22        0.000000684
  23       -0.000000210
  24        0.000000125
  25       -0.000286935
  26        0.000034358
  27       -0.000329182
  28        0.000198631
  29       -0.000099681
  30       -0.000276451
  31       -0.000290457
  32        0.000042876
  33        0.000631546
  34       -0.002480406
  35       -0.000158558
  36       -0.000057999
  37       -0.000065380
  38        0.001514325
  39       -0.000078978
  40        0.001406276
  41       -0.000011056
  42        0.000002029
  43       -0.000034772
  44        0.000004173
  45        0.000138267
  46        0.000515139
  47       -0.000315486
  48       -0.000205374
  49        0.000024499
  50        0.000061374
  51       -0.000042826
  52       -0.000630737
  53        0.002477112
  54       -0.000008239
  55       -0.000093336
  56        0.000154971
  57        0.000524986
  58        0.000153888
  59       -0.001995339
  60        0.000028246
  61        0.000042280
  62        0.000084817
  63        0.000083645
  64        0.000060774
  65        0.000570119
  66        0.000130191
  67        0.000058833
  68        0.000028504
  69       -0.000096995
  70        0.000042820
  71        0.000631196
  72       -0.002480352
  73       -0.000008357
  74       -0.000093080
  75        0.000154906
  76        0.000526457
  77        0.000152179
  78       -0.001994858
  79       -0.000028270
  80       -0.000042299
  81       -0.000084886
  82       -0.000083475
  83       -0.000061040
  84       -0.000569308
  85       -0.000130457
  86        0.000058769
  87        0.000028108
  88       -0.000096792
  89       -0.000042886
  90       -0.000631510
  91        0.002479552
  92       -0.000158567
  93       -0.000058032
  94       -0.000065560
  95        0.001513860
  96       -0.000080298
  97        0.001407143
  98        0.000010928
  99       -0.000002123
 100        0.000034573
 101       -0.000004009
 102       -0.000138370
 103       -0.000514456
 104        0.000316493
 105       -0.000205386
 106        0.000023990
 107        0.000061037
 108        0.000042940
 109        0.000632692
 110       -0.002484973
 111        0.000102973
 112       -0.000119182
 113       -0.000088813
 114       -0.001853037
 115        0.000707949
 116        0.000585046
 117       -0.000043817
 118        0.000040130
 119        0.000119309
 120       -0.000050375
 121       -0.000013198
 122        0.000515618
 123       -0.000317139
 124        0.000042714
 125       -0.000034121
 126       -0.000208186
 127       -0.000042918
 128       -0.000632616
 129        0.002485154
 130        0.000102918
 131       -0.000119171
 132       -0.000088823
 133       -0.001852520
 134        0.000710197
 135        0.000584870
 136        0.000043608
 137       -0.000039967
 138       -0.000119643
 139        0.000049986
 140        0.000013088
 141       -0.000517607
 142        0.000316526
 143        0.000042494
 144       -0.000033153
 145       -0.000208567
 146       -0.000567415
 147       -0.000131318
 148       -0.000096508
 149        0.000064948
 150        0.000004180
 151       -0.000516762
 152        0.000316157
 153        0.000146738
 154       -0.000058126
 155        0.000147167
 156        0.000567820
 157        0.000131056
 158       -0.000096558
 159        0.000064786
 160        0.000004749
 161       -0.000568507
 162       -0.000131007
 163        0.000065890
 164        0.000027088
 165        0.000092462
 166        0.000517718
 167       -0.000315699
 168        0.000146840
 169       -0.000057345
 170        0.000147404
 171        0.000568762
 172        0.000130811
 173        0.000065623
 174        0.000027089
 175        0.000092793
 Sym= A   
 Ene=       -20.908271
 Spin= Alpha
 Occup=       2.000000
   1       -0.000010075
   2        0.000017714
   3       -0.000183846
   4        0.001084315
   5       -0.000124966
   6        0.000005410
   7        0.000070695
   8        0.000069944
   9       -0.000021732
  10       -0.000272665
  11       -0.000287286
  12        0.000470159
  13        0.004339818
  14        0.005736987