
                                        *****************
                                        * O   R   C   A *
                                        *****************

                                            #,                                       
                                            ###                                      
                                            ####                                     
                                            #####                                    
                                            ######                                   
                                           ########,                                 
                                     ,,################,,,,,                         
                               ,,#################################,,                 
                          ,,##########################################,,             
                       ,#########################################, ''#####,          
                    ,#############################################,,   '####,        
                  ,##################################################,,,,####,       
                ,###########''''           ''''###############################       
              ,#####''   ,,,,##########,,,,          '''####'''          '####       
            ,##' ,,,,###########################,,,                        '##       
           ' ,,###''''                  '''############,,,                           
         ,,##''                                '''############,,,,        ,,,,,,###''
      ,#''                                            '''#######################'''  
     '                                                          ''''####''''         
             ,#######,   #######,   ,#######,      ##                                
            ,#'     '#,  ##    ##  ,#'     '#,    #''#        ######   ,####,        
            ##       ##  ##   ,#'  ##            #'  '#       #        #'  '#        
            ##       ##  #######   ##           ,######,      #####,   #    #        
            '#,     ,#'  ##    ##  '#,     ,#' ,#      #,         ##   #,  ,#        
             '#######'   ##     ##  '#######'  #'      '#     #####' # '####'        



                  #######################################################
                  #                        -***-                        #
                  #          Department of theory and spectroscopy      #
                  #    Directorship and core code : Frank Neese         #
                  #        Max Planck Institute fuer Kohlenforschung    #
                  #                Kaiser Wilhelm Platz 1               #
                  #                 D-45470 Muelheim/Ruhr               #
                  #                      Germany                        #
                  #                                                     #
                  #                  All rights reserved                #
                  #                        -***-                        #
                  #######################################################


                         Program Version 5.0.0 -  RELEASE  -
                                (SVN: $Rev: 19529$)
                ($Date: 2021-06-28 11:36:33 +0200 (Mo, 28 Jun 2021) $)


 With contributions from (in alphabetic order):
   Daniel Aravena         : Magnetic Suceptibility
   Michael Atanasov       : Ab Initio Ligand Field Theory (pilot matlab implementation)
   Alexander A. Auer      : GIAO ZORA, VPT2 properties, NMR spectrum
   Ute Becker             : Parallelization
   Giovanni Bistoni       : ED, misc. LED, open-shell LED, HFLD
   Martin Brehm           : Molecular dynamics
   Dmytro Bykov           : SCF Hessian
   Vijay G. Chilkuri      : MRCI spin determinant printing, contributions to CSF-ICE
   Dipayan Datta          : RHF DLPNO-CCSD density
   Achintya Kumar Dutta   : EOM-CC, STEOM-CC
   Dmitry Ganyushin       : Spin-Orbit,Spin-Spin,Magnetic field MRCI
   Miquel Garcia          : C-PCM Hessian, Gaussian charge scheme
   Yang Guo               : DLPNO-NEVPT2, F12-NEVPT2, CIM, IAO-localization
   Andreas Hansen         : Spin unrestricted coupled pair/coupled cluster methods
   Benjamin Helmich-Paris : MC-RPA, TRAH-SCF, COSX integrals
   Lee Huntington         : MR-EOM, pCC
   Robert Izsak           : Overlap fitted RIJCOSX, COSX-SCS-MP3, EOM
   Marcus Kettner         : VPT2
   Christian Kollmar      : KDIIS, OOCD, Brueckner-CCSD(T), CCSD density, CASPT2, CASPT2-K
   Simone Kossmann        : Meta GGA functionals, TD-DFT gradient, OOMP2, MP2 Hessian
   Martin Krupicka        : Initial AUTO-CI
   Lucas Lang             : DCDCAS
   Marvin Lechner         : AUTO-CI (C++ implementation), FIC-MRCC
   Dagmar Lenk            : GEPOL surface, SMD
   Dimitrios Liakos       : Extrapolation schemes; Compound Job, initial MDCI parallelization
   Dimitrios Manganas     : Further ROCIS development; embedding schemes
   Dimitrios Pantazis     : SARC Basis sets
   Anastasios Papadopoulos: AUTO-CI, single reference methods and gradients
   Taras Petrenko         : DFT Hessian,TD-DFT gradient, ASA, ECA, R-Raman, ABS, FL, XAS/XES, NRVS
   Peter Pinski           : DLPNO-MP2, DLPNO-MP2 Gradient
   Christoph Reimann      : Effective Core Potentials
   Marius Retegan         : Local ZFS, SOC
   Christoph Riplinger    : Optimizer, TS searches, QM/MM, DLPNO-CCSD(T), (RO)-DLPNO pert. Triples
   Tobias Risthaus        : Range-separated hybrids, TD-DFT gradient, RPA, STAB
   Michael Roemelt        : Original ROCIS implementation
   Masaaki Saitow         : Open-shell DLPNO-CCSD energy and density
   Barbara Sandhoefer     : DKH picture change effects
   Avijit Sen             : IP-ROCIS
   Kantharuban Sivalingam : CASSCF convergence, NEVPT2, FIC-MRCI
   Bernardo de Souza      : ESD, SOC TD-DFT
   Georgi Stoychev        : AutoAux, RI-MP2 NMR
   Willem Van den Heuvel  : Paramagnetic NMR
   Boris Wezisla          : Elementary symmetry handling
   Frank Wennmohs         : Technical directorship


 We gratefully acknowledge several colleagues who have allowed us to
 interface, adapt or use parts of their codes:
   Stefan Grimme, W. Hujo, H. Kruse, P. Pracht,  : VdW corrections, initial TS optimization,
                  C. Bannwarth, S. Ehlert          DFT functionals, gCP, sTDA/sTD-DF
   Ed Valeev, F. Pavosevic, A. Kumar             : LibInt (2-el integral package), F12 methods
   Garnet Chan, S. Sharma, J. Yang, R. Olivares  : DMRG
   Ulf Ekstrom                                   : XCFun DFT Library
   Mihaly Kallay                                 : mrcc  (arbitrary order and MRCC methods)
   Jiri Pittner, Ondrej Demel                    : Mk-CCSD
   Frank Weinhold                                : gennbo (NPA and NBO analysis)
   Christopher J. Cramer and Donald G. Truhlar   : smd solvation model
   Lars Goerigk                                  : TD-DFT with DH, B97 family of functionals
   V. Asgeirsson, H. Jonsson                     : NEB implementation
   FAccTs GmbH                                   : IRC, NEB, NEB-TS, DLPNO-Multilevel, CI-OPT
                                                   MM, QMMM, 2- and 3-layer-ONIOM, Crystal-QMMM,
                                                   LR-CPCM, SF, NACMEs, symmetry and pop. for TD-DFT,
                                                   nearIR, NL-DFT gradient (VV10), updates on ESD,
                                                   ML-optimized integration grids
   S Lehtola, MJT Oliveira, MAL Marques          : LibXC Library
   Liviu Ungur et al                             : ANISO software


 Your calculation uses the libint2 library for the computation of 2-el integrals
 For citations please refer to: http://libint.valeyev.net

 Your ORCA version has been built with support for libXC version: 5.1.0
 For citations please refer to: https://tddft.org/programs/libxc/

 This ORCA versions uses:
   CBLAS   interface :  Fast vector & matrix operations
   LAPACKE interface :  Fast linear algebra routines
   SCALAPACK package :  Parallel linear algebra routines
   Shared memory     :  Shared parallel matrices
   BLAS/LAPACK       :  OpenBLAS 0.3.15  USE64BITINT DYNAMIC_ARCH NO_AFFINITY SkylakeX SINGLE_THREADED
        Core in use  :  SkylakeX
   Copyright (c) 2011-2014, The OpenBLAS Project


================================================================================

----- Orbital basis set information -----
Your calculation utilizes the basis: def2-SVP
   F. Weigend and R. Ahlrichs, Phys. Chem. Chem. Phys. 7, 3297 (2005).

================================================================================
                                        WARNINGS
                       Please study these warnings very carefully!
================================================================================

INFO   : Checking CIS options ...

WARNING: (CIS/TDDFT): Spin-orbit needs TRIPLETS set to TRUE
  ===> : ajusting flags

WARNING: CIS/ROCIS methods need fully converged wavefunctions
  ===> : Setting SCFConvForced true
         You can overwrite this default with %scf ConvForced false 


INFO   : the flag for use of the SHARK integral package has been found!

================================================================================
                                       INPUT FILE
================================================================================
NAME = /scratch/benzeneDimer-TDA_178/benzeneDimer-TDA.inp
|  1> ! RKS B3LYP/G def2-SVP NoRI pal8
|  2> 
|  3> %TDDFT
|  4>     NRoots      18
|  5>     TDA         true
|  6>     Printlevel  3
|  7>     DoSOC       true
|  8> end
|  9> 
| 10> *xyz 0 1
| 11>  C    0.275339664905    -0.458399102833    2.743143403700
| 12>  C    1.279006847437    0.228940885018    2.053971964849
| 13>  C    0.939622874510    1.231612429254    1.139882080053
| 14>  C    -0.402424351875    1.548739845978    0.916642984919
| 15>  C    -1.406698760230    0.863818487970    1.607817662361
| 16>  C    -1.068977646094    -0.140122820687    2.520286918876
| 17>  H    0.539603706561    -1.241898862747    3.454437267994
| 18>  H    2.326588004763    -0.022157300550    2.223964486000
| 19>  H    1.720832792185    1.755051800886    0.589301977320
| 20>  H    -0.666403863041    2.316697890287    0.190217604195
| 21>  H    -2.454419062639    1.106539982179    1.427829033755
| 22>  H    -1.852402130973    -0.676071740128    3.057547529767
| 23>  C    0.408637071405    -1.547138908805    -0.917226197790
| 24>  C    1.408439887136    -0.859383018412    -1.612070091004
| 25>  C    1.064503595865    0.142964356786    -2.523961075999
| 26>  C    -0.281557623713    0.456819421173    -2.742536095802
| 27>  C    -1.280735610329    -0.233330090254    -2.049663508775
| 28>  C    -0.935147882928    -1.234436127477    -1.136182768651
| 29>  H    0.677439446996    -2.313917010173    -0.191321675612
| 30>  H    2.457518043610    -1.098728344182    -1.435489418777
| 31>  H    1.844432727521    0.681106942624    -3.064104221734
| 32>  H    -0.550678756658    1.239051458125    -3.453403954344
| 33>  H    -2.329668169039    0.014352845763    -2.216299435382
| 34>  H    -1.712850805428    -1.760113019904    -0.582784469921
| 35> *
| 36> 
| 37>                          ****END OF INPUT****
================================================================================

                       ****************************
                       * Single Point Calculation *
                       ****************************

---------------------------------
CARTESIAN COORDINATES (ANGSTROEM)
---------------------------------
  C      0.275340   -0.458399    2.743143
  C      1.279007    0.228941    2.053972
  C      0.939623    1.231612    1.139882
  C     -0.402424    1.548740    0.916643
  C     -1.406699    0.863818    1.607818
  C     -1.068978   -0.140123    2.520287
  H      0.539604   -1.241899    3.454437
  H      2.326588   -0.022157    2.223964
  H      1.720833    1.755052    0.589302
  H     -0.666404    2.316698    0.190218
  H     -2.454419    1.106540    1.427829
  H     -1.852402   -0.676072    3.057548
  C      0.408637   -1.547139   -0.917226
  C      1.408440   -0.859383   -1.612070
  C      1.064504    0.142964   -2.523961
  C     -0.281558    0.456819   -2.742536
  C     -1.280736   -0.233330   -2.049664
  C     -0.935148   -1.234436   -1.136183
  H      0.677439   -2.313917   -0.191322
  H      2.457518   -1.098728   -1.435489
  H      1.844433    0.681107   -3.064104
  H     -0.550679    1.239051   -3.453404
  H     -2.329668    0.014353   -2.216299
  H     -1.712851   -1.760113   -0.582784

----------------------------
CARTESIAN COORDINATES (A.U.)
----------------------------
  NO LB      ZA    FRAG     MASS         X           Y           Z
   0 C     6.0000    0    12.011    0.520317   -0.866249    5.183790
   1 C     6.0000    0    12.011    2.416973    0.432636    3.881445
   2 C     6.0000    0    12.011    1.775630    2.327410    2.154065
   3 C     6.0000    0    12.011   -0.760472    2.926694    1.732204
   4 C     6.0000    0    12.011   -2.658275    1.632380    3.038335
   5 C     6.0000    0    12.011   -2.020075   -0.264794    4.762652
   6 H     1.0000    0     1.008    1.019703   -2.346849    6.527940
   7 H     1.0000    0     1.008    4.396614   -0.041871    4.202684
   8 H     1.0000    0     1.008    3.251903    3.316567    1.113619
   9 H     1.0000    0     1.008   -1.259321    4.377925    0.359459
  10 H     1.0000    0     1.008   -4.638180    2.091058    2.698206
  11 H     1.0000    0     1.008   -3.500533   -1.277590    5.777927
  12 C     6.0000    0    12.011    0.772212   -2.923669   -1.733306
  13 C     6.0000    0    12.011    2.661566   -1.623999   -3.046371
  14 C     6.0000    0    12.011    2.011620    0.270163   -4.769595
  15 C     6.0000    0    12.011   -0.532067    0.863264   -5.182642
  16 C     6.0000    0    12.011   -2.420240   -0.440930   -3.873303
  17 C     6.0000    0    12.011   -1.767173   -2.332746   -2.147074
  18 H     1.0000    0     1.008    1.280175   -4.372669   -0.361546
  19 H     1.0000    0     1.008    4.644036   -2.076296   -2.712682
  20 H     1.0000    0     1.008    3.485473    1.287106   -5.790318
  21 H     1.0000    0     1.008   -1.040632    2.341468   -6.525988
  22 H     1.0000    0     1.008   -4.402435    0.027123   -4.188199
  23 H     1.0000    0     1.008   -3.236819   -3.326132   -1.101303

--------------------------------
INTERNAL COORDINATES (ANGSTROEM)
--------------------------------
 C      0   0   0     0.000000000000     0.00000000     0.00000000
 C      1   0   0     1.398120647269     0.00000000     0.00000000
 C      2   1   0     1.398603597946   120.02720787     0.00000000
 C      3   2   1     1.396959645044   120.02059576     0.11786200
 C      4   3   2     1.398358605176   119.98489139     0.02828102
 C      5   4   3     1.398053592051   120.05557252   359.87155525
 H      1   2   3     1.090709089941   120.04467635   179.86516878
 H      2   1   3     1.090584264157   119.96940731   180.45371099
 H      3   2   1     1.089686267131   120.04202053   181.10714249
 H      4   3   2     1.089558889594   119.95416036   181.17839393
 H      5   4   3     1.090425358408   119.96300179   180.45375556
 H      6   5   4     1.090708087333   120.05563254   180.15325459
 C      3   2   1     3.497870693527    81.47061405   279.09952116
 C     13   3   2     1.398363998053    78.05200631   240.72247590
 C     14  13   3     1.398047782279   120.05530833   273.04197970
 C     15  14  13     1.399343005691   119.95582686   359.91898033
 C     16  15  14     1.398118528207   119.95535546   359.93687479
 C     13   3   2     1.396954907241    93.46145976   120.78916484
 H     13   3   2     1.089559887835    97.45811572   359.96718020
 H     14  13   3     1.090427391972   119.96342723    92.46723230
 H     15  14  13     1.090706885915   120.05561065   179.84839010
 H     16  15  14     1.090709061180   120.00003966   179.96742053
 H     17  16  15     1.090584192785   119.96926804   179.70792104
 H     18  13   3     1.089682388558   119.93031514   259.15370650

---------------------------
INTERNAL COORDINATES (A.U.)
---------------------------
 C      0   0   0     0.000000000000     0.00000000     0.00000000
 C      1   0   0     2.642065125518     0.00000000     0.00000000
 C      2   1   0     2.642977770034   120.02720787     0.00000000
 C      3   2   1     2.639871149273   120.02059576     0.11786200
 C      4   3   2     2.642514800794   119.98489139     0.02828102
 C      5   4   3     2.641938409521   120.05557252   359.87155525
 H      1   2   3     2.061141471767   120.04467635   179.86516878
 H      2   1   3     2.060905585221   119.96940731   180.45371099
 H      3   2   1     2.059208616772   120.04202053   181.10714249
 H      4   3   2     2.058967908113   119.95416036   181.17839393
 H      5   4   3     2.060605296873   119.96300179   180.45375556
 H      6   5   4     2.061139577112   120.05563254   180.15325459
 C      3   2   1     6.610017662635    81.47061405   279.09952116
 C     13   3   2     2.642524991855    78.05200631   240.72247590
 C     14  13   3     2.641927430643   120.05530833   273.04197970
 C     15  14  13     2.644375048173   119.95582686   359.91898033
 C     16  15  14     2.642061121071   119.95535546   359.93687479
 C     13   3   2     2.639862196123    93.46145976   120.78916484
 H     13   3   2     2.058969794514    97.45811572   359.96718020
 H     14  13   3     2.060609139753   119.96342723    92.46723230
 H     15  14  13     2.061137306762   120.05561065   179.84839010
 H     16  15  14     2.061141417416   120.00003966   179.96742053
 H     17  16  15     2.060905450347   119.96926804   179.70792104
 H     18  13   3     2.059201287332   119.93031514   259.15370650

---------------------
BASIS SET INFORMATION
---------------------
There are 2 groups of distinct atoms

 Group   1 Type C   : 7s4p1d contracted to 3s2p1d pattern {511/31/1}
 Group   2 Type H   : 4s1p contracted to 2s1p pattern {31/1}

Atom   0C    basis set group =>   1
Atom   1C    basis set group =>   1
Atom   2C    basis set group =>   1
Atom   3C    basis set group =>   1
Atom   4C    basis set group =>   1
Atom   5C    basis set group =>   1
Atom   6H    basis set group =>   2
Atom   7H    basis set group =>   2
Atom   8H    basis set group =>   2
Atom   9H    basis set group =>   2
Atom  10H    basis set group =>   2
Atom  11H    basis set group =>   2
Atom  12C    basis set group =>   1
Atom  13C    basis set group =>   1
Atom  14C    basis set group =>   1
Atom  15C    basis set group =>   1
Atom  16C    basis set group =>   1
Atom  17C    basis set group =>   1
Atom  18H    basis set group =>   2
Atom  19H    basis set group =>   2
Atom  20H    basis set group =>   2
Atom  21H    basis set group =>   2
Atom  22H    basis set group =>   2
Atom  23H    basis set group =>   2
--------------------------------------------------------------------------
WARNING: There was an error initializing an OpenFabrics device.

  Local host:   cnode13
  Local device: mlx5_0
--------------------------------------------------------------------------


           ************************************************************
           *        Program running with 8 parallel MPI-processes     *
           *              working on a common directory               *
           ************************************************************
------------------------------------------------------------------------------
                           ORCA GTO INTEGRAL CALCULATION
------------------------------------------------------------------------------
------------------------------------------------------------------------------
                   ___                                                        
                  /   \      - P O W E R E D   B Y -                         
                 /     \                                                     
                 |  |  |   _    _      __       _____    __    __             
                 |  |  |  | |  | |    /  \     |  _  \  |  |  /  |          
                  \  \/   | |  | |   /    \    | | | |  |  | /  /          
                 / \  \   | |__| |  /  /\  \   | |_| |  |  |/  /          
                |  |  |   |  __  | /  /__\  \  |    /   |      \           
                |  |  |   | |  | | |   __   |  |    \   |  |\   \          
                \     /   | |  | | |  |  |  |  | |\  \  |  | \   \       
                 \___/    |_|  |_| |__|  |__|  |_| \__\ |__|  \__/        
                                                                              
                      - O R C A' S   B I G   F R I E N D -                    
                                      &                                       
                       - I N T E G R A L  F E E D E R -                       
                                                                              
 v1 FN, 2020, v2 2021                                                         
------------------------------------------------------------------------------


Reading SHARK input file /scratch/benzeneDimer-TDA_178/benzeneDimer-TDA.SHARKINP.tmp ... ok
----------------------
SHARK INTEGRAL PACKAGE
----------------------

Number of atoms                             ...     24
Number of basis functions                   ...    228
Number of shells                            ...    108
Maximum angular momentum                    ...      2
Integral batch strategy                     ... SHARK/LIBINT Hybrid
RI-J (if used) integral strategy            ... SPLIT-RIJ (Revised 2003 algorithm where possible)
Printlevel                                  ...      1
Contraction scheme used                     ... SEGMENTED contraction
Coulomb Range Separation                    ... NOT USED
Exchange Range Separation                   ... NOT USED
Finite Nucleus Model                        ... NOT USED
Auxiliary Coulomb fitting basis             ... NOT available
Auxiliary J/K fitting basis                 ... NOT available
Auxiliary Correlation fitting basis         ... NOT available
Auxiliary 'external' fitting basis          ... NOT available
Integral threshold                          ...     1.000000e-10
Primitive cut-off                           ...     1.000000e-11
Primitive pair pre-selection threshold      ...     1.000000e-11

Calculating pre-screening integrals         ... done (  0.4 sec) Dimension = 108
Organizing shell pair data                  ... done (  0.0 sec)
Shell pair information
Total number of shell pairs                 ...      5886
Shell pairs after pre-screening             ...      5315
Total number of primitive shell pairs       ...     21102
Primitive shell pairs kept                  ...     13068
          la=0 lb=0:   1680 shell pairs
          la=1 lb=0:   1940 shell pairs
          la=1 lb=1:    612 shell pairs
          la=2 lb=0:    624 shell pairs
          la=2 lb=1:    390 shell pairs
          la=2 lb=2:     69 shell pairs

Calculating one electron integrals          ... done (  0.0 sec)
Calculating Nuclear repulsion               ... done (  0.0 sec) ENN=    624.504271095385 Eh

SHARK setup successfully completed in   0.4 seconds

Maximum memory used throughout the entire GTOINT-calculation: 8.7 MB
[cnode13:177701] 7 more processes have sent help message help-mpi-btl-openib.txt / error in device init
[cnode13:177701] Set MCA parameter "orte_base_help_aggregate" to 0 to see all help / error messages
--------------------------------------------------------------------------
WARNING: There was an error initializing an OpenFabrics device.

  Local host:   cnode13
  Local device: mlx5_0
--------------------------------------------------------------------------


           ************************************************************
           *        Program running with 8 parallel MPI-processes     *
           *              working on a common directory               *
           ************************************************************
-------------------------------------------------------------------------------
                                 ORCA SCF
-------------------------------------------------------------------------------

------------
SCF SETTINGS
------------
Hamiltonian:
 Density Functional     Method          .... DFT(GTOs)
 Exchange Functional    Exchange        .... B88
   X-Alpha parameter    XAlpha          ....  0.666667
   Becke's b parameter  XBeta           ....  0.004200
 Correlation Functional Correlation     .... LYP
 LDA part of GGA corr.  LDAOpt          .... VWN-3
 Gradients option       PostSCFGGA      .... off
 Hybrid DFT is turned on
   Fraction HF Exchange ScalHFX         ....  0.200000
   Scaling of DF-GGA-X  ScalDFX         ....  0.720000
   Scaling of DF-GGA-C  ScalDFC         ....  0.810000
   Scaling of DF-LDA-C  ScalLDAC        ....  1.000000
   Perturbative correction              ....  0.000000
   Density functional embedding theory  .... OFF
   NL short-range parameter             ....  4.800000


General Settings:
 Integral files         IntName         .... /scratch/benzeneDimer-TDA_178/benzeneDimer-TDA
 Hartree-Fock type      HFTyp           .... RHF
 Total Charge           Charge          ....    0
 Multiplicity           Mult            ....    1
 Number of Electrons    NEL             ....   84
 Basis Dimension        Dim             ....  228
 Nuclear Repulsion      ENuc            ....    624.5042710954 Eh

Convergence Acceleration:
 DIIS                   CNVDIIS         .... on
   Start iteration      DIISMaxIt       ....    12
   Startup error        DIISStart       ....  0.200000
   # of expansion vecs  DIISMaxEq       ....     5
   Bias factor          DIISBfac        ....   1.050
   Max. coefficient     DIISMaxC        ....  10.000
 Trust-Rad. Augm. Hess. CNVTRAH         .... auto
   Auto Start mean grad. ratio tolernc. ....  1.125000
   Auto Start start iteration           ....    20
   Auto Start num. interpolation iter.  ....    10
   Max. Number of Micro iterations      ....    16
   Max. Number of Macro iterations      .... Maxiter - #DIIS iter
   Number of Davidson start vectors     ....     2
   Converg. threshold I  (grad. norm)   ....   5.000e-05
   Converg. threshold II (energy diff.) ....   1.000e-06
   Grad. Scal. Fac. for Micro threshold ....   0.100
   Minimum threshold for Micro iter.    ....   0.010
   NR start threshold (gradient norm)   ....   0.001
   Initial trust radius                 ....   0.400
   Minimum AH scaling param. (alpha)    ....   1.000
   Maximum AH scaling param. (alpha)    .... 1000.000
   Orbital update algorithm             .... Taylor
   White noise on init. David. guess    .... on
   Maximum white noise                  ....   0.010
   Quad. conv. algorithm                .... NR
 SOSCF                  CNVSOSCF        .... on
   Start iteration      SOSCFMaxIt      ....   150
   Startup grad/error   SOSCFStart      ....  0.003300
 Level Shifting         CNVShift        .... on
   Level shift para.    LevelShift      ....    0.2500
   Turn off err/grad.   ShiftErr        ....    0.0010
 Zerner damping         CNVZerner       .... off
 Static damping         CNVDamp         .... on
   Fraction old density DampFac         ....    0.7000
   Max. Damping (<1)    DampMax         ....    0.9800
   Min. Damping (>=0)   DampMin         ....    0.0000
   Turn off err/grad.   DampErr         ....    0.1000
 Fernandez-Rico         CNVRico         .... off

SCF Procedure:
 Maximum # iterations   MaxIter         ....   125
 SCF integral mode      SCFMode         .... Direct
   Integral package                     .... SHARK and LIBINT hybrid scheme
 Reset frequency        DirectResetFreq ....    20
 Integral Threshold     Thresh          ....  1.000e-10 Eh
 Primitive CutOff       TCut            ....  1.000e-11 Eh

Convergence Tolerance:
 Convergence Check Mode ConvCheckMode   .... Total+1el-Energy
 Convergence forced     ConvForced      .... 1
 Energy Change          TolE            ....  1.000e-06 Eh
 1-El. energy change                    ....  1.000e-03 Eh
 Orbital Gradient       TolG            ....  5.000e-05
 Orbital Rotation angle TolX            ....  5.000e-05
 DIIS Error             TolErr          ....  1.000e-06


Diagonalization of the overlap matrix:
Smallest eigenvalue                        ... 2.905e-04
Time for diagonalization                   ...    0.007 sec
Threshold for overlap eigenvalues          ... 1.000e-08
Number of eigenvalues below threshold      ... 0
Time for construction of square roots      ...    0.005 sec
Total time needed                          ...    0.012 sec

Time for model grid setup =    0.100 sec

------------------------------
INITIAL GUESS: MODEL POTENTIAL
------------------------------
Loading Hartree-Fock densities                     ... done
Calculating cut-offs                               ... done
Initializing the effective Hamiltonian             ... done
Setting up the integral package (SHARK)            ... done
Starting the Coulomb interaction                   ... done (   0.3 sec)
Reading the grid                                   ... done
Mapping shells                                     ... done
Starting the XC term evaluation                    ... done (   0.1 sec)
  promolecular density results
     # of electrons  =     83.994060218
     EX              =    -65.189277675
     EC              =     -2.760122560
     EX+EC           =    -67.949400235
Transforming the Hamiltonian                       ... done (   0.0 sec)
Diagonalizing the Hamiltonian                      ... done (   0.0 sec)
Back transforming the eigenvectors                 ... done (   0.0 sec)
Now organizing SCF variables                       ... done
                      ------------------
                      INITIAL GUESS DONE (   0.4 sec)
                      ------------------
-------------------
DFT GRID GENERATION
-------------------

General Integration Accuracy     IntAcc      ... 4.388
Radial Grid Type                 RadialGrid  ... OptM3 with GC (2021)
Angular Grid (max. ang.)         AngularGrid ... 4 (Lebedev-302)
Angular grid pruning method      GridPruning ... 4 (adaptive)
Weight generation scheme         WeightScheme... Becke
Basis function cutoff            BFCut       ... 1.0000e-10
Integration weight cutoff        WCut        ... 1.0000e-14
Angular grids for H and He will be reduced by one unit
Partially contracted basis set               ... off
Rotationally invariant grid construction     ... off

Total number of grid points                  ...   110328
Total number of batches                      ...     1734
Average number of points per batch           ...       63
Average number of grid points per atom       ...     4597
Time for grid setup =    0.500 sec

--------------
SCF ITERATIONS
--------------
ITER       Energy         Delta-E        Max-DP      RMS-DP      [F,P]     Damp
               ***  Starting incremental Fock matrix formation  ***
  0   -463.8992277988   0.000000000000 0.04915037  0.00223049  0.1187963 0.7000
  1   -464.0182035163  -0.118975717412 0.03282515  0.00159573  0.0604001 0.7000
                               ***Turning on DIIS***
  2   -464.0707321409  -0.052528624600 0.05430935  0.00284601  0.0273508 0.0000
[cnode13:177776] 7 more processes have sent help message help-mpi-btl-openib.txt / error in device init
[cnode13:177776] Set MCA parameter "orte_base_help_aggregate" to 0 to see all help / error messages
  3   -464.1453254571  -0.074593316260 0.01962750  0.00093823  0.0379985 0.0000
  4   -464.1649627987  -0.019637341560 0.00556534  0.00022639  0.0077366 0.0000
                      *** Initiating the SOSCF procedure ***
                           *** Shutting down DIIS ***
                      *** Re-Reading the Fockian *** 
                      *** Removing any level shift *** 
ITER      Energy       Delta-E        Grad      Rot      Max-DP    RMS-DP
  5   -464.16588240  -0.0009196014  0.000873  0.000873  0.002023  0.000088
               *** Restarting incremental Fock matrix formation ***
  6   -464.16593771  -0.0000553088  0.000374  0.000935  0.001423  0.000060
  7   -464.16593480   0.0000029103  0.000468  0.000817  0.000647  0.000022
  8   -464.16594375  -0.0000089478  0.000087  0.000240  0.000264  0.000012
  9   -464.16594361   0.0000001386  0.000105  0.000104  0.000128  0.000006
                 **** Energy Check signals convergence ****
              ***Rediagonalizing the Fockian in SOSCF/NRSCF***

               *****************************************************
               *                     SUCCESS                       *
               *           SCF CONVERGED AFTER  10 CYCLES          *
               *****************************************************


----------------
TOTAL SCF ENERGY
----------------

Total Energy       :         -464.16594412 Eh          -12630.59747 eV

Components:
Nuclear Repulsion  :          624.50427110 Eh           16993.62516 eV
Electronic Energy  :        -1088.67021522 Eh          -29624.22262 eV
One Electron Energy:        -1863.24837537 Eh          -50701.56591 eV
Two Electron Energy:          774.57816015 Eh           21077.34329 eV

Virial components:
Potential Energy   :         -922.85016946 Eh          -25112.02978 eV
Kinetic Energy     :          458.68422534 Eh           12481.43232 eV
Virial Ratio       :            2.01195096


DFT components:
N(Alpha)           :       41.999964319584 electrons
N(Beta)            :       41.999964319584 electrons
N(Total)           :       83.999928639168 electrons
E(X)               :      -52.616959706191 Eh       
E(C)               :       -3.578195241526 Eh       
E(XC)              :      -56.195154947717 Eh       
DFET-embed. en.    :        0.000000000000 Eh       

---------------
SCF CONVERGENCE
---------------

  Last Energy change         ...   -5.1476e-07  Tolerance :   1.0000e-06
  Last MAX-Density change    ...    1.9918e-05  Tolerance :   1.0000e-05
  Last RMS-Density change    ...    8.4771e-07  Tolerance :   1.0000e-06
  Last Orbital Gradient      ...    6.8998e-06  Tolerance :   5.0000e-05
  Last Orbital Rotation      ...    7.2231e-06  Tolerance :   5.0000e-05

             **** THE GBW FILE WAS UPDATED (/scratch/benzeneDimer-TDA_178/benzeneDimer-TDA.gbw) ****
             **** DENSITY /scratch/benzeneDimer-TDA_178/benzeneDimer-TDA.scfp WAS UPDATED ****
             **** ENERGY FILE WAS UPDATED (/scratch/benzeneDimer-TDA_178/benzeneDimer-TDA.en.tmp) ****
             **** THE GBW FILE WAS UPDATED (/scratch/benzeneDimer-TDA_178/benzeneDimer-TDA.gbw) ****
             **** DENSITY /scratch/benzeneDimer-TDA_178/benzeneDimer-TDA.scfp WAS UPDATED ****
----------------
ORBITAL ENERGIES
----------------

  NO   OCC          E(Eh)            E(eV) 
   0   2.0000     -10.187876      -277.2262 
   1   2.0000     -10.187861      -277.2258 
   2   2.0000     -10.187514      -277.2163 
   3   2.0000     -10.187503      -277.2161 
   4   2.0000     -10.187114      -277.2055 
   5   2.0000     -10.187102      -277.2051 
   6   2.0000     -10.186972      -277.2016 
   7   2.0000     -10.186965      -277.2014 
   8   2.0000     -10.186054      -277.1766 
   9   2.0000     -10.185990      -277.1749 
  10   2.0000     -10.185493      -277.1613 
  11   2.0000     -10.185486      -277.1612 
  12   2.0000      -0.842912       -22.9368 
  13   2.0000      -0.839623       -22.8473 
  14   2.0000      -0.734908       -19.9979 
  15   2.0000      -0.733399       -19.9568 
  16   2.0000      -0.733257       -19.9529 
  17   2.0000      -0.732115       -19.9219 
  18   2.0000      -0.593460       -16.1489 
  19   2.0000      -0.593251       -16.1432 
  20   2.0000      -0.593220       -16.1423 
  21   2.0000      -0.592959       -16.1352 
  22   2.0000      -0.518737       -14.1155 
  23   2.0000      -0.517573       -14.0839 
  24   2.0000      -0.453737       -12.3468 
  25   2.0000      -0.453513       -12.3407 
  26   2.0000      -0.444497       -12.0954 
  27   2.0000      -0.444126       -12.0853 
  28   2.0000      -0.419225       -11.4077 
  29   2.0000      -0.418483       -11.3875 
  30   2.0000      -0.418350       -11.3839 
  31   2.0000      -0.417867       -11.3707 
  32   2.0000      -0.375912       -10.2291 
  33   2.0000      -0.352422        -9.5899 
  34   2.0000      -0.342740        -9.3264 
  35   2.0000      -0.342702        -9.3254 
  36   2.0000      -0.342564        -9.3216 
  37   2.0000      -0.342458        -9.3188 
  38   2.0000      -0.261489        -7.1155 
  39   2.0000      -0.250876        -6.8267 
  40   2.0000      -0.250862        -6.8263 
  41   2.0000      -0.242202        -6.5906 
  42   0.0000      -0.006795        -0.1849 
  43   0.0000      -0.005242        -0.1426 
  44   0.0000      -0.004645        -0.1264 
  45   0.0000      -0.003449        -0.0939 
  46   0.0000       0.051238         1.3942 
  47   0.0000       0.070693         1.9236 
  48   0.0000       0.087537         2.3820 
  49   0.0000       0.093887         2.5548 
  50   0.0000       0.110201         2.9987 
  51   0.0000       0.114103         3.1049 
  52   0.0000       0.132648         3.6095 
  53   0.0000       0.133761         3.6398 
  54   0.0000       0.144042         3.9196 
  55   0.0000       0.147173         4.0048 
  56   0.0000       0.150138         4.0855 
  57   0.0000       0.153709         4.1826 
  58   0.0000       0.161909         4.4058 
  59   0.0000       0.167799         4.5661 
  60   0.0000       0.285752         7.7757 
  61   0.0000       0.288342         7.8462 
  62   0.0000       0.291273         7.9259 
  63   0.0000       0.293111         7.9760 
  64   0.0000       0.299438         8.1481 
  65   0.0000       0.300802         8.1852 
  66   0.0000       0.303372         8.2552 
  67   0.0000       0.305154         8.3037 
  68   0.0000       0.308141         8.3849 
  69   0.0000       0.363661         9.8957 
  70   0.0000       0.370893        10.0925 
  71   0.0000       0.401087        10.9141 
  72   0.0000       0.409228        11.1357 
  73   0.0000       0.416473        11.3328 
  74   0.0000       0.425363        11.5747 
  75   0.0000       0.436648        11.8818 
  76   0.0000       0.441739        12.0203 
  77   0.0000       0.454998        12.3811 
  78   0.0000       0.461206        12.5500 
  79   0.0000       0.461518        12.5586 
  80   0.0000       0.480148        13.0655 
  81   0.0000       0.498899        13.5757 
  82   0.0000       0.504984        13.7413 
  83   0.0000       0.507208        13.8018 
  84   0.0000       0.512853        13.9554 
  85   0.0000       0.530065        14.4238 
  86   0.0000       0.533315        14.5122 
  87   0.0000       0.541044        14.7225 
  88   0.0000       0.544780        14.8242 
  89   0.0000       0.569905        15.5079 
  90   0.0000       0.574065        15.6211 
  91   0.0000       0.615831        16.7576 
  92   0.0000       0.628535        17.1033 
  93   0.0000       0.636791        17.3280 
  94   0.0000       0.642320        17.4784 
  95   0.0000       0.647209        17.6115 
  96   0.0000       0.657723        17.8976 
  97   0.0000       0.660777        17.9807 
  98   0.0000       0.667964        18.1762 
  99   0.0000       0.673020        18.3138 
 100   0.0000       0.673636        18.3306 
 101   0.0000       0.675572        18.3833 
 102   0.0000       0.700960        19.0741 
 103   0.0000       0.701054        19.0766 
 104   0.0000       0.708920        19.2907 
 105   0.0000       0.712152        19.3786 
 106   0.0000       0.732350        19.9283 
 107   0.0000       0.738338        20.0912 
 108   0.0000       0.741292        20.1716 
 109   0.0000       0.751396        20.4465 
 110   0.0000       0.765894        20.8410 
 111   0.0000       0.767536        20.8857 
 112   0.0000       0.769061        20.9272 
 113   0.0000       0.780734        21.2449 
 114   0.0000       0.791181        21.5291 
 115   0.0000       0.791779        21.5454 
 116   0.0000       0.812332        22.1047 
 117   0.0000       0.835118        22.7247 
 118   0.0000       0.878220        23.8976 
 119   0.0000       0.890478        24.2311 
 120   0.0000       0.898623        24.4528 
 121   0.0000       0.904902        24.6236 
 122   0.0000       0.999940        27.2097 
 123   0.0000       1.043713        28.4009 
 124   0.0000       1.055710        28.7273 
 125   0.0000       1.069055        29.0905 
 126   0.0000       1.164181        31.6790 
 127   0.0000       1.167875        31.7795 
 128   0.0000       1.220565        33.2133 
 129   0.0000       1.244645        33.8685 
 130   0.0000       1.248706        33.9790 
 131   0.0000       1.253984        34.1226 
 132   0.0000       1.258960        34.2581 
 133   0.0000       1.262363        34.3507 
 134   0.0000       1.266546        34.4645 
 135   0.0000       1.280235        34.8370 
 136   0.0000       1.288462        35.0608 
 137   0.0000       1.289502        35.0891 
 138   0.0000       1.308919        35.6175 
 139   0.0000       1.309212        35.6255 
 140   0.0000       1.326731        36.1022 
 141   0.0000       1.367962        37.2241 
 142   0.0000       1.526633        41.5418 
 143   0.0000       1.534152        41.7464 
 144   0.0000       1.640511        44.6406 
 145   0.0000       1.647162        44.8216 
 146   0.0000       1.658442        45.1285 
 147   0.0000       1.662158        45.2296 
 148   0.0000       1.677256        45.6405 
 149   0.0000       1.686843        45.9013 
 150   0.0000       1.736997        47.2661 
 151   0.0000       1.743153        47.4336 
 152   0.0000       1.746877        47.5349 
 153   0.0000       1.751647        47.6647 
 154   0.0000       1.753560        47.7168 
 155   0.0000       1.759772        47.8858 
 156   0.0000       1.766509        48.0692 
 157   0.0000       1.767288        48.0904 
 158   0.0000       1.769086        48.1393 
 159   0.0000       1.775800        48.3220 
 160   0.0000       1.780123        48.4396 
 161   0.0000       1.793631        48.8072 
 162   0.0000       1.794833        48.8399 
 163   0.0000       1.797644        48.9164 
 164   0.0000       1.824655        49.6514 
 165   0.0000       1.831894        49.8484 
 166   0.0000       1.844290        50.1857 
 167   0.0000       1.853419        50.4341 
 168   0.0000       1.933698        52.6186 
 169   0.0000       1.952438        53.1286 
 170   0.0000       1.981734        53.9257 
 171   0.0000       1.981891        53.9300 
 172   0.0000       1.983453        53.9725 
 173   0.0000       1.986755        54.0623 
 174   0.0000       1.988439        54.1082 
 175   0.0000       1.991372        54.1880 
 176   0.0000       1.999461        54.4081 
 177   0.0000       2.001150        54.4541 
 178   0.0000       2.009038        54.6687 
 179   0.0000       2.020812        54.9891 
 180   0.0000       2.107332        57.3434 
 181   0.0000       2.133344        58.0512 
 182   0.0000       2.139111        58.2082 
 183   0.0000       2.143925        58.3392 
 184   0.0000       2.152896        58.5833 
 185   0.0000       2.177574        59.2548 
 186   0.0000       2.185869        59.4805 
 187   0.0000       2.227523        60.6140 
 188   0.0000       2.305625        62.7393 
 189   0.0000       2.307324        62.7855 
 190   0.0000       2.309416        62.8424 
 191   0.0000       2.311816        62.9077 
 192   0.0000       2.312871        62.9364 
 193   0.0000       2.313364        62.9498 
 194   0.0000       2.317766        63.0696 
 195   0.0000       2.336201        63.5713 
 196   0.0000       2.353123        64.0317 
 197   0.0000       2.353583        64.0443 
 198   0.0000       2.355986        64.1096 
 199   0.0000       2.356823        64.1324 
 200   0.0000       2.562026        69.7163 
 201   0.0000       2.562947        69.7413 
 202   0.0000       2.598915        70.7201 
 203   0.0000       2.615397        71.1686 
 204   0.0000       2.617814        71.2343 
 205   0.0000       2.630833        71.5886 
 206   0.0000       2.649544        72.0978 
 207   0.0000       2.649588        72.0989 
 208   0.0000       2.723634        74.1138 
 209   0.0000       2.723671        74.1148 
 210   0.0000       2.726747        74.1985 
 211   0.0000       2.731121        74.3176 
 212   0.0000       2.734828        74.4185 
 213   0.0000       2.737531        74.4920 
 214   0.0000       2.865959        77.9867 
 215   0.0000       2.866654        78.0056 
 216   0.0000       2.866994        78.0149 
 217   0.0000       2.868442        78.0543 
 218   0.0000       2.899817        78.9080 
 219   0.0000       2.919124        79.4334 
 220   0.0000       3.124315        85.0169 
 221   0.0000       3.125895        85.0599 
 222   0.0000       3.126948        85.0886 
 223   0.0000       3.128417        85.1286 
 224   0.0000       3.250230        88.4433 
 225   0.0000       3.251741        88.4844 
 226   0.0000       3.662288        99.6559 
 227   0.0000       3.663506        99.6891 

                    ********************************
                    * MULLIKEN POPULATION ANALYSIS *
                    ********************************

-----------------------
MULLIKEN ATOMIC CHARGES
-----------------------
   0 C :    0.013814
   1 C :    0.008906
   2 C :    0.038722
   3 C :    0.034367
   4 C :    0.016879
   5 C :    0.012064
   6 H :   -0.020536
   7 H :   -0.021744
   8 H :   -0.020490
   9 H :   -0.019374
  10 H :   -0.021914
  11 H :   -0.020682
  12 C :    0.034431
  13 C :    0.016795
  14 C :    0.012081
  15 C :    0.013795
  16 C :    0.008932
  17 C :    0.038737
  18 H :   -0.019392
  19 H :   -0.021921
  20 H :   -0.020690
  21 H :   -0.020537
  22 H :   -0.021755
  23 H :   -0.020489
Sum of atomic charges:   -0.0000000

--------------------------------
MULLIKEN REDUCED ORBITAL CHARGES
--------------------------------
  0 C s       :     3.159784  s :     3.159784
      pz      :     0.924314  p :     2.791627
      px      :     0.955474
      py      :     0.911839
      dz2     :     0.004270  d :     0.034776
      dxz     :     0.008443
      dyz     :     0.004570
      dx2y2   :     0.008724
      dxy     :     0.008768
  1 C s       :     3.163762  s :     3.163762
      pz      :     0.980152  p :     2.792527
      px      :     0.846052
      py      :     0.966323
      dz2     :     0.006690  d :     0.034805
      dxz     :     0.006535
      dyz     :     0.005434
      dx2y2   :     0.008803
      dxy     :     0.007342
  2 C s       :     3.144283  s :     3.144283
      pz      :     0.941209  p :     2.782142
      px      :     0.905474
      py      :     0.935459
      dz2     :     0.005131  d :     0.034853
      dxz     :     0.008413
      dyz     :     0.004629
      dx2y2   :     0.007827
      dxy     :     0.008853
  3 C s       :     3.149288  s :     3.149288
      pz      :     0.919012  p :     2.781507
      px      :     0.958601
      py      :     0.903894
      dz2     :     0.004415  d :     0.034837
      dxz     :     0.008460
      dyz     :     0.004606
      dx2y2   :     0.008635
      dxy     :     0.008720
  4 C s       :     3.159267  s :     3.159267
      pz      :     0.975129  p :     2.789022
      px      :     0.848207
      py      :     0.965686
      dz2     :     0.006708  d :     0.034832
      dxz     :     0.006544
      dyz     :     0.005451
      dx2y2   :     0.008876
      dxy     :     0.007253
  5 C s       :     3.159863  s :     3.159863
      pz      :     0.948759  p :     2.793308
      px      :     0.898086
      py      :     0.946462
      dz2     :     0.005092  d :     0.034766
      dxz     :     0.008355
      dyz     :     0.004557
      dx2y2   :     0.007802
      dxy     :     0.008960
  6 H s       :     0.997778  s :     0.997778
      pz      :     0.008945  p :     0.022758
      px      :     0.004016
      py      :     0.009797
  7 H s       :     0.999010  s :     0.999010
      pz      :     0.004385  p :     0.022734
      px      :     0.013748
      py      :     0.004600
  8 H s       :     0.997676  s :     0.997676
      pz      :     0.007083  p :     0.022813
      px      :     0.009136
      py      :     0.006594
  9 H s       :     0.996533  s :     0.996533
      pz      :     0.009292  p :     0.022840
      px      :     0.004003
      py      :     0.009545
 10 H s       :     0.999181  s :     0.999181
      pz      :     0.004410  p :     0.022733
      px      :     0.013740
      py      :     0.004583
 11 H s       :     0.997926  s :     0.997926
      pz      :     0.006877  p :     0.022756
      px      :     0.009166
      py      :     0.006713
 12 C s       :     3.149159  s :     3.149159
      pz      :     0.919114  p :     2.781572
      px      :     0.958396
      py      :     0.904061
      dz2     :     0.004423  d :     0.034838
      dxz     :     0.008469
      dyz     :     0.004605
      dx2y2   :     0.008620
      dxy     :     0.008722
 13 C s       :     3.159258  s :     3.159258
      pz      :     0.975339  p :     2.789115
      px      :     0.847885
      py      :     0.965891
      dz2     :     0.006723  d :     0.034832
      dxz     :     0.006536
      dyz     :     0.005459
      dx2y2   :     0.008884
      dxy     :     0.007231
 14 C s       :     3.159887  s :     3.159887
      pz      :     0.948434  p :     2.793266
      px      :     0.898624
      py      :     0.946208
      dz2     :     0.005083  d :     0.034766
      dxz     :     0.008371
      dyz     :     0.004553
      dx2y2   :     0.007796
      dxy     :     0.008963
 15 C s       :     3.159766  s :     3.159766
      pz      :     0.924364  p :     2.791664
      px      :     0.955182
      py      :     0.912118
      dz2     :     0.004279  d :     0.034775
      dxz     :     0.008451
      dyz     :     0.004568
      dx2y2   :     0.008707
      dxy     :     0.008770
 16 C s       :     3.163782  s :     3.163782
      pz      :     0.980205  p :     2.792482
      px      :     0.845762
      py      :     0.966514
      dz2     :     0.006705  d :     0.034805
      dxz     :     0.006527
      dyz     :     0.005442
      dx2y2   :     0.008812
      dxy     :     0.007319
 17 C s       :     3.144329  s :     3.144329
      pz      :     0.940803  p :     2.782081
      px      :     0.906060
      py      :     0.935218
      dz2     :     0.005124  d :     0.034853
      dxz     :     0.008429
      dyz     :     0.004624
      dx2y2   :     0.007820
      dxy     :     0.008857
 18 H s       :     0.996552  s :     0.996552
      pz      :     0.009283  p :     0.022840
      px      :     0.004027
      py      :     0.009529
 19 H s       :     0.999188  s :     0.999188
      pz      :     0.004397  p :     0.022733
      px      :     0.013767
      py      :     0.004569
 20 H s       :     0.997934  s :     0.997934
      pz      :     0.006905  p :     0.022756
      px      :     0.009115
      py      :     0.006736
 21 H s       :     0.997779  s :     0.997779
      pz      :     0.008938  p :     0.022758
      px      :     0.004041
      py      :     0.009779
 22 H s       :     0.999021  s :     0.999021
      pz      :     0.004374  p :     0.022734
      px      :     0.013775
      py      :     0.004585
 23 H s       :     0.997675  s :     0.997675
      pz      :     0.007114  p :     0.022814
      px      :     0.009085
      py      :     0.006616


                     *******************************
                     * LOEWDIN POPULATION ANALYSIS *
                     *******************************

----------------------
LOEWDIN ATOMIC CHARGES
----------------------
   0 C :   -0.029738
   1 C :   -0.026800
   2 C :   -0.018026
   3 C :   -0.017088
   4 C :   -0.024228
   5 C :   -0.030017
   6 H :    0.024167
   7 H :    0.023879
   8 H :    0.024705
   9 H :    0.025190
  10 H :    0.023888
  11 H :    0.024094
  12 C :   -0.017100
  13 C :   -0.024285
  14 C :   -0.030021
  15 C :   -0.029744
  16 C :   -0.026777
  17 C :   -0.018001
  18 H :    0.025175
  19 H :    0.023885
  20 H :    0.024096
  21 H :    0.024164
  22 H :    0.023876
  23 H :    0.024707

-------------------------------
LOEWDIN REDUCED ORBITAL CHARGES
-------------------------------
  0 C s       :     2.863060  s :     2.863060
      pz      :     1.002945  p :     3.076661
      px      :     1.066050
      py      :     1.007667
      dz2     :     0.010079  d :     0.090017
      dxz     :     0.021716
      dyz     :     0.011190
      dx2y2   :     0.024074
      dxy     :     0.022958
  1 C s       :     2.863023  s :     2.863023
      pz      :     1.014705  p :     3.073742
      px      :     1.037793
      py      :     1.021244
      dz2     :     0.015302  d :     0.090035
      dxz     :     0.017106
      dyz     :     0.015256
      dx2y2   :     0.022855
      dxy     :     0.019516
  2 C s       :     2.862468  s :     2.862468
      pz      :     1.002046  p :     3.065491
      px      :     1.052872
      py      :     1.010572
      dz2     :     0.011925  d :     0.090068
      dxz     :     0.021476
      dyz     :     0.012392
      dx2y2   :     0.021293
      dxy     :     0.022982
  3 C s       :     2.862241  s :     2.862241
      pz      :     0.996221  p :     3.064845
      px      :     1.065940
      py      :     1.002683
      dz2     :     0.010492  d :     0.090003
      dxz     :     0.021783
      dyz     :     0.011232
      dx2y2   :     0.023727
      dxy     :     0.022768
  4 C s       :     2.863012  s :     2.863012
      pz      :     1.013154  p :     3.071127
      px      :     1.038491
      py      :     1.019482
      dz2     :     0.015321  d :     0.090090
      dxz     :     0.017182
      dyz     :     0.015312
      dx2y2   :     0.023063
      dxy     :     0.019212
  5 C s       :     2.862993  s :     2.862993
      pz      :     1.009393  p :     3.077031
      px      :     1.050873
      py      :     1.016766
      dz2     :     0.011826  d :     0.089993
      dxz     :     0.021243
      dyz     :     0.012275
      dx2y2   :     0.021273
      dxy     :     0.023376
  6 H s       :     0.909023  s :     0.909023
      pz      :     0.025765  p :     0.066810
      px      :     0.012833
      py      :     0.028211
  7 H s       :     0.909297  s :     0.909297
      pz      :     0.013596  p :     0.066824
      px      :     0.039068
      py      :     0.014160
  8 H s       :     0.908334  s :     0.908334
      pz      :     0.020673  p :     0.066961
      px      :     0.026744
      py      :     0.019543
  9 H s       :     0.907752  s :     0.907752
      pz      :     0.026571  p :     0.067057
      px      :     0.012793
      py      :     0.027694
 10 H s       :     0.909300  s :     0.909300
      pz      :     0.013653  p :     0.066812
      px      :     0.039085
      py      :     0.014074
 11 H s       :     0.909089  s :     0.909089
      pz      :     0.020227  p :     0.066817
      px      :     0.026714
      py      :     0.019876
 12 C s       :     2.862243  s :     2.862243
      pz      :     0.996315  p :     3.064852
      px      :     1.065885
      py      :     1.002652
      dz2     :     0.010510  d :     0.090004
      dxz     :     0.021808
      dyz     :     0.011234
      dx2y2   :     0.023686
      dxy     :     0.022765
 13 C s       :     2.863008  s :     2.863008
      pz      :     1.013294  p :     3.071187
      px      :     1.038400
      py      :     1.019494
      dz2     :     0.015358  d :     0.090090
      dxz     :     0.017166
      dyz     :     0.015336
      dx2y2   :     0.023071
      dxy     :     0.019158
 14 C s       :     2.862991  s :     2.862991
      pz      :     1.009382  p :     3.077036
      px      :     1.051021
      py      :     1.016633
      dz2     :     0.011812  d :     0.089994
      dxz     :     0.021287
      dyz     :     0.012253
      dx2y2   :     0.021263
      dxy     :     0.023379
 15 C s       :     2.863059  s :     2.863059
      pz      :     1.003040  p :     3.076668
      px      :     1.065970
      py      :     1.007658
      dz2     :     0.010100  d :     0.090016
      dxz     :     0.021739
      dyz     :     0.011192
      dx2y2   :     0.024030
      dxy     :     0.022956
 16 C s       :     2.863023  s :     2.863023
      pz      :     1.014796  p :     3.073719
      px      :     1.037717
      py      :     1.021207
      dz2     :     0.015339  d :     0.090035
      dxz     :     0.017092
      dyz     :     0.015281
      dx2y2   :     0.022865
      dxy     :     0.019458
 17 C s       :     2.862463  s :     2.862463
      pz      :     1.002021  p :     3.065471
      px      :     1.053014
      py      :     1.010436
      dz2     :     0.011912  d :     0.090067
      dxz     :     0.021516
      dyz     :     0.012370
      dx2y2   :     0.021281
      dxy     :     0.022989
 18 H s       :     0.907768  s :     0.907768
      pz      :     0.026549  p :     0.067057
      px      :     0.012859
      py      :     0.027649
 19 H s       :     0.909304  s :     0.909304
      pz      :     0.013620  p :     0.066812
      px      :     0.039157
      py      :     0.014034
 20 H s       :     0.909087  s :     0.909087
      pz      :     0.020304  p :     0.066817
      px      :     0.026575
      py      :     0.019938
 21 H s       :     0.909026  s :     0.909026
      pz      :     0.025747  p :     0.066810
      px      :     0.012900
      py      :     0.028163
 22 H s       :     0.909301  s :     0.909301
      pz      :     0.013564  p :     0.066823
      px      :     0.039140
      py      :     0.014119
 23 H s       :     0.908330  s :     0.908330
      pz      :     0.020753  p :     0.066963
      px      :     0.026604
      py      :     0.019606


                      *****************************
                      * MAYER POPULATION ANALYSIS *
                      *****************************

  NA   - Mulliken gross atomic population
  ZA   - Total nuclear charge
  QA   - Mulliken gross atomic charge
  VA   - Mayer's total valence
  BVA  - Mayer's bonded valence
  FA   - Mayer's free valence

  ATOM       NA         ZA         QA         VA         BVA        FA
  0 C      5.9862     6.0000     0.0138     3.8506     3.8506     0.0000
  1 C      5.9911     6.0000     0.0089     3.8608     3.8608     0.0000
  2 C      5.9613     6.0000     0.0387     3.8582     3.8582    -0.0000
  3 C      5.9656     6.0000     0.0344     3.8611     3.8611    -0.0000
  4 C      5.9831     6.0000     0.0169     3.8602     3.8602     0.0000
  5 C      5.9879     6.0000     0.0121     3.8517     3.8517    -0.0000
  6 H      1.0205     1.0000    -0.0205     0.9768     0.9768     0.0000
  7 H      1.0217     1.0000    -0.0217     0.9774     0.9774     0.0000
  8 H      1.0205     1.0000    -0.0205     0.9820     0.9820     0.0000
  9 H      1.0194     1.0000    -0.0194     0.9829     0.9829    -0.0000
 10 H      1.0219     1.0000    -0.0219     0.9780     0.9780     0.0000
 11 H      1.0207     1.0000    -0.0207     0.9768     0.9768     0.0000
 12 C      5.9656     6.0000     0.0344     3.8611     3.8611    -0.0000
 13 C      5.9832     6.0000     0.0168     3.8603     3.8603     0.0000
 14 C      5.9879     6.0000     0.0121     3.8517     3.8517     0.0000
 15 C      5.9862     6.0000     0.0138     3.8506     3.8506    -0.0000
 16 C      5.9911     6.0000     0.0089     3.8608     3.8608    -0.0000
 17 C      5.9613     6.0000     0.0387     3.8583     3.8583    -0.0000
 18 H      1.0194     1.0000    -0.0194     0.9830     0.9830    -0.0000
 19 H      1.0219     1.0000    -0.0219     0.9780     0.9780     0.0000
 20 H      1.0207     1.0000    -0.0207     0.9768     0.9768    -0.0000
 21 H      1.0205     1.0000    -0.0205     0.9768     0.9768    -0.0000
 22 H      1.0218     1.0000    -0.0218     0.9774     0.9774    -0.0000
 23 H      1.0205     1.0000    -0.0205     0.9821     0.9821    -0.0000

  Mayer bond orders larger than 0.100000
B(  0-C ,  1-C ) :   1.3916 B(  0-C ,  5-C ) :   1.3866 B(  0-C ,  6-H ) :   0.9847 
B(  1-C ,  2-C ) :   1.3859 B(  1-C ,  7-H ) :   0.9850 B(  2-C ,  3-C ) :   1.4031 
B(  2-C ,  8-H ) :   0.9814 B(  3-C ,  4-C ) :   1.3865 B(  3-C ,  9-H ) :   0.9819 
B(  4-C ,  5-C ) :   1.3914 B(  4-C , 10-H ) :   0.9847 B(  5-C , 11-H ) :   0.9847 
B( 12-C , 13-C ) :   1.3864 B( 12-C , 17-C ) :   1.4032 B( 12-C , 18-H ) :   0.9818 
B( 13-C , 14-C ) :   1.3915 B( 13-C , 19-H ) :   0.9847 B( 14-C , 15-C ) :   1.3866 
B( 14-C , 20-H ) :   0.9847 B( 15-C , 16-C ) :   1.3916 B( 15-C , 21-H ) :   0.9847 
B( 16-C , 17-C ) :   1.3858 B( 16-C , 22-H ) :   0.9850 B( 17-C , 23-H ) :   0.9814 


-------
TIMINGS
-------

Total SCF time: 0 days 0 hours 0 min 14 sec 

Total time                  ....      14.037 sec
Sum of individual times     ....      13.795 sec  ( 98.3%)

Fock matrix formation       ....      12.687 sec  ( 90.4%)
  XC integration            ....       2.116 sec  ( 16.7% of F)
    Basis function eval.    ....       0.816 sec  ( 38.6% of XC)
    Density eval.           ....       0.458 sec  ( 21.7% of XC)
    XC-Functional eval.     ....       0.175 sec  (  8.2% of XC)
    XC-Potential eval.      ....       0.461 sec  ( 21.8% of XC)
Diagonalization             ....       0.062 sec  (  0.4%)
Density matrix formation    ....       0.007 sec  (  0.1%)
Population analysis         ....       0.014 sec  (  0.1%)
Initial guess               ....       0.329 sec  (  2.3%)
Orbital Transformation      ....       0.000 sec  (  0.0%)
Orbital Orthonormalization  ....       0.000 sec  (  0.0%)
DIIS solution               ....       0.043 sec  (  0.3%)
SOSCF solution              ....       0.051 sec  (  0.4%)
Grid generation             ....       0.600 sec  (  4.3%)

Maximum memory used throughout the entire SCF-calculation: 241.0 MB
--------------------------------------------------------------------------
WARNING: There was an error initializing an OpenFabrics device.

  Local host:   cnode13
  Local device: mlx5_0
--------------------------------------------------------------------------


           ************************************************************
           *        Program running with 8 parallel MPI-processes     *
           *              working on a common directory               *
           ************************************************************
------------------------------------------------------------------------------
                        ORCA TD-DFT/TDA CALCULATION
------------------------------------------------------------------------------

Input orbitals are from        ... /scratch/benzeneDimer-TDA_178/benzeneDimer-TDA.gbw
CI-vector output               ... /scratch/benzeneDimer-TDA_178/benzeneDimer-TDA.cis
Tamm-Dancoff approximation     ... operative
CIS-Integral strategy          ... AO-integrals
Integral handling              ... AO integral Direct
Max. core memory used          ... 512 MB
Reference state                ... RHF
Generation of triplets         ... on
Follow IRoot                   ... off
Number of operators            ... 1
Orbital ranges used for CIS calculation:
 Operator 0:  Orbitals  12... 41  to  42...227
XAS localization array:
 Operator 0:  Orbitals  -1... -1

-------------------
XC-INTEGRATION GRID
-------------------

General Integration Accuracy     IntAcc      ... 3.467
Radial Grid Type                 RadialGrid  ... OptM3 with GC (2021)
Angular Grid (max. ang.)         AngularGrid ... 1 (Lebedev-50)
Angular grid pruning method      GridPruning ... 4 (adaptive)
Weight generation scheme         WeightScheme... Becke
Basis function cutoff            BFCut       ... 1.0000e-10
Integration weight cutoff        WCut        ... 1.0000e-14
Angular grids for H and He will be reduced by one unit
Partially contracted basis set               ... off
Rotationally invariant grid construction     ... off

Total number of grid points                  ...    15913
Total number of batches                      ...      264
Average number of points per batch           ...       60
Average number of grid points per atom       ...      663

---------------
TD-DFT XC SETUP
---------------

DFT calculation                         ... on
Name of the grid file                   ... /scratch/benzeneDimer-TDA_178/benzeneDimer-TDA.grid_cis.tmp
Exchange functional (TD-DFT)            ... B88
   X-Alpha parameter    XAlpha (TD-DFT) ...  0.666667
   Becke's b parameter  XBeta (TD-DFT)  ...  0.004200
Correlation functional (TD-DFT)         ... LYP
 LDA part of GGA corr.  LDAOpt (TD-DFT) ... VWN-3
Hybrid DFT                              ... on
   Exchange mixing (TD-DFT)             ...  0.200
   GGA exch. scaling (TD-DFT)           ...  0.720
   GGA corr. scaling (TD-DFT)           ...  0.810

Building densities             ... done
Calculating rho(r) on the grid ... done
Building xc-kernel on the grid ... done
                    *** TD-DFT CALCULATION INITIALIZED ***

Entering Solve()
   ... Initialized Buffers
------------------------
DAVIDSON-DIAGONALIZATION
------------------------

Dimension of the eigenvalue problem            ...   5580
Number of roots to be determined               ...     18
Maximum size of the expansion space            ...    180
Maximum number of iterations                   ...    100
Convergence tolerance for the residual         ...    1.000e-06
Convergence tolerance for the energies         ...    1.000e-06
Orthogonality tolerance                        ...    1.000e-14
Level Shift                                    ...    0.000e+00
Constructing the preconditioner                ... o.k.
Building the initial guess                     ... o.k.
Number of trial vectors determined             ...    180


                       ****Iteration    0****

Building the sigma vectors                     ... 
   Memory handling for direct AO based CIS:
   Memory per vector needed      ...     1 MB
   Memory needed                 ...    64 MB
   Memory available              ...   512 MB
   Number of vectors per batch   ...   430
   Number of batches             ...     1
   Time for densities:            0.039
   SHARK[1a]
[cnode13:178298] 7 more processes have sent help message help-mpi-btl-openib.txt / error in device init
[cnode13:178298] Set MCA parameter "orte_base_help_aggregate" to 0 to see all help / error messages
   Time for J+K (Direct):        56.013
   Time for XC-Integration:       1.235
   Time for Sigma-Completion:     0.018

--------------------------------------------------
SOLUTION IN THE SPACE OF THE INITIAL TRIAL VECTORS
--------------------------------------------------

Ordering of basis states:
Basis-state  0:  41->42 (op=0)
Basis-state  1:  41->43 (op=0)
Basis-state  2:  41->44 (op=0)
Basis-state  3:  41->45 (op=0)
Basis-state  4:  40->42 (op=0)
Basis-state  5:  39->42 (op=0)
Basis-state  6:  40->43 (op=0)
Basis-state  7:  39->43 (op=0)
Basis-state  8:  40->44 (op=0)
Basis-state  9:  39->44 (op=0)
Basis-state 10:  40->45 (op=0)
Basis-state 11:  39->45 (op=0)
Basis-state 12:  38->42 (op=0)
Basis-state 13:  38->43 (op=0)
Basis-state 14:  38->44 (op=0)
Basis-state 15:  38->45 (op=0)
Basis-state 16:  41->46 (op=0)
Basis-state 17:  40->46 (op=0)
Basis-state 18:  39->46 (op=0)
Basis-state 19:  38->46 (op=0)
Basis-state 20:  41->47 (op=0)
Basis-state 21:  40->47 (op=0)
Basis-state 22:  39->47 (op=0)
Basis-state 23:  41->48 (op=0)
Basis-state 24:  38->47 (op=0)
Basis-state 25:  37->42 (op=0)
Basis-state 26:  36->42 (op=0)
Basis-state 27:  35->42 (op=0)
Basis-state 28:  34->42 (op=0)
Basis-state 29:  41->49 (op=0)
Basis-state 30:  37->43 (op=0)
Basis-state 31:  36->43 (op=0)
Basis-state 32:  35->43 (op=0)
Basis-state 33:  34->43 (op=0)
Basis-state 34:  37->44 (op=0)
Basis-state 35:  36->44 (op=0)
Basis-state 36:  35->44 (op=0)
Basis-state 37:  34->44 (op=0)
Basis-state 38:  40->48 (op=0)
Basis-state 39:  39->48 (op=0)
Basis-state 40:  37->45 (op=0)
Basis-state 41:  36->45 (op=0)
Basis-state 42:  35->45 (op=0)
Basis-state 43:  34->45 (op=0)
Basis-state 44:  40->49 (op=0)
Basis-state 45:  39->49 (op=0)
Basis-state 46:  33->42 (op=0)
Basis-state 47:  33->43 (op=0)
Basis-state 48:  33->44 (op=0)
Basis-state 49:  33->45 (op=0)
Basis-state 50:  38->48 (op=0)
Basis-state 51:  41->50 (op=0)
Basis-state 52:  38->49 (op=0)
Basis-state 53:  41->51 (op=0)

The initial Hamiltonian (eV):
                  0          1          2          3          4          5    
      0       6.617346  -0.003619  -0.243146  -0.002454  -0.169082   0.117211
      1      -0.003619   6.939327  -0.003819  -0.196412   0.435833   0.646553
      2      -0.243146  -0.003819   6.647957   0.004585  -0.559733   0.368313
      3      -0.002454  -0.196412   0.004585   6.783736   0.217183   0.308939
      4      -0.169082   0.435833  -0.559733   0.217183   6.822755   0.099359
      5       0.117211   0.646553   0.368313   0.308939   0.099359   6.904945
      6      -0.382172   0.150939  -0.214713   0.816084   0.033049   0.006107
      7      -0.578547  -0.110253  -0.315288  -0.585602   0.017460  -0.026165
      8       0.553201   0.027226   0.173132  -0.529121   0.204311   0.030839
      9      -0.370639   0.044414  -0.113526  -0.734453   0.031240   0.236095
     10       0.027249  -0.657073   0.370002  -0.154427  -0.911820  -0.443899
     11       0.042139   0.464896   0.505983   0.106262  -0.244848   0.915863
     12       0.002244   0.495508  -0.012034  -0.987311  -0.099967  -0.144815
     13       0.406987  -0.037812  -0.906525   0.001132   0.485917  -0.352294
     14      -0.009872  -1.036690   0.032416  -0.021187  -0.497951  -0.698492
     15      -0.787864   0.001559  -0.019746   0.003096   0.329812  -0.224202
     16      -0.070052   0.000589   0.038461   0.000043  -0.018734   0.012849
     17      -0.001270  -0.005398  -0.014976  -0.009087   0.004467  -0.022390
     18       0.000902  -0.006988   0.010682  -0.013090  -0.022407  -0.012508
     19      -0.000118  -0.036896   0.000798   0.035564  -0.005733  -0.008178
     20      -0.000087  -0.027931   0.000573   0.027217  -0.001177  -0.001621
     21       0.000691   0.003524  -0.004277  -0.001814   0.002509  -0.010918
     22       0.001023  -0.002647  -0.006194   0.001264   0.012803  -0.002384
     23      -0.000020  -0.016886   0.000244  -0.015797  -0.002961  -0.004320
     24      -0.048670   0.000463   0.025495  -0.000032  -0.015671   0.010788
     25      -0.000564   0.022111  -0.001139   0.007065   0.020682   0.028875
     26      -0.014872  -0.000438  -0.026543  -0.001129   0.020117  -0.015092
     27       0.001715   0.012898   0.000308  -0.030185  -0.004079  -0.005080
     28      -0.013894   0.000483   0.004693  -0.002216  -0.005976   0.002775
     29       0.000171   0.033393  -0.000740  -0.032287   0.001561   0.002119
     30       0.014962  -0.000592   0.010594   0.000242  -0.007227   0.004945
     31      -0.000619  -0.029395  -0.001074   0.033658   0.000130  -0.002461
     32       0.004913   0.000261  -0.021713  -0.000241   0.019014  -0.013603
     33      -0.000163  -0.004703  -0.001332  -0.011964   0.001743  -0.000323
     34      -0.001202   0.011579  -0.000869  -0.025482   0.004336   0.005218
     35      -0.022129  -0.001386  -0.029854   0.000096   0.020716  -0.015517
     36       0.001028  -0.031340   0.000605   0.004998  -0.014701  -0.019891
     37      -0.006588  -0.002007   0.013308   0.001061  -0.005565   0.001572
     38       0.000206   0.005314   0.000654  -0.007701   0.010018   0.000686
     39       0.000374  -0.003675   0.001200   0.005454   0.006918  -0.010256
     40       0.001008   0.000404  -0.009178  -0.000059   0.006368  -0.003881
     41      -0.000570   0.019187  -0.000599  -0.017898   0.006934   0.009221
     42      -0.020984  -0.000860  -0.015840  -0.000554   0.015815  -0.011854
     43      -0.001363   0.003079  -0.001104   0.013510   0.005090   0.005078
     44       0.006525  -0.020763   0.018168  -0.012118  -0.018405   0.015150
     45       0.009468   0.014986   0.025706   0.008348  -0.029042   0.018322
     46       0.000017  -0.033357   0.000344   0.053495  -0.019007  -0.026944
     47      -0.170913  -0.002122  -0.072202   0.000191   0.001072  -0.001118
     48       0.002770  -0.067719   0.003128   0.027450  -0.009291  -0.012650
     49      -0.008943   0.002284   0.149756  -0.000944  -0.103752   0.072018
     50       0.008779   0.000579   0.023501  -0.000064  -0.016661   0.011501
     51      -0.057930   0.000486   0.028145  -0.000064  -0.020372   0.014029
     52       0.045041  -0.000304  -0.021745   0.000098   0.024253  -0.016664
     53      -0.004082   0.000019   0.000472  -0.000033  -0.002952   0.001992
                  6          7          8          9         10         11    
      0      -0.382172  -0.578547   0.553201  -0.370639   0.027249   0.042139
      1       0.150939  -0.110253   0.027226   0.044414  -0.657073   0.464896
      2      -0.214713  -0.315288   0.173132  -0.113526   0.370002   0.505983
      3       0.816084  -0.585602  -0.529121  -0.734453  -0.154427   0.106262
      4       0.033049   0.017460   0.204311   0.031240  -0.911820  -0.244848
      5       0.006107  -0.026165   0.030839   0.236095  -0.443899   0.915863
      6       6.896327  -0.150548  -0.833086  -0.439633   0.174406  -0.039733
      7      -0.150548   6.846943  -0.176251   0.831605  -0.042904   0.151512
      8      -0.833086  -0.176251   6.945657   0.147274  -0.414646  -0.088177
      9      -0.439633   0.831605   0.147274   6.988156  -0.222037   0.408228
     10       0.174406  -0.042904  -0.414646  -0.222037   7.174135  -0.123265
     11      -0.039733   0.151512  -0.088177   0.408228  -0.123265   7.079772
     12      -0.754896   0.545947   0.527068   0.737678  -0.040403   0.025148
     13       0.134586   0.207485  -0.069283   0.043251  -0.327147  -0.494385
     14      -0.325317   0.225877   0.108966   0.141578   0.664870  -0.445288
     15       0.415524   0.624005  -0.553645   0.368121  -0.143212  -0.203847
     16       0.025735   0.039075  -0.046319   0.031192   0.019518   0.027727
     17       0.005240   0.014346  -0.002904   0.008745  -0.003996  -0.017332
     18      -0.009938  -0.005462   0.009279   0.003899   0.014288   0.003880
     19       0.023474  -0.017059  -0.017218  -0.024258   0.016042  -0.010931
     20       0.012670  -0.009148  -0.007403  -0.010398   0.007452  -0.005071
     21       0.001696   0.004028  -0.003682   0.002938  -0.000578  -0.006126
     22       0.003890   0.004917  -0.005923   0.003670  -0.006101  -0.005059
     23      -0.011513   0.008169   0.002842   0.003693   0.009705  -0.006730
     24       0.022776   0.034530  -0.039468   0.026580   0.017881   0.025511
     25       0.003919  -0.002025  -0.001101  -0.000581  -0.018909   0.012547
     26       0.008594   0.014789  -0.008253   0.006512  -0.009207  -0.014436
     27      -0.024073   0.015647   0.015837   0.019885   0.003640  -0.002217
     28       0.003850   0.009567  -0.008549   0.007869   0.002973   0.002773
     29      -0.015914   0.011391   0.007696   0.010691  -0.011960   0.008124
     30      -0.006046  -0.009299   0.011075  -0.007036   0.003314   0.004374
     31       0.020208  -0.013361  -0.013876  -0.018247   0.012065  -0.009857
     32       0.002251   0.004044  -0.000497   0.000047  -0.012604  -0.017923
     33      -0.007780   0.006280   0.006955   0.010405  -0.000484  -0.001474
     34      -0.017461   0.013992   0.021931   0.032612  -0.012949   0.008304
     35       0.012811   0.019957  -0.014157   0.008724  -0.011303  -0.018130
     36      -0.011021   0.007018  -0.000111  -0.001722   0.021072  -0.013726
     37      -0.001904  -0.002137  -0.003420   0.001055   0.004375   0.002638
     38      -0.016462   0.001983   0.012792   0.001984  -0.021557   0.000169
     39       0.002010  -0.015407   0.007463  -0.012403   0.000148  -0.021565
     40      -0.000635  -0.001074   0.003850  -0.002719  -0.002085  -0.002662
     41      -0.008913   0.007507   0.003332   0.006178  -0.007272   0.004514
     42       0.015344   0.024016  -0.020038   0.013628  -0.009293  -0.013854
     43       0.009052  -0.004009  -0.003796  -0.002229  -0.002465   0.000266
     44      -0.012468  -0.005081   0.007045  -0.004064   0.022055   0.010047
     45      -0.004868  -0.016691   0.009443  -0.006591   0.009956   0.029519
     46      -0.006039   0.003658  -0.008743  -0.012580  -0.048041   0.033658
     47       0.078864   0.117823  -0.102939   0.066433   0.022949   0.033085
     48      -0.021719   0.009804  -0.041341  -0.064768  -0.025021   0.017289
     49       0.021874   0.033030  -0.051573   0.035764   0.089852   0.130090
     50      -0.012953  -0.019457   0.014622  -0.009678   0.009748   0.014020
     51       0.026177   0.039681  -0.047046   0.031685   0.020727   0.029576
     52      -0.026073  -0.039360   0.046073  -0.030986  -0.025507  -0.036404
     53       0.000699   0.001090  -0.001155   0.000782   0.000739   0.001046
                 12         13         14         15         16         17    
      0       0.002244   0.406987  -0.009872  -0.787864  -0.070052  -0.001270
      1       0.495508  -0.037812  -1.036690   0.001559   0.000589  -0.005398
      2      -0.012034  -0.906525   0.032416  -0.019746   0.038461  -0.014976
      3      -0.987311   0.001132  -0.021187   0.003096   0.000043  -0.009087
      4      -0.099967   0.485917  -0.497951   0.329812  -0.018734   0.004467
      5      -0.144815  -0.352294  -0.698492  -0.224202   0.012849  -0.022390
      6      -0.754896   0.134586  -0.325317   0.415524   0.025735   0.005240
      7       0.545947   0.207485   0.225877   0.624005   0.039075   0.014346
      8       0.527068  -0.069283   0.108966  -0.553645  -0.046319  -0.002904
      9       0.737678   0.043251   0.141578   0.368121   0.031192   0.008745
     10      -0.040403  -0.327147   0.664870  -0.143212   0.019518  -0.003996
     11       0.025148  -0.494385  -0.445288  -0.203847   0.027727  -0.017332
     12       7.310526  -0.003564  -0.212504  -0.001575  -0.000117   0.011966
     13      -0.003564   7.239838   0.003755  -0.123583  -0.048216   0.015959
     14      -0.212504   0.003755   7.322273   0.001943   0.001075   0.015669
     15      -0.001575  -0.123583   0.001943   7.068796   0.051329   0.005413
     16      -0.000117  -0.048216   0.001075   0.051329   7.185861  -0.000075
     17       0.011966   0.015959   0.015669   0.005413  -0.000075   7.419145
     18       0.017236  -0.010636   0.022995  -0.003943   0.000053  -0.000962
     19      -0.049243   0.000513   0.030686   0.000033   0.000146   0.000003
     20      -0.025012   0.000307   0.016197   0.000017   0.000107  -0.000459
     21       0.009514   0.004703   0.010881   0.001190  -0.000431   0.175353
     22      -0.006594   0.006542  -0.007666   0.001837  -0.000632   0.063952
     23      -0.001989  -0.000071  -0.007621   0.000060  -0.000019  -0.006634
     24      -0.000002  -0.037153   0.000799   0.041990   0.193844  -0.000072
     25      -0.005427   0.000388  -0.018300   0.000498  -0.000006  -0.001539
     26       0.001673   0.027179  -0.000487   0.006699   0.000170  -0.000708
     27       0.041594  -0.000568  -0.011196  -0.001431   0.000028  -0.000932
     28       0.002942  -0.007893  -0.000177   0.013248  -0.000445  -0.001119
     29       0.032567  -0.000296  -0.020295  -0.000039   0.000005   0.000084
     30      -0.000465  -0.004911   0.000313  -0.013843  -0.001815  -0.000453
[...]
   0  28   47811.7    209.2     -0.00000 ( -0.00000,  0.00000) ( -0.00000,  0.00000) ( -0.00000,  0.00000)
   0  29   47811.7    209.2     -0.00000 (  0.00000,  0.00000) (  0.00000,  0.00000) (  0.00000,  0.00000)
   0  30   47835.4    209.1      0.01328 (  0.01844, -0.04303) (  0.03836, -0.08951) (  0.00161, -0.00375)
   0  31   47949.7    208.6      0.15301 ( -0.00129,  0.00101) (  0.00100, -0.00078) ( -0.00005,  0.00004)
   0  32   47957.1    208.5      0.00000 (  0.00000, -0.00000) ( -0.00000,  0.00000) ( -0.00000,  0.00000)
   0  33   47957.1    208.5     -0.00000 (  0.00000,  0.00000) (  0.00000,  0.00000) ( -0.00000, -0.00000)
   0  34   47957.1    208.5      0.00002 (  0.00001, -0.00001) ( -0.00001,  0.00001) (  0.00000, -0.00000)
   0  35   48053.1    208.1     -0.00000 (  0.00005,  0.00001) (  0.00000,  0.00000) (  0.00000,  0.00000)
   0  36   48053.1    208.1      0.00000 (  0.00001,  0.00000) (  0.00002,  0.00000) ( -0.00000, -0.00000)
   0  37   48053.1    208.1      0.00000 ( -0.00005,  0.00005) (  0.00001, -0.00001) ( -0.00000,  0.00000)
   0  38   48145.7    207.7     -0.03476 (  0.00062, -0.12781) (  0.00008, -0.01719) (  0.00001, -0.00227)
   0  39   48186.5    207.5     -0.00000 ( -0.00000,  0.00000) ( -0.00000,  0.00000) (  0.00000, -0.00000)
   0  40   48186.5    207.5      0.00000 (  0.00001,  0.00000) (  0.00000,  0.00000) ( -0.00000, -0.00000)
   0  41   48186.5    207.5      0.00000 ( -0.00049,  0.00035) ( -0.00006,  0.00005) ( -0.00001,  0.00001)
   0  42   48195.7    207.5      0.01920 (  0.00020,  0.00498) ( -0.00000, -0.00004) (  0.00001,  0.00036)
   0  43   48224.1    207.4     -0.02206 ( -0.01326,  0.01427) (  0.00079, -0.00085) ( -0.00336,  0.00361)
   0  44   48325.8    206.9      0.02089 ( -0.00105,  0.00005) (  0.00013, -0.00001) ( -0.00014,  0.00001)
   0  45   48711.2    205.3     -0.00000 ( -0.00000, -0.00000) (  0.00000,  0.00000) ( -0.00000, -0.00000)
   0  46   48711.2    205.3     -0.00000 ( -0.00000, -0.00000) (  0.00000,  0.00000) (  0.00000,  0.00000)
   0  47   48711.3    205.3     -0.00000 ( -0.00000,  0.00000) (  0.00000, -0.00000) ( -0.00000,  0.00000)
   0  48   48830.8    204.8     -0.00001 ( -0.00133, -0.00035) (  0.00062,  0.00016) ( -0.00019, -0.00005)
   0  49   48830.8    204.8      0.00000 ( -0.00001, -0.00000) ( -0.00001, -0.00000) (  0.00002,  0.00000)
   0  50   48830.8    204.8      0.00000 (  0.00000,  0.00000) ( -0.00001, -0.00000) (  0.00000,  0.00000)
   0  51   48854.8    204.7     -0.19233 ( -0.02748,  0.20337) (  0.01293, -0.09567) ( -0.00397,  0.02939)
   0  52   48916.1    204.4      0.00000 (  0.00001,  0.00001) ( -0.00000, -0.00000) (  0.00000,  0.00000)
   0  53   48916.1    204.4      0.00000 (  0.00001,  0.00000) ( -0.00001, -0.00000) (  0.00000,  0.00000)
   0  54   48916.1    204.4     -0.00000 ( -0.00000,  0.00000) (  0.00000, -0.00000) ( -0.00000,  0.00000)
   0  55   49108.5    203.6     -0.00000 (  0.00006, -0.00002) ( -0.00001,  0.00000) (  0.00000, -0.00000)
   0  56   49108.5    203.6     -0.00000 (  0.00001,  0.00000) (  0.00001,  0.00000) ( -0.00001, -0.00000)
   0  57   49108.5    203.6     -0.00000 ( -0.00000, -0.00000) (  0.00000,  0.00000) ( -0.00000, -0.00000)
   0  58   49136.4    203.5      0.04986 ( -0.00033,  0.00317) (  0.00004, -0.00043) ( -0.00003,  0.00026)
   0  59   52448.9    190.7     -0.00337 (  0.00038,  0.00078) (  0.00029,  0.00060) ( -0.00008, -0.00016)
   0  60   52479.9    190.5      0.01004 (  0.04409,  0.01056) (  0.09458,  0.02264) ( -0.03054, -0.00731)
   0  61   56713.5    176.3     -0.00000 (  0.00000, -0.00001) ( -0.00000,  0.00000) (  0.00000, -0.00000)
   0  62   56713.5    176.3     -0.00000 (  0.00000, -0.00000) ( -0.00000,  0.00000) ( -0.00000,  0.00000)
   0  63   56713.5    176.3      0.00000 ( -0.00000,  0.00000) ( -0.00000,  0.00001) (  0.00000, -0.00000)
   0  64   57388.0    174.3      0.01431 ( -0.07468, -0.00739) ( -0.35428, -0.03504) (  0.22785,  0.02253)
   0  65   58304.1    171.5     -0.00000 ( -0.00000,  0.00000) ( -0.00000,  0.00000) ( -0.00000,  0.00000)
   0  66   58304.1    171.5      0.00000 ( -0.00000, -0.00000) (  0.00000,  0.00000) ( -0.00000, -0.00000)
   0  67   58304.1    171.5      0.00000 (  0.00000, -0.00000) (  0.00000, -0.00000) ( -0.00000,  0.00000)
   0  68   59135.7    169.1     -0.06754 ( -0.00855,  0.01889) (  0.00096, -0.00211) ( -0.00055,  0.00123)
   0  69   59146.2    169.1      0.03934 ( -0.17866, -0.34521) (  0.02096,  0.04049) ( -0.01236, -0.02388)
   0  70   60410.7    165.5      0.00328 (  0.00029,  0.00001) (  0.00135,  0.00003) ( -0.00057, -0.00001)
   0  71   60476.0    165.4      0.06594 (  0.11331,  0.05504) (  0.62189,  0.30207) ( -0.22354, -0.10858)
   0  72   61606.4    162.3     -0.08954 ( -0.02122, -0.67292) (  0.00354,  0.11235) ( -0.00187, -0.05933)

-------------------------------------------------------------------------------------------------------
                    SOC CORRECTED CD SPECTRUM VIA TRANSITION VELOCITY DIPOLE MOMENTS                   
-------------------------------------------------------------------------------------------------------
   State    Energy  Wavelengt      R               MX                    MY                    MZ  
            (cm-1)    (nm)     (1e40*sgs)         (au)                  (au)                  (au) 
-------------------------------------------------------------------------------------------------------
   0   1   33339.1    299.9      0.00000 (  0.00000, -0.00000) (  0.00000, -0.00000) ( -0.00000,  0.00000)
   0   2   33339.1    299.9      0.00000 ( -0.00000, -0.00000) (  0.00000,  0.00000) (  0.00000,  0.00000)
   0   3   33339.1    299.9     -0.00000 ( -0.00000,  0.00000) ( -0.00000,  0.00000) ( -0.00000,  0.00000)
   0   4   33375.7    299.6      0.00000 (  0.00000, -0.00000) ( -0.00000,  0.00000) (  0.00000, -0.00000)
   0   5   33375.7    299.6      0.00000 (  0.00000,  0.00000) (  0.00000,  0.00000) ( -0.00000, -0.00000)
   0   6   33375.7    299.6      0.00000 (  0.00000, -0.00000) ( -0.00000,  0.00000) (  0.00000, -0.00000)
   0   7   38296.9    261.1      0.00000 ( -0.00000,  0.00000) ( -0.00000,  0.00000) (  0.00000, -0.00000)
   0   8   38296.9    261.1     -0.00000 (  0.00000, -0.00000) (  0.00001, -0.00000) ( -0.00000,  0.00000)
   0   9   38296.9    261.1     -0.00000 ( -0.00001, -0.00001) ( -0.00000, -0.00000) (  0.00000,  0.00000)
   0  10   38340.7    260.8     -0.00000 ( -0.00000,  0.00000) ( -0.00000,  0.00000) ( -0.00000,  0.00000)
   0  11   38340.7    260.8     -0.00000 (  0.00000,  0.00000) (  0.00000,  0.00000) ( -0.00000, -0.00000)
   0  12   38340.7    260.8      0.00000 (  0.00000,  0.00000) ( -0.00000, -0.00000) (  0.00000,  0.00000)
   0  13   38424.6    260.3     -0.00000 (  0.00000, -0.00000) ( -0.00000,  0.00000) (  0.00000, -0.00000)
   0  14   38424.6    260.3      0.00000 ( -0.00000, -0.00000) ( -0.00000, -0.00000) (  0.00000,  0.00000)
   0  15   38424.6    260.3      0.00000 ( -0.00000,  0.00000) (  0.00000, -0.00000) ( -0.00000,  0.00000)
   0  16   38425.5    260.2      0.00000 (  0.00000,  0.00000) ( -0.00000, -0.00001) (  0.00000,  0.00000)
   0  17   38425.5    260.2     -0.00000 ( -0.00000, -0.00000) ( -0.00000, -0.00001) (  0.00000,  0.00000)
   0  18   38425.5    260.2     -0.00000 ( -0.00000, -0.00000) (  0.00000,  0.00000) ( -0.00000, -0.00000)
   0  19   41386.7    241.6     -0.00000 ( -0.00000,  0.00000) (  0.00000, -0.00000) (  0.00000, -0.00000)
   0  20   41386.7    241.6     -0.00000 ( -0.00000, -0.00000) (  0.00000,  0.00000) ( -0.00000, -0.00000)
   0  21   41386.7    241.6     -0.00000 (  0.00000, -0.00000) ( -0.00000,  0.00000) ( -0.00000,  0.00000)
   0  22   41471.7    241.1      0.00000 (  0.00000, -0.00000) (  0.00000, -0.00000) ( -0.00000,  0.00000)
   0  23   41471.7    241.1     -0.00000 ( -0.00000, -0.00000) ( -0.00000, -0.00000) (  0.00000,  0.00000)
   0  24   41471.7    241.1     -0.00000 ( -0.00000,  0.00000) (  0.00000, -0.00000) ( -0.00000,  0.00000)
   0  25   43714.7    228.8     -0.00114 (  0.00386, -0.05555) ( -0.00196,  0.02820) (  0.00022, -0.00312)
   0  26   43862.7    228.0      0.00186 (  0.00001,  0.00016) (  0.00000,  0.00002) (  0.00000,  0.00005)
   0  27   47811.7    209.2      0.00000 ( -0.00000, -0.00000) ( -0.00000, -0.00000) ( -0.00000, -0.00000)
   0  28   47811.7    209.2     -0.00000 ( -0.00000,  0.00000) ( -0.00000,  0.00000) ( -0.00000,  0.00000)
   0  29   47811.7    209.2      0.00000 (  0.00000,  0.00000) (  0.00000,  0.00000) (  0.00000,  0.00000)
   0  30   47835.4    209.1     -0.04628 (  0.01844, -0.04303) (  0.03836, -0.08951) (  0.00161, -0.00375)
   0  31   47949.7    208.6      0.05532 ( -0.00129,  0.00101) (  0.00100, -0.00078) ( -0.00005,  0.00004)
   0  32   47957.1    208.5      0.00000 (  0.00000, -0.00000) ( -0.00000,  0.00000) ( -0.00000,  0.00000)
   0  33   47957.1    208.5     -0.00000 (  0.00000,  0.00000) (  0.00000,  0.00000) ( -0.00000, -0.00000)
   0  34   47957.1    208.5      0.00001 (  0.00001, -0.00001) ( -0.00001,  0.00001) (  0.00000, -0.00000)
   0  35   48053.1    208.1     -0.00000 (  0.00005,  0.00001) (  0.00000,  0.00000) (  0.00000,  0.00000)
   0  36   48053.1    208.1      0.00000 (  0.00001,  0.00000) (  0.00002,  0.00000) ( -0.00000, -0.00000)
   0  37   48053.1    208.1      0.00000 ( -0.00005,  0.00005) (  0.00001, -0.00001) ( -0.00000,  0.00000)
   0  38   48145.7    207.7     -0.02255 (  0.00062, -0.12781) (  0.00008, -0.01719) (  0.00001, -0.00227)
   0  39   48186.5    207.5      0.00000 ( -0.00000,  0.00000) ( -0.00000,  0.00000) (  0.00000, -0.00000)
   0  40   48186.5    207.5     -0.00000 (  0.00001,  0.00000) (  0.00000,  0.00000) ( -0.00000, -0.00000)
   0  41   48186.5    207.5     -0.00000 ( -0.00049,  0.00035) ( -0.00006,  0.00005) ( -0.00001,  0.00001)
   0  42   48195.7    207.5      0.01904 (  0.00020,  0.00498) ( -0.00000, -0.00004) (  0.00001,  0.00036)
   0  43   48224.1    207.4     -0.00777 ( -0.01326,  0.01427) (  0.00079, -0.00085) ( -0.00336,  0.00361)
   0  44   48325.8    206.9      0.00088 ( -0.00105,  0.00005) (  0.00013, -0.00001) ( -0.00014,  0.00001)
   0  45   48711.2    205.3      0.00000 ( -0.00000, -0.00000) (  0.00000,  0.00000) ( -0.00000, -0.00000)
   0  46   48711.2    205.3     -0.00000 ( -0.00000, -0.00000) (  0.00000,  0.00000) (  0.00000,  0.00000)
   0  47   48711.3    205.3      0.00000 ( -0.00000,  0.00000) (  0.00000, -0.00000) ( -0.00000,  0.00000)
   0  48   48830.8    204.8     -0.00000 ( -0.00133, -0.00035) (  0.00062,  0.00016) ( -0.00019, -0.00005)
   0  49   48830.8    204.8      0.00000 ( -0.00001, -0.00000) ( -0.00001, -0.00000) (  0.00002,  0.00000)
   0  50   48830.8    204.8      0.00000 (  0.00000,  0.00000) ( -0.00001, -0.00000) (  0.00000,  0.00000)
   0  51   48854.8    204.7     -0.01747 ( -0.02748,  0.20337) (  0.01293, -0.09567) ( -0.00397,  0.02939)
   0  52   48916.1    204.4      0.00000 (  0.00001,  0.00001) ( -0.00000, -0.00000) (  0.00000,  0.00000)
   0  53   48916.1    204.4      0.00000 (  0.00001,  0.00000) ( -0.00001, -0.00000) (  0.00000,  0.00000)
   0  54   48916.1    204.4     -0.00000 ( -0.00000,  0.00000) (  0.00000, -0.00000) ( -0.00000,  0.00000)
   0  55   49108.5    203.6     -0.00000 (  0.00006, -0.00002) ( -0.00001,  0.00000) (  0.00000, -0.00000)
   0  56   49108.5    203.6      0.00000 (  0.00001,  0.00000) (  0.00001,  0.00000) ( -0.00001, -0.00000)
   0  57   49108.5    203.6      0.00000 ( -0.00000, -0.00000) (  0.00000,  0.00000) ( -0.00000, -0.00000)
   0  58   49136.4    203.5      0.01984 ( -0.00033,  0.00317) (  0.00004, -0.00043) ( -0.00003,  0.00026)
   0  59   52448.9    190.7      0.00070 (  0.00038,  0.00078) (  0.00029,  0.00060) ( -0.00008, -0.00016)
   0  60   52479.9    190.5     -0.00110 (  0.04409,  0.01056) (  0.09458,  0.02264) ( -0.03054, -0.00731)
   0  61   56713.5    176.3      0.00000 (  0.00000, -0.00001) ( -0.00000,  0.00000) (  0.00000, -0.00000)
   0  62   56713.5    176.3      0.00000 (  0.00000, -0.00000) ( -0.00000,  0.00000) ( -0.00000,  0.00000)
   0  63   56713.5    176.3      0.00000 ( -0.00000,  0.00000) ( -0.00000,  0.00001) (  0.00000, -0.00000)
   0  64   57388.0    174.3      0.00268 ( -0.07468, -0.00739) ( -0.35428, -0.03504) (  0.22785,  0.02253)
   0  65   58304.1    171.5     -0.00000 ( -0.00000,  0.00000) ( -0.00000,  0.00000) ( -0.00000,  0.00000)
   0  66   58304.1    171.5      0.00000 ( -0.00000, -0.00000) (  0.00000,  0.00000) ( -0.00000, -0.00000)
   0  67   58304.1    171.5     -0.00000 (  0.00000, -0.00000) (  0.00000, -0.00000) ( -0.00000,  0.00000)
   0  68   59135.7    169.1     -0.00028 ( -0.00855,  0.01889) (  0.00096, -0.00211) ( -0.00055,  0.00123)
   0  69   59146.2    169.1      0.00012 ( -0.17866, -0.34521) (  0.02096,  0.04049) ( -0.01236, -0.02388)
   0  70   60410.7    165.5     -0.00034 (  0.00029,  0.00001) (  0.00135,  0.00003) ( -0.00057, -0.00001)
   0  71   60476.0    165.4     -0.00915 (  0.11331,  0.05504) (  0.62189,  0.30207) ( -0.22354, -0.10858)
   0  72   61606.4    162.3     -0.04389 ( -0.02122, -0.67292) (  0.00354,  0.11235) ( -0.00187, -0.05933)

*The complex numbers are printed as (real, imaginary)

The electronic components of the SOC ground state dipole moment in a.u. are:
           X                     Y                     Z
(  0.00003, -0.00000) (  0.00021,  0.00000) (  0.00029, -0.00000)

Total run time:      227.182 sec

           *** ORCA-CIS/TD-DFT FINISHED WITHOUT ERROR ***

Maximum memory used throughout the entire CIS-calculation: 96.0 MB

---------------------------
SOC CIS/TD-DFT TOTAL ENERGY
---------------------------

    E(SCF)        =   -464.165944123 Eh
    E(SOC CIS)    =      0.151904260 Eh (SOC Root  1)
    ----------------------------- ---------
    E(tot)        =   -464.014039862 Eh


-------------------------   --------------------
FINAL SINGLE POINT ENERGY      -464.014039862420
-------------------------   --------------------


                            ***************************************
                            *     ORCA property calculations      *
                            ***************************************

                                    ---------------------
                                    Active property flags
                                    ---------------------
   (+) Dipole Moment


------------------------------------------------------------------------------
                       ORCA ELECTRIC PROPERTIES CALCULATION
------------------------------------------------------------------------------

Dipole Moment Calculation                       ... on
Quadrupole Moment Calculation                   ... off
Polarizability Calculation                      ... off
GBWName                                         ... /scratch/benzeneDimer-TDA_178/benzeneDimer-TDA.gbw
Electron density file                           ... /scratch/benzeneDimer-TDA_178/benzeneDimer-TDA.scfp
The origin for moment calculation is the CENTER OF MASS  = ( 0.000001,  0.000011  0.000014)

-------------
DIPOLE MOMENT
-------------
                                X             Y             Z
Electronic contribution:      0.00003       0.00021       0.00029
Nuclear contribution   :     -0.00001      -0.00015      -0.00018
                        -----------------------------------------
Total Dipole Moment    :      0.00001       0.00006       0.00011
                        -----------------------------------------
Magnitude (a.u.)       :      0.00013
Magnitude (Debye)      :      0.00032



--------------------
Rotational spectrum 
--------------------
 
Rotational constants in cm-1:     0.054384     0.022519     0.021201 
Rotational constants in MHz :  1630.400814   675.100582   635.582701 

 Dipole components along the rotational axes: 
x,y,z [a.u.] :     0.000118    -0.000014    -0.000046 
x,y,z [Debye]:     0.000299    -0.000037    -0.000118 

 
--------------------------------------------------------------------------
WARNING: There was an error initializing an OpenFabrics device.

  Local host:   cnode13
  Local device: mlx5_0
--------------------------------------------------------------------------
[cnode13:178979] 7 more processes have sent help message help-mpi-btl-openib.txt / error in device init
[cnode13:178979] Set MCA parameter "orte_base_help_aggregate" to 0 to see all help / error messages

Timings for individual modules:

Sum of individual times         ...      245.377 sec (=   4.090 min)
GTO integral calculation        ...        2.892 sec (=   0.048 min)   1.2 %
SCF iterations                  ...       14.644 sec (=   0.244 min)   6.0 %
CIS module                      ...      227.841 sec (=   3.797 min)  92.9 %
                             ****ORCA TERMINATED NORMALLY****
TOTAL RUN TIME: 0 days 0 hours 4 minutes 6 seconds 251 msec

Sender: Unischeduler System <lcz@mgt01>
Subject: Job 138876: <#!/bin/bash
#BSUB -J intel
#BSUB -o benzeneDimer-TDA.out
#BSUB -n 8
#BSUB -q cqueue
export LD_LIBRARY_PATH=/apps/software/openmpi-4.1.1/lib:/apps/software/orca_5_0_0:$LD_LIBRARY_PATH
export PATH=/apps/software/openmpi-4.1.1/bin:/apps/software/orca_5_0_0:$PATH
mkdir /scratch/benzeneDimer-TDA_178
scp $USER@mgt01:/apps/users/lcz/exe10/task4/benzeneDimer-TDA.inp /scratch/benzeneDimer-TDA_178
/apps/software/orca_5_0_0/orca /scratch/benzeneDimer-TDA_178/benzeneDimer-TDA.inp >& benzeneDimer-TDA.out
scp /scratch/benzeneDimer-TDA_178/*.gbw $USER@mgt01:/apps/users/lcz/exe10/task4
scp /scratch/benzeneDimer-TDA_178/*.xyz $USER@mgt01:/apps/users/lcz/exe10/task4
scp /scratch/benzeneDimer-TDA_178/*.trj $USER@mgt01:/apps/users/lcz/exe10/task4> Exited

Job <#!/bin/bash
#BSUB -J intel
#BSUB -o benzeneDimer-TDA.out
#BSUB -n 8
#BSUB -q cqueue
export LD_LIBRARY_PATH=/apps/software/openmpi-4.1.1/lib:/apps/software/orca_5_0_0:$LD_LIBRARY_PATH
export PATH=/apps/software/openmpi-4.1.1/bin:/apps/software/orca_5_0_0:$PATH
mkdir /scratch/benzeneDimer-TDA_178
scp $USER@mgt01:/apps/users/lcz/exe10/task4/benzeneDimer-TDA.inp /scratch/benzeneDimer-TDA_178
/apps/software/orca_5_0_0/orca /scratch/benzeneDimer-TDA_178/benzeneDimer-TDA.inp >& benzeneDimer-TDA.out
scp /scratch/benzeneDimer-TDA_178/*.gbw $USER@mgt01:/apps/users/lcz/exe10/task4
scp /scratch/benzeneDimer-TDA_178/*.xyz $USER@mgt01:/apps/users/lcz/exe10/task4
scp /scratch/benzeneDimer-TDA_178/*.trj $USER@mgt01:/apps/users/lcz/exe10/task4> was submitted from host <mgt01> by user <lcz>.
Job was executed on host(s) <8*cnode13>, in queue <cqueue>, as user <lcz>.
</apps/users/lcz> was used as the home directory.
</apps/users/lcz/exe10/task4> was used as the working directory.
Started at 2022-05-30 11:22:25
Results reported at 2022-05-30 11:26:33

Your job looked like:

------------------------------------------------------------
# User input
#!/bin/bash
#BSUB -J intel
#BSUB -o benzeneDimer-TDA.out
#BSUB -n 8
#BSUB -q cqueue
export LD_LIBRARY_PATH=/apps/software/openmpi-4.1.1/lib:/apps/software/orca_5_0_0:$LD_LIBRARY_PATH
export PATH=/apps/software/openmpi-4.1.1/bin:/apps/software/orca_5_0_0:$PATH
mkdir /scratch/benzeneDimer-TDA_178
scp $USER@mgt01:/apps/users/lcz/exe10/task4/benzeneDimer-TDA.inp /scratch/benzeneDimer-TDA_178
/apps/software/orca_5_0_0/orca /scratch/benzeneDimer-TDA_178/benzeneDimer-TDA.inp >& benzeneDimer-TDA.out
scp /scratch/benzeneDimer-TDA_178/*.gbw $USER@mgt01:/apps/users/lcz/exe10/task4
scp /scratch/benzeneDimer-TDA_178/*.xyz $USER@mgt01:/apps/users/lcz/exe10/task4
scp /scratch/benzeneDimer-TDA_178/*.trj $USER@mgt01:/apps/users/lcz/exe10/task4
------------------------------------------------------------

Exited with exit code 1.

Resource usage summary:

    CPU time   :         1915.06 sec.
    Max Memory :              1585 MB
    Max Processes  :              13


The output (if any) follows:

/scratch/benzeneDimer-TDA_178/*.xyz: No such file or directory
/scratch/benzeneDimer-TDA_178/*.trj: No such file or directory
