
                                        *****************
                                        * O   R   C   A *
                                        *****************

                                            #,                                       
                                            ###                                      
                                            ####                                     
                                            #####                                    
                                            ######                                   
                                           ########,                                 
                                     ,,################,,,,,                         
                               ,,#################################,,                 
                          ,,##########################################,,             
                       ,#########################################, ''#####,          
                    ,#############################################,,   '####,        
                  ,##################################################,,,,####,       
                ,###########''''           ''''###############################       
              ,#####''   ,,,,##########,,,,          '''####'''          '####       
            ,##' ,,,,###########################,,,                        '##       
           ' ,,###''''                  '''############,,,                           
         ,,##''                                '''############,,,,        ,,,,,,###''
      ,#''                                            '''#######################'''  
     '                                                          ''''####''''         
             ,#######,   #######,   ,#######,      ##                                
            ,#'     '#,  ##    ##  ,#'     '#,    #''#        ######   ,####,        
            ##       ##  ##   ,#'  ##            #'  '#       #        #'  '#        
            ##       ##  #######   ##           ,######,      #####,   #    #        
            '#,     ,#'  ##    ##  '#,     ,#' ,#      #,         ##   #,  ,#        
             '#######'   ##     ##  '#######'  #'      '#     #####' # '####'        



                  #######################################################
                  #                        -***-                        #
                  #          Department of theory and spectroscopy      #
                  #    Directorship and core code : Frank Neese         #
                  #        Max Planck Institute fuer Kohlenforschung    #
                  #                Kaiser Wilhelm Platz 1               #
                  #                 D-45470 Muelheim/Ruhr               #
                  #                      Germany                        #
                  #                                                     #
                  #                  All rights reserved                #
                  #                        -***-                        #
                  #######################################################


                         Program Version 5.0.0 -  RELEASE  -
                                (SVN: $Rev: 19529$)
                ($Date: 2021-06-28 11:36:33 +0200 (Mo, 28 Jun 2021) $)


 With contributions from (in alphabetic order):
   Daniel Aravena         : Magnetic Suceptibility
   Michael Atanasov       : Ab Initio Ligand Field Theory (pilot matlab implementation)
   Alexander A. Auer      : GIAO ZORA, VPT2 properties, NMR spectrum
   Ute Becker             : Parallelization
   Giovanni Bistoni       : ED, misc. LED, open-shell LED, HFLD
   Martin Brehm           : Molecular dynamics
   Dmytro Bykov           : SCF Hessian
   Vijay G. Chilkuri      : MRCI spin determinant printing, contributions to CSF-ICE
   Dipayan Datta          : RHF DLPNO-CCSD density
   Achintya Kumar Dutta   : EOM-CC, STEOM-CC
   Dmitry Ganyushin       : Spin-Orbit,Spin-Spin,Magnetic field MRCI
   Miquel Garcia          : C-PCM Hessian, Gaussian charge scheme
   Yang Guo               : DLPNO-NEVPT2, F12-NEVPT2, CIM, IAO-localization
   Andreas Hansen         : Spin unrestricted coupled pair/coupled cluster methods
   Benjamin Helmich-Paris : MC-RPA, TRAH-SCF, COSX integrals
   Lee Huntington         : MR-EOM, pCC
   Robert Izsak           : Overlap fitted RIJCOSX, COSX-SCS-MP3, EOM
   Marcus Kettner         : VPT2
   Christian Kollmar      : KDIIS, OOCD, Brueckner-CCSD(T), CCSD density, CASPT2, CASPT2-K
   Simone Kossmann        : Meta GGA functionals, TD-DFT gradient, OOMP2, MP2 Hessian
   Martin Krupicka        : Initial AUTO-CI
   Lucas Lang             : DCDCAS
   Marvin Lechner         : AUTO-CI (C++ implementation), FIC-MRCC
   Dagmar Lenk            : GEPOL surface, SMD
   Dimitrios Liakos       : Extrapolation schemes; Compound Job, initial MDCI parallelization
   Dimitrios Manganas     : Further ROCIS development; embedding schemes
   Dimitrios Pantazis     : SARC Basis sets
   Anastasios Papadopoulos: AUTO-CI, single reference methods and gradients
   Taras Petrenko         : DFT Hessian,TD-DFT gradient, ASA, ECA, R-Raman, ABS, FL, XAS/XES, NRVS
   Peter Pinski           : DLPNO-MP2, DLPNO-MP2 Gradient
   Christoph Reimann      : Effective Core Potentials
   Marius Retegan         : Local ZFS, SOC
   Christoph Riplinger    : Optimizer, TS searches, QM/MM, DLPNO-CCSD(T), (RO)-DLPNO pert. Triples
   Tobias Risthaus        : Range-separated hybrids, TD-DFT gradient, RPA, STAB
   Michael Roemelt        : Original ROCIS implementation
   Masaaki Saitow         : Open-shell DLPNO-CCSD energy and density
   Barbara Sandhoefer     : DKH picture change effects
   Avijit Sen             : IP-ROCIS
   Kantharuban Sivalingam : CASSCF convergence, NEVPT2, FIC-MRCI
   Bernardo de Souza      : ESD, SOC TD-DFT
   Georgi Stoychev        : AutoAux, RI-MP2 NMR
   Willem Van den Heuvel  : Paramagnetic NMR
   Boris Wezisla          : Elementary symmetry handling
   Frank Wennmohs         : Technical directorship


 We gratefully acknowledge several colleagues who have allowed us to
 interface, adapt or use parts of their codes:
   Stefan Grimme, W. Hujo, H. Kruse, P. Pracht,  : VdW corrections, initial TS optimization,
                  C. Bannwarth, S. Ehlert          DFT functionals, gCP, sTDA/sTD-DF
   Ed Valeev, F. Pavosevic, A. Kumar             : LibInt (2-el integral package), F12 methods
   Garnet Chan, S. Sharma, J. Yang, R. Olivares  : DMRG
   Ulf Ekstrom                                   : XCFun DFT Library
   Mihaly Kallay                                 : mrcc  (arbitrary order and MRCC methods)
   Jiri Pittner, Ondrej Demel                    : Mk-CCSD
   Frank Weinhold                                : gennbo (NPA and NBO analysis)
   Christopher J. Cramer and Donald G. Truhlar   : smd solvation model
   Lars Goerigk                                  : TD-DFT with DH, B97 family of functionals
   V. Asgeirsson, H. Jonsson                     : NEB implementation
   FAccTs GmbH                                   : IRC, NEB, NEB-TS, DLPNO-Multilevel, CI-OPT
                                                   MM, QMMM, 2- and 3-layer-ONIOM, Crystal-QMMM,
                                                   LR-CPCM, SF, NACMEs, symmetry and pop. for TD-DFT,
                                                   nearIR, NL-DFT gradient (VV10), updates on ESD,
                                                   ML-optimized integration grids
   S Lehtola, MJT Oliveira, MAL Marques          : LibXC Library
   Liviu Ungur et al                             : ANISO software


 Your calculation uses the libint2 library for the computation of 2-el integrals
 For citations please refer to: http://libint.valeyev.net

 Your ORCA version has been built with support for libXC version: 5.1.0
 For citations please refer to: https://tddft.org/programs/libxc/

 This ORCA versions uses:
   CBLAS   interface :  Fast vector & matrix operations
   LAPACKE interface :  Fast linear algebra routines
   SCALAPACK package :  Parallel linear algebra routines
   Shared memory     :  Shared parallel matrices
   BLAS/LAPACK       :  OpenBLAS 0.3.15  USE64BITINT DYNAMIC_ARCH NO_AFFINITY SkylakeX SINGLE_THREADED
        Core in use  :  SkylakeX
   Copyright (c) 2011-2014, The OpenBLAS Project


================================================================================

----- Orbital basis set information -----
Your calculation utilizes the basis: def2-SVP
   F. Weigend and R. Ahlrichs, Phys. Chem. Chem. Phys. 7, 3297 (2005).

================================================================================
                                        WARNINGS
                       Please study these warnings very carefully!
================================================================================


INFO   : the flag for use of the SHARK integral package has been found!

================================================================================
                                       INPUT FILE
================================================================================
NAME = C7H14-CAS22.inp
|  1> ! def2-SVP pal8
|  2> ! moread
|  3> 
|  4> %moinp "C7H14-ROHF.gbw"
|  5> 
|  6> %casscf
|  7> 	mult	        1
|  8> 	nel	            2
|  9> 	norb	        2
| 10> 	Nroots	        3
| 11> end
| 12> 
| 13> *xyz 0 1
| 14>   C     -3.693788    1.345950   -0.080153
| 15>   C     -2.193484    1.373788   -0.056812
| 16>   H     -4.225508    1.180088   -1.010334
| 17>   H     -4.255204    1.224048    0.839301
| 18>   C     -1.554416   -0.023401   -0.016100
| 19>   H     -1.824927    1.905707   -0.939850
| 20>   H     -1.852812    1.944021    0.813355
| 21>   C     -0.027056    0.014500    0.007320
| 22>   H     -1.919913   -0.559214    0.866609
| 23>   H     -1.893486   -0.598246   -0.884715
| 24>   H      0.334747    0.551752   -0.877315
| 25>   H      0.305045    0.594496    0.874340
| 26>   C      0.609304   -1.374514    0.044919
| 27>   H      0.262703   -1.951369   -0.819054
| 28>   H      0.259278   -1.912060    0.933203
| 29>   C      2.147820   -1.364759    0.037560
| 30>   H      2.493149   -2.399801   -0.057561
| 31>   H      2.498336   -0.839762   -0.856087
| 32>   C      2.771544   -0.752033    1.258758
| 33>   H      3.140055    0.266294    1.257206
| 34>   H      2.687753   -1.251260    2.218099
| 35> *
| 36> 
| 37> 
| 38>                          ****END OF INPUT****
================================================================================

                       ****************************
                       * Single Point Calculation *
                       ****************************

---------------------------------
CARTESIAN COORDINATES (ANGSTROEM)
---------------------------------
  C     -3.693788    1.345950   -0.080153
  C     -2.193484    1.373788   -0.056812
  H     -4.225508    1.180088   -1.010334
  H     -4.255204    1.224048    0.839301
  C     -1.554416   -0.023401   -0.016100
  H     -1.824927    1.905707   -0.939850
  H     -1.852812    1.944021    0.813355
  C     -0.027056    0.014500    0.007320
  H     -1.919913   -0.559214    0.866609
  H     -1.893486   -0.598246   -0.884715
  H      0.334747    0.551752   -0.877315
  H      0.305045    0.594496    0.874340
  C      0.609304   -1.374514    0.044919
  H      0.262703   -1.951369   -0.819054
  H      0.259278   -1.912060    0.933203
  C      2.147820   -1.364759    0.037560
  H      2.493149   -2.399801   -0.057561
  H      2.498336   -0.839762   -0.856087
  C      2.771544   -0.752033    1.258758
  H      3.140055    0.266294    1.257206
  H      2.687753   -1.251260    2.218099

----------------------------
CARTESIAN COORDINATES (A.U.)
----------------------------
  NO LB      ZA    FRAG     MASS         X           Y           Z
   0 C     6.0000    0    12.011   -6.980248    2.543477   -0.151467
   1 C     6.0000    0    12.011   -4.145084    2.596083   -0.107359
   2 H     1.0000    0     1.008   -7.985053    2.230043   -1.909255
   3 H     1.0000    0     1.008   -8.041170    2.313115    1.586049
   4 C     6.0000    0    12.011   -2.937421   -0.044221   -0.030425
   5 H     1.0000    0     1.008   -3.448612    3.601264   -1.776059
   6 H     1.0000    0     1.008   -3.501307    3.673667    1.537018
   7 C     6.0000    0    12.011   -0.051128    0.027401    0.013833
   8 H     1.0000    0     1.008   -3.628110   -1.056761    1.637654
   9 H     1.0000    0     1.008   -3.578170   -1.130521   -1.671869
  10 H     1.0000    0     1.008    0.632580    1.042660   -1.657885
  11 H     1.0000    0     1.008    0.576452    1.123435    1.652263
  12 C     6.0000    0    12.011    1.151418   -2.597455    0.084885
  13 H     1.0000    0     1.008    0.496437   -3.687553   -1.547788
  14 H     1.0000    0     1.008    0.489964   -3.613270    1.763498
  15 C     6.0000    0    12.011    4.058792   -2.579021    0.070978
  16 H     1.0000    0     1.008    4.711369   -4.534967   -0.108775
  17 H     1.0000    0     1.008    4.721171   -1.586920   -1.617770
  18 C     6.0000    0    12.011    5.237459   -1.421136    2.378708
  19 H     1.0000    0     1.008    5.933844    0.503223    2.375775
  20 H     1.0000    0     1.008    5.079117   -2.364539    4.191600

--------------------------------
INTERNAL COORDINATES (ANGSTROEM)
--------------------------------
 C      0   0   0     0.000000000000     0.00000000     0.00000000
 C      1   0   0     1.500743765251     0.00000000     0.00000000
 H      1   2   0     1.084192351110   120.42879934     0.00000000
 H      1   2   3     1.084178804799   120.43562932   163.54756450
 C      2   1   3     1.536945827701   113.53012927   278.33644025
 H      2   1   3     1.094773124558   109.45221448    40.17276308
 H      2   1   3     1.094720829144   109.45880931   156.49520733
 C      5   2   1     1.528009670061   113.17148236   179.99457162
 H      5   2   1     1.095380667466   109.10384564   302.13076842
 H      5   2   1     1.095402783067   109.10790480    57.75670091
 H      8   5   2     1.096412424929   109.24664694   301.95157600
 H      8   5   2     1.094719194413   109.17885325    57.71553628
 C      8   5   2     1.528308747144   113.20601741   180.11788707
 H     13   8   5     1.095145327778   109.11959760    57.18753870
 H     13   8   5     1.095683516098   109.43979772   301.29555445
 C     13   8   5     1.538564524861   114.23553050   178.71332860
 H     16  13   8     1.095268033244   108.04148555   186.82045389
 H     16  13   8     1.094115294141   109.10519992   302.04378407
 C     16  13   8     1.501928538399   114.45425243    65.22934862
 H     19  16  13     1.082955513747   121.58489679   260.39243891
 H     19  16  13     1.084704422177   119.95206054    68.34287893

---------------------------
INTERNAL COORDINATES (A.U.)
---------------------------
 C      0   0   0     0.000000000000     0.00000000     0.00000000
 C      1   0   0     2.835994713515     0.00000000     0.00000000
 H      1   2   0     2.048826620090   120.42879934     0.00000000
 H      1   2   3     2.048801021273   120.43562932   163.54756450
 C      2   1   3     2.904406697029   113.53012927   278.33644025
 H      2   1   3     2.068821384191   109.45221448    40.17276308
 H      2   1   3     2.068722560182   109.45880931   156.49520733
 C      5   2   1     2.887519806399   113.17148236   179.99457162
 H      5   2   1     2.069969473903   109.10384564   302.13076842
 H      5   2   1     2.070011266331   109.10790480    57.75670091
 H      8   5   2     2.071919212944   109.24664694   301.95157600
 H      8   5   2     2.068719470988   109.17885325    57.71553628
 C      8   5   2     2.888084980179   113.20601741   180.11788707
 H     13   8   5     2.069524746345   109.11959760    57.18753870
 H     13   8   5     2.070541774876   109.43979772   301.29555445
 C     13   8   5     2.907465591355   114.23553050   178.71332860
 H     16  13   8     2.069756626070   108.04148555   186.82045389
 H     16  13   8     2.067578264862   109.10519992   302.04378407
 C     16  13   8     2.838233610294   114.45425243    65.22934862
 H     19  16  13     2.046489336201   121.58489679   260.39243891
 H     19  16  13     2.049794294168   119.95206054    68.34287893

---------------------
BASIS SET INFORMATION
---------------------
There are 2 groups of distinct atoms

 Group   1 Type C   : 7s4p1d contracted to 3s2p1d pattern {511/31/1}
 Group   2 Type H   : 4s1p contracted to 2s1p pattern {31/1}

Atom   0C    basis set group =>   1
Atom   1C    basis set group =>   1
Atom   2H    basis set group =>   2
Atom   3H    basis set group =>   2
Atom   4C    basis set group =>   1
Atom   5H    basis set group =>   2
Atom   6H    basis set group =>   2
Atom   7C    basis set group =>   1
Atom   8H    basis set group =>   2
Atom   9H    basis set group =>   2
Atom  10H    basis set group =>   2
Atom  11H    basis set group =>   2
Atom  12C    basis set group =>   1
Atom  13H    basis set group =>   2
Atom  14H    basis set group =>   2
Atom  15C    basis set group =>   1
Atom  16H    basis set group =>   2
Atom  17H    basis set group =>   2
Atom  18C    basis set group =>   1
Atom  19H    basis set group =>   2
Atom  20H    basis set group =>   2
--------------------------------------------------------------------------
WARNING: There was an error initializing an OpenFabrics device.

  Local host:   cnode05
  Local device: mlx5_0
--------------------------------------------------------------------------


           ************************************************************
           *        Program running with 8 parallel MPI-processes     *
           *              working on a common directory               *
           ************************************************************
------------------------------------------------------------------------------
                           ORCA GTO INTEGRAL CALCULATION
------------------------------------------------------------------------------
------------------------------------------------------------------------------
                   ___                                                        
                  /   \      - P O W E R E D   B Y -                         
                 /     \                                                     
                 |  |  |   _    _      __       _____    __    __             
                 |  |  |  | |  | |    /  \     |  _  \  |  |  /  |          
                  \  \/   | |  | |   /    \    | | | |  |  | /  /          
                 / \  \   | |__| |  /  /\  \   | |_| |  |  |/  /          
                |  |  |   |  __  | /  /__\  \  |    /   |      \           
                |  |  |   | |  | | |   __   |  |    \   |  |\   \          
                \     /   | |  | | |  |  |  |  | |\  \  |  | \   \       
                 \___/    |_|  |_| |__|  |__|  |_| \__\ |__|  \__/        
                                                                              
                      - O R C A' S   B I G   F R I E N D -                    
                                      &                                       
                       - I N T E G R A L  F E E D E R -                       
                                                                              
 v1 FN, 2020, v2 2021                                                         
------------------------------------------------------------------------------


Reading SHARK input file C7H14-CAS22.SHARKINP.tmp ... ok
----------------------
SHARK INTEGRAL PACKAGE
----------------------

Number of atoms                             ...     21
Number of basis functions                   ...    168
Number of shells                            ...     84
Maximum angular momentum                    ...      2
Integral batch strategy                     ... SHARK/LIBINT Hybrid
RI-J (if used) integral strategy            ... SPLIT-RIJ (Revised 2003 algorithm where possible)
Printlevel                                  ...      1
Contraction scheme used                     ... SEGMENTED contraction
Coulomb Range Separation                    ... NOT USED
Exchange Range Separation                   ... NOT USED
Finite Nucleus Model                        ... NOT USED
Auxiliary Coulomb fitting basis             ... NOT available
Auxiliary J/K fitting basis                 ... NOT available
Auxiliary Correlation fitting basis         ... NOT available
Auxiliary 'external' fitting basis          ... NOT available
Integral threshold                          ...     1.000000e-10
Primitive cut-off                           ...     1.000000e-11
Primitive pair pre-selection threshold      ...     1.000000e-11

Calculating pre-screening integrals         ... done (  0.0 sec) Dimension = 84
Organizing shell pair data                  ... done (  0.0 sec)
Shell pair information
Total number of shell pairs                 ...      3570
Shell pairs after pre-screening             ...      3204
Total number of primitive shell pairs       ...     12068
Primitive shell pairs kept                  ...      8028
          la=0 lb=0:   1134 shell pairs
          la=1 lb=0:   1236 shell pairs
          la=1 lb=1:    349 shell pairs
          la=2 lb=0:    301 shell pairs
          la=2 lb=1:    161 shell pairs
          la=2 lb=2:     23 shell pairs

Calculating one electron integrals          ... done (  0.0 sec)
Calculating Nuclear repulsion               ... done (  0.0 sec) ENN=    291.465375762518 Eh

SHARK setup successfully completed in   0.1 seconds

Maximum memory used throughout the entire GTOINT-calculation: 6.8 MB
[cnode05:313652] 7 more processes have sent help message help-mpi-btl-openib.txt / error in device init
[cnode05:313652] Set MCA parameter "orte_base_help_aggregate" to 0 to see all help / error messages
--------------------------------------------------------------------------
WARNING: There was an error initializing an OpenFabrics device.

  Local host:   cnode05
  Local device: mlx5_0
--------------------------------------------------------------------------


           ************************************************************
           *        Program running with 8 parallel MPI-processes     *
           *              working on a common directory               *
           ************************************************************
-------------------------------------------------------------------------------
                                 ORCA SCF
-------------------------------------------------------------------------------

------------
SCF SETTINGS
------------
Hamiltonian:
 Ab initio Hamiltonian  Method          .... Hartree-Fock(GTOs)


General Settings:
 Integral files         IntName         .... C7H14-CAS22
 Hartree-Fock type      HFTyp           .... CASSCF
 Total Charge           Charge          ....    0
 Multiplicity           Mult            ....    1
 Number of Electrons    NEL             ....   56
 Basis Dimension        Dim             ....  168
 Nuclear Repulsion      ENuc            ....    291.4653757625 Eh


Diagonalization of the overlap matrix:
Smallest eigenvalue                        ... 1.230e-03
Time for diagonalization                   ...    0.003 sec
Threshold for overlap eigenvalues          ... 1.000e-08
Number of eigenvalues below threshold      ... 0
Time for construction of square roots      ...    0.004 sec
Total time needed                          ...    0.007 sec

---------------------
INITIAL GUESS: MOREAD
---------------------
Guess MOs are being read from file: C7H14-ROHF.gbw
Input Geometry matches current geometry (good)
Input basis set matches current basis set (good)
MOs were renormalized
Gram-Schmidt orthogonalization of all MOs with pivot on actives
                      ------------------
                      INITIAL GUESS DONE (   0.0 sec)
                      ------------------


 ... the calculation is a CASSCF calculation -I'm leaving here GOOD LUCK!!!

[cnode05:313712] 7 more processes have sent help message help-mpi-btl-openib.txt / error in device init
[cnode05:313712] Set MCA parameter "orte_base_help_aggregate" to 0 to see all help / error messages
--------------------------------------------------------------------------
WARNING: There was an error initializing an OpenFabrics device.

  Local host:   cnode05
  Local device: mlx5_0
--------------------------------------------------------------------------


           ************************************************************
           *        Program running with 8 parallel MPI-processes     *
           *              working on a common directory               *
           ************************************************************
-------------------------------------------------------------------------------
                              ORCA-CASSCF
-------------------------------------------------------------------------------

Setting up the integral package       ... done
Building the CAS space                ... done (3 configurations for Mult=1)

SYSTEM-SPECIFIC SETTINGS:
Number of active electrons          ...    2
Number of active orbitals           ...    2
Total number of electrons           ...   56
Total number of orbitals            ...  168

Determined orbital ranges:
   Internal       0 -   26 (  27 orbitals)
   Active        27 -   28 (   2 orbitals)
   External      29 -  167 ( 139 orbitals)
Number of rotation parameters      ...   4085

CI-STEP:
CI strategy                         ... General CI
Number of multiplicity blocks       ...    1
BLOCK  1 WEIGHT=   1.0000
  Multiplicity                      ...    1
  #(Configurations)                 ...    3
  #(CSFs)                           ...    3
  #(Roots)                          ...    3
    ROOT=0 WEIGHT=    0.333333
    ROOT=1 WEIGHT=    0.333333
    ROOT=2 WEIGHT=    0.333333

  PrintLevel                        ...    1
  N(GuessMat)                       ...       512
  MaxDim(CI)                        ...        10
  MaxIter(CI)                       ...        64
  Energy Tolerance CI               ...  1.00e-08
  Residual Tolerance CI             ...  1.00e-08
  Shift(CI)                         ...  1.00e-04

INTEGRAL-TRANSFORMATION-STEP:
  Algorithm                         ... EXACT

ORBITAL-IMPROVEMENT-STEP:
  Algorithm                         ... SuperCI(PT)
  Default Parametrization           ... CAYLEY
  Act-Act rotations                 ... depends on algorithm used

  Note: SuperCI(PT) will ignore FreezeIE, FreezeAct and FreezeGrad. In general Default settings are encouraged.
        In conjunction with ShiftUp, ShiftDn or GradScaling the performance of SuperCI(PT) is less optimal.  

  MaxRot                            ... 2.00e-01 
  Max. no of vectors (DIIS)         ... 15
  DThresh (cut-off) metric          ... 1.00e-06
  Switch step at gradient           ...  3.00e-02 
  Switch step at iteration          ...        50   
  Switch step to                    ... SuperCI(PT)    

SCF-SETTINGS:
  Incremental                       ... on
  RIJCOSX approximation             ... off
  RI-JK approximation               ... off
  AO integral handling              ... DIRECT
  Integral Neglect Thresh           ...  1.00e-10
  Primitive cutoff TCut             ...  1.00e-11
  Energy convergence tolerance      ...  1.00e-07
  Orbital gradient convergence      ...  1.00e-03
  Max. number of iterations         ...        75  


FINAL ORBITALS:
  Active   Orbitals                 ... natural 
  Internal Orbitals                 ... canonical 
  External Orbitals                 ... canonical 

------------------
CAS-SCF ITERATIONS
------------------


MACRO-ITERATION   1: 
   --- Inactive Energy E0 = -272.14397205 Eh
CI-ITERATION   0: 
  -272.936275528   0.000000000000 (    0.00)
  -272.480805423   0.000000000000
  -272.480706588   0.000000000000
   CI-PROBLEM SOLVED
   DENSITIES MADE

                 <<<<<<<<<<<<<<<<<<INITIAL CI STATE CHECK>>>>>>>>>>>>>>>>>>

BLOCK  1 MULT= 1 NROOTS= 3 
ROOT   0:  E=    -272.9362755284 Eh
      0.50609 [     0]: 20
      0.49364 [     2]: 02
ROOT   1:  E=    -272.4808054232 Eh 12.394 eV  99964.1 cm**-1
      0.65259 [     1]: 11
      0.17940 [     0]: 20
      0.16801 [     2]: 02
ROOT   2:  E=    -272.4807065881 Eh 12.397 eV  99985.8 cm**-1
      0.34714 [     1]: 11
      0.33834 [     2]: 02
      0.31452 [     0]: 20

                 <<<<<<<<<<<<<<<<<<INITIAL CI STATE CHECK>>>>>>>>>>>>>>>>>>

   E(CAS)=  -272.632595847 Eh DE=    0.000000e+00
   --- Energy gap subspaces: Ext-Act = 0.269   Act-Int = 0.366
   N(occ)=  1.00000 1.00000
   ||g|| =     2.976437e-01 Max(G)=    1.268322e-01 Rot=59,27
   --- Orbital Update [SuperCI(PT)]
   --- Canonicalize Internal Space
   --- Canonicalize External Space
   --- SX_PT (Skipped TA=0 IT=0): ||X|| =      0.239275235 Max(X)(59,27) =     -0.079594248 
   --- SFit(Active Orbitals)

MACRO-ITERATION   2: 
[cnode05:313772] 7 more processes have sent help message help-mpi-btl-openib.txt / error in device init
[cnode05:313772] Set MCA parameter "orte_base_help_aggregate" to 0 to see all help / error messages
   --- Inactive Energy E0 = -272.16832461 Eh
CI-ITERATION   0: 
  -272.908956820   0.000000000000 (    0.00)
  -272.552292058   0.000000000000
  -272.546428601   0.000000000000
   CI-PROBLEM SOLVED
   DENSITIES MADE
   E(CAS)=  -272.669225826 Eh DE=   -3.662998e-02
   --- Energy gap subspaces: Ext-Act = 0.283   Act-Int = 0.356
   N(occ)=  1.00000 1.00000
   ||g|| =     1.518045e-01 Max(G)=    2.048417e-02 Rot=28,26
   --- Orbital Update [SuperCI(PT)]
   --- Canonicalize Internal Space
   --- Canonicalize External Space
   --- SX_PT (Skipped TA=0 IT=0): ||X|| =      0.071040804 Max(X)(28,24) =     -0.028258165 
   --- SFit(Active Orbitals)

MACRO-ITERATION   3: 
   --- Inactive Energy E0 = -272.20038372 Eh
CI-ITERATION   0: 
  -272.899685353   0.000000000000 (    0.00)
  -272.562173334   0.000000000000
  -272.556596652   0.000000000000
   CI-PROBLEM SOLVED
   DENSITIES MADE
   E(CAS)=  -272.672818446 Eh DE=   -3.592620e-03
   --- Energy gap subspaces: Ext-Act = 0.269   Act-Int = 0.367
   N(occ)=  1.00000 1.00000
   ||g|| =     7.936223e-02 Max(G)=    1.353557e-02 Rot=59,27
   --- Orbital Update [SuperCI(PT)]
   --- Canonicalize Internal Space
   --- Canonicalize External Space
   --- SX_PT (Skipped TA=0 IT=0): ||X|| =      0.035582974 Max(X)(29,27) =      0.015288379 
   --- SFit(Active Orbitals)

MACRO-ITERATION   4: 
   --- Inactive Energy E0 = -272.19306703 Eh
CI-ITERATION   0: 
  -272.893003820   0.000000000000 (    0.00)
  -272.566919091   0.000000000000
  -272.561022041   0.000000000000
   CI-PROBLEM SOLVED
   DENSITIES MADE
   E(CAS)=  -272.673648318 Eh DE=   -8.298713e-04
   --- Energy gap subspaces: Ext-Act = 0.274   Act-Int = 0.362
   N(occ)=  1.00000 1.00000
   ||g|| =     1.660401e-02 Max(G)=    3.654844e-03 Rot=28,26
   --- Orbital Update [SuperCI(PT)]
   --- Canonicalize Internal Space
   --- Canonicalize External Space
   --- SX_PT (Skipped TA=0 IT=0): ||X|| =      0.011162458 Max(X)(28,26) =     -0.005872839 
   --- SFit(Active Orbitals)

MACRO-ITERATION   5: 
   --- Inactive Energy E0 = -272.19301487 Eh
CI-ITERATION   0: 
  -272.890444575   0.000000000000 (    0.00)
  -272.568020851   0.000000000000
  -272.562763365   0.000000000000
   CI-PROBLEM SOLVED
   DENSITIES MADE
   E(CAS)=  -272.673742930 Eh DE=   -9.461258e-05
   --- Energy gap subspaces: Ext-Act = 0.273   Act-Int = 0.363
   N(occ)=  1.00000 1.00000
   ||g|| =     8.797389e-03 Max(G)=   -1.244313e-03 Rot=69,25
   --- Orbital Update [SuperCI(PT)]
   --- Canonicalize Internal Space
   --- Canonicalize External Space
   --- SX_PT (Skipped TA=0 IT=0): ||X|| =      0.003324768 Max(X)(27,18) =      0.001106441 
   --- SFit(Active Orbitals)

MACRO-ITERATION   6: 
   --- Inactive Energy E0 = -272.19305655 Eh
CI-ITERATION   0: 
  -272.890366493   0.000000000000 (    0.00)
  -272.568039325   0.000000000000
  -272.562854395   0.000000000000
   CI-PROBLEM SOLVED
   DENSITIES MADE
   E(CAS)=  -272.673753404 Eh DE=   -1.047423e-05
   --- Energy gap subspaces: Ext-Act = 0.273   Act-Int = 0.363
   N(occ)=  1.00000 1.00000
   ||g|| =     3.069223e-03 Max(G)=   -5.416866e-04 Rot=28,24
   --- Orbital Update [SuperCI(PT)]
   --- Canonicalize Internal Space
   --- Canonicalize External Space
   --- SX_PT (Skipped TA=0 IT=0): ||X|| =      0.001585400 Max(X)(28,26) =     -0.000873511 
   --- SFit(Active Orbitals)

MACRO-ITERATION   7: 
   --- Inactive Energy E0 = -272.19273879 Eh
CI-ITERATION   0: 
  -272.890205980   0.000000000000 (    0.00)
  -272.568145366   0.000000000000
  -272.562915005   0.000000000000
   CI-PROBLEM SOLVED
   DENSITIES MADE
   E(CAS)=  -272.673755450 Eh DE=   -2.045968e-06
   --- Energy gap subspaces: Ext-Act = 0.273   Act-Int = 0.363
   N(occ)=  1.00000 1.00000
   ||g|| =     8.028543e-04 Max(G)=   -1.462825e-04 Rot=28,24
                     ---- THE CAS-SCF GRADIENT HAS CONVERGED ----
                            --- FINALIZING ORBITALS ---
                    ---- DOING ONE FINAL ITERATION FOR PRINTING ----
   --- Forming Natural Orbitals
   --- Canonicalize Internal Space
   --- Canonicalize External Space

MACRO-ITERATION   8: 
   --- Inactive Energy E0 = -272.19273878 Eh
   --- All densities will be recomputed
CI-ITERATION   0: 
  -272.890205980   0.000000000000 (    0.00)
  -272.568145366   0.000000000000
  -272.562915004   0.000000000000
   CI-PROBLEM SOLVED
   DENSITIES MADE
   E(CAS)=  -272.673755450 Eh DE=    6.898517e-10
   --- Energy gap subspaces: Ext-Act = 0.275   Act-Int = 0.364
   N(occ)=  1.00000 1.00000
   ||g|| =     8.028579e-04 Max(G)=    1.575662e-04 Rot=28,26
--------------
CASSCF RESULTS
--------------

Final CASSCF energy       : -272.673755450 Eh   -7419.8301 eV

----------------
ORBITAL ENERGIES
----------------

  NO   OCC          E(Eh)            E(eV) 
   0   2.0000     -11.262898      -306.4790 
   1   2.0000     -11.254970      -306.2633 
   2   2.0000     -11.237745      -305.7946 
   3   2.0000     -11.233308      -305.6739 
   4   2.0000     -11.229823      -305.5790 
   5   2.0000     -11.227020      -305.5027 
   6   2.0000     -11.220770      -305.3327 
   7   2.0000      -1.086629       -29.5687 
   8   2.0000      -1.044982       -28.4354 
   9   2.0000      -0.974588       -26.5199 
  10   2.0000      -0.893475       -24.3127 
  11   2.0000      -0.825339       -22.4586 
  12   2.0000      -0.781726       -21.2719 
  13   2.0000      -0.770522       -20.9670 
  14   2.0000      -0.658623       -17.9220 
  15   2.0000      -0.634491       -17.2654 
  16   2.0000      -0.612750       -16.6738 
  17   2.0000      -0.584786       -15.9128 
  18   2.0000      -0.567724       -15.4486 
  19   2.0000      -0.561327       -15.2745 
  20   2.0000      -0.539321       -14.6757 
  21   2.0000      -0.516759       -14.0617 
  22   2.0000      -0.498177       -13.5561 
  23   2.0000      -0.479435       -13.0461 
  24   2.0000      -0.467793       -12.7293 
  25   2.0000      -0.464420       -12.6375 
  26   2.0000      -0.462117       -12.5748 
  27   1.0000      -0.097777        -2.6607 
  28   1.0000      -0.098166        -2.6712 
  29   0.0000       0.176915         4.8141 
  30   0.0000       0.191921         5.2224 
  31   0.0000       0.202827         5.5192 
  32   0.0000       0.205978         5.6049 
  33   0.0000       0.227147         6.1810 
  34   0.0000       0.232812         6.3351 
  35   0.0000       0.236645         6.4394 
  36   0.0000       0.266069         7.2401 
  37   0.0000       0.277453         7.5499 
  38   0.0000       0.284653         7.7458 
  39   0.0000       0.289094         7.8666 
  40   0.0000       0.292977         7.9723 
  41   0.0000       0.309278         8.4159 
  42   0.0000       0.320886         8.7318 
  43   0.0000       0.367171         9.9912 
  44   0.0000       0.383412        10.4332 
  45   0.0000       0.416200        11.3254 
  46   0.0000       0.428921        11.6715 
  47   0.0000       0.449451        12.2302 
  48   0.0000       0.473171        12.8756 
  49   0.0000       0.572299        15.5730 
  50   0.0000       0.590965        16.0810 
  51   0.0000       0.601546        16.3689 
  52   0.0000       0.616881        16.7862 
  53   0.0000       0.621654        16.9161 
  54   0.0000       0.644999        17.5513 
  55   0.0000       0.658727        17.9249 
  56   0.0000       0.681505        18.5447 
  57   0.0000       0.688969        18.7478 
  58   0.0000       0.720603        19.6086 
  59   0.0000       0.742069        20.1927 
  60   0.0000       0.780641        21.2423 
  61   0.0000       0.834140        22.6981 
  62   0.0000       0.850581        23.1455 
  63   0.0000       0.858111        23.3504 
  64   0.0000       0.872603        23.7447 
  65   0.0000       0.883220        24.0336 
  66   0.0000       0.888675        24.1821 
  67   0.0000       0.897210        24.4143 
  68   0.0000       0.902942        24.5703 
  69   0.0000       0.908232        24.7142 
  70   0.0000       0.915325        24.9073 
  71   0.0000       0.920462        25.0471 
  72   0.0000       0.927181        25.2299 
  73   0.0000       0.929283        25.2871 
  74   0.0000       0.936758        25.4905 
  75   0.0000       0.949574        25.8392 
  76   0.0000       0.952098        25.9079 
  77   0.0000       0.957915        26.0662 
  78   0.0000       0.961703        26.1693 
  79   0.0000       0.964946        26.2575 
  80   0.0000       0.965539        26.2736 
  81   0.0000       0.986797        26.8521 
  82   0.0000       1.029459        28.0130 
  83   0.0000       1.104736        30.0614 
  84   0.0000       1.122861        30.5546 
  85   0.0000       1.157650        31.5013 
  86   0.0000       1.243325        33.8326 
  87   0.0000       1.264652        34.4129 
  88   0.0000       1.277443        34.7610 
  89   0.0000       1.309350        35.6292 
  90   0.0000       1.333986        36.2996 
  91   0.0000       1.438716        39.1495 
  92   0.0000       1.455319        39.6012 
  93   0.0000       1.508286        41.0426 
  94   0.0000       1.518389        41.3175 
  95   0.0000       1.537870        41.8476 
  96   0.0000       1.604368        43.6571 
  97   0.0000       1.624074        44.1933 
  98   0.0000       1.646214        44.7958 
  99   0.0000       1.656220        45.0680 
 100   0.0000       1.683417        45.8081 
 101   0.0000       1.826256        49.6949 
 102   0.0000       1.886136        51.3244 
 103   0.0000       1.893999        51.5383 
 104   0.0000       1.925267        52.3892 
 105   0.0000       1.930302        52.5262 
 106   0.0000       1.951778        53.1106 
 107   0.0000       1.965348        53.4798 
 108   0.0000       1.971767        53.6545 
 109   0.0000       2.016342        54.8675 
 110   0.0000       2.031903        55.2909 
 111   0.0000       2.057526        55.9881 
 112   0.0000       2.070638        56.3449 
 113   0.0000       2.072193        56.3872 
 114   0.0000       2.082809        56.6761 
 115   0.0000       2.093972        56.9799 
 116   0.0000       2.102693        57.2172 
 117   0.0000       2.129204        57.9386 
 118   0.0000       2.139071        58.2071 
 119   0.0000       2.144714        58.3606 
 120   0.0000       2.153866        58.6097 
 121   0.0000       2.158585        58.7381 
 122   0.0000       2.177035        59.2401 
 123   0.0000       2.195263        59.7361 
 124   0.0000       2.221734        60.4565 
 125   0.0000       2.230194        60.6867 
 126   0.0000       2.237700        60.8909 
 127   0.0000       2.271789        61.8185 
 128   0.0000       2.289264        62.2940 
 129   0.0000       2.308989        62.8308 
 130   0.0000       2.347158        63.8694 
 131   0.0000       2.394376        65.1543 
 132   0.0000       2.405292        65.4513 
 133   0.0000       2.441673        66.4413 
 134   0.0000       2.453170        66.7541 
 135   0.0000       2.473389        67.3043 
 136   0.0000       2.540233        69.1232 
 137   0.0000       2.547757        69.3280 
 138   0.0000       2.610733        71.0416 
 139   0.0000       2.635221        71.7080 
 140   0.0000       2.691278        73.2334 
 141   0.0000       2.717539        73.9480 
 142   0.0000       2.738612        74.5214 
 143   0.0000       2.753322        74.9217 
 144   0.0000       2.763002        75.1851 
 145   0.0000       2.764063        75.2140 
 146   0.0000       2.814357        76.5826 
 147   0.0000       2.865989        77.9875 
 148   0.0000       2.875558        78.2479 
 149   0.0000       2.908666        79.1488 
 150   0.0000       2.933993        79.8380 
 151   0.0000       2.974572        80.9422 
 152   0.0000       3.001976        81.6879 
 153   0.0000       3.114670        84.7545 
 154   0.0000       3.163236        86.0760 
 155   0.0000       3.184103        86.6438 
 156   0.0000       3.218434        87.5780 
 157   0.0000       3.244841        88.2966 
 158   0.0000       3.258564        88.6700 
 159   0.0000       3.294457        89.6467 
 160   0.0000       3.323968        90.4498 
 161   0.0000       3.344726        91.0146 
 162   0.0000       3.357013        91.3490 
 163   0.0000       3.376855        91.8889 
 164   0.0000       3.397221        92.4431 
 165   0.0000       3.447231        93.8039 
 166   0.0000       3.476393        94.5975 
 167   0.0000       3.493348        95.0588 


---------------------------------------------
CAS-SCF STATES FOR BLOCK  1 MULT= 1 NROOTS= 3
---------------------------------------------

ROOT   0:  E=    -272.8902059798 Eh
      0.73986 [     1]: 11
      0.13576 [     0]: 20
      0.12438 [     2]: 02
ROOT   1:  E=    -272.5681453658 Eh  8.764 eV  70684.1 cm**-1
      0.86117 [     2]: 02
      0.13844 [     1]: 11
ROOT   2:  E=    -272.5629150036 Eh  8.906 eV  71832.1 cm**-1
      0.86385 [     0]: 20
      0.12170 [     1]: 11
      0.01445 [     2]: 02


--------------
DENSITY MATRIX
--------------

                  0          1    
      0       1.000000   0.000000
      1       0.000000   1.000000
Trace of the electron density:  2.000000

-----------------
ENERGY COMPONENTS
-----------------

One electron energy          :   -943.919419067 Eh      -25685.3532 eV
Two electron energy          :    379.780287855 Eh       10334.3470 eV
Nuclear repulsion energy     :    291.465375763 Eh        7931.1761 eV
                               ----------------
                                 -272.673755450

Kinetic energy               :    271.185869377 Eh        7379.3427 eV
Potential energy             :   -543.859624827 Eh      -14799.1728 eV
Virial ratio                 :     -2.005486591 
                               ----------------
                                 -272.673755450

Core energy                  :   -272.192738785 Eh    -7406.7410 eV


----------------------------
LOEWDIN ORBITAL-COMPOSITIONS
----------------------------

                      0         1         2         3         4         5   
                 -11.26290 -11.25497 -11.23775 -11.23331 -11.22982 -11.22702
                   2.00000   2.00000   2.00000   2.00000   2.00000   2.00000
                  --------  --------  --------  --------  --------  --------
 0 C  s               0.0      99.6       0.0       0.0       0.0       0.0
 0 C  px              0.0       0.0       0.0       0.1       0.0       0.0
 1 C  s               0.0       0.0       0.0      99.3       0.0       0.2
 1 C  px              0.0       0.1       0.0       0.0       0.0       0.0
 4 C  s               0.0       0.0       0.0       0.2       0.0      99.2
 7 C  s               0.0       0.0       0.0       0.0       0.1       0.2
 7 C  px              0.0       0.0       0.0       0.0       0.0       0.1
12 C  s               0.0       0.0       0.1       0.0      99.3       0.0
15 C  s               0.0       0.0      99.4       0.0       0.1       0.0
18 C  s              99.6       0.0       0.0       0.0       0.0       0.0

                      6         7         8         9        10        11   
                 -11.22077  -1.08663  -1.04498  -0.97459  -0.89347  -0.82534
                   2.00000   2.00000   2.00000   2.00000   2.00000   2.00000
                  --------  --------  --------  --------  --------  --------
 0 C  s               0.0       1.9       6.6      10.6      10.4       9.0
 0 C  px              0.0       1.0       2.1       1.1       0.1       1.9
 0 C  dx2y2           0.0       0.0       0.1       0.1       0.0       0.0
 1 C  s               0.0       7.1      15.3       8.0       0.3       1.5
 1 C  px              0.0       0.1       0.1       2.9       5.0       3.5
 1 C  py              0.0       1.1       0.7       0.4       1.9       0.7
 1 C  dx2y2           0.0       0.0       0.0       0.1       0.2       0.2
 2 H  s               0.0       0.3       1.2       2.5       3.4       4.4
 2 H  pz              0.0       0.0       0.1       0.2       0.2       0.3
 3 H  s               0.0       0.3       1.2       2.4       3.4       4.4
 3 H  pz              0.0       0.0       0.1       0.2       0.2       0.3
 4 C  s               0.2      12.8       8.6       1.5       8.3       3.1
 4 C  px              0.1       0.9       0.6       4.9       0.1       3.4
 4 C  py              0.0       0.4       1.8       1.5       0.0       0.1
 4 C  dx2y2           0.0       0.0       0.0       0.1       0.0       0.2
 5 H  s               0.0       1.5       3.3       1.9       0.1       0.6
 5 H  pz              0.0       0.1       0.2       0.1       0.0       0.0
 6 H  s               0.0       1.4       3.3       1.9       0.1       0.6
 6 H  pz              0.0       0.1       0.2       0.1       0.0       0.0
 6 H  py              0.0       0.0       0.1       0.0       0.0       0.0
 7 C  s              99.2      15.8       0.0      12.0       0.1       7.7
 7 C  px              0.0       0.3       3.3       0.1       4.3       1.6
 7 C  py              0.0       1.0       1.1       0.3       2.4       0.5
 7 C  dx2y2           0.0       0.0       0.1       0.0       0.2       0.0
 8 H  s               0.0       2.6       1.8       0.4       2.5       1.5
 8 H  pz              0.0       0.2       0.1       0.0       0.2       0.1
 9 H  s               0.0       2.6       1.8       0.4       2.4       1.6
 9 H  pz              0.0       0.2       0.1       0.0       0.2       0.1
10 H  s               0.1       3.2       0.0       2.8       0.0       3.5
10 H  pz              0.0       0.2       0.0       0.2       0.0       0.3
11 H  s               0.1       3.3       0.0       2.6       0.1       4.3
11 H  pz              0.0       0.2       0.0       0.2       0.0       0.3
11 H  py              0.0       0.1       0.0       0.1       0.0       0.1
12 C  s               0.1      14.1       6.6       1.7      11.0       0.5
12 C  pz              0.0       0.0       0.0       0.0       0.1       0.2
12 C  px              0.0       0.1       2.6       4.2       0.0       2.1
12 C  py              0.1       1.3       0.0       1.5       0.4       4.4
12 C  dx2y2           0.0       0.0       0.1       0.1       0.0       0.2
13 H  s               0.0       2.9       1.3       0.5       4.2       0.7
13 H  pz              0.0       0.2       0.1       0.0       0.3       0.0
13 H  py              0.0       0.1       0.0       0.0       0.1       0.0
14 H  s               0.0       2.9       1.4       0.4       3.4       0.3
14 H  pz              0.0       0.2       0.1       0.0       0.3       0.0
15 C  s               0.0       8.7      14.2       7.8       0.1       3.9
15 C  pz              0.0       0.1       0.4       0.9       2.2       2.8
15 C  px              0.0       1.2       0.2       1.8       6.4       0.5
15 C  py              0.0       0.1       0.1       0.1       0.7       2.0
15 C  dz2             0.0       0.0       0.0       0.0       0.1       0.0
16 H  s               0.0       1.7       3.1       2.2       0.0       2.9
16 H  py              0.0       0.1       0.3       0.2       0.0       0.2
17 H  s               0.0       1.8       3.0       1.9       0.0       1.8
17 H  pz              0.0       0.1       0.2       0.2       0.0       0.1
18 C  s               0.0       2.7       6.5       9.9      13.3       8.0
18 C  pz              0.0       0.7       1.2       0.7       0.0       1.9
18 C  px              0.0       0.3       0.4       0.1       0.1       0.2
18 C  py              0.0       0.2       0.3       0.2       0.0       0.8
19 H  s               0.0       0.5       1.2       2.3       4.6       4.7
19 H  py              0.0       0.0       0.1       0.2       0.4       0.4
20 H  s               0.0       0.5       1.3       2.3       4.4       4.2
20 H  pz              0.0       0.0       0.1       0.2       0.3       0.3
20 H  py              0.0       0.0       0.0       0.0       0.1       0.1

                     12        13        14        15        16        17   
                  -0.78173  -0.77052  -0.65862  -0.63449  -0.61275  -0.58479
                   2.00000   2.00000   2.00000   2.00000   2.00000   2.00000
                  --------  --------  --------  --------  --------  --------
 0 C  s               6.4       0.9       0.0       0.0       0.0       0.1
 0 C  pz              0.0       0.0       6.0       5.5      11.9       4.8
 0 C  px              6.2       0.8       0.0       0.5       1.0       5.6
 0 C  py              0.8       0.0       0.0       0.0       0.1       0.3
 0 C  dz2             0.1       0.0       0.0       0.0       0.0       0.1
 1 C  s               8.5       0.5       0.0       0.0       0.0       0.1
 1 C  pz              0.0       0.0      12.8       6.4       6.8       0.4
 1 C  px              3.4       0.1       0.0       0.4       0.6       5.0
 1 C  py              6.6       0.0       0.0       0.0       0.3       2.7
 1 C  dz2             0.1       0.0       0.0       0.0       0.0       0.1
 2 H  s               5.1       0.7       1.4       2.7       2.4       5.4
 2 H  pz              0.4       0.0       0.0       0.1       0.0       0.2
 2 H  px              0.0       0.0       0.1       0.0       0.1       0.0
 3 H  s               5.1       0.6       1.9       0.8       5.9       0.1
 3 H  pz              0.4       0.0       0.0       0.0       0.1       0.0
 4 C  s               6.5       0.1       0.0       0.0       0.0       0.0
 4 C  pz              0.0       0.0      16.3       2.3       0.0       2.2
 4 C  px              0.9       1.7       0.0       1.2       1.9       8.5
 4 C  py              8.6       0.2       0.1       0.4       0.3       0.4
 4 C  dz2             0.1       0.0       0.0       0.0       0.0       0.0
 5 H  s               7.3       0.2       3.4       2.0       1.3       1.8
 5 H  pz              0.5       0.0       0.0       0.0       0.0       0.1
 6 H  s               7.3       0.2       3.2       1.6       2.7       0.4
 6 H  pz              0.5       0.0       0.0       0.0       0.0       0.0
 6 H  py              0.1       0.0       0.1       0.0       0.1       0.0
 7 C  s               1.2       3.6       0.0       0.2       0.1       0.0
 7 C  pz              0.0       0.1      14.2       0.0       7.2       3.2
 7 C  px              3.2       0.1       0.0       0.8       1.6       8.9
 7 C  py              1.4       6.0       0.2       1.6       0.7       0.0
 8 H  s               6.0       0.3       3.8       1.5       0.4       0.0
 8 H  pz              0.4       0.0       0.0       0.0       0.0       0.0
 8 H  px              0.0       0.0       0.1       0.0       0.0       0.1
 8 H  py              0.0       0.0       0.1       0.0       0.0       0.0
 9 H  s               6.0       0.3       4.6       0.1       0.2       2.8
 9 H  pz              0.4       0.0       0.0       0.0       0.0       0.1
 9 H  py              0.1       0.0       0.1       0.0       0.0       0.1
10 H  s               1.7       4.0       3.0       0.1       2.5       2.7
10 H  pz              0.1       0.3       0.0       0.0       0.0       0.1
10 H  py              0.0       0.0       0.1       0.0       0.0       0.1
11 H  s               1.7       2.7       4.3       0.3       1.5       0.2
11 H  pz              0.1       0.2       0.0       0.0       0.0       0.0
11 H  px              0.0       0.0       0.1       0.0       0.0       0.2
11 H  py              0.0       0.0       0.1       0.0       0.1       0.0
12 C  s               0.0       6.8       0.0       0.1       0.0       0.0
12 C  pz              0.0       0.6       9.1       3.7      10.7       0.0
12 C  px              0.0       3.5       0.1       0.1       0.3       4.3
12 C  py              0.8       3.8       0.0       1.7       3.2       5.8
12 C  dz2             0.0       0.1       0.0       0.0       0.0       0.1
13 H  s               0.1       4.7       2.7       0.7       5.8       1.5
13 H  pz              0.0       0.4       0.0       0.0       0.1       0.1
14 H  s               0.0       7.4       2.1       1.3       1.4       1.7
14 H  pz              0.0       0.5       0.0       0.0       0.0       0.1
14 H  py              0.0       0.1       0.1       0.0       0.1       0.0
15 C  s               0.2       6.3       0.1       0.0       0.1       0.0
15 C  pz              0.0       4.3       2.3       6.7       1.3       2.7
15 C  px              0.1       2.7       0.0       0.0       0.3       4.4
15 C  py              0.2       0.0       0.8      12.7       8.0       1.1
15 C  dx2y2           0.0       0.1       0.0       0.0       0.0       0.1
16 H  s               0.3       4.0       0.4       4.8       3.7       1.7
16 H  pz              0.0       0.0       0.0       0.1       0.0       0.0
16 H  py              0.0       0.4       0.0       0.1       0.1       0.1
17 H  s               0.1       7.0       0.9       5.8       0.1       1.1
17 H  pz              0.0       0.3       0.0       0.2       0.0       0.0
17 H  py              0.0       0.2       0.0       0.0       0.1       0.1
18 C  s               0.0       5.3       0.2       0.0       0.1       0.0
18 C  pz              0.1       6.1       0.1       2.5       6.2       1.1
18 C  px              0.0       0.3       0.9       1.5       1.1       3.6
18 C  py              0.1       0.7       1.8      15.7       1.6       5.6
18 C  dyz             0.0       0.1       0.0       0.0       0.0       0.0
19 H  s               0.1       3.7       1.6       7.8       0.1       4.8
19 H  py              0.0       0.3       0.1       0.3       0.0       0.1
20 H  s               0.0       5.5       0.0       4.1       4.4       2.1
20 H  pz              0.0       0.3       0.0       0.2       0.1       0.1
20 H  py              0.0       0.2       0.0       0.0       0.0       0.0

                     18        19        20        21        22        23   
                  -0.56772  -0.56133  -0.53932  -0.51676  -0.49818  -0.47944
                   2.00000   2.00000   2.00000   2.00000   2.00000   2.00000
                  --------  --------  --------  --------  --------  --------
 0 C  s               0.0       0.1       0.1       0.0       0.0       0.0
 0 C  pz              4.2       6.3       2.7       6.7       1.0       3.5
 0 C  px              0.4      11.0      11.3       0.9       0.8       0.0
 0 C  py              1.6       0.4       0.1       0.4       1.9       0.0
 0 C  dz2             0.0       0.1       0.2       0.0       0.0       0.0
 0 C  dxz             0.1       0.1       0.1       0.4       0.1       0.4
 1 C  s               0.0       0.0       0.1       0.0       0.3       0.0
 1 C  pz              0.0       0.0       0.7       6.3       1.5      13.1
 1 C  px              0.5      10.4      10.4       0.5       0.1       0.0
 1 C  py              9.2       1.9       2.3       2.8      13.5       0.2
 1 C  dz2             0.1       0.0       0.2       0.1       0.2       0.0
 1 C  dxz             0.0       0.1       0.0       0.2       0.0       0.2
 1 C  dyz             0.0       0.0       0.0       0.0       0.0       0.5
 1 C  dx2y2           0.1       0.2       0.1       0.0       0.0       0.0
 2 H  s               2.5       0.1       5.5       2.8       1.0       2.4
 2 H  pz              0.0       0.0       0.2       0.0       0.0       0.0
 2 H  px              0.0       0.2       0.0       0.1       0.0       0.0
 3 H  s               1.1       8.7       0.0       5.0       0.3       2.7
 3 H  pz              0.0       0.2       0.0       0.0       0.0       0.0
 3 H  px              0.1       0.0       0.1       0.0       0.0       0.0
 4 C  s               0.1       0.2       0.1       0.0       0.1       0.0
 4 C  pz              3.1       6.1       2.4       2.8       0.0       4.9
 4 C  px              4.0       0.0       0.4       0.0       0.3       0.2
 4 C  py              6.0       6.5       0.0       2.2      13.0       0.3
 4 C  dz2             0.0       0.0       0.0       0.0       0.3       0.0
 4 C  dxz             0.0       0.0       0.0       0.1       0.0       0.0
 4 C  dyz             0.0       0.0       0.0       0.0       0.0       0.3
 4 C  dxy             0.0       0.0       0.0       0.0       0.3       0.0
 5 H  s               1.0       0.1       0.8       6.2       0.4       8.6
 5 H  px              0.0       0.2       0.1       0.0       0.0       0.1
 5 H  py              0.0       0.1       0.0       0.0       0.2       0.1
 6 H  s               1.0       0.0       3.6       0.6       5.7       6.2
 6 H  pz              0.1       0.0       0.1       0.0       0.1       0.0
 6 H  px              0.1       0.1       0.1       0.0       0.0       0.0
 6 H  py              0.0       0.0       0.0       0.1       0.0       0.1
 7 C  s               0.2       0.5       0.3       0.0       0.0       0.0
 7 C  pz              1.2       1.1       0.2       7.0       1.5       2.4
 7 C  px              2.5       0.2       0.3       0.0       1.1       0.1
 7 C  py              9.3       3.1       3.2       0.6       0.2       0.3
 7 C  dz2             0.1       0.0       0.1       0.0       0.0       0.0
 7 C  dxz             0.0       0.0       0.0       0.1       0.0       0.0
 7 C  dyz             0.0       0.0       0.0       0.1       0.0       0.2
 8 H  s               0.7       4.3       1.1       0.2       3.3       3.9
 8 H  pz              0.0       0.1       0.0       0.0       0.1       0.0
 8 H  py              0.2       0.0       0.0       0.1       0.0       0.0
 9 H  s               1.6       0.5       0.6       3.0       3.3       1.6
 9 H  pz              0.0       0.0       0.0       0.0       0.2       0.0
 9 H  px              0.2       0.0       0.0       0.0       0.0       0.0
 9 H  py              0.0       0.2       0.0       0.0       0.0       0.1
10 H  s               0.4       0.5       0.8       4.0       1.7       0.7
11 H  s               3.8       0.2       2.4       1.8       0.1       2.0
11 H  pz              0.1       0.0       0.1       0.0       0.0       0.0
11 H  py              0.0       0.1       0.0       0.1       0.0       0.0
12 C  s               0.1       0.1       0.1       0.0       0.0       0.0
12 C  pz              1.6       3.5       2.5       2.1       0.0      12.4
12 C  px              8.7       2.7       1.2       1.0       6.3       0.1
12 C  py              1.6       1.9       4.0       1.7       0.2       0.1
12 C  dxz             0.0       0.0       0.0       0.2       0.0       0.2
12 C  dyz             0.0       0.1       0.0       0.0       0.0       0.5
13 H  s               0.5       0.4       0.0       3.3       1.4       7.2
13 H  px              0.2       0.0       0.0       0.0       0.0       0.1
14 H  s               0.6       2.2       3.3       0.0       0.9       6.9
14 H  px              0.1       0.1       0.0       0.0       0.1       0.0
14 H  py              0.1       0.0       0.0       0.0       0.0       0.1
15 C  pz              4.1       3.8       0.0      11.3       2.0       5.5
15 C  px              9.1       3.0       2.0       1.3       5.6       0.1
15 C  py              0.9       1.8       8.6       0.2       6.6       0.1
15 C  dz2             0.1       0.0       0.1       0.0       0.3       0.0
15 C  dxz             0.0       0.0       0.0       0.3       0.0       0.3
15 C  dyz             0.0       0.1       0.0       0.2       0.1       0.2
15 C  dx2y2           0.1       0.1       0.1       0.0       0.0       0.0
16 H  s               0.0       2.3       6.4       0.2       2.8       0.0
16 H  pz              0.1       0.0       0.0       0.2       0.0       0.1
16 H  px              0.1       0.0       0.0       0.0       0.2       0.0
17 H  s               0.0       1.2       0.8       3.8       6.9       4.6
17 H  pz              0.1       0.0       0.0       0.0       0.1       0.0
17 H  px              0.1       0.0       0.1       0.1       0.0       0.0
17 H  py              0.0       0.1       0.0       0.1       0.0       0.0
18 C  s               0.1       0.0       0.0       0.4       0.0       0.3
18 C  pz              8.5       4.3       1.1      11.9       0.1       3.5
18 C  px              0.4       0.7       2.5       0.5       0.1       0.5
18 C  py              2.8       2.1       5.8       0.6       5.6       0.1
18 C  dz2             0.0       0.1       0.2       0.0       0.3       0.0
18 C  dyz             0.1       0.0       0.1       0.2       0.0       0.1
19 H  s               1.6       0.6       5.3       0.2       3.9       0.0
19 H  pz              0.1       0.1       0.0       0.2       0.0       0.1
20 H  s               1.6       3.7       3.3       3.6       2.2       1.2
20 H  pz              0.0       0.1       0.1       0.0       0.1       0.0
20 H  py              0.1       0.0       0.0       0.1       0.0       0.0

                     24        25        26        27        28        29   
                  -0.46779  -0.46442  -0.46212  -0.09778  -0.09817   0.17691
                   2.00000   2.00000   2.00000   1.00000   1.00000   0.00000
                  --------  --------  --------  --------  --------  --------
 0 C  s               0.3       0.1       0.4       0.4       0.0       0.7
 0 C  pz              0.0       0.5       0.0       0.0       0.0       0.0
 0 C  px              2.6       0.5       3.6       0.9       0.2       0.3
 0 C  py              0.1       0.3       3.5      71.4       5.0       0.6
 1 C  s               0.1       0.0       0.3       0.0       0.1       1.7
 1 C  pz              0.0       4.5       0.2       0.0       0.0       0.0
 1 C  px              1.8       0.5       5.2       0.2       0.1       0.2
 1 C  py              1.5       0.1       4.4       0.8       0.4       0.9
 1 C  dz2             0.1       0.0       0.0       0.2       0.0       0.1
 1 C  dyz             0.0       0.4       0.0       0.0       0.0       0.0
 1 C  dx2y2           0.2       0.0       0.3       0.1       0.0       0.0
 1 C  dxy             0.1       0.0       0.0       1.6       0.1       0.0
 2 H  s               0.2       0.8       0.2       0.1       0.0       1.6
 2 H  pz              0.0       0.0       0.0       0.0       0.0       0.4
 2 H  py              0.0       0.0       0.0       1.8       0.1       0.0
 3 H  s               0.3       0.2       0.6       0.1       0.0       1.3
 3 H  pz              0.0       0.0       0.0       0.0       0.0       0.3
 3 H  py              0.0       0.0       0.0       1.8       0.1       0.0
 4 C  s               0.5       0.0       0.1       2.1       0.0       1.9
 4 C  pz              0.1      12.0       0.5       0.0       0.0       0.0
 4 C  px             12.7       1.2       6.1       1.6       0.2       0.6
 4 C  py              3.5       0.0       3.1       2.9       0.4       1.1
 4 C  dz2             0.3       0.0       0.0       0.0       0.0       0.2
 4 C  dxz             0.0       0.4       0.0       0.0       0.0       0.0
 4 C  dyz             0.0       0.6       0.0       0.0       0.0       0.0
 4 C  dx2y2           0.3       0.0       0.2       0.1       0.0       0.0
 4 C  dxy             0.2       0.0       0.3       0.0       0.0       0.0
 5 H  s               1.6       2.6       0.4       1.2       0.1       4.2
 5 H  pz              0.0       0.0       0.0       0.0       0.0       0.8
 6 H  s               0.8       4.3       0.1       1.2       0.1       3.5
 6 H  pz              0.0       0.0       0.0       0.0       0.0       0.7
 6 H  px              0.0       0.0       0.1       0.0       0.0       0.0
 7 C  s               0.5       0.0       0.1       0.0       0.3       2.9
 7 C  pz              0.3      13.4       0.5       0.0       0.3       0.2
 7 C  px             11.7       1.4       7.8       1.6       0.1       0.3
 7 C  py              6.8       0.1      12.2       0.0       0.4       1.0
 7 C  dz2             0.4       0.0       0.0       0.0       0.0       0.1
 7 C  dxz             0.0       0.3       0.0       0.0       0.0       0.0
 7 C  dyz             0.0       0.7       0.1       0.0       0.0       0.0
 7 C  dx2y2           0.3       0.1       0.3       0.0       0.0       0.0
 7 C  dxy             0.2       0.0       0.3       0.1       0.0       0.0
 8 H  s               4.3       7.2       0.1       0.5       0.0       4.2
 8 H  pz              0.1       0.0       0.0       0.0       0.0       1.0
 8 H  px              0.1       0.1       0.1       0.0       0.0       0.0
 8 H  py              0.0       0.1       0.1       0.1       0.0       0.0
 9 H  s               1.9       9.6       1.1       0.5       0.1       6.5
 9 H  pz              0.1       0.0       0.0       0.0       0.0       1.2
 9 H  px              0.1       0.0       0.2       0.0       0.0       0.0
 9 H  py              0.0       0.1       0.0       0.2       0.0       0.0
10 H  s               6.4       8.1       0.0       0.1       0.1       9.2
10 H  pz              0.1       0.0       0.0       0.0       0.0       1.4
10 H  px              0.1       0.1       0.1       0.0       0.0       0.1
10 H  py              0.0       0.1       0.2       0.0       0.0       0.0
11 H  s               2.4      10.2       2.0       0.2       1.1       4.0
11 H  pz              0.1       0.0       0.0       0.0       0.1       1.0
11 H  px              0.1       0.0       0.2       0.0       0.2       0.0
11 H  py              0.0       0.1       0.1       0.0       0.0       0.0
12 C  s               0.2       0.0       0.4       0.4       1.5       2.2
12 C  pz              0.5       5.4       0.2       0.0       0.1       0.0
12 C  px              5.3       0.6       3.4       0.1       4.2       0.7
12 C  py              4.9       0.2      13.8       0.2       0.0       1.3
12 C  dz2             0.3       0.0       0.1       0.0       0.0       0.1
12 C  dyz             0.0       0.5       0.0       0.0       0.0       0.0
12 C  dx2y2           0.3       0.0       0.3       0.1       0.0       0.0
12 C  dxy             0.3       0.0       0.3       0.0       0.0       0.0
13 H  s               1.4       4.4       1.9       0.0       0.9       7.0
13 H  pz              0.1       0.0       0.0       0.0       0.0       1.3
13 H  px              0.1       0.0       0.1       0.0       0.2       0.0
13 H  py              0.0       0.1       0.1       0.0       0.0       0.0
14 H  s               5.5       3.8       0.3       0.1       0.3       5.3
14 H  pz              0.1       0.0       0.0       0.0       0.0       1.0
14 H  px              0.0       0.0       0.1       0.0       0.1       0.0
14 H  py              0.0       0.0       0.2       0.0       0.0       0.0
15 C  s               0.3       0.0       0.1       0.1       0.0       2.2
15 C  pz              0.6       0.6       0.0       0.0       0.0       0.7
15 C  px              7.5       0.7       3.1       0.2       1.1       0.5
15 C  py              1.3       0.1       6.7       0.0       0.1       0.1
15 C  dz2             0.1       0.0       0.1       0.0       0.2       0.0
15 C  dxz             0.0       0.1       0.0       0.0       0.3       0.0
15 C  dyz             0.0       0.0       0.0       0.0       0.1       0.1
15 C  dx2y2           0.0       0.0       0.1       0.1       1.2       0.0
15 C  dxy             0.1       0.0       0.3       0.0       0.1       0.0
16 H  s               0.4       0.2       7.1       0.0       2.7       3.3
16 H  px              0.2       0.0       0.0       0.0       0.0       0.0
16 H  py              0.0       0.0       0.1       0.0       0.0       0.7
17 H  s               2.9       0.7       1.2       0.0       0.3       6.0
17 H  pz              0.0       0.0       0.0       0.0       0.0       0.5
17 H  py              0.0       0.0       0.0       0.0       0.0       0.5
18 C  s               0.0       0.1       0.0       0.0       0.2       1.3
18 C  pz              0.1       0.7       0.0       0.3       2.5       0.5
18 C  px              0.1       0.1       2.8       4.7      58.9       0.9
18 C  py              1.9       0.2       0.2       0.9      10.7       0.8
18 C  dz2             0.1       0.0       0.0       0.0       0.0       0.1
19 H  s               1.1       0.1       0.7       0.0       0.1       3.5
19 H  pz              0.0       0.0       0.0       0.0       0.0       0.2
19 H  px              0.0       0.0       0.0       0.1       1.6       0.2
19 H  py              0.0       0.0       0.0       0.0       0.3       0.4
20 H  s               0.3       0.1       0.3       0.0       0.0       3.1
20 H  pz              0.0       0.0       0.0       0.0       0.1       0.1
20 H  px              0.0       0.0       0.0       0.1       1.5       0.0
20 H  py              0.0       0.0       0.0       0.0       0.2       0.5

                     30        31        32        33        34        35   
                   0.19192   0.20283   0.20598   0.22715   0.23281   0.23665
                   0.00000   0.00000   0.00000   0.00000   0.00000   0.00000
                  --------  --------  --------  --------  --------  --------
 0 C  s               2.4       0.3       0.4       9.5       0.0       1.0
 0 C  pz              0.0       0.3       0.7       0.0       2.3       0.4
 0 C  px              0.6       0.1       0.1       1.1       0.0       0.2
 0 C  py              1.2       0.1       0.1       0.0       0.1       0.3
 0 C  dz2             0.2       0.0       0.0       0.3       0.0       0.0
 0 C  dxz             0.0       0.1       0.1       0.0       0.4       0.1
 0 C  dx2y2           0.0       0.0       0.0       0.2       0.0       0.2
 1 C  s               3.8       0.4       0.1       0.0       0.2       3.4
 1 C  pz              0.0       0.7       1.6       0.0       2.6       0.5
 1 C  px              0.4       0.1       0.0       0.5       0.1       0.2
 1 C  py              1.2       0.2       0.1       0.1       0.0       0.6
 1 C  dz2             0.1       0.0       0.0       0.0       0.0       0.0
 1 C  dxz             0.0       0.0       0.1       0.0       0.2       0.1
 1 C  dyz             0.0       0.1       0.2       0.0       0.4       0.0
 1 C  dx2y2           0.0       0.0       0.0       0.3       0.0       0.0
 2 H  s               4.9       0.0       4.9      19.0       5.5       0.3
 2 H  pz              1.1       0.0       0.5       3.2       0.3       0.1
 2 H  px              0.0       0.0       0.2       0.4       0.4       0.0
 3 H  s               6.1       3.0       0.1      16.0       5.8       6.5
 3 H  pz              1.2       0.3       0.0       2.9       0.4       0.6
 3 H  px              0.0       0.1       0.0       0.4       0.4       0.5
 4 C  s               1.4       0.9       0.4       1.5       0.3       0.7
 4 C  pz              0.1       0.9       1.6       0.0       1.1       0.0
 4 C  px              0.1       0.4       0.1       0.1       0.0       0.2
 4 C  py              0.5       0.7       0.4       0.2       0.1       0.2
 4 C  dyz             0.0       0.1       0.2       0.0       0.2       0.0
 4 C  dx2y2           0.1       0.0       0.0       0.1       0.0       0.1
 5 H  s               7.8       6.5       1.2       0.1       2.5      15.9
 5 H  pz              1.4       0.5       0.0       0.0       0.1       1.7
 5 H  px              0.0       0.2       0.0       0.2       0.2       0.4
 5 H  py              0.0       0.3       0.1       0.1       0.2       0.6
 6 H  s               9.9       0.1       7.4       0.0       9.9       3.6
 6 H  pz              1.6       0.0       0.4       0.0       0.8       0.6
 6 H  px              0.0       0.0       0.3       0.3       0.2       0.0
 6 H  py              0.1       0.0       0.4       0.0       0.7       0.1
 7 C  s               0.1       0.7       0.4       2.0       0.0       0.0
 7 C  pz              0.1       1.2       1.9       0.0       0.1       0.0
 7 C  px              0.5       0.4       0.1       0.5       0.0       0.0
 7 C  py              0.0       0.7       0.3       0.2       0.1       0.1
 7 C  dyz             0.0       0.1       0.3       0.0       0.0       0.0
 7 C  dx2y2           0.2       0.0       0.0       0.1       0.0       0.0
 8 H  s               3.4      13.2       0.3       3.2       0.6       3.4
 8 H  pz              0.5       1.2       0.0       0.5       0.0       0.4
 8 H  px              0.2       0.1       0.0       0.0       0.0       0.0
 8 H  py              0.0       0.6       0.1       0.2       0.1       0.2
 9 H  s               1.3       0.6      11.1       1.7       6.1       1.8
 9 H  pz              0.3       0.2       0.9       0.3       0.4       0.2
 9 H  px              0.1       0.0       0.2       0.0       0.1       0.0
 9 H  py              0.0       0.0       0.6       0.1       0.5       0.1
10 H  s               0.0      13.6       0.5       3.1       0.0       0.2
10 H  pz              0.0       1.1       0.0       0.6       0.0       0.0
10 H  px              0.2       0.3       0.0       0.0       0.0       0.0
10 H  py              0.0       0.7       0.1       0.1       0.0       0.0
11 H  s               1.3       0.3      12.0       3.0       0.3       0.1
11 H  pz              0.1       0.1       0.8       0.6       0.0       0.0
11 H  px              0.1       0.0       0.1       0.0       0.0       0.0
11 H  py              0.1       0.0       1.0       0.1       0.0       0.0
12 C  s               1.3       1.4       0.5       0.3       0.0       0.1
12 C  pz              0.0       1.0       2.1       0.0       0.2       0.1
12 C  px              0.4       0.5       0.1       0.1       0.2       0.1
12 C  py              0.2       0.8       0.2       0.9       0.0       0.1
12 C  dyz             0.0       0.1       0.3       0.0       0.0       0.0
12 C  dx2y2           0.1       0.0       0.0       0.2       0.1       0.0
12 C  dxy             0.0       0.1       0.0       0.0       0.0       0.1
13 H  s               3.9       1.1      11.9       2.1       0.4       0.3
13 H  pz              0.5       0.3       0.8       0.4       0.0       0.0
13 H  px              0.0       0.0       0.2       0.1       0.1       0.1
13 H  py              0.3       0.0       0.7       0.0       0.1       0.0
14 H  s               1.9      15.9       0.8       2.0       0.5       0.2
14 H  pz              0.3       1.5       0.0       0.4       0.0       0.0
14 H  px              0.0       0.4       0.0       0.2       0.0       0.0
14 H  py              0.1       0.6       0.1       0.0       0.0       0.1
15 C  s               3.6       0.2       0.1       1.4       3.5       0.3
15 C  pz              0.7       1.0       0.0       0.2       0.1       0.8
15 C  px              0.5       0.0       0.0       0.0       0.4       0.0
15 C  py              0.5       1.2       0.0       0.6       0.0       3.5
15 C  dz2             0.0       0.1       0.0       0.1       0.1       0.5
15 C  dxz             0.0       0.1       0.0       0.0       0.0       0.0
15 C  dyz             0.0       0.1       0.1       0.0       0.0       0.3
16 H  s              11.3       1.4       0.6       6.8       7.3      13.7
16 H  pz              0.0       0.1       0.1       0.0       0.0       0.2
16 H  px              0.0       0.0       0.0       0.1       0.0       0.3
16 H  py              1.7       0.1       0.1       0.9       1.2       1.7
17 H  s               7.0       9.4       0.0       1.5       7.2       6.6
17 H  pz              0.5       1.0       0.1       0.0       1.2       0.9
17 H  px              0.0       0.2       0.0       0.1       0.0       0.1
17 H  py              0.8       0.2       0.0       0.4       0.2       0.0
18 C  s               1.3       0.0       4.1       1.3       5.8       0.1
18 C  pz              0.5       0.4       0.6       0.3       0.8       0.8
18 C  px              0.1       0.2       0.0       0.4       0.0       0.1
18 C  py              0.2       0.8       0.6       0.1       0.0       2.5
18 C  dz2             0.0       0.1       0.0       0.0       0.3       0.3
18 C  dyz             0.1       0.0       0.0       0.1       0.0       0.2
18 C  dx2y2           0.0       0.0       0.2       0.0       0.3       0.1
18 C  dxy             0.0       0.0       0.1       0.0       0.2       0.3
19 H  s               2.0       3.9      11.7       1.1       7.2      10.8
19 H  pz              0.2       0.0       0.1       0.1       0.0       0.1
19 H  px              0.1       0.0       0.2       0.0       0.2       0.3
19 H  py              0.3       0.4       1.7       0.3       1.4       1.3
20 H  s               3.6       2.7       7.4       3.4      14.3       5.7
20 H  pz              0.2       0.3       0.7       0.4       2.1       0.8
20 H  py              0.5       0.0       0.7       0.3       0.6       0.0

                     36        37        38        39        40        41   
                   0.26607   0.27745   0.28465   0.28909   0.29298   0.30928
                   0.00000   0.00000   0.00000   0.00000   0.00000   0.00000
                  --------  --------  --------  --------  --------  --------
 0 C  s               0.6       1.0       1.3       0.7       0.0       0.0
 0 C  pz              3.0       2.3       0.6       0.0       1.7       1.1
 0 C  px              0.1       0.2       0.2       0.6       0.0       0.0
 0 C  py              0.0       0.0       0.4       0.1       0.1       0.0
 0 C  dxz             0.6       0.1       0.0       0.0       0.1       0.4
 0 C  dx2y2           0.1       0.2       0.2       0.2       0.0       0.0
 1 C  s               0.6       0.9       0.2       3.6       0.0       0.0
 1 C  pz              1.2       0.1       0.7       0.0       3.3       0.2
 1 C  px              0.0       0.1       0.5       0.8       0.0       0.0
 1 C  py              0.0       0.1       0.3       0.7       0.1       0.1
 1 C  dxz             0.6       0.1       0.0       0.0       0.0       0.4
 1 C  dx2y2           0.0       0.1       0.2       0.2       0.0       0.0
 2 H  s              11.9       2.8       4.5       1.0       5.1       2.3
 2 H  pz              1.0       0.1       0.4       0.2       0.2       0.2
 2 H  px              1.3       0.1       0.4       0.1       0.2       0.5
 2 H  py              0.0       0.0       0.1       0.0       0.1       0.0
 3 H  s               3.7      11.8       0.5       1.2       6.0       1.8
 3 H  pz              0.2       0.9       0.0       0.2       0.3       0.1
[...]
      px      :     0.006944
      py      :     0.006054
  4 C s       :     3.070147  s :     3.070147
      pz      :     1.020801  p :     2.919864
      px      :     0.937428
      py      :     0.961636
      dz2     :     0.008304  d :     0.046717
      dxz     :     0.006626
      dyz     :     0.011106
      dx2y2   :     0.012117
      dxy     :     0.008565
  5 H s       :     0.937344  s :     0.937344
      pz      :     0.012931  p :     0.024275
      px      :     0.004494
      py      :     0.006850
  6 H s       :     0.936606  s :     0.936606
      pz      :     0.012657  p :     0.024278
      px      :     0.004273
      py      :     0.007348
  7 C s       :     3.072627  s :     3.072627
      pz      :     1.012248  p :     2.933444
      px      :     0.935908
      py      :     0.985288
      dz2     :     0.008177  d :     0.046339
      dxz     :     0.006403
      dyz     :     0.011203
      dx2y2   :     0.011938
      dxy     :     0.008618
  8 H s       :     0.959056  s :     0.959056
      pz      :     0.013005  p :     0.023800
      px      :     0.004442
      py      :     0.006353
  9 H s       :     0.958522  s :     0.958522
      pz      :     0.012710  p :     0.023809
      px      :     0.004237
      py      :     0.006863
 10 H s       :     0.960369  s :     0.960369
      pz      :     0.012905  p :     0.023649
      px      :     0.004315
      py      :     0.006429
 11 H s       :     0.973950  s :     0.973950
      pz      :     0.012883  p :     0.024211
      px      :     0.004447
      py      :     0.006881
 12 C s       :     3.069791  s :     3.069791
      pz      :     1.016488  p :     2.907767
      px      :     0.910643
      py      :     0.980636
      dz2     :     0.008281  d :     0.046699
      dxz     :     0.006064
      dyz     :     0.011418
      dx2y2   :     0.011975
      dxy     :     0.008961
 13 H s       :     0.958819  s :     0.958819
      pz      :     0.012594  p :     0.024127
      px      :     0.004411
      py      :     0.007122
 14 H s       :     0.954981  s :     0.954981
      pz      :     0.013242  p :     0.023810
      px      :     0.004049
      py      :     0.006520
 15 C s       :     3.065417  s :     3.065417
      pz      :     0.967697  p :     2.923264
      px      :     0.949264
      py      :     1.006303
      dz2     :     0.010635  d :     0.048384
      dxz     :     0.009884
      dyz     :     0.008808
      dx2y2   :     0.012487
      dxy     :     0.006569
 16 H s       :     0.925045  s :     0.925045
      pz      :     0.003650  p :     0.024785
      px      :     0.004948
      py      :     0.016187
 17 H s       :     0.938514  s :     0.938514
      pz      :     0.012690  p :     0.024160
      px      :     0.004550
      py      :     0.006921
 18 C s       :     3.210027  s :     3.210027
      pz      :     0.970777  p :     2.944547
      px      :     0.980529
      py      :     0.993241
      dz2     :     0.009638  d :     0.027991
      dxz     :     0.004105
      dyz     :     0.008006
      dx2y2   :     0.003871
      dxy     :     0.002371
 19 H s       :     0.890870  s :     0.890870
      pz      :     0.003014  p :     0.027856
      px      :     0.007168
      py      :     0.017674
 20 H s       :     0.898628  s :     0.898628
      pz      :     0.015255  p :     0.027412
      px      :     0.005316
      py      :     0.006841


                     *******************************
                     * LOEWDIN POPULATION ANALYSIS *
                     *******************************

----------------------
LOEWDIN ATOMIC CHARGES
----------------------
   0 C :   -0.048183
   1 C :   -0.033067
   2 H :    0.014792
   3 H :    0.014828
   4 C :   -0.014931
   5 H :    0.021050
   6 H :    0.021250
   7 C :   -0.022532
   8 H :    0.009139
   9 H :    0.009011
  10 H :    0.008826
  11 H :    0.000763
  12 C :   -0.011694
  13 H :    0.008969
  14 H :    0.010273
  15 C :   -0.032701
  16 H :    0.027063
  17 H :    0.020505
  18 C :   -0.036980
  19 H :    0.017400
  20 H :    0.016219

-------------------------------
LOEWDIN REDUCED ORBITAL CHARGES
-------------------------------
  0 C s       :     2.930665  s :     2.930665
      pz      :     1.064536  p :     3.058416
      px      :     1.038535
      py      :     0.955345
      dz2     :     0.014878  d :     0.059102
      dxz     :     0.026696
      dyz     :     0.001722
      dx2y2   :     0.010262
      dxy     :     0.005544
  1 C s       :     2.832337  s :     2.832337
      pz      :     1.055455  p :     3.092293
      px      :     1.018903
      py      :     1.017934
      dz2     :     0.019120  d :     0.108438
      dxz     :     0.013066
      dyz     :     0.022895
      dx2y2   :     0.026914
      dxy     :     0.026442
  2 H s       :     0.906054  s :     0.906054
      pz      :     0.036984  p :     0.079154
      px      :     0.019606
      py      :     0.022564
  3 H s       :     0.905947  s :     0.905947
      pz      :     0.036515  p :     0.079224
      px      :     0.020571
      py      :     0.022139
  4 C s       :     2.852796  s :     2.852796
      pz      :     1.054769  p :     3.061108
      px      :     1.001042
      py      :     1.005298
      dz2     :     0.018433  d :     0.101026
      dxz     :     0.013577
      dyz     :     0.023814
      dx2y2   :     0.026132
      dxy     :     0.019070
  5 H s       :     0.913085  s :     0.913085
      pz      :     0.030864  p :     0.065866
      px      :     0.015142
      py      :     0.019860
  6 H s       :     0.912779  s :     0.912779
      pz      :     0.030304  p :     0.065971
      px      :     0.014681
      py      :     0.020986
  7 C s       :     2.835971  s :     2.835971
      pz      :     1.051798  p :     3.085341
      px      :     1.007306
      py      :     1.026237
      dz2     :     0.018295  d :     0.101220
      dxz     :     0.013223
      dyz     :     0.024085
      dx2y2   :     0.026094
      dxy     :     0.019522
  8 H s       :     0.923931  s :     0.923931
      pz      :     0.031285  p :     0.066930
      px      :     0.015618
      py      :     0.020027
  9 H s       :     0.923990  s :     0.923990
      pz      :     0.030558  p :     0.066999
      px      :     0.015338
      py      :     0.021103
 10 H s       :     0.924883  s :     0.924883
      pz      :     0.031015  p :     0.066291
      px      :     0.015639
      py      :     0.019637
 11 H s       :     0.929697  s :     0.929697
      pz      :     0.032009  p :     0.069540
      px      :     0.016663
      py      :     0.020867
 12 C s       :     2.848976  s :     2.848976
      pz      :     1.051357  p :     3.061761
      px      :     0.979249
      py      :     1.031155
      dz2     :     0.018302  d :     0.100957
      dxz     :     0.012808
      dyz     :     0.024381
      dx2y2   :     0.026054
      dxy     :     0.019412
 13 H s       :     0.923336  s :     0.923336
      pz      :     0.030512  p :     0.067695
      px      :     0.016294
      py      :     0.020888
 14 H s       :     0.923122  s :     0.923122
      pz      :     0.031671  p :     0.066605
      px      :     0.015322
      py      :     0.019612
 15 C s       :     2.832627  s :     2.832627
      pz      :     1.033034  p :     3.092619
      px      :     1.013396
      py      :     1.046188
      dz2     :     0.023791  d :     0.107455
      dxz     :     0.020942
      dyz     :     0.019331
      dx2y2   :     0.029105
      dxy     :     0.014285
 16 H s       :     0.905907  s :     0.905907
      pz      :     0.012374  p :     0.067030
      px      :     0.016162
      py      :     0.038494
 17 H s       :     0.914085  s :     0.914085
      pz      :     0.031337  p :     0.065410
      px      :     0.015469
      py      :     0.018604
 18 C s       :     2.931789  s :     2.931789
      pz      :     1.045341  p :     3.046522
      px      :     0.959624
      py      :     1.041557
      dz2     :     0.020259  d :     0.058669
      dxz     :     0.008412
      dyz     :     0.017622
      dx2y2   :     0.007498
      dxy     :     0.004879
 19 H s       :     0.902104  s :     0.902104
      pz      :     0.011064  p :     0.080496
      px      :     0.023775
      py      :     0.045658
 20 H s       :     0.904830  s :     0.904830
      pz      :     0.039779  p :     0.078951
      px      :     0.019984
      py      :     0.019188


                      *****************************
                      * MAYER POPULATION ANALYSIS *
                      *****************************

  NA   - Mulliken gross atomic population
  ZA   - Total nuclear charge
  QA   - Mulliken gross atomic charge
  VA   - Mayer's total valence
  BVA  - Mayer's bonded valence
  FA   - Mayer's free valence

  ATOM       NA         ZA         QA         VA         BVA        FA
  0 C      6.1736     6.0000    -0.1736     3.9028     3.0714     0.8314
  1 C      6.0489     6.0000    -0.0489     3.9829     3.9557     0.0272
  2 H      0.9279     1.0000     0.0721     0.9806     0.9742     0.0064
  3 H      0.9277     1.0000     0.0723     0.9807     0.9742     0.0065
  4 C      6.0367     6.0000    -0.0367     3.8220     3.7906     0.0314
  5 H      0.9616     1.0000     0.0384     0.9693     0.9561     0.0132
  6 H      0.9609     1.0000     0.0391     0.9695     0.9554     0.0141
  7 C      6.0524     6.0000    -0.0524     3.8585     3.8208     0.0377
  8 H      0.9829     1.0000     0.0171     0.9972     0.9816     0.0156
  9 H      0.9823     1.0000     0.0177     0.9952     0.9799     0.0153
 10 H      0.9840     1.0000     0.0160     0.9788     0.9741     0.0047
 11 H      0.9982     1.0000     0.0018     1.0306     1.0003     0.0302
 12 C      6.0243     6.0000    -0.0243     3.8602     3.8288     0.0313
 13 H      0.9829     1.0000     0.0171     0.9849     0.9622     0.0227
 14 H      0.9788     1.0000     0.0212     0.9868     0.9776     0.0092
 15 C      6.0371     6.0000    -0.0371     3.9778     3.9523     0.0255
 16 H      0.9498     1.0000     0.0502     0.9677     0.9400     0.0278
 17 H      0.9627     1.0000     0.0373     0.9723     0.9687     0.0036
 18 C      6.1826     6.0000    -0.1826     3.8893     3.0562     0.8331
 19 H      0.9187     1.0000     0.0813     0.9808     0.9740     0.0068
 20 H      0.9260     1.0000     0.0740     0.9812     0.9750     0.0061

  Mayer bond orders larger than 0.100000
B(  0-C ,  1-C ) :   1.1363 B(  0-C ,  2-H ) :   0.9814 B(  0-C ,  3-H ) :   0.9815 
B(  1-C ,  4-C ) :   0.9546 B(  1-C ,  5-H ) :   0.9625 B(  1-C ,  6-H ) :   0.9616 
B(  4-C ,  7-C ) :   0.9916 B(  4-C ,  8-H ) :   0.9683 B(  4-C ,  9-H ) :   0.9680 
B(  7-C , 10-H ) :   0.9681 B(  7-C , 11-H ) :   0.9531 B(  7-C , 12-C ) :   1.0122 
B( 12-C , 13-H ) :   0.9554 B( 12-C , 14-H ) :   0.9693 B( 12-C , 15-C ) :   0.9836 
B( 15-C , 16-H ) :   0.9555 B( 15-C , 17-H ) :   0.9711 B( 15-C , 18-C ) :   1.1018 
B( 18-C , 19-H ) :   0.9816 B( 18-C , 20-H ) :   0.9808 


-------------------------------------------------------------
 Forming the transition density       ... done in 0.004478 sec
-------------------------------------------------------------



==========================================
CASSCF UV, CD spectra and dipole moments
==========================================
-------------------
ABSORPTION SPECTRUM
-------------------

Center of mass           = ( -0.5259, -0.2162,  0.3221)
Nuclear contribution to the dipole moment =    -0.088875,   -0.228444,   -0.027142 au

Calculating the Dipole integrals                  ... done
Transforming integrals                            ... done
Calculating the Linear Momentum integrals         ... done
Transforming integrals                            ... done
Calculating the Angular Momentum integrals        ... done
Transforming integrals                            ... done

------------------------------------------------------------------------------------------
                                ABSORPTION SPECTRUM
------------------------------------------------------------------------------------------
  States           Energy   Wavelength   fosc          T2        TX         TY        TZ  
                   (cm-1)     (nm)                   (D**2)      (D)        (D)       (D) 
------------------------------------------------------------------------------------------
  0( 0)-> 1( 0) 1   70684.1    141.5   0.001806146   0.05426  -0.19657  -0.06687  -0.10558
  0( 0)-> 2( 0) 1   71832.1    139.2   0.004155276   0.12284   0.25424  -0.24002  -0.02433
------------------------------------------------------------------------------------------



------------------------------------------------------------------------------
                             CD SPECTRUM
------------------------------------------------------------------------------
      States        Energy   Wavelength   R*T        RX        RY        RZ   
                    (cm-1)      (nm)   (1e40*sgs)   (au)      (au)      (au)  
------------------------------------------------------------------------------
  0( 0)-> 1( 0) 1   70684.1    141.5     1.04010  -0.03287  -0.06880   0.05167
  0( 0)-> 2( 0) 1   71832.1    139.2    -1.15518   0.02968   0.06211  -0.04665
------------------------------------------------------------------------------

------------------------------------------------------------------------------
                                 DIPOLE MOMENTS
------------------------------------------------------------------------------
  Root  Block           TX        TY        TZ           |T|
                      (Debye)   (Debye)   (Debye)      (Debye)
------------------------------------------------------------------------------
    0    0            0.30642  -0.49352  -0.09914      0.58931

--------------
CASSCF TIMINGS
--------------

Total time                       ...       13.2 sec
Sum of individual times          ...       12.8 sec ( 97.3%)

Calculation of AO operators
   F(Core) operator              ...        2.3 sec ( 17.3%)
   G(Act) operator               ...        2.3 sec ( 17.1%)
   J(AO) operators               ...        0.0 sec (  0.0%)
Calculation of MO transformed quantities
   J(MO) operators               ...        8.1 sec ( 61.4%)
   (pq|rs) integrals             ...        0.0 sec (  0.0%)
   AO->MO one electron integrals ...        0.0 sec (  0.1%)
Configuration interaction steps
   CI-setup phase                ...        0.0 sec (  0.0%)
   CI-solution phase             ...        0.1 sec (  0.9%)
   Generation of densities       ...        0.0 sec (  0.1%)
Orbital improvement steps
   Orbital gradient              ...        0.0 sec (  0.1%)
   O(1) converger                ...        0.0 sec (  0.3%)
Properties                       ...        0.0 sec (  0.0%)
   SOC integral calculation      ...        0.0 sec (  0.0%)
   SSC RMEs (incl. integrals)    ...        0.0 sec (  0.0%)
   SOC RMEs                      ...        0.0 sec (  0.0%)

Maximum memory used throughout the entire CASSCF-calculation: 71.0 MB

-------------------------   --------------------
FINAL SINGLE POINT ENERGY      -272.673755449678
-------------------------   --------------------


                            ***************************************
                            *     ORCA property calculations      *
                            ***************************************

                                    ---------------------
                                    Active property flags
                                    ---------------------
   (+) Dipole Moment


------------------------------------------------------------------------------
                       ORCA ELECTRIC PROPERTIES CALCULATION
------------------------------------------------------------------------------

Dipole Moment Calculation                       ... on
Quadrupole Moment Calculation                   ... off
Polarizability Calculation                      ... off
GBWName                                         ... C7H14-CAS22.gbw
Electron density file                           ... C7H14-CAS22.scfp
The origin for moment calculation is the CENTER OF MASS  = (-0.525891, -0.216213  0.322081)

-------------
DIPOLE MOMENT
-------------
                                X             Y             Z
Electronic contribution:      0.20893       0.03624      -0.01108
Nuclear contribution   :     -0.08888      -0.22844      -0.02714
                        -----------------------------------------
Total Dipole Moment    :      0.12005      -0.19220      -0.03822
                        -----------------------------------------
Magnitude (a.u.)       :      0.22982
Magnitude (Debye)      :      0.58415



--------------------
Rotational spectrum 
--------------------
 
Rotational constants in cm-1:     0.281333     0.028707     0.027530 
Rotational constants in MHz :  8434.155340   860.619249   825.340837 

 Dipole components along the rotational axes: 
x,y,z [a.u.] :     0.181737    -0.139777    -0.015830 
x,y,z [Debye]:     0.461939    -0.355286    -0.040238 

 
--------------------------------------------------------------------------
WARNING: There was an error initializing an OpenFabrics device.

  Local host:   cnode05
  Local device: mlx5_0
--------------------------------------------------------------------------
[cnode05:313902] 7 more processes have sent help message help-mpi-btl-openib.txt / error in device init
[cnode05:313902] Set MCA parameter "orte_base_help_aggregate" to 0 to see all help / error messages

Timings for individual modules:

Sum of individual times         ...       17.746 sec (=   0.296 min)
GTO integral calculation        ...        0.515 sec (=   0.009 min)   2.9 %
SCF iterations                  ...        0.485 sec (=   0.008 min)   2.7 %
CASSCF iterations               ...       16.746 sec (=   0.279 min)  94.4 %
                             ****ORCA TERMINATED NORMALLY****
TOTAL RUN TIME: 0 days 0 hours 0 minutes 18 seconds 309 msec

Sender: Unischeduler System <lcz@mgt01>
Subject: Job 129346: <#!/bin/bash
#BSUB -J intel
#BSUB -o C7H14-CAS22.out
#BSUB -n 8
#BSUB -q cqueue
#BSUB -R span[hosts=1]
export LD_LIBRARY_PATH=/apps/software/openmpi-4.1.1/lib:/apps/software/orca_5_0_0:$LD_LIBRARY_PATH
export PATH=/apps/software/openmpi-4.1.1/bin:/apps/software/orca_5_0_0:$PATH
/apps/software/orca_5_0_0/orca C7H14-CAS22.inp >& C7H14-CAS22.out> Done

Job <#!/bin/bash
#BSUB -J intel
#BSUB -o C7H14-CAS22.out
#BSUB -n 8
#BSUB -q cqueue
#BSUB -R span[hosts=1]
export LD_LIBRARY_PATH=/apps/software/openmpi-4.1.1/lib:/apps/software/orca_5_0_0:$LD_LIBRARY_PATH
export PATH=/apps/software/openmpi-4.1.1/bin:/apps/software/orca_5_0_0:$PATH
/apps/software/orca_5_0_0/orca C7H14-CAS22.inp >& C7H14-CAS22.out> was submitted from host <mgt01> by user <lcz>.
Job was executed on host(s) <8*cnode05>, in queue <cqueue>, as user <lcz>.
</apps/users/lcz> was used as the home directory.
</apps/users/lcz/exe7/task5/ORCA> was used as the working directory.
Started at 2022-05-08 06:43:35
Results reported at 2022-05-08 06:43:53

Your job looked like:

------------------------------------------------------------
# User input
#!/bin/bash
#BSUB -J intel
#BSUB -o C7H14-CAS22.out
#BSUB -n 8
#BSUB -q cqueue
#BSUB -R span[hosts=1]
export LD_LIBRARY_PATH=/apps/software/openmpi-4.1.1/lib:/apps/software/orca_5_0_0:$LD_LIBRARY_PATH
export PATH=/apps/software/openmpi-4.1.1/bin:/apps/software/orca_5_0_0:$PATH
/apps/software/orca_5_0_0/orca C7H14-CAS22.inp >& C7H14-CAS22.out
------------------------------------------------------------

Successfully completed.

Resource usage summary:

    CPU time   :          102.03 sec.
    Max Memory :              1265 MB
    Max Processes  :              13


The output (if any) follows:

