 Entering Gaussian System, Link 0=/apps/software/g16/g16
 Initial command:
 /apps/software/g16/l1.exe "/scratch/Gau-275616.inp" -scrdir="/scratch/"
 Entering Link 1 = /apps/software/g16/l1.exe PID=    275617.
  
 Copyright (c) 1988,1990,1992,1993,1995,1998,2003,2009,2016,
            Gaussian, Inc.  All Rights Reserved.
  
 This is part of the Gaussian(R) 16 program.  It is based on
 the Gaussian(R) 09 system (copyright 2009, Gaussian, Inc.),
 the Gaussian(R) 03 system (copyright 2003, Gaussian, Inc.),
 the Gaussian(R) 98 system (copyright 1998, Gaussian, Inc.),
 the Gaussian(R) 94 system (copyright 1995, Gaussian, Inc.),
 the Gaussian 92(TM) system (copyright 1992, Gaussian, Inc.),
 the Gaussian 90(TM) system (copyright 1990, Gaussian, Inc.),
 the Gaussian 88(TM) system (copyright 1988, Gaussian, Inc.),
 the Gaussian 86(TM) system (copyright 1986, Carnegie Mellon
 University), and the Gaussian 82(TM) system (copyright 1983,
 Carnegie Mellon University). Gaussian is a federally registered
 trademark of Gaussian, Inc.
  
 This software contains proprietary and confidential information,
 including trade secrets, belonging to Gaussian, Inc.
  
 This software is provided under written license and may be
 used, copied, transmitted, or stored only in accord with that
 written license.
  
 The following legend is applicable only to US Government
 contracts under FAR:
  
                    RESTRICTED RIGHTS LEGEND
  
 Use, reproduction and disclosure by the US Government is
 subject to restrictions as set forth in subparagraphs (a)
 and (c) of the Commercial Computer Software - Restricted
 Rights clause in FAR 52.227-19.
  
 Gaussian, Inc.
 340 Quinnipiac St., Bldg. 40, Wallingford CT 06492
  
  
 ---------------------------------------------------------------
 Warning -- This program may not be used in any manner that
 competes with the business of Gaussian, Inc. or will provide
 assistance to any competitor of Gaussian, Inc.  The licensee
 of this program is prohibited from giving any competitor of
 Gaussian, Inc. access to this program.  By using this program,
 the user acknowledges that Gaussian, Inc. is engaged in the
 business of creating and licensing software in the field of
 computational chemistry and represents and warrants to the
 licensee that it is not a competitor of Gaussian, Inc. and that
 it will not use this program in any manner prohibited above.
 ---------------------------------------------------------------
  

 Cite this work as:
 Gaussian 16, Revision A.03,
 M. J. Frisch, G. W. Trucks, H. B. Schlegel, G. E. Scuseria, 
 M. A. Robb, J. R. Cheeseman, G. Scalmani, V. Barone, 
 G. A. Petersson, H. Nakatsuji, X. Li, M. Caricato, A. V. Marenich, 
 J. Bloino, B. G. Janesko, R. Gomperts, B. Mennucci, H. P. Hratchian, 
 J. V. Ortiz, A. F. Izmaylov, J. L. Sonnenberg, D. Williams-Young, 
 F. Ding, F. Lipparini, F. Egidi, J. Goings, B. Peng, A. Petrone, 
 T. Henderson, D. Ranasinghe, V. G. Zakrzewski, J. Gao, N. Rega, 
 G. Zheng, W. Liang, M. Hada, M. Ehara, K. Toyota, R. Fukuda, 
 J. Hasegawa, M. Ishida, T. Nakajima, Y. Honda, O. Kitao, H. Nakai, 
 T. Vreven, K. Throssell, J. A. Montgomery, Jr., J. E. Peralta, 
 F. Ogliaro, M. J. Bearpark, J. J. Heyd, E. N. Brothers, K. N. Kudin, 
 V. N. Staroverov, T. A. Keith, R. Kobayashi, J. Normand, 
 K. Raghavachari, A. P. Rendell, J. C. Burant, S. S. Iyengar, 
 J. Tomasi, M. Cossi, J. M. Millam, M. Klene, C. Adamo, R. Cammi, 
 J. W. Ochterski, R. L. Martin, K. Morokuma, O. Farkas, 
 J. B. Foresman, and D. J. Fox, Gaussian, Inc., Wallingford CT, 2016.
 
 ******************************************
 Gaussian 16:  ES64L-G16RevA.03 25-Dec-2016
                14-May-2022 
 ******************************************
 %nprocshared=16
 Will use up to   16 processors via shared memory.
 ---------------------
 # RHF/Def2TZVP stable
 ---------------------
 1/38=1,172=1/1;
 2/12=2,17=6,18=5,40=1/2;
 3/5=44,7=101,11=1,25=1,30=1,116=1/1,2,3;
 4//1;
 5/5=2,38=5/2;
 8/6=1,10=90,11=11/1;
 9/8=-1,42=1/14;
 6/7=2,8=2,9=2,10=2,28=1/1;
 99/5=1,9=1/99;
 ------------
 [Fe(H2O)6]2+
 ------------
 Symbolic Z-matrix:
 Charge =  2 Multiplicity = 1
 Fe                    6.20397   1.03715   0.17097 
 O                     8.02344   0.99563   0.15636 
 O                     6.24694  -0.78162   0.11972 
 O                     6.22608   1.15774  -1.6449 
 O                     4.3844    1.01817   0.2057 
 O                     6.16558   2.85627   0.21242 
 O                     6.16851   1.06001   1.99048 
 H                     4.06546   1.78649   0.68482 
 H                     4.08102   0.21944   0.64342 
 H                     6.97846   3.18467   0.60355 
 H                     5.41693   3.14866   0.73743 
 H                     6.90727   0.55048   2.33137 
 H                     5.34491   0.67544   2.29934 
 H                     8.36475   1.75961   0.62692 
 H                     8.32866   0.1929    0.5854 
 H                     7.07411  -1.09286   0.4946 
 H                     5.51267  -1.13352   0.62827 
 H                     6.97521   0.66594  -1.98917 
 H                     5.41263   0.79177  -1.99983 
 
                          Input orientation:                          
 ---------------------------------------------------------------------
 Center     Atomic      Atomic             Coordinates (Angstroms)
 Number     Number       Type             X           Y           Z
 ---------------------------------------------------------------------
      1         26           0        6.203972    1.037146    0.170968
      2          8           0        8.023440    0.995626    0.156356
      3          8           0        6.246944   -0.781624    0.119724
      4          8           0        6.226075    1.157740   -1.644898
      5          8           0        4.384402    1.018165    0.205705
      6          8           0        6.165579    2.856269    0.212425
      7          8           0        6.168506    1.060011    1.990478
      8          1           0        4.065459    1.786488    0.684823
      9          1           0        4.081015    0.219439    0.643417
     10          1           0        6.978462    3.184666    0.603547
     11          1           0        5.416932    3.148658    0.737435
     12          1           0        6.907270    0.550479    2.331367
     13          1           0        5.344913    0.675438    2.299344
     14          1           0        8.364747    1.759612    0.626924
     15          1           0        8.328661    0.192904    0.585399
     16          1           0        7.074109   -1.092859    0.494599
     17          1           0        5.512674   -1.133518    0.628269
     18          1           0        6.975214    0.665940   -1.989169
     19          1           0        5.412635    0.791767   -1.999833
 ---------------------------------------------------------------------
                    Distance matrix (angstroms):
                    1          2          3          4          5
     1  Fe   0.000000
     2  O    1.820000   0.000000
     3  O    1.820000   2.513145   0.000000
     4  O    1.820000   2.549768   2.622110   0.000000
     5  O    1.820000   3.639442   2.591466   2.614569   0.000000
     6  O    1.820000   2.629977   3.639984   2.517600   2.559543
     7  O    1.820000   2.609393   2.626309   3.637146   2.523924
     8  H    2.323532   4.070670   3.416639   3.239010   0.960000
     9  H    2.323532   4.047519   2.442874   3.273848   0.960000
    10  H    2.323532   2.466547   4.062101   3.119298   3.403109
    11  H    2.323532   3.430318   4.064186   3.208423   2.426490
    12  H    2.323532   2.484888   2.664939   4.079642   3.331971
    13  H    2.323532   3.445203   2.772622   4.070148   2.328812
    14  H    2.323532   0.960000   3.346673   3.177631   4.070664
    15  H    2.323532   0.960000   2.345230   3.213409   4.047517
    16  H    2.323532   2.318924   0.960000   3.218976   3.431385
    17  H    2.323532   3.325643   0.960000   3.305464   2.466029
    18  H    2.323532   2.410549   2.659558   0.960000   3.413772
    19  H    2.323532   3.392198   2.768421   0.960000   2.443955
                    6          7          8          9         10
     6  O    0.000000
     7  O    2.527454   0.000000
     8  H    2.403767   2.579789   0.000000
     9  H    3.388810   2.622738   1.567673   0.000000
    10  H    0.960000   2.663412   3.232197   4.146005   0.000000
    11  H    0.960000   2.549005   1.919572   3.220844   1.567673
    12  H    3.218181   0.960000   3.509233   3.308546   3.151090
    13  H    3.128058   0.960000   2.340537   2.132479   3.440993
    14  H    2.492148   2.678096   4.299762   4.552226   1.988242
    15  H    3.451310   2.718895   4.552393   4.248125   3.282377
    16  H    4.062101   2.773558   4.168789   3.271526   4.279981
    17  H    4.064186   2.664075   3.259458   1.969865   4.560247
    18  H    3.209372   4.079665   4.107620   3.937799   3.614716
    19  H    3.118201   4.070120   3.164132   3.014555   3.867217
                   11         12         13         14         15
    11  H    0.000000
    12  H    3.392972   0.000000
    13  H    2.926015   1.567673   0.000000
    14  H    3.260563   2.547817   3.618262   0.000000
    15  H    4.151838   2.279609   3.474651   1.567673   0.000000
    16  H    4.560228   2.470246   3.061715   3.133664   1.798703
    17  H    4.284637   2.771513   2.468391   4.062576   3.113039
    18  H    4.003312   4.322613   4.587953   3.157667   2.946860
    19  H    3.612145   4.588186   4.301283   4.068358   3.942749
                   16         17         18         19
    16  H    0.000000
    17  H    1.567673   0.000000
    18  H    3.045038   3.496863   0.000000
    19  H    3.540410   3.259394   1.567673   0.000000
 Stoichiometry    FeH12O6(2+)
 Framework group  C1[X(FeH12O6)]
 Deg. of freedom    51
 Full point group                 C1      NOp   1
 Largest Abelian subgroup         C1      NOp   1
 Largest concise Abelian subgroup C1      NOp   1
                         Standard orientation:                         
 ---------------------------------------------------------------------
 Center     Atomic      Atomic             Coordinates (Angstroms)
 Number     Number       Type             X           Y           Z
 ---------------------------------------------------------------------
      1         26           0        0.010146   -0.033639    0.027691
      2          8           0        1.539344   -0.374401   -0.898502
      3          8           0        0.867758    1.400282    0.749336
      4          8           0        0.602850   -1.139176    1.346361
      5          8           0       -1.499338    0.367194    0.962139
      6          8           0       -0.840449   -1.474176   -0.689069
      7          8           0       -0.658320    0.960583   -1.342373
      8          1           0       -2.268708    0.074824    0.467984
      9          1           0       -1.548508    1.316127    1.098919
     10          1           0       -0.448150   -1.687237   -1.538955
     11          1           0       -1.770828   -1.269781   -0.808302
     12          1           0        0.060569    1.412336   -1.790388
     13          1           0       -1.276624    1.608088   -0.995908
     14          1           0        1.321268   -0.800900   -1.730453
     15          1           0        1.998620    0.450457   -1.072501
     16          1           0        1.560364    1.692654    0.152330
     17          1           0        0.239897    2.113732    0.884901
     18          1           0        1.559343   -1.082512    1.405608
     19          1           0        0.214198   -0.875614    2.183669
 ---------------------------------------------------------------------
 Rotational constants (GHZ):           2.0241394           1.9746986           1.9394519
 Standard basis: def2TZVP (5D, 7F)
 There are   340 symmetry adapted cartesian basis functions of A   symmetry.
 There are   303 symmetry adapted basis functions of A   symmetry.
   303 basis functions,   504 primitive gaussians,   340 cartesian basis functions
    42 alpha electrons       42 beta electrons
       nuclear repulsion energy       767.8155054721 Hartrees.
 NAtoms=   19 NActive=   19 NUniq=   19 SFac= 1.00D+00 NAtFMM=   60 NAOKFM=F Big=F
 Integral buffers will be    131072 words long.
 Raffenetti 1 integral format.
 Two-electron integral symmetry is turned on.
 One-electron integrals computed using PRISM.
 PrsmSu:  requested number of processors reduced to:  13 ShMem   1 Linda.
   1 Symmetry operations used in ECPInt.
 ECPInt:  NShTT=    8385 NPrTT=   26333 LenC2=    8278 LenP2D=   20624.
 LDataN:  DoStor=T MaxTD1= 6 Len=  172
 NBasis=   303 RedAO= T EigKep=  1.28D-03  NBF=   303
 NBsUse=   303 1.00D-06 EigRej= -1.00D+00 NBFU=   303
 ExpMin= 4.20D-02 ExpMax= 3.01D+05 ExpMxC= 2.91D+03 IAcc=3 IRadAn=         5 AccDes= 0.00D+00
 Harris functional with IExCor=  205 and IRadAn=       5 diagonalized for initial guess.
 HarFok:  IExCor=  205 AccDes= 0.00D+00 IRadAn=         5 IDoV= 1 UseB2=F ITyADJ=14
 ICtDFT=  3500011 ScaDFX=  1.000000  1.000000  1.000000  1.000000
 FoFCou: FMM=F IPFlag=           0 FMFlag=      100000 FMFlg1=           0
         NFxFlg=           0 DoJE=T BraDBF=F KetDBF=T FulRan=T
         wScrn=  0.000000 ICntrl=       500 IOpCl=  0 I1Cent=   200000004 NGrid=           0
         NMat0=    1 NMatS0=      1 NMatT0=    0 NMatD0=    1 NMtDS0=    0 NMtDT0=    0
 Petite list used in FoFCou.
 Requested convergence on RMS density matrix=1.00D-08 within 128 cycles.
 Requested convergence on MAX density matrix=1.00D-06.
 Requested convergence on             energy=1.00D-06.
 No special actions if energy rises.
 Initial convergence to 1.0D-05 achieved.  Increase integral accuracy.
 SCF Done:  E(RHF) =  -1718.13354512     A.U. after   20 cycles
            NFock= 20  Conv=0.34D-08     -V/T= 1.9991
 Range of M.O.s used for correlation:     1   303
 NBasis=   303 NAE=    42 NBE=    42 NFC=     0 NFV=     0
 NROrb=    303 NOA=    42 NOB=    42 NVA=   261 NVB=   261

 **** Warning!!: The largest alpha MO coefficient is  0.10857781D+02

 Orbital symmetries:
       Occupied  (A) (A) (A) (A) (A) (A) (A) (A) (A) (A) (A) (A)
                 (A) (A) (A) (A) (A) (A) (A) (A) (A) (A) (A) (A)
                 (A) (A) (A) (A) (A) (A) (A) (A) (A) (A) (A) (A)
                 (A) (A) (A) (A) (A) (A)
       Virtual   (A) (A) (A) (A) (A) (A) (A) (A) (A) (A) (A) (A)
                 (A) (A) (A) (A) (A) (A) (A) (A) (A) (A) (A) (A)
                 (A) (A) (A) (A) (A) (A) (A) (A) (A) (A) (A) (A)
                 (A) (A) (A) (A) (A) (A) (A) (A) (A) (A) (A) (A)
                 (A) (A) (A) (A) (A) (A) (A) (A) (A) (A) (A) (A)
                 (A) (A) (A) (A) (A) (A) (A) (A) (A) (A) (A) (A)
                 (A) (A) (A) (A) (A) (A) (A) (A) (A) (A) (A) (A)
                 (A) (A) (A) (A) (A) (A) (A) (A) (A) (A) (A) (A)
                 (A) (A) (A) (A) (A) (A) (A) (A) (A) (A) (A) (A)
                 (A) (A) (A) (A) (A) (A) (A) (A) (A) (A) (A) (A)
                 (A) (A) (A) (A) (A) (A) (A) (A) (A) (A) (A) (A)
                 (A) (A) (A) (A) (A) (A) (A) (A) (A) (A) (A) (A)
                 (A) (A) (A) (A) (A) (A) (A) (A) (A) (A) (A) (A)
                 (A) (A) (A) (A) (A) (A) (A) (A) (A) (A) (A) (A)
                 (A) (A) (A) (A) (A) (A) (A) (A) (A) (A) (A) (A)
                 (A) (A) (A) (A) (A) (A) (A) (A) (A) (A) (A) (A)
                 (A) (A) (A) (A) (A) (A) (A) (A) (A) (A) (A) (A)
                 (A) (A) (A) (A) (A) (A) (A) (A) (A) (A) (A) (A)
                 (A) (A) (A) (A) (A) (A) (A) (A) (A) (A) (A) (A)
                 (A) (A) (A) (A) (A) (A) (A) (A) (A) (A) (A) (A)
                 (A) (A) (A) (A) (A) (A) (A) (A) (A) (A) (A) (A)
                 (A) (A) (A) (A) (A) (A) (A) (A) (A)
    24 initial guesses have been made.
 Convergence on wavefunction:    0.001000000000000
 Iteration     1 Dimension    24 NMult     0 NNew     24
 CISAX will form     6 AO SS matrices at one time.
 New state      1 was old state     20
 New state      2 was old state     12
 New state      3 was old state     22
 New state      4 was old state     10
 New state      5 was old state     16
 New state      6 was old state      8
 New state      7 was old state     19
 New state      8 was old state     11
 New state     10 was old state     21
 New state     11 was old state     15
 New state     12 was old state      7
 Iteration     2 Dimension    48 NMult    24 NNew     24
 New state      1 was old state      4
 New state      3 was old state      1
 New state      4 was old state      6
 New state      6 was old state      3
 New state      7 was old state      9
 New state      9 was old state      7
 New state     10 was old state     12
 New state     12 was old state     10
 Iteration     3 Dimension    54 NMult    48 NNew      6
 New state      4 was old state      7
 New state      5 was old state      8
 New state      6 was old state      9
 Iteration     4 Dimension    60 NMult    54 NNew      6
 Iteration     5 Dimension    65 NMult    60 NNew      5
 Iteration     6 Dimension    66 NMult    65 NNew      1
 ***********************************************************************
 Stability analysis using <AA,BB:AA,BB> singles matrix:
 ***********************************************************************
 Ground to excited state transition densities written to RWF  633

 Eigenvectors of the stability matrix:
 
 Eigenvector   1:      Triplet-A    Eigenvalue= 0.0002892  <S**2>=2.000
      42 -> 57        -0.15696
      42 -> 58        -0.45926
      42 -> 59         0.36765
      42 -> 61         0.13917
 
 Eigenvector   2:      Triplet-A    Eigenvalue= 0.0062956  <S**2>=2.000
      35 -> 59         0.11798
      41 -> 49         0.10063
      41 -> 57        -0.14714
      41 -> 58         0.21392
      41 -> 59         0.57381
 
 Eigenvector   3:      Triplet-A    Eigenvalue= 0.0139106  <S**2>=2.000
      40 -> 49         0.14080
      40 -> 58         0.59726
      40 -> 59         0.22075
      40 -> 61        -0.12115
 
 Eigenvector   4:      Singlet-A    Eigenvalue= 0.0826419  <S**2>=0.000
      42 -> 57        -0.16255
      42 -> 58        -0.43863
      42 -> 59         0.39331
      42 -> 61         0.13613
 
 Eigenvector   5:      Singlet-A    Eigenvalue= 0.0882698  <S**2>=0.000
      35 -> 59         0.11976
      41 -> 57        -0.15802
      41 -> 58         0.16647
      41 -> 59         0.59283
 
 Eigenvector   6:      Singlet-A    Eigenvalue= 0.0949602  <S**2>=0.000
      40 -> 49         0.14824
      40 -> 58         0.61127
      40 -> 59         0.20337
      40 -> 61        -0.12642
 The wavefunction is stable under the perturbations considered.

 **********************************************************************

            Population analysis using the SCF density.

 **********************************************************************

 Orbital symmetries:
       Occupied  (A) (A) (A) (A) (A) (A) (A) (A) (A) (A) (A) (A)
                 (A) (A) (A) (A) (A) (A) (A) (A) (A) (A) (A) (A)
                 (A) (A) (A) (A) (A) (A) (A) (A) (A) (A) (A) (A)
                 (A) (A) (A) (A) (A) (A)
       Virtual   (A) (A) (A) (A) (A) (A) (A) (A) (A) (A) (A) (A)
                 (A) (A) (A) (A) (A) (A) (A) (A) (A) (A) (A) (A)
                 (A) (A) (A) (A) (A) (A) (A) (A) (A) (A) (A) (A)
                 (A) (A) (A) (A) (A) (A) (A) (A) (A) (A) (A) (A)
                 (A) (A) (A) (A) (A) (A) (A) (A) (A) (A) (A) (A)
                 (A) (A) (A) (A) (A) (A) (A) (A) (A) (A) (A) (A)
                 (A) (A) (A) (A) (A) (A) (A) (A) (A) (A) (A) (A)
                 (A) (A) (A) (A) (A) (A) (A) (A) (A) (A) (A) (A)
                 (A) (A) (A) (A) (A) (A) (A) (A) (A) (A) (A) (A)
                 (A) (A) (A) (A) (A) (A) (A) (A) (A) (A) (A) (A)
                 (A) (A) (A) (A) (A) (A) (A) (A) (A) (A) (A) (A)
                 (A) (A) (A) (A) (A) (A) (A) (A) (A) (A) (A) (A)
                 (A) (A) (A) (A) (A) (A) (A) (A) (A) (A) (A) (A)
                 (A) (A) (A) (A) (A) (A) (A) (A) (A) (A) (A) (A)
                 (A) (A) (A) (A) (A) (A) (A) (A) (A) (A) (A) (A)
                 (A) (A) (A) (A) (A) (A) (A) (A) (A) (A) (A) (A)
                 (A) (A) (A) (A) (A) (A) (A) (A) (A) (A) (A) (A)
                 (A) (A) (A) (A) (A) (A) (A) (A) (A) (A) (A) (A)
                 (A) (A) (A) (A) (A) (A) (A) (A) (A) (A) (A) (A)
                 (A) (A) (A) (A) (A) (A) (A) (A) (A) (A) (A) (A)
                 (A) (A) (A) (A) (A) (A) (A) (A) (A) (A) (A) (A)
                 (A) (A) (A) (A) (A) (A) (A) (A) (A)
 The electronic state is 1-A.
 Alpha  occ. eigenvalues -- -261.59110 -32.16032 -27.64013 -27.63938 -27.63875
 Alpha  occ. eigenvalues --  -20.96929 -20.96787 -20.96465 -20.96448 -20.92983
 Alpha  occ. eigenvalues --  -20.89607  -4.39925  -2.98634  -2.98428  -2.98259
 Alpha  occ. eigenvalues --   -1.79877  -1.77259  -1.76791  -1.76467  -1.73610
 Alpha  occ. eigenvalues --   -1.70245  -1.18797  -1.15876  -1.14436  -1.12763
 Alpha  occ. eigenvalues --   -1.09048  -1.08502  -1.06586  -1.04035  -1.02377
 Alpha  occ. eigenvalues --   -1.00701  -0.99732  -0.98139  -0.95227  -0.93899
 Alpha  occ. eigenvalues --   -0.93107  -0.91657  -0.89597  -0.86745  -0.79768
 Alpha  occ. eigenvalues --   -0.78437  -0.77213
 Alpha virt. eigenvalues --   -0.25385  -0.20425  -0.18421  -0.15733  -0.15417
 Alpha virt. eigenvalues --   -0.12627  -0.11166  -0.09484  -0.06447  -0.05648
 Alpha virt. eigenvalues --   -0.04728  -0.00535   0.00504   0.03347   0.04210
 Alpha virt. eigenvalues --    0.06886   0.07174   0.08616   0.09041   0.10255
 Alpha virt. eigenvalues --    0.16741   0.16930   0.17554   0.17836   0.20432
 Alpha virt. eigenvalues --    0.23424   0.25648   0.26796   0.27802   0.29254
 Alpha virt. eigenvalues --    0.29881   0.30410   0.30909   0.31922   0.32776
 Alpha virt. eigenvalues --    0.35831   0.36113   0.37368   0.38442   0.40649
 Alpha virt. eigenvalues --    0.41595   0.42593   0.44343   0.45235   0.46526
 Alpha virt. eigenvalues --    0.48527   0.48625   0.50943   0.51814   0.53273
 Alpha virt. eigenvalues --    0.54989   0.56199   0.57776   0.62502   0.66984
 Alpha virt. eigenvalues --    0.70022   0.71845   0.73046   0.80031   0.83826
 Alpha virt. eigenvalues --    0.85157   0.87267   0.89974   1.09572   1.12603
 Alpha virt. eigenvalues --    1.15486   1.18066   1.20907   1.24500   1.25797
 Alpha virt. eigenvalues --    1.28529   1.29721   1.32068   1.32230   1.35044
 Alpha virt. eigenvalues --    1.39244   1.40952   1.41499   1.45140   1.46111
 Alpha virt. eigenvalues --    1.47903   1.49655   1.50678   1.51291   1.51819
 Alpha virt. eigenvalues --    1.54356   1.56961   1.57954   1.59092   1.64689
 Alpha virt. eigenvalues --    1.65673   1.68187   1.69769   1.71015   1.73362
 Alpha virt. eigenvalues --    1.74395   1.74856   1.75769   1.77581   1.79521
 Alpha virt. eigenvalues --    1.84496   1.94941   1.95188   1.96792   1.97422
 Alpha virt. eigenvalues --    1.99944   2.02749   2.04070   2.08471   2.10364
 Alpha virt. eigenvalues --    2.11092   2.12266   2.13879   2.15233   2.18588
 Alpha virt. eigenvalues --    2.19206   2.20970   2.23542   2.24666   2.26032
 Alpha virt. eigenvalues --    2.30205   2.32927   2.36421   2.37201   2.41065
 Alpha virt. eigenvalues --    2.43946   2.44775   2.48320   2.50149   2.52135
 Alpha virt. eigenvalues --    2.54097   2.56897   2.58260   2.59076   2.60835
 Alpha virt. eigenvalues --    2.63791   2.65270   2.67655   2.69270   2.75142
 Alpha virt. eigenvalues --    2.76517   2.78843   2.83224   2.84731   2.86566
 Alpha virt. eigenvalues --    2.88631   2.90017   2.96394   2.99959   3.03634
 Alpha virt. eigenvalues --    3.06686   3.09193   3.17540   3.19674   3.26293
 Alpha virt. eigenvalues --    3.41267   3.53267   3.58932   3.65574   3.66223
 Alpha virt. eigenvalues --    3.69447   3.71935   3.80505   3.82039   3.84585
 Alpha virt. eigenvalues --    3.84771   3.89276   3.97780   3.99039   3.99587
 Alpha virt. eigenvalues --    4.01342   4.08210   4.10430   4.11276   4.15483
 Alpha virt. eigenvalues --    4.19859   4.25308   4.27409   4.29723   4.32427
 Alpha virt. eigenvalues --    4.56946   4.57939   4.59479   5.15405   5.19327
 Alpha virt. eigenvalues --    5.22136   5.22608   5.25742   5.31638   5.35622
 Alpha virt. eigenvalues --    5.37475   5.38045   5.40273   5.43489   5.45104
 Alpha virt. eigenvalues --    5.47007   5.47617   5.49581   5.49655   5.50404
 Alpha virt. eigenvalues --    5.52194   5.53121   5.53811   5.55834   5.56666
 Alpha virt. eigenvalues --    5.57863   5.59225   5.60063   5.61186   5.61710
 Alpha virt. eigenvalues --    5.62937   5.64337   5.64800   6.08230   6.09771
 Alpha virt. eigenvalues --    6.11017   6.12737   6.14454   6.18099   6.38218
 Alpha virt. eigenvalues --    6.38995   6.39796   6.43365   6.50675   6.52891
 Alpha virt. eigenvalues --    6.55705   6.57135   6.61653   6.64530   6.65086
 Alpha virt. eigenvalues --    6.67686   6.75709   6.76002   6.78652   6.80087
 Alpha virt. eigenvalues --    6.80477   6.82674   6.85984   6.88147   6.89503
 Alpha virt. eigenvalues --    6.93569   6.96456   6.97808   7.06008   7.08646
 Alpha virt. eigenvalues --    7.12334   7.15809   7.18661   7.20539   7.22225
 Alpha virt. eigenvalues --    7.23683   7.25367   7.27971   7.30827   7.32625
 Alpha virt. eigenvalues --   44.59255  44.73826  44.78425  44.83018  44.98270
 Alpha virt. eigenvalues --   45.09381
          Condensed to atoms (all electrons):
               1          2          3          4          5          6
     1  Fe  24.971374   0.099067   0.085956   0.149664   0.091930   0.132233
     2  O    0.099067   7.919438  -0.034407  -0.033218  -0.005582  -0.018683
     3  O    0.085956  -0.034407   7.920823  -0.036430  -0.024778  -0.005869
     4  O    0.149664  -0.033218  -0.036430   7.884530  -0.024035  -0.046297
     5  O    0.091930  -0.005582  -0.024778  -0.024035   7.925958  -0.025387
     6  O    0.132233  -0.018683  -0.005869  -0.046297  -0.025387   7.870769
     7  O    0.061580  -0.031426  -0.035346  -0.006352  -0.040410  -0.057409
     8  H   -0.010777   0.000025   0.001204   0.000360   0.326765  -0.000780
     9  H   -0.013769  -0.000013  -0.001989   0.001323   0.327265   0.001650
    10  H   -0.009608  -0.001748   0.000076   0.001318   0.001424   0.325240
    11  H   -0.009852   0.001414   0.000102   0.001142  -0.001875   0.323047
    12  H   -0.009202   0.001361   0.000156   0.000023   0.000328   0.000426
    13  H   -0.010796  -0.000110   0.000157  -0.000029   0.001502   0.000763
    14  H   -0.009497   0.325317   0.001456   0.000625   0.000020  -0.000308
    15  H   -0.014365   0.326114  -0.002742   0.001680  -0.000036   0.001448
    16  H   -0.013419  -0.001618   0.327303   0.000707   0.001106   0.000001
    17  H   -0.013773   0.001383   0.326655   0.000642  -0.000144   0.000037
    18  H   -0.009013   0.001346  -0.000254   0.320505   0.000719   0.000478
    19  H   -0.010032   0.000778   0.000180   0.322501   0.001810   0.000521
               7          8          9         10         11         12
     1  Fe   0.061580  -0.010777  -0.013769  -0.009608  -0.009852  -0.009202
     2  O   -0.031426   0.000025  -0.000013  -0.001748   0.001414   0.001361
     3  O   -0.035346   0.001204  -0.001989   0.000076   0.000102   0.000156
     4  O   -0.006352   0.000360   0.001323   0.001318   0.001142   0.000023
     5  O   -0.040410   0.326765   0.327265   0.001424  -0.001875   0.000328
     6  O   -0.057409  -0.000780   0.001650   0.325240   0.323047   0.000426
     7  O    8.016439  -0.001471  -0.001543  -0.001179  -0.001903   0.321681
     8  H   -0.001471   0.295003  -0.012355   0.000003   0.003864  -0.000187
     9  H   -0.001543  -0.012355   0.316475   0.000041   0.000112  -0.000106
    10  H   -0.001179   0.000003   0.000041   0.308986  -0.009369  -0.000084
    11  H   -0.001903   0.003864   0.000112  -0.009369   0.315457  -0.000121
    12  H    0.321681  -0.000187  -0.000106  -0.000084  -0.000121   0.297376
    13  H    0.322637   0.000452   0.001983  -0.000073  -0.000004  -0.011242
    14  H   -0.001635  -0.000049   0.000027   0.003536  -0.000004   0.000372
    15  H   -0.001240   0.000026  -0.000022  -0.000062   0.000053   0.001500
    16  H   -0.001068   0.000067  -0.000037  -0.000036   0.000021   0.000312
    17  H   -0.001235  -0.000065   0.003585   0.000024  -0.000037   0.000129
    18  H    0.000165  -0.000023   0.000105   0.000165  -0.000074  -0.000048
    19  H    0.000167  -0.000187  -0.000123  -0.000165   0.000145   0.000016
              13         14         15         16         17         18
     1  Fe  -0.010796  -0.009497  -0.014365  -0.013419  -0.013773  -0.009013
     2  O   -0.000110   0.325317   0.326114  -0.001618   0.001383   0.001346
     3  O    0.000157   0.001456  -0.002742   0.327303   0.326655  -0.000254
     4  O   -0.000029   0.000625   0.001680   0.000707   0.000642   0.320505
     5  O    0.001502   0.000020  -0.000036   0.001106  -0.000144   0.000719
     6  O    0.000763  -0.000308   0.001448   0.000001   0.000037   0.000478
     7  O    0.322637  -0.001635  -0.001240  -0.001068  -0.001235   0.000165
     8  H    0.000452  -0.000049   0.000026   0.000067  -0.000065  -0.000023
     9  H    0.001983   0.000027  -0.000022  -0.000037   0.003585   0.000105
    10  H   -0.000073   0.003536  -0.000062  -0.000036   0.000024   0.000165
    11  H   -0.000004  -0.000004   0.000053   0.000021  -0.000037  -0.000074
    12  H   -0.011242   0.000372   0.001500   0.000312   0.000129  -0.000048
    13  H    0.300159  -0.000179  -0.000100   0.000027   0.000332   0.000015
    14  H   -0.000179   0.289664  -0.010836  -0.000152   0.000052  -0.000123
    15  H   -0.000100  -0.010836   0.322095   0.005109   0.000014   0.000031
    16  H    0.000027  -0.000152   0.005109   0.314895  -0.010355  -0.000076
    17  H    0.000332   0.000052   0.000014  -0.010355   0.310237  -0.000230
    18  H    0.000015  -0.000123   0.000031  -0.000076  -0.000230   0.292886
    19  H   -0.000053  -0.000029   0.000078  -0.000232  -0.000140  -0.009815
              19
     1  Fe  -0.010032
     2  O    0.000778
     3  O    0.000180
     4  O    0.322501
     5  O    0.001810
     6  O    0.000521
     7  O    0.000167
     8  H   -0.000187
     9  H   -0.000123
    10  H   -0.000165
    11  H    0.000145
    12  H    0.000016
    13  H   -0.000053
    14  H   -0.000029
    15  H    0.000078
    16  H   -0.000232
    17  H   -0.000140
    18  H   -0.009815
    19  H    0.290967
 Mulliken charges:
               1
     1  Fe   0.542298
     2  O   -0.549438
     3  O   -0.522254
     4  O   -0.538657
     5  O   -0.556580
     6  O   -0.501880
     7  O   -0.540453
     8  H    0.398126
     9  H    0.377391
    10  H    0.381510
    11  H    0.377881
    12  H    0.397310
    13  H    0.394559
    14  H    0.401743
    15  H    0.371254
    16  H    0.377446
    17  H    0.382890
    18  H    0.403240
    19  H    0.403613
 Sum of Mulliken charges =   2.00000
 Mulliken charges with hydrogens summed into heavy atoms:
               1
     1  Fe   0.542298
     2  O    0.223560
     3  O    0.238082
     4  O    0.268196
     5  O    0.218937
     6  O    0.257511
     7  O    0.251416
 Electronic spatial extent (au):  <R**2>=            855.5312
 Charge=              2.0000 electrons
 Dipole moment (field-independent basis, Debye):
    X=             -0.6263    Y=              5.7075    Z=             -3.3107  Tot=              6.6279
 Quadrupole moment (field-independent basis, Debye-Ang):
   XX=            -21.9217   YY=            -27.2853   ZZ=            -27.4736
   XY=             -0.1869   XZ=             -2.9108   YZ=              2.2065
 Traceless Quadrupole moment (field-independent basis, Debye-Ang):
   XX=              3.6385   YY=             -1.7251   ZZ=             -1.9134
   XY=             -0.1869   XZ=             -2.9108   YZ=              2.2065
 Octapole moment (field-independent basis, Debye-Ang**2):
  XXX=            -12.5464  YYY=             35.4617  ZZZ=             -5.3861  XYY=             -2.6485
  XXY=              8.2366  XXZ=             -5.9488  XZZ=             11.4947  YZZ=             -7.2280
  YYZ=             -9.6236  XYZ=             -9.3859
 Hexadecapole moment (field-independent basis, Debye-Ang**3):
 XXXX=           -192.8097 YYYY=           -233.0395 ZZZZ=           -205.6285 XXXY=             12.7621
 XXXZ=             -2.1789 YYYX=             -5.9605 YYYZ=             20.0715 ZZZX=            -12.7037
 ZZZY=             -2.9617 XXYY=            -62.9842 XXZZ=            -77.7564 YYZZ=            -55.9719
 XXYZ=             -3.5002 YYXZ=             -2.0214 ZZXY=             -8.3054
 N-N= 7.678155054721D+02 E-N=-5.597454145260D+03  KE= 1.719602502068D+03
 1\1\GINC-CNODE05\Stability\RHF\def2TZVP\Fe1H12O6(2+)\ROOT\14-May-2022\
 0\\# RHF/Def2TZVP stable\\[Fe(H2O)6]2+\\2,1\Fe,0,6.20397196,1.03714637
 ,0.17096759\O,0,8.02343961,0.99562593,0.15635557\O,0,6.2469443,-0.7816
 2449,0.11972374\O,0,6.22607513,1.15774049,-1.64489818\O,0,4.38440248,1
 .01816527,0.20570458\O,0,6.16557932,2.85626904,0.21242489\O,0,6.168506
 01,1.06001114,1.99047834\H,0,4.06545864,1.78648828,0.68482314\H,0,4.08
 101507,0.21943896,0.64341723\H,0,6.97846238,3.18466572,0.60354733\H,0,
 5.41693185,3.14865831,0.73743487\H,0,6.90726982,0.5504793,2.33136739\H
 ,0,5.34491271,0.67543823,2.2993436\H,0,8.36474659,1.75961228,0.6269237
 4\H,0,8.32866067,0.19290442,0.58539903\H,0,7.07410906,-1.09285932,0.49
 459883\H,0,5.5126741,-1.13351772,0.62826915\H,0,6.97521418,0.66593956,
 -1.98916919\H,0,5.412635,0.79176715,-1.99983292\\Version=ES64L-G16RevA
 .03\State=1-A\HF=-1718.1335451\RMSD=3.370e-09\Dipole=0.026555,-1.20194
 12,2.3139167\Quadrupole=3.679559,-0.3364279,-3.3431311,-0.3909786,-0.5
 281983,0.202202\PG=C01 [X(Fe1H12O6)]\\@


 IN THE FIGHT BETWEEN YOU AND THE WORLD, BACK THE WORLD

                                        -- FRANZ KAFKA
 Job cpu time:       0 days  0 hours 18 minutes 41.3 seconds.
 Elapsed time:       0 days  0 hours  1 minutes 10.5 seconds.
 File lengths (MBytes):  RWF=    527 Int=      0 D2E=      0 Chk=     26 Scr=      1
 Normal termination of Gaussian 16 at Sat May 14 11:40:36 2022.

Sender: Unischeduler System <lcz@mgt01>
Subject: Job 131989: <#!/bin/bash
#BSUB -J intel
#BSUB -o FeH2O62+-RHF.out
#BSUB -n 16
#BSUB -q cqueue
#BSUB -R span[hosts=1]
export g16root=/apps/software
source /apps/software/g16/bsd/g16.profile
export GAUSS_SCRDIR=/scratch
/apps/software/g16/g16 < FeH2O62+-RHF.inp > FeH2O62+-RHF.out> Done

Job <#!/bin/bash
#BSUB -J intel
#BSUB -o FeH2O62+-RHF.out
#BSUB -n 16
#BSUB -q cqueue
#BSUB -R span[hosts=1]
export g16root=/apps/software
source /apps/software/g16/bsd/g16.profile
export GAUSS_SCRDIR=/scratch
/apps/software/g16/g16 < FeH2O62+-RHF.inp > FeH2O62+-RHF.out> was submitted from host <mgt01> by user <lcz>.
Job was executed on host(s) <16*cnode05>, in queue <cqueue>, as user <lcz>.
</apps/users/lcz> was used as the home directory.
</apps/users/lcz/exe5/task2/anotherStabilityTest/Gaussian/def2-TZVP> was used as the working directory.
Started at 2022-05-14 11:39:25
Results reported at 2022-05-14 11:40:36

Your job looked like:

------------------------------------------------------------
# User input
#!/bin/bash
#BSUB -J intel
#BSUB -o FeH2O62+-RHF.out
#BSUB -n 16
#BSUB -q cqueue
#BSUB -R span[hosts=1]
export g16root=/apps/software
source /apps/software/g16/bsd/g16.profile
export GAUSS_SCRDIR=/scratch
/apps/software/g16/g16 < FeH2O62+-RHF.inp > FeH2O62+-RHF.out
------------------------------------------------------------

Successfully completed.

Resource usage summary:

    CPU time   :          979.89 sec.
    Max Memory :               609 MB
    Max Processes  :               5


The output (if any) follows:

