[Molden Format]
[N_ATOMS]
            3
[Atoms]  AU
C     1    6      -1.073894        0.406783        0.000000
H     2    1      -0.039558       -1.352708        0.000000
H     3    1      -3.077527        0.795516        0.000000
[5D7F9G]
[GTO]
    1
    s    5
   0.123840169E+04   0.551736504E-02
   0.186290050E+03   0.410888285E-01
   0.422511764E+02   0.182253821E+00
   0.116765579E+02   0.468284594E+00
   0.359305065E+01   0.445758173E+00
    s    1
   0.402451470E+00   0.100000000E+01
    s    1
   0.130901830E+00   0.100000000E+01
    p    3
   0.946809706E+01   0.568883319E-01
   0.201035451E+01   0.312940593E+00
   0.547710050E+00   0.760650164E+00
    p    1
   0.152686140E+00   0.100000000E+01
    d    1
   0.800000000E+00   0.100000000E+01
 
    2
    s    3
   0.130107010E+02   0.334854848E-01
   0.196225720E+01   0.234721871E+00
   0.444537960E+00   0.813770285E+00
    s    1
   0.121949620E+00   0.100000000E+01
    p    1
   0.800000000E+00   0.100000000E+01
 
    3
    s    3
   0.130107010E+02   0.334854848E-01
   0.196225720E+01   0.234721871E+00
   0.444537960E+00   0.813770285E+00
    s    1
   0.121949620E+00   0.100000000E+01
    p    1
   0.800000000E+00   0.100000000E+01
 
[MO]
 Sym= A   
 Ene=       -11.247863
 Spin= Alpha
 Occup=       2.000000
   1        0.991385160
   2        0.033098471
   3       -0.018230853
   4       -0.001209738
   5       -0.001710783
   6       -0.000000000
   7        0.000784468
   8        0.001109377
   9        0.000000000
  10       -0.001227943
  11        0.000000000
  12       -0.000000000
  13        0.000548706
  14       -0.001552095
  15       -0.002649690
  16        0.005286608
  17        0.000435195
  18       -0.001439750
  19       -0.000000000
  20       -0.002649690
  21        0.005286608
  22       -0.001502476
  23       -0.000069574
  24       -0.000000000
 Sym= A   
 Ene=        -0.840992
 Spin= Alpha
 Occup=       2.000000
   1        0.240602125
   2       -0.475786718
   3       -0.205521360
   4        0.073423671
   5        0.103834058
   6        0.000000000
   7        0.032269775
   8        0.045635170
   9        0.000000000
  10        0.009176638
  11       -0.000000000
  12        0.000000000
  13       -0.003264384
  14        0.009233792
  15       -0.252603710
  16       -0.045895256
  17        0.015736748
  18       -0.021071049
  19       -0.000000000
  20       -0.252603710
  21       -0.045895256
  22       -0.025111367
  23        0.007813680
  24        0.000000000
 Sym= A   
 Ene=        -0.598758
 Spin= Alpha
 Occup=       2.000000
   1        0.000000000
   2       -0.000000000
   3       -0.000000000
   4        0.352903079
   5       -0.249546634
   6        0.000000000
   7        0.127721739
   8       -0.090315251
   9       -0.000000000
  10       -0.000000000
  11       -0.000000000
  12       -0.000000000
  13       -0.020859070
  14       -0.007374221
  15        0.332877227
  16        0.116112252
  17       -0.006732849
  18        0.018021441
  19        0.000000000
  20       -0.332877227
  21       -0.116112252
  22       -0.019235052
  23        0.000341114
  24        0.000000000
 Sym= A   
 Ene=        -0.150792
 Spin= Alpha
 Occup=       1.000000
   1        0.000000000
   2       -0.000000000
   3       -0.000000000
   4       -0.000000000
   5       -0.000000000
   6       -0.625980175
   7       -0.000000000
   8       -0.000000000
   9       -0.502526323
  10       -0.000000000
  11       -0.003466061
  12       -0.004901623
  13       -0.000000000
  14       -0.000000000
  15        0.000000000
  16       -0.000000000
  17       -0.000000000
  18       -0.000000000
  19       -0.018942217
  20        0.000000000
  21        0.000000000
  22        0.000000000
  23        0.000000000
  24       -0.018942217
 Sym= A   
 Ene=        -0.106598
 Spin= Alpha
 Occup=       1.000000
   1        0.121074759
   2       -0.289827500
   3       -0.332687000
   4       -0.324600942
   5       -0.459043146
   6        0.000000000
   7       -0.224009693
   8       -0.316789328
   9        0.000000000
  10       -0.009462429
  11       -0.000000000
  12        0.000000000
  13        0.006196590
  14       -0.017527968
  15        0.120935104
  16        0.093014285
  17       -0.011363068
  18       -0.005226704
  19        0.000000000
  20        0.120935104
  21        0.093014285
  22       -0.001140399
  23       -0.012455410
  24        0.000000000
 Sym= A   
 Ene=         0.216140
 Spin= Alpha
 Occup=       0.000000
   1       -0.121080507
   2        0.204090339
   3        2.225043027
   4       -0.082884275
   5       -0.117213024
   6       -0.000000000
   7       -0.378546098
   8       -0.535331137
   9       -0.000000000
  10       -0.003146264
  11        0.000000000
  12       -0.000000000
  13       -0.000753337
  14        0.002130925
  15       -0.026629133
  16       -1.622289088
  17        0.000311581
  18       -0.004968286
  19       -0.000000000
  20       -0.026629133
  21       -1.622289088
  22       -0.004788038
  23       -0.001362217
  24        0.000000000
 Sym= A   
 Ene=         0.266871
 Spin= Alpha
 Occup=       0.000000
   1       -0.000000000
   2        0.000000000
   3        0.000000000
   4        0.239040821
   5       -0.169031771
   6       -0.000000000
   7        1.174607372
   8       -0.830594386
   9        0.000000000
  10       -0.000000000
  11        0.000000000
  12       -0.000000000
  13       -0.011644877
  14       -0.004116765
  15        0.032778941
  16       -1.903347977
  17        0.008053456
  18       -0.008492561
  19       -0.000000000
  20       -0.032778941
  21        1.903347977
  22        0.010691232
  23       -0.004762279
  24       -0.000000000
 Sym= A   
 Ene=         0.579364
 Spin= Alpha
 Occup=       0.000000
   1       -0.115515318
   2        1.019996407
   3       -2.367428914
   4       -0.001636907
   5       -0.002314876
   6        0.000000000
   7        0.370471960
   8        0.523912878
   9       -0.000000000
  10       -0.052621751
  11        0.000000000
  12        0.000000000
  13        0.021994523
  14       -0.062214746
  15        0.656931739
  16        0.417838773
  17        0.043454031
  18        0.006400572
  19       -0.000000000
  20        0.656931739
  21        0.417838773
  22       -0.008449106
  23        0.043102584
  24       -0.000000000
 Sym= A   
 Ene=         0.682671
 Spin= Alpha
 Occup=       0.000000
   1       -0.173825635
   2        0.963171863
   3       -1.331080439
   4        0.430398796
   5        0.608660023
   6       -0.000000000
   7       -0.479475434
   8       -0.678063071
   9        0.000000000
  10        0.022861040
  11        0.000000000
  12        0.000000000
  13       -0.009723200
  14        0.027503505
  15       -0.268138627
  16        0.465946319
  17        0.009790014
  18        0.022367627
  19       -0.000000000
  20       -0.268138627
  21        0.465946319
  22        0.017825472
  23        0.016685553
  24       -0.000000000
 Sym= A   
 Ene=         0.689335
 Spin= Alpha
 Occup=       0.000000
   1        0.000000000
   2       -0.000000000
   3        0.000000000
   4       -0.286189746
   5        0.202371960
   6       -0.000000000
   7        1.648322388
   8       -1.165570176
   9        0.000000000
  10       -0.000000000
  11        0.000000000
  12        0.000000000
  13        0.074072303
  14        0.026186476
  15       -0.717500293
  16       -0.650912908
  17        0.059787332
  18        0.012764723
  19       -0.000000000
  20        0.717500293
  21        0.650912908
  22        0.007892932
  23       -0.060623138
  24       -0.000000000
 Sym= A   
 Ene=         0.722228
 Spin= Alpha
 Occup=       0.000000
   1       -0.000000000
   2        0.000000000
   3        0.000000000
   4        0.000000000
   5        0.000000000
   6        0.988048392
   7        0.000000000
   8       -0.000000000
   9       -1.083344293
  10       -0.000000000
  11        0.000177857
  12        0.000251521
  13        0.000000000
  14        0.000000000
  15       -0.000000000
  16       -0.000000000
  17        0.000000000
  18       -0.000000000
  19        0.045001418
  20        0.000000000
  21        0.000000000
  22       -0.000000000
  23        0.000000000
  24        0.045001418
 Sym= A   
 Ene=         0.874086
 Spin= Alpha
 Occup=       0.000000
   1        0.219867052
   2       -1.265150680
   3        2.824976049
   4        0.372259421
   5        0.526440665
   6       -0.000000000
   7       -0.527330154
   8       -0.745738109
   9        0.000000000
  10       -0.095348580
  11       -0.000000000
  12        0.000000000
  13        0.038929315
  14       -0.110117300
  15        0.513037032
  16       -1.447244089
  17        0.118579052
  18       -0.117454420
  19       -0.000000000
  20        0.513037032
  21       -1.447244090
  22       -0.150261663
  23        0.072649604
  24        0.000000000
 Sym= A   
 Ene=         0.955081
 Spin= Alpha
 Occup=       0.000000
   1        0.000000000
   2       -0.000000000
   3        0.000000000
   4       -0.734671719
   5        0.519504832
   6        0.000000000
   7        1.088008976
   8       -0.769358484
   9       -0.000000000
  10       -0.000000000
  11        0.000000000
  12       -0.000000000
  13       -0.159195796
  14       -0.056279833
  15        0.553075447
  16       -1.320835367
  17        0.056707820
  18       -0.196006321
  19        0.000000000
  20       -0.553075447
  21        1.320835367
  22        0.203699429
  23        0.011865812
  24        0.000000000
 Sym= A   
 Ene=         1.432153
 Spin= Alpha
 Occup=       0.000000
   1        0.000000000
   2       -0.000000000
   3        0.000000000
   4       -0.000000000
   5        0.000000000
   6       -0.000000000
   7       -0.000000000
   8       -0.000000000
   9        0.000000000
  10        0.000000000
  11        0.332805497
  12       -0.235335129
  13        0.000000000
  14       -0.000000000
  15        0.000000000
  16       -0.000000000
  17        0.000000000
  18        0.000000000
  19        0.530981863
  20       -0.000000000
  21       -0.000000000
  22        0.000000000
  23       -0.000000000
  24       -0.530981863
 Sym= A   
 Ene=         1.663760
 Spin= Alpha
 Occup=       0.000000
   1        0.019745404
   2       -0.251612308
   3        0.574045647
   4       -0.049148371
   5       -0.069504489
   6        0.000000000
   7       -0.214609995
   8       -0.303496492
   9        0.000000000
  10        0.273385414
  11        0.000000000
  12        0.000000000
  13        0.135705063
  14       -0.383861756
  15       -0.192346524
  16       -0.150917958
  17        0.401691381
  18        0.380751199
  19       -0.000000000
  20       -0.192346524
  21       -0.150917958
  22        0.225090914
  23        0.505629827
  24       -0.000000000
 Sym= A   
 Ene=         1.715458
 Spin= Alpha
 Occup=       0.000000
   1        0.000000000
   2       -0.000000000
   3       -0.000000000
   4        0.070097142
   5       -0.049567450
   6        0.000000000
   7       -0.714614920
   8        0.505322166
   9       -0.000000000
  10       -0.000000000
  11       -0.000000000
  12       -0.000000000
  13        0.198431723
  14        0.070150748
  15        0.341018657
  16        0.314610872
  17        0.637730352
  18        0.193549814
  19        0.000000000
  20       -0.341018657
  21       -0.314610872
  22        0.030079984
  23       -0.665775282
  24        0.000000000
 Sym= A   
 Ene=         1.722059
 Spin= Alpha
 Occup=       0.000000
   1        0.000000000
   2       -0.000000000
   3        0.000000000
   4       -0.000000000
   5       -0.000000000
   6       -0.166956621
   7        0.000000000
   8       -0.000000000
   9       -0.207071044
  10        0.000000000
  11       -0.304089456
  12       -0.430036276
  13        0.000000000
  14       -0.000000000
  15       -0.000000000
  16       -0.000000000
  17        0.000000000
  18        0.000000000
  19        0.570070200
  20       -0.000000000
  21       -0.000000000
  22        0.000000000
  23        0.000000000
  24        0.570070200
 Sym= A   
 Ene=         2.107737
 Spin= Alpha
 Occup=       0.000000
   1       -0.061844617
   2        0.533181822
   3       -0.362570244
   4       -0.090460483
   5       -0.127927123
   6        0.000000000
   7        0.122722306
   8        0.173551047
   9       -0.000000000
  10        0.797506449
  11        0.000000000
  12        0.000000000
  13        0.030308838
  14       -0.085733012
  15        0.151053046
  16       -0.026851761
  17        0.066356011
  18       -0.415517282
  19        0.000000000
  20        0.151053046
  21       -0.026851761
  22       -0.413873978
  23       -0.075934590
  24        0.000000000
 Sym= A   
 Ene=         2.245493
 Spin= Alpha
 Occup=       0.000000
   1       -0.000000000
   2        0.000000000
   3       -0.000000000
   4        0.000000000
   5       -0.000000000
   6        0.142060921
   7        0.000000000
   8       -0.000000000
   9        0.215625854
  10        0.000000000
  11       -0.507472786
  12       -0.717656278
  13        0.000000000
  14        0.000000000
  15       -0.000000000
  16       -0.000000000
  17        0.000000000
  18       -0.000000000
  19       -0.541934217
  20        0.000000000
  21        0.000000000
  22        0.000000000
  23        0.000000000
  24       -0.541934217
 Sym= A   
 Ene=         2.364525
 Spin= Alpha
 Occup=       0.000000
   1        0.000000000
   2        0.000000000
   3       -0.000000000
   4        0.516855720
   5       -0.365481666
   6       -0.000000000
   7       -0.039340941
   8        0.027818968
   9       -0.000000000
  10        0.000000000
  11        0.000000000
  12        0.000000000
  13        0.571437150
  14        0.202017818
  15        0.015434648
  16       -0.213218979
  17       -0.049142192
  18       -0.666789761
  19        0.000000000
  20       -0.015434648
  21        0.213218979
  22        0.612281254
  23        0.268579981
  24        0.000000000
 Sym= A   
 Ene=         2.487516
 Spin= Alpha
 Occup=       0.000000
   1       -0.075788162
   2        0.512550763
   3        0.426186654
   4       -0.215563141
   5       -0.304844409
   6       -0.000000000
   7       -0.173118021
   8       -0.244819502
   9       -0.000000000
  10       -0.301681836
  11        0.000000000
  12       -0.000000000
  13       -0.206751445
  14        0.584826911
  15       -0.152544949
  16       -0.317743411
  17        0.737729392
  18       -0.129062279
  19       -0.000000000
  20       -0.152544949
  21       -0.317743411
  22       -0.367574920
  23        0.652526172
  24        0.000000000
 Sym= A   
 Ene=         2.593500
 Spin= Alpha
 Occup=       0.000000
   1        0.000000000
   2       -0.000000000
   3        0.000000000
   4        0.000000000
   5        0.000000000
   6        0.000000000
   7       -0.000000000
   8        0.000000000
   9        0.000000000
  10        0.000000000
  11        0.849111307
  12       -0.600427940
  13        0.000000000
  14       -0.000000000
  15        0.000000000
  16        0.000000000
  17       -0.000000000
  18        0.000000000
  19       -0.586810111
  20        0.000000000
  21       -0.000000000
  22        0.000000000
  23       -0.000000000
  24        0.586810111
 Sym= A   
 Ene=         3.152367
 Spin= Alpha
 Occup=       0.000000
   1       -0.000000000
   2        0.000000000
   3        0.000000000
   4       -1.013684293
   5        0.716801633
   6        0.000000000
   7       -0.574665147
   8        0.406360164
   9        0.000000000
  10       -0.000000000
  11        0.000000000
  12       -0.000000000
  13        1.124637809
  14        0.397588564
  15        0.951976832
  16        0.410835564
  17       -0.634630270
  18        0.760233983
  19       -0.000000000
  20       -0.951976832
  21       -0.410835564
  22       -0.928290460
  23        0.344946535
  24       -0.000000000
 Sym= A   
 Ene=         3.368909
 Spin= Alpha
 Occup=       0.000000
   1       -0.218241555
   2        1.377304779
   3        0.685514901
   4       -0.334455115
   5       -0.472978689
   6       -0.000000000
   7       -0.108720285
   8       -0.153749713
   9        0.000000000
  10       -0.813046510
  11        0.000000000
  12       -0.000000000
  13        0.373325558
  14       -1.056006323
  15       -1.028010682
  16       -0.263415950
  17        0.348966846
  18       -1.012873741
  19       -0.000000000
  20       -1.028010682
  21       -0.263415950
  22       -1.071269013
  23       -0.008589279
  24        0.000000000
 
