[Molden Format]
[N_ATOMS]
            3
[Atoms]  AU
C     1    6      -1.073894        0.406783        0.000000
H     2    1      -0.039558       -1.352708        0.000000
H     3    1      -3.077527        0.795516        0.000000
[5D7F9G]
[GTO]
    1
    s    5
   0.123840169E+04   0.551736504E-02
   0.186290050E+03   0.410888285E-01
   0.422511764E+02   0.182253821E+00
   0.116765579E+02   0.468284594E+00
   0.359305065E+01   0.445758173E+00
    s    1
   0.402451470E+00   0.100000000E+01
    s    1
   0.130901830E+00   0.100000000E+01
    p    3
   0.946809706E+01   0.568883319E-01
   0.201035451E+01   0.312940593E+00
   0.547710050E+00   0.760650164E+00
    p    1
   0.152686140E+00   0.100000000E+01
    d    1
   0.800000000E+00   0.100000000E+01
 
    2
    s    3
   0.130107010E+02   0.334854848E-01
   0.196225720E+01   0.234721871E+00
   0.444537960E+00   0.813770285E+00
    s    1
   0.121949620E+00   0.100000000E+01
    p    1
   0.800000000E+00   0.100000000E+01
 
    3
    s    3
   0.130107010E+02   0.334854848E-01
   0.196225720E+01   0.234721871E+00
   0.444537960E+00   0.813770285E+00
    s    1
   0.121949620E+00   0.100000000E+01
    p    1
   0.800000000E+00   0.100000000E+01
 
[MO]
 Sym= A   
 Ene=         0.000000
 Spin= Alpha
 Occup=       0.000000
   1        0.991385159
   2        0.033098476
   3       -0.018230861
   4       -0.001209743
   5       -0.001710791
   6       -0.000000000
   7        0.000784470
   8        0.001109379
   9        0.000000000
  10       -0.001227949
  11        0.000000000
  12       -0.000000000
  13        0.000548707
  14       -0.001552099
  15       -0.002649692
  16        0.005286613
  17        0.000435196
  18       -0.001439752
  19       -0.000000000
  20       -0.002649692
  21        0.005286613
  22       -0.001502478
  23       -0.000069574
  24        0.000000000
 Sym= A   
 Ene=         0.000000
 Spin= Alpha
 Occup=       0.000000
   1       -0.240602021
   2        0.475786457
   3        0.205520970
   4       -0.073423828
   5       -0.103834280
   6       -0.000000000
   7       -0.032270068
   8       -0.045635584
   9        0.000000000
  10       -0.009176671
  11        0.000000000
  12       -0.000000000
  13        0.003264377
  14       -0.009233773
  15        0.252603756
  16        0.045895460
  17       -0.015736773
  18        0.021071046
  19        0.000000000
  20        0.252603756
  21        0.045895460
  22        0.025111372
  23       -0.007813704
  24       -0.000000000
 Sym= A   
 Ene=         0.000000
 Spin= Alpha
 Occup=       0.000000
   1        0.000000000
   2       -0.000000000
   3       -0.000000000
   4        0.352903424
   5       -0.249546878
   6        0.000000000
   7        0.127721830
   8       -0.090315315
   9        0.000000000
  10       -0.000000000
  11       -0.000000000
  12       -0.000000000
  13       -0.020859072
  14       -0.007374222
  15        0.332877135
  16        0.116111833
  17       -0.006732837
  18        0.018021456
  19        0.000000000
  20       -0.332877135
  21       -0.116111833
  22       -0.019235062
  23        0.000341098
  24       -0.000000000
 Sym= A   
 Ene=         0.000000
 Spin= Alpha
 Occup=       0.000000
   1        0.121074998
   2       -0.289828276
   3       -0.332685661
   4       -0.324600840
   5       -0.459043002
   6        0.000000000
   7       -0.224009874
   8       -0.316789584
   9        0.000000000
  10       -0.009462451
  11       -0.000000000
  12        0.000000000
  13        0.006196608
  14       -0.017528017
  15        0.120935037
  16        0.093013365
  17       -0.011363028
  18       -0.005226751
  19        0.000000000
  20        0.120935037
  21        0.093013365
  22       -0.001140457
  23       -0.012455388
  24        0.000000000
 Sym= A   
 Ene=         0.000000
 Spin= Alpha
 Occup=       0.000000
   1        0.000000000
   2       -0.000000000
   3       -0.000000000
   4       -0.000000000
   5       -0.000000000
   6       -0.625979301
   7       -0.000000000
   8       -0.000000000
   9       -0.502527245
  10       -0.000000000
  11       -0.003466096
  12       -0.004901673
  13       -0.000000000
  14        0.000000000
  15        0.000000000
  16        0.000000000
  17       -0.000000000
  18       -0.000000000
  19       -0.018942232
  20        0.000000000
  21       -0.000000000
  22        0.000000000
  23        0.000000000
  24       -0.018942232
 Sym= A   
 Ene=         0.000000
 Spin= Alpha
 Occup=       0.000000
   1       -0.121080599
   2        0.204090672
   3        2.225042945
   4       -0.082883888
   5       -0.117212478
   6       -0.000000000
   7       -0.378546357
   8       -0.535331504
   9        0.000000000
  10       -0.003146293
  11       -0.000000000
  12       -0.000000000
  13       -0.000753354
  14        0.002130973
  15       -0.026629105
  16       -1.622289152
  17        0.000311579
  18       -0.004968279
  19       -0.000000000
  20       -0.026629105
  21       -1.622289152
  22       -0.004788031
  23       -0.001362217
  24       -0.000000000
 Sym= A   
 Ene=         0.000000
 Spin= Alpha
 Occup=       0.000000
   1        0.000000000
   2       -0.000000000
   3       -0.000000000
   4       -0.239040737
   5        0.169031711
   6        0.000000000
   7       -1.174607090
   8        0.830594187
   9       -0.000000000
  10        0.000000000
  11        0.000000000
  12        0.000000000
  13        0.011644884
  14        0.004116768
  15       -0.032778835
  16        1.903347869
  17       -0.008053443
  18        0.008492540
  19        0.000000000
  20        0.032778835
  21       -1.903347869
  22       -0.010691208
  23        0.004762274
  24       -0.000000000
 Sym= A   
 Ene=         0.000000
 Spin= Alpha
 Occup=       0.000000
   1        0.115515250
   2       -1.019995965
   3        2.367428209
   4        0.001637026
   5        0.002315045
   6        0.000000000
   7       -0.370472085
   8       -0.523913056
   9        0.000000000
  10        0.052621758
  11        0.000000000
  12       -0.000000000
  13       -0.021994523
  14        0.062214748
  15       -0.656931918
  16       -0.417838514
  17       -0.043454054
  18       -0.006400553
  19       -0.000000000
  20       -0.656931918
  21       -0.417838514
  22        0.008449131
  23       -0.043102599
  24       -0.000000000
 Sym= A   
 Ene=         0.000000
 Spin= Alpha
 Occup=       0.000000
   1       -0.173825564
   2        0.963172040
   3       -1.331082486
   4        0.430398815
   5        0.608660051
   6        0.000000000
   7       -0.479475120
   8       -0.678062626
   9       -0.000000000
  10        0.022860996
  11        0.000000000
  12        0.000000000
  13       -0.009723197
  14        0.027503493
  15       -0.268138425
  16        0.465947285
  17        0.009790019
  18        0.022367620
  19       -0.000000000
  20       -0.268138425
  21        0.465947285
  22        0.017825463
  23        0.016685555
  24       -0.000000000
 Sym= A   
 Ene=         0.000000
 Spin= Alpha
 Occup=       0.000000
   1        0.000000000
   2       -0.000000000
   3        0.000000000
   4       -0.286189712
   5        0.202371936
   6       -0.000000000
   7        1.648322580
   8       -1.165570312
   9        0.000000000
  10       -0.000000000
  11       -0.000000000
  12        0.000000000
  13        0.074072242
  14        0.026186454
  15       -0.717500274
  16       -0.650913141
  17        0.059787340
  18        0.012764720
  19        0.000000000
  20        0.717500274
  21        0.650913141
  22        0.007892937
  23       -0.060623145
  24       -0.000000000
 Sym= A   
 Ene=         0.000000
 Spin= Alpha
 Occup=       0.000000
   1       -0.000000000
   2        0.000000000
   3       -0.000000000
   4       -0.000000000
   5        0.000000000
   6        0.988048921
   7        0.000000000
   8       -0.000000000
   9       -1.083343877
  10        0.000000000
  11        0.000177842
  12        0.000251501
  13       -0.000000000
  14        0.000000000
  15       -0.000000000
  16       -0.000000000
  17       -0.000000000
  18        0.000000000
  19        0.045001490
  20        0.000000000
  21        0.000000000
  22        0.000000000
  23       -0.000000000
  24        0.045001490
 Sym= A   
 Ene=         0.000000
 Spin= Alpha
 Occup=       0.000000
   1        0.219867057
   2       -1.265150659
   3        2.824975884
   4        0.372259513
   5        0.526440794
   6        0.000000000
   7       -0.527330054
   8       -0.745737967
   9       -0.000000000
  10       -0.095348525
  11        0.000000000
  12       -0.000000000
  13        0.038929312
  14       -0.110117293
  15        0.513036903
  16       -1.447243834
  17        0.118579089
  18       -0.117454494
  19        0.000000000
  20        0.513036903
  21       -1.447243834
  22       -0.150261745
  23        0.072649615
  24       -0.000000000
 Sym= A   
 Ene=         0.000000
 Spin= Alpha
 Occup=       0.000000
   1       -0.000000000
   2        0.000000000
   3       -0.000000000
   4        0.734671532
   5       -0.519504699
   6        0.000000000
   7       -1.088008974
   8        0.769358483
   9       -0.000000000
  10        0.000000000
  11        0.000000000
  12       -0.000000000
  13        0.159195734
  14        0.056279811
  15       -0.553075576
  16        1.320835446
  17       -0.056707870
  18        0.196006385
  19       -0.000000000
  20        0.553075576
  21       -1.320835446
  22       -0.203699505
  23       -0.011865787
  24        0.000000000
 Sym= A   
 Ene=         0.000000
 Spin= Alpha
 Occup=       0.000000
   1       -0.000000000
   2        0.000000000
   3        0.000000000
   4        0.000000000
   5        0.000000000
   6       -0.000000000
   7       -0.000000000
   8        0.000000000
   9        0.000000000
  10       -0.000000000
  11        0.332805362
  12       -0.235335034
  13        0.000000000
  14       -0.000000000
  15        0.000000000
  16        0.000000000
  17        0.000000000
  18       -0.000000000
  19        0.530981956
  20       -0.000000000
  21       -0.000000000
  22       -0.000000000
  23       -0.000000000
  24       -0.530981956
 Sym= A   
 Ene=         0.000000
 Spin= Alpha
 Occup=       0.000000
   1        0.019745397
   2       -0.251612391
   3        0.574045911
   4       -0.049148346
   5       -0.069504454
   6       -0.000000000
   7       -0.214610089
   8       -0.303496625
   9       -0.000000000
  10        0.273385215
  11        0.000000000
  12        0.000000000
  13        0.135704999
  14       -0.383861577
  15       -0.192346519
  16       -0.150918090
  17        0.401691463
  18        0.380751343
  19       -0.000000000
  20       -0.192346519
  21       -0.150918090
  22        0.225091022
  23        0.505629952
  24       -0.000000000
 Sym= A   
 Ene=         0.000000
 Spin= Alpha
 Occup=       0.000000
   1       -0.000000000
   2        0.000000000
   3        0.000000000
   4       -0.070097218
   5        0.049567504
   6        0.000000000
   7        0.714614931
   8       -0.505322173
   9        0.000000000
  10        0.000000000
  11        0.000000000
  12        0.000000000
  13       -0.198431625
  14       -0.070150714
  15       -0.341018537
  16       -0.314610938
  17       -0.637730391
  18       -0.193549836
  19       -0.000000000
  20        0.341018537
  21        0.314610938
  22       -0.030079977
  23        0.665775326
  24       -0.000000000
 Sym= A   
 Ene=         0.000000
 Spin= Alpha
 Occup=       0.000000
   1        0.000000000
   2       -0.000000000
   3        0.000000000
   4       -0.000000000
   5        0.000000000
   6       -0.166956768
   7        0.000000000
   8       -0.000000000
   9       -0.207071041
  10        0.000000000
  11       -0.304089270
  12       -0.430036014
  13       -0.000000000
  14       -0.000000000
  15       -0.000000000
  16       -0.000000000
  17       -0.000000000
  18       -0.000000000
  19        0.570070394
  20        0.000000000
  21        0.000000000
  22       -0.000000000
  23        0.000000000
  24        0.570070394
 Sym= A   
 Ene=         0.000000
 Spin= Alpha
 Occup=       0.000000
   1        0.061844681
   2       -0.533182153
   3        0.362570141
   4        0.090460610
   5        0.127927302
   6       -0.000000000
   7       -0.122722228
   8       -0.173550937
   9        0.000000000
  10       -0.797506382
  11        0.000000000
  12       -0.000000000
  13       -0.030308862
  14        0.085733081
  15       -0.151052803
  16        0.026851793
  17       -0.066356289
  18        0.415517304
  19        0.000000000
  20       -0.151052803
  21        0.026851793
  22        0.413874091
  23        0.075934336
  24        0.000000000
 Sym= A   
 Ene=         0.000000
 Spin= Alpha
 Occup=       0.000000
   1        0.000000000
   2       -0.000000000
   3       -0.000000000
   4        0.000000000
   5       -0.000000000
   6       -0.142060926
   7        0.000000000
   8       -0.000000000
   9       -0.215625803
  10       -0.000000000
  11        0.507472897
  12        0.717656435
  13        0.000000000
  14        0.000000000
  15       -0.000000000
  16       -0.000000000
  17       -0.000000000
  18       -0.000000000
  19        0.541934007
  20        0.000000000
  21        0.000000000
  22        0.000000000
  23        0.000000000
  24        0.541934007
 Sym= A   
 Ene=         0.000000
 Spin= Alpha
 Occup=       0.000000
   1       -0.000000000
   2       -0.000000000
   3        0.000000000
   4       -0.516855950
   5        0.365481829
   6        0.000000000
   7        0.039340942
   8       -0.027818969
   9       -0.000000000
  10       -0.000000000
  11        0.000000000
  12        0.000000000
  13       -0.571437022
  14       -0.202017772
  15       -0.015434442
  16        0.213218945
  17        0.049142054
  18        0.666789835
  19        0.000000000
  20        0.015434442
  21       -0.213218945
  22       -0.612281370
  23       -0.268579875
  24        0.000000000
 Sym= A   
 Ene=         0.000000
 Spin= Alpha
 Occup=       0.000000
   1       -0.075788175
   2        0.512550836
   3        0.426186639
   4       -0.215563167
   5       -0.304844445
   6       -0.000000000
   7       -0.173118013
   8       -0.244819490
   9       -0.000000000
  10       -0.301682117
  11        0.000000000
  12        0.000000000
  13       -0.206751440
  14        0.584826898
  15       -0.152545078
  16       -0.317743356
  17        0.737729341
  18       -0.129062343
  19        0.000000000
  20       -0.152545078
  21       -0.317743356
  22       -0.367574964
  23        0.652526102
  24       -0.000000000
 Sym= A   
 Ene=         0.000000
 Spin= Alpha
 Occup=       0.000000
   1        0.000000000
   2       -0.000000000
   3        0.000000000
   4       -0.000000000
   5       -0.000000000
   6        0.000000000
   7        0.000000000
   8       -0.000000000
   9        0.000000000
  10       -0.000000000
  11        0.849111360
  12       -0.600427978
  13       -0.000000000
  14       -0.000000000
  15       -0.000000000
  16       -0.000000000
  17        0.000000000
  18        0.000000000
  19       -0.586810027
  20        0.000000000
  21        0.000000000
  22       -0.000000000
  23        0.000000000
  24        0.586810027
 Sym= A   
 Ene=         0.000000
 Spin= Alpha
 Occup=       0.000000
   1       -0.000000000
   2        0.000000000
   3        0.000000000
   4       -1.013684215
   5        0.716801578
   6        0.000000000
   7       -0.574665141
   8        0.406360160
   9        0.000000000
  10       -0.000000000
  11        0.000000000
  12       -0.000000000
  13        1.124637905
  14        0.397588598
  15        0.951976854
  16        0.410835527
  17       -0.634630237
  18        0.760233896
  19       -0.000000000
  20       -0.951976854
  21       -0.410835527
  22       -0.928290367
  23        0.344946532
  24       -0.000000000
 Sym= A   
 Ene=         0.000000
 Spin= Alpha
 Occup=       0.000000
   1       -0.218241556
   2        1.377304708
   3        0.685514919
   4       -0.334455100
   5       -0.472978668
   6       -0.000000000
   7       -0.108720286
   8       -0.153749714
   9        0.000000000
  10       -0.813046544
  11        0.000000000
  12       -0.000000000
  13        0.373325582
  14       -1.056006390
  15       -1.028010699
  16       -0.263415936
  17        0.348966793
  18       -1.012873660
  19       -0.000000000
  20       -1.028010699
  21       -0.263415936
  22       -1.071268920
  23       -0.008589303
  24        0.000000000
 
