[Molden Format]
[N_ATOMS]
           12
[Atoms]  AU
C     1    6      -2.642573        0.000000        0.000000
C     2    6      -1.321260        2.288425        0.000000
C     3    6       1.321260        2.288425        0.000000
C     4    6       2.642573       -0.000000        0.000000
C     5    6       1.321260       -2.288425        0.000000
C     6    6      -1.321260       -2.288425        0.000000
H     7    1      -4.707329        0.000000        0.000000
H     8    1      -2.353615        4.076583        0.000000
H     9    1       2.353615        4.076583        0.000000
H    10    1       4.707329       -0.000000        0.000000
H    11    1       2.353615       -4.076583        0.000000
H    12    1      -2.353615       -4.076583        0.000000
[5D7F9G]
[GTO]
    1
    s    8
   0.823600000E+04   0.542430189E-03
   0.123500000E+04   0.419642790E-02
   0.280800000E+03   0.215409141E-01
   0.792700000E+02   0.836149496E-01
   0.255900000E+02   0.239871619E+00
   0.899700000E+01   0.443751820E+00
   0.331900000E+01   0.353579696E+00
   0.364300000E+00  -0.917636608E-02
    s    8
   0.823600000E+04  -0.196392234E-03
   0.123500000E+04  -0.152595027E-02
   0.280800000E+03  -0.789044903E-02
   0.792700000E+02  -0.315148705E-01
   0.255900000E+02  -0.969100083E-01
   0.899700000E+01  -0.220541526E+00
   0.331900000E+01  -0.296069113E+00
   0.364300000E+00   0.104050343E+01
    s    1
   0.905900000E+00   0.100000000E+01
    s    1
   0.128500000E+00   0.100000000E+01
    p    3
   0.187100000E+02   0.394263872E-01
   0.413300000E+01   0.244088985E+00
   0.120000000E+01   0.815492009E+00
    p    1
   0.382700000E+00   0.100000000E+01
    p    1
   0.120900000E+00   0.100000000E+01
    d    1
   0.109700000E+01   0.100000000E+01
    d    1
   0.318000000E+00   0.100000000E+01
    f    1
   0.761000000E+00   0.100000000E+01
 
    2
    s    8
   0.823600000E+04   0.542430189E-03
   0.123500000E+04   0.419642790E-02
   0.280800000E+03   0.215409141E-01
   0.792700000E+02   0.836149496E-01
   0.255900000E+02   0.239871619E+00
   0.899700000E+01   0.443751820E+00
   0.331900000E+01   0.353579696E+00
   0.364300000E+00  -0.917636608E-02
    s    8
   0.823600000E+04  -0.196392234E-03
   0.123500000E+04  -0.152595027E-02
   0.280800000E+03  -0.789044903E-02
   0.792700000E+02  -0.315148705E-01
   0.255900000E+02  -0.969100083E-01
   0.899700000E+01  -0.220541526E+00
   0.331900000E+01  -0.296069113E+00
   0.364300000E+00   0.104050343E+01
    s    1
   0.905900000E+00   0.100000000E+01
    s    1
   0.128500000E+00   0.100000000E+01
    p    3
   0.187100000E+02   0.394263872E-01
   0.413300000E+01   0.244088985E+00
   0.120000000E+01   0.815492009E+00
    p    1
   0.382700000E+00   0.100000000E+01
    p    1
   0.120900000E+00   0.100000000E+01
    d    1
   0.109700000E+01   0.100000000E+01
    d    1
   0.318000000E+00   0.100000000E+01
    f    1
   0.761000000E+00   0.100000000E+01
 
    3
    s    8
   0.823600000E+04   0.542430189E-03
   0.123500000E+04   0.419642790E-02
   0.280800000E+03   0.215409141E-01
   0.792700000E+02   0.836149496E-01
   0.255900000E+02   0.239871619E+00
   0.899700000E+01   0.443751820E+00
   0.331900000E+01   0.353579696E+00
   0.364300000E+00  -0.917636608E-02
    s    8
   0.823600000E+04  -0.196392234E-03
   0.123500000E+04  -0.152595027E-02
   0.280800000E+03  -0.789044903E-02
   0.792700000E+02  -0.315148705E-01
   0.255900000E+02  -0.969100083E-01
   0.899700000E+01  -0.220541526E+00
   0.331900000E+01  -0.296069113E+00
   0.364300000E+00   0.104050343E+01
    s    1
   0.905900000E+00   0.100000000E+01
    s    1
   0.128500000E+00   0.100000000E+01
    p    3
   0.187100000E+02   0.394263872E-01
   0.413300000E+01   0.244088985E+00
   0.120000000E+01   0.815492009E+00
    p    1
   0.382700000E+00   0.100000000E+01
    p    1
   0.120900000E+00   0.100000000E+01
    d    1
   0.109700000E+01   0.100000000E+01
    d    1
   0.318000000E+00   0.100000000E+01
    f    1
   0.761000000E+00   0.100000000E+01
 
    4
    s    8
   0.823600000E+04   0.542430189E-03
   0.123500000E+04   0.419642790E-02
   0.280800000E+03   0.215409141E-01
   0.792700000E+02   0.836149496E-01
   0.255900000E+02   0.239871619E+00
   0.899700000E+01   0.443751820E+00
   0.331900000E+01   0.353579696E+00
   0.364300000E+00  -0.917636608E-02
    s    8
   0.823600000E+04  -0.196392234E-03
   0.123500000E+04  -0.152595027E-02
   0.280800000E+03  -0.789044903E-02
   0.792700000E+02  -0.315148705E-01
   0.255900000E+02  -0.969100083E-01
   0.899700000E+01  -0.220541526E+00
   0.331900000E+01  -0.296069113E+00
   0.364300000E+00   0.104050343E+01
    s    1
   0.905900000E+00   0.100000000E+01
    s    1
   0.128500000E+00   0.100000000E+01
    p    3
   0.187100000E+02   0.394263872E-01
   0.413300000E+01   0.244088985E+00
   0.120000000E+01   0.815492009E+00
    p    1
   0.382700000E+00   0.100000000E+01
    p    1
   0.120900000E+00   0.100000000E+01
    d    1
   0.109700000E+01   0.100000000E+01
    d    1
   0.318000000E+00   0.100000000E+01
    f    1
   0.761000000E+00   0.100000000E+01
 
    5
    s    8
   0.823600000E+04   0.542430189E-03
   0.123500000E+04   0.419642790E-02
   0.280800000E+03   0.215409141E-01
   0.792700000E+02   0.836149496E-01
   0.255900000E+02   0.239871619E+00
   0.899700000E+01   0.443751820E+00
   0.331900000E+01   0.353579696E+00
   0.364300000E+00  -0.917636608E-02
    s    8
   0.823600000E+04  -0.196392234E-03
   0.123500000E+04  -0.152595027E-02
   0.280800000E+03  -0.789044903E-02
   0.792700000E+02  -0.315148705E-01
   0.255900000E+02  -0.969100083E-01
   0.899700000E+01  -0.220541526E+00
   0.331900000E+01  -0.296069113E+00
   0.364300000E+00   0.104050343E+01
    s    1
   0.905900000E+00   0.100000000E+01
    s    1
   0.128500000E+00   0.100000000E+01
    p    3
   0.187100000E+02   0.394263872E-01
   0.413300000E+01   0.244088985E+00
   0.120000000E+01   0.815492009E+00
    p    1
   0.382700000E+00   0.100000000E+01
    p    1
   0.120900000E+00   0.100000000E+01
    d    1
   0.109700000E+01   0.100000000E+01
    d    1
   0.318000000E+00   0.100000000E+01
    f    1
   0.761000000E+00   0.100000000E+01
 
    6
    s    8
   0.823600000E+04   0.542430189E-03
   0.123500000E+04   0.419642790E-02
   0.280800000E+03   0.215409141E-01
   0.792700000E+02   0.836149496E-01
   0.255900000E+02   0.239871619E+00
   0.899700000E+01   0.443751820E+00
   0.331900000E+01   0.353579696E+00
   0.364300000E+00  -0.917636608E-02
    s    8
   0.823600000E+04  -0.196392234E-03
   0.123500000E+04  -0.152595027E-02
   0.280800000E+03  -0.789044903E-02
   0.792700000E+02  -0.315148705E-01
   0.255900000E+02  -0.969100083E-01
   0.899700000E+01  -0.220541526E+00
   0.331900000E+01  -0.296069113E+00
   0.364300000E+00   0.104050343E+01
    s    1
   0.905900000E+00   0.100000000E+01
    s    1
   0.128500000E+00   0.100000000E+01
    p    3
   0.187100000E+02   0.394263872E-01
   0.413300000E+01   0.244088985E+00
   0.120000000E+01   0.815492009E+00
    p    1
   0.382700000E+00   0.100000000E+01
    p    1
   0.120900000E+00   0.100000000E+01
    d    1
   0.109700000E+01   0.100000000E+01
    d    1
   0.318000000E+00   0.100000000E+01
    f    1
   0.761000000E+00   0.100000000E+01
 
    7
    s    3
   0.338700000E+02   0.254948632E-01
   0.509500000E+01   0.190362766E+00
   0.115900000E+01   0.852162022E+00
    s    1
   0.325800000E+00   0.100000000E+01
    s    1
   0.102700000E+00   0.100000000E+01
    p    1
   0.140700000E+01   0.100000000E+01
    p    1
   0.388000000E+00   0.100000000E+01
    d    1
   0.105700000E+01   0.100000000E+01
 
    8
    s    3
   0.338700000E+02   0.254948632E-01
   0.509500000E+01   0.190362766E+00
   0.115900000E+01   0.852162022E+00
    s    1
   0.325800000E+00   0.100000000E+01
    s    1
   0.102700000E+00   0.100000000E+01
    p    1
   0.140700000E+01   0.100000000E+01
    p    1
   0.388000000E+00   0.100000000E+01
    d    1
   0.105700000E+01   0.100000000E+01
 
    9
    s    3
   0.338700000E+02   0.254948632E-01
   0.509500000E+01   0.190362766E+00
   0.115900000E+01   0.852162022E+00
    s    1
   0.325800000E+00   0.100000000E+01
    s    1
   0.102700000E+00   0.100000000E+01
    p    1
   0.140700000E+01   0.100000000E+01
    p    1
   0.388000000E+00   0.100000000E+01
    d    1
   0.105700000E+01   0.100000000E+01
 
   10
    s    3
   0.338700000E+02   0.254948632E-01
   0.509500000E+01   0.190362766E+00
   0.115900000E+01   0.852162022E+00
    s    1
   0.325800000E+00   0.100000000E+01
    s    1
   0.102700000E+00   0.100000000E+01
    p    1
   0.140700000E+01   0.100000000E+01
    p    1
   0.388000000E+00   0.100000000E+01
    d    1
   0.105700000E+01   0.100000000E+01
 
   11
    s    3
   0.338700000E+02   0.254948632E-01
   0.509500000E+01   0.190362766E+00
   0.115900000E+01   0.852162022E+00
    s    1
   0.325800000E+00   0.100000000E+01
    s    1
   0.102700000E+00   0.100000000E+01
    p    1
   0.140700000E+01   0.100000000E+01
    p    1
   0.388000000E+00   0.100000000E+01
    d    1
   0.105700000E+01   0.100000000E+01
 
   12
    s    3
   0.338700000E+02   0.254948632E-01
   0.509500000E+01   0.190362766E+00
   0.115900000E+01   0.852162022E+00
    s    1
   0.325800000E+00   0.100000000E+01
    s    1
   0.102700000E+00   0.100000000E+01
    p    1
   0.140700000E+01   0.100000000E+01
    p    1
   0.388000000E+00   0.100000000E+01
    d    1
   0.105700000E+01   0.100000000E+01
 
[MO]
 Sym= Ag  
 Ene=         0.000000
 Spin= Alpha
 Occup=       0.000000
   1       -0.399503403
   2       -0.000603422
   3       -0.017070303
   4       -0.001402709
   5       -0.000068033
   6        0.000000000
   7        0.000000000
   8        0.000233198
   9        0.000000000
  10        0.000000000
  11        0.000281478
  12        0.000000000
  13        0.000000000
  14        0.000169800
  15        0.000000000
  16        0.000000000
  17       -0.000016627
  18        0.000000000
  19        0.000079714
  20        0.000000000
  21        0.000000000
  22       -0.000179268
  23        0.000000000
  24        0.000000000
  25       -0.000088295
  26        0.000000000
  27        0.000000000
  28        0.000000000
  29        0.000078030
  30        0.000000000
  31       -0.399183760
  32       -0.000602911
  33       -0.017056809
  34       -0.001401582
  35       -0.000034016
  36        0.000059085
  37        0.000000000
  38        0.000116697
  39       -0.000203254
  40        0.000000000
  41        0.000140732
  42       -0.000244134
  43        0.000000000
  44        0.000169469
  45        0.000000000
  46        0.000000000
  47        0.000008231
  48        0.000014359
  49        0.000079940
  50        0.000000000
  51        0.000000000
  52        0.000090670
  53        0.000157075
  54        0.000000000
  55       -0.000044138
  56        0.000076495
  57        0.000000000
  58        0.000000000
  59       -0.000077624
  60       -0.000000060
  61       -0.399183760
  62       -0.000602911
  63       -0.017056809
  64       -0.001401582
  65        0.000034016
  66        0.000059085
  67        0.000000000
  68       -0.000116697
  69       -0.000203254
  70        0.000000000
  71       -0.000140732
  72       -0.000244134
  73        0.000000000
  74        0.000169469
  75        0.000000000
  76        0.000000000
  77        0.000008231
  78       -0.000014359
  79        0.000079940
  80        0.000000000
  81        0.000000000
  82        0.000090670
  83       -0.000157075
  84        0.000000000
  85        0.000044138
  86        0.000076495
  87        0.000000000
  88        0.000000000
  89        0.000077624
  90       -0.000000060
  91       -0.399503403
  92       -0.000603422
  93       -0.017070303
  94       -0.001402709
  95        0.000068033
  96        0.000000000
  97        0.000000000
  98       -0.000233198
  99        0.000000000
 100        0.000000000
 101       -0.000281478
 102        0.000000000
 103        0.000000000
 104        0.000169800
 105        0.000000000
 106        0.000000000
 107       -0.000016627
 108        0.000000000
 109        0.000079714
 110        0.000000000
 111        0.000000000
 112       -0.000179268
 113        0.000000000
 114        0.000000000
 115        0.000088295
 116        0.000000000
 117        0.000000000
 118        0.000000000
 119       -0.000078030
 120        0.000000000
 121       -0.399183760
 122       -0.000602911
 123       -0.017056809
 124       -0.001401582
 125        0.000034016
 126       -0.000059085
 127        0.000000000
 128       -0.000116697
 129        0.000203254
 130        0.000000000
 131       -0.000140732
 132        0.000244134
 133        0.000000000
 134        0.000169469
 135        0.000000000
 136        0.000000000
 137        0.000008231
 138        0.000014359
 139        0.000079940
 140        0.000000000
 141        0.000000000
 142        0.000090670
 143        0.000157075
 144        0.000000000
 145        0.000044138
 146       -0.000076495
 147        0.000000000
 148        0.000000000
 149        0.000077624
 150        0.000000060
 151       -0.399183760
 152       -0.000602911
 153       -0.017056809
 154       -0.001401582
 155       -0.000034016
 156       -0.000059085
 157        0.000000000
 158        0.000116697
 159        0.000203254
 160        0.000000000
 161        0.000140732
 162        0.000244134
 163        0.000000000
 164        0.000169469
 165        0.000000000
 166        0.000000000
 167        0.000008231
 168       -0.000014359
 169        0.000079940
 170        0.000000000
 171        0.000000000
 172        0.000090670
 173       -0.000157075
 174        0.000000000
 175       -0.000044138
 176       -0.000076495
 177        0.000000000
 178        0.000000000
 179       -0.000077624
 180        0.000000060
 181       -0.000074479
 182        0.000459249
 183        0.000478240
 184        0.000125836
 185        0.000000000
 186        0.000000000
 187        0.000231593
 188        0.000000000
 189        0.000000000
 190       -0.000056490
 191        0.000000000
 192        0.000000000
 193        0.000107792
 194        0.000000000
 195       -0.000074403
 196        0.000461477
 197        0.000478226
 198        0.000062852
 199       -0.000108884
 200        0.000000000
 201        0.000116194
 202       -0.000201247
 203        0.000000000
 204       -0.000056431
 205        0.000000000
 206        0.000000000
 207       -0.000053880
 208       -0.000093276
 209       -0.000074403
 210        0.000461477
 211        0.000478226
 212       -0.000062852
 213       -0.000108884
 214        0.000000000
 215       -0.000116194
 216       -0.000201247
 217        0.000000000
 218       -0.000056431
 219        0.000000000
 220        0.000000000
 221       -0.000053880
 222        0.000093276
 223       -0.000074479
 224        0.000459249
 225        0.000478240
 226       -0.000125836
 227        0.000000000
 228        0.000000000
 229       -0.000231593
 230        0.000000000
 231        0.000000000
 232       -0.000056490
 233        0.000000000
 234        0.000000000
 235        0.000107792
 236        0.000000000
 237       -0.000074403
 238        0.000461477
 239        0.000478226
 240       -0.000062852
 241        0.000108884
 242        0.000000000
 243       -0.000116194
 244        0.000201247
 245        0.000000000
 246       -0.000056431
 247        0.000000000
 248        0.000000000
 249       -0.000053880
 250       -0.000093276
 251       -0.000074403
 252        0.000461477
 253        0.000478226
 254        0.000062852
 255        0.000108884
 256        0.000000000
 257        0.000116194
 258        0.000201247
 259        0.000000000
 260       -0.000056431
 261        0.000000000
 262        0.000000000
 263       -0.000053880
 264        0.000093276
 Sym= Ag  
 Ene=         0.000000
 Spin= Alpha
 Occup=       0.000000
   1       -0.564855323
   2       -0.000876867
   3       -0.023804430
   4       -0.003108317
   5        0.000222073
   6        0.000000000
   7        0.000000000
   8       -0.001492937
   9        0.000000000
  10        0.000000000
  11       -0.001030375
  12        0.000000000
  13        0.000000000
  14        0.000529640
  15        0.000000000
  16        0.000000000
  17        0.000002013
  18        0.000000000
  19       -0.000196484
  20        0.000000000
  21        0.000000000
  22        0.001499859
  23        0.000000000
  24        0.000000000
  25        0.000040576
  26        0.000000000
  27        0.000000000
  28        0.000000000
  29        0.000636473
  30        0.000000000
  31        0.282653615
  32        0.000438851
  33        0.011911827
  34        0.001555130
  35        0.000144831
  36        0.000211763
  37        0.000000000
  38       -0.000254588
  39       -0.001008501
  40        0.000000000
  41       -0.000123569
  42       -0.000665954
  43        0.000000000
  44       -0.000264906
  45        0.000000000
  46        0.000000000
  47       -0.000088629
  48        0.000052374
  49        0.000098131
  50        0.000000000
  51        0.000000000
  52       -0.000022300
  53        0.000878639
  54        0.000000000
  55        0.000078666
  56        0.000068778
  57        0.000000000
  58        0.000000000
  59        0.000318270
  60       -0.000065905
  61        0.282653615
  62        0.000438851
  63        0.011911827
  64        0.001555130
  65       -0.000144831
  66        0.000211763
  67        0.000000000
  68        0.000254588
  69       -0.001008501
  70        0.000000000
  71        0.000123569
  72       -0.000665954
  73        0.000000000
  74       -0.000264906
  75        0.000000000
  76        0.000000000
  77       -0.000088629
  78       -0.000052374
  79        0.000098131
  80        0.000000000
  81        0.000000000
  82       -0.000022300
  83       -0.000878639
  84        0.000000000
  85       -0.000078666
  86        0.000068778
  87        0.000000000
  88        0.000000000
  89       -0.000318270
  90       -0.000065905
  91       -0.564855323
  92       -0.000876867
  93       -0.023804430
  94       -0.003108317
  95       -0.000222073
  96        0.000000000
  97        0.000000000
  98        0.001492937
  99        0.000000000
 100        0.000000000
 101        0.001030375
 102        0.000000000
 103        0.000000000
 104        0.000529640
 105        0.000000000
 106        0.000000000
 107        0.000002013
 108        0.000000000
 109       -0.000196484
 110        0.000000000
 111        0.000000000
 112        0.001499859
 113        0.000000000
 114        0.000000000
 115       -0.000040576
 116        0.000000000
 117        0.000000000
 118        0.000000000
 119       -0.000636473
 120        0.000000000
 121        0.282653615
 122        0.000438851
 123        0.011911827
 124        0.001555130
 125       -0.000144831
 126       -0.000211763
 127        0.000000000
 128        0.000254588
 129        0.001008501
 130        0.000000000
 131        0.000123569
 132        0.000665954
 133        0.000000000
 134       -0.000264906
 135        0.000000000
 136        0.000000000
 137       -0.000088629
 138        0.000052374
 139        0.000098131
 140        0.000000000
 141        0.000000000
 142       -0.000022300
 143        0.000878639
 144        0.000000000
 145       -0.000078666
 146       -0.000068778
 147        0.000000000
 148        0.000000000
 149       -0.000318270
 150        0.000065905
 151        0.282653615
 152        0.000438851
 153        0.011911827
 154        0.001555130
 155        0.000144831
 156       -0.000211763
 157        0.000000000
 158       -0.000254588
 159        0.001008501
 160        0.000000000
 161       -0.000123569
 162        0.000665954
 163        0.000000000
 164       -0.000264906
 165        0.000000000
 166        0.000000000
 167       -0.000088629
 168       -0.000052374
 169        0.000098131
 170        0.000000000
 171        0.000000000
 172       -0.000022300
 173       -0.000878639
 174        0.000000000
 175        0.000078666
 176       -0.000068778
 177        0.000000000
 178        0.000000000
 179        0.000318270
 180        0.000065905
 181       -0.000063498
 182       -0.002048269
 183       -0.000132065
 184        0.000195729
 185        0.000000000
 186        0.000000000
 187       -0.000741669
 188        0.000000000
 189        0.000000000
 190       -0.000052773
 191        0.000000000
 192        0.000000000
 193        0.000148350
 194        0.000000000
 195        0.000031801
 196        0.001023599
 197        0.000065700
 198       -0.000063358
 199        0.000076503
 200        0.000000000
 201        0.000052186
 202       -0.000397782
 203        0.000000000
 204        0.000026425
 205        0.000000000
 206        0.000000000
 207       -0.000021143
 208        0.000097932
 209        0.000031801
 210        0.001023599
 211        0.000065700
 212        0.000063358
 213        0.000076503
 214        0.000000000
 215       -0.000052186
 216       -0.000397782
 217        0.000000000
 218        0.000026425
 219        0.000000000
 220        0.000000000
 221       -0.000021143
 222       -0.000097932
 223       -0.000063498
 224       -0.002048269
 225       -0.000132065
 226       -0.000195729
 227        0.000000000
 228        0.000000000
 229        0.000741669
 230        0.000000000
 231        0.000000000
 232       -0.000052773
 233        0.000000000
 234        0.000000000
 235        0.000148350
 236        0.000000000
 237        0.000031801
 238        0.001023599
 239        0.000065700
 240        0.000063358
 241       -0.000076503
 242        0.000000000
 243       -0.000052186
 244        0.000397782
 245        0.000000000
 246        0.000026425
 247        0.000000000
 248        0.000000000
 249       -0.000021143
 250        0.000097932
 251        0.000031801
 252        0.001023599
 253        0.000065700
 254       -0.000063358
 255       -0.000076503
 256        0.000000000
 257        0.000052186
 258        0.000397782
 259        0.000000000
 260        0.000026425
 261        0.000000000
 262        0.000000000
 263       -0.000021143
 264       -0.000097932
 Sym= Ag  
 Ene=         0.000000
 Spin= Alpha
 Occup=       0.000000
   1       -0.011115440
   2        0.205204608
   3        0.040949609
   4        0.056339915
   5        0.033501282
   6        0.000000000
   7        0.000000000
   8        0.031163068
   9        0.000000000
  10        0.000000000
  11        0.000696183
  12        0.000000000
  13        0.000000000
  14       -0.007566829
  15        0.000000000
  16        0.000000000
  17       -0.001445265
  18        0.000000000
  19       -0.006631426
  20        0.000000000
  21        0.000000000
  22        0.001533063
  23        0.000000000
  24        0.000000000
  25       -0.000894497
  26        0.000000000
  27        0.000000000
  28        0.000000000
  29       -0.004780089
  30        0.000000000
  31       -0.011115238
  32        0.205203062
  33        0.040949512
  34        0.056331452
  35        0.016747808
  36       -0.029012491
  37        0.000000000
  38        0.015579667
  39       -0.026989171
  40        0.000000000
  41        0.000346898
  42       -0.000600270
  43        0.000000000
  44       -0.007566859
  45        0.000000000
  46        0.000000000
  47        0.000722640
  48        0.001252145
  49       -0.006630415
  50        0.000000000
  51        0.000000000
  52       -0.000764798
  53       -0.001324803
  54        0.000000000
  55       -0.000447174
  56        0.000774583
  57        0.000000000
  58        0.000000000
  59        0.004780200
  60       -0.000000257
  61       -0.011115238
  62        0.205203062
  63        0.040949512
  64        0.056331452
  65       -0.016747808
  66       -0.029012491
  67        0.000000000
  68       -0.015579667
  69       -0.026989171
  70        0.000000000
  71       -0.000346898
  72       -0.000600270
  73        0.000000000
  74       -0.007566859
  75        0.000000000
  76        0.000000000
  77        0.000722640
  78       -0.001252145
  79       -0.006630415
  80        0.000000000
  81        0.000000000
  82       -0.000764798
  83        0.001324803
  84        0.000000000
  85        0.000447174
  86        0.000774583
  87        0.000000000
  88        0.000000000
  89       -0.004780200
  90       -0.000000257
  91       -0.011115440
  92        0.205204608
  93        0.040949609
  94        0.056339915
  95       -0.033501282
  96        0.000000000
  97        0.000000000
  98       -0.031163068
  99        0.000000000
 100        0.000000000
 101       -0.000696183
 102        0.000000000
 103        0.000000000
 104       -0.007566829
 105        0.000000000
 106        0.000000000
 107       -0.001445265
 108        0.000000000
 109       -0.006631426
 110        0.000000000
 111        0.000000000
 112        0.001533063
 113        0.000000000
 114        0.000000000
 115        0.000894497
 116        0.000000000
 117        0.000000000
 118        0.000000000
 119        0.004780089
 120        0.000000000
 121       -0.011115238
 122        0.205203062
 123        0.040949512
 124        0.056331452
 125       -0.016747808
 126        0.029012491
 127        0.000000000
 128       -0.015579667
 129        0.026989171
 130        0.000000000
 131       -0.000346898
 132        0.000600270
 133        0.000000000
 134       -0.007566859
 135        0.000000000
 136        0.000000000
 137        0.000722640
 138        0.001252145
 139       -0.006630415
 140        0.000000000
 141        0.000000000
 142       -0.000764798
 143       -0.001324803
 144        0.000000000
 145        0.000447174
 146       -0.000774583
 147        0.000000000
 148        0.000000000
 149       -0.004780200
 150        0.000000257
 151       -0.011115238
 152        0.205203062
 153        0.040949512
 154        0.056331452
 155        0.016747808
 156        0.029012491
 157        0.000000000
 158        0.015579667
 159        0.026989171
 160        0.000000000
 161        0.000346898
 162        0.000600270
 163        0.000000000
 164       -0.007566859
 165        0.000000000
 166        0.000000000
 167        0.000722640
 168       -0.001252145
 169       -0.006630415
 170        0.000000000
 171        0.000000000
 172       -0.000764798
 173        0.001324803
 174        0.000000000
 175       -0.000447174
 176       -0.000774583
 177        0.000000000
 178        0.000000000
 179        0.004780200
 180        0.000000257
 181        0.020737848
 182        0.010928131
 183       -0.001126152
 184        0.001608897
 185        0.000000000
 186        0.000000000
 187       -0.003583671
 188        0.000000000
 189        0.000000000
 190       -0.000016453
 191        0.000000000
 192        0.000000000
 193       -0.000653553
 194        0.000000000
 195        0.020737715
 196        0.010932048
 197       -0.001126715
 198        0.000804418
 199       -0.001393366
 200        0.000000000
 201       -0.001790952
 202        0.003102148
 203        0.000000000
 204       -0.000016455
 205        0.000000000
 206        0.000000000
 207        0.000326733
 208        0.000565925
 209        0.020737715
 210        0.010932048
 211       -0.001126715
 212       -0.000804418
 213       -0.001393366
 214        0.000000000
 215        0.001790952
 216        0.003102148
 217        0.000000000
 218       -0.000016455
 219        0.000000000
 220        0.000000000
 221        0.000326733
 222       -0.000565925
 223        0.020737848
 224        0.010928131
 225       -0.001126152
 226       -0.001608897
 227        0.000000000
 228        0.000000000
 229        0.003583671
 230        0.000000000
 231        0.000000000
 232       -0.000016453
 233        0.000000000
 234        0.000000000
 235       -0.000653553
 236        0.000000000
 237        0.020737715
 238        0.010932048
 239       -0.001126715
 240       -0.000804418
 241        0.001393366
 242        0.000000000
 243        0.001790952
 244       -0.003102148
 245        0.000000000
 246       -0.000016455
 247        0.000000000
 248        0.000000000
 249        0.000326733
 250        0.000565925
 251        0.020737715
 252        0.010932048
 253       -0.001126715
 254        0.000804418
 255        0.001393366
 256        0.000000000
 257       -0.001790952
 258       -0.003102148
 259        0.000000000
 260       -0.000016455
 261        0.000000000
 262        0.000000000
 263        0.000326733
 264       -0.000565925
 Sym= Ag  
 Ene=         0.000000
 Spin= Alpha
 Occup=       0.000000
   1        0.005419996
   2       -0.239248846
   3       -0.046475834
   4       -0.157859133
   5        0.032915228
   6        0.000000000
   7        0.000000000
   8        0.040156755
   9        0.000000000
  10        0.000000000
  11        0.004970194
  12        0.000000000
  13        0.000000000
  14        0.006980480
  15        0.000000000
  16        0.000000000
  17       -0.000288792
  18        0.000000000
  19        0.013931727
  20        0.000000000
  21        0.000000000
  22       -0.001649562
  23        0.000000000
  24        0.000000000
  25        0.000254115
  26        0.000000000
  27        0.000000000
  28        0.000000000
  29        0.006836097
  30        0.000000000
  31       -0.002709856
  32        0.119623903
  33        0.023237703
  34        0.078929585
  35        0.076109465
  36        0.062940925
  37        0.000000000
  38        0.084231544
  39        0.071809190
  40        0.000000000
  41        0.013938846
  42        0.010916324
  43        0.000000000
  44       -0.003490223
  45        0.000000000
  46        0.000000000
  47        0.006245871
  48       -0.003772824
  49       -0.006965948
  50        0.000000000