[Molden Format]
[N_ATOMS]
           12
[Atoms]  AU
C     1    6      -2.642573        0.000000        0.000000
C     2    6      -1.321260        2.288425        0.000000
C     3    6       1.321260        2.288425        0.000000
C     4    6       2.642573       -0.000000        0.000000
C     5    6       1.321260       -2.288425        0.000000
C     6    6      -1.321260       -2.288425        0.000000
H     7    1      -4.707329        0.000000        0.000000
H     8    1      -2.353615        4.076583        0.000000
H     9    1       2.353615        4.076583        0.000000
H    10    1       4.707329       -0.000000        0.000000
H    11    1       2.353615       -4.076583        0.000000
H    12    1      -2.353615       -4.076583        0.000000
[5D7F9G]
[GTO]
    1
    s    8
   0.823600000E+04   0.542430189E-03
   0.123500000E+04   0.419642790E-02
   0.280800000E+03   0.215409141E-01
   0.792700000E+02   0.836149496E-01
   0.255900000E+02   0.239871619E+00
   0.899700000E+01   0.443751820E+00
   0.331900000E+01   0.353579696E+00
   0.364300000E+00  -0.917636608E-02
    s    8
   0.823600000E+04  -0.196392234E-03
   0.123500000E+04  -0.152595027E-02
   0.280800000E+03  -0.789044903E-02
   0.792700000E+02  -0.315148705E-01
   0.255900000E+02  -0.969100083E-01
   0.899700000E+01  -0.220541526E+00
   0.331900000E+01  -0.296069113E+00
   0.364300000E+00   0.104050343E+01
    s    1
   0.905900000E+00   0.100000000E+01
    s    1
   0.128500000E+00   0.100000000E+01
    p    3
   0.187100000E+02   0.394263872E-01
   0.413300000E+01   0.244088985E+00
   0.120000000E+01   0.815492009E+00
    p    1
   0.382700000E+00   0.100000000E+01
    p    1
   0.120900000E+00   0.100000000E+01
    d    1
   0.109700000E+01   0.100000000E+01
    d    1
   0.318000000E+00   0.100000000E+01
    f    1
   0.761000000E+00   0.100000000E+01
 
    2
    s    8
   0.823600000E+04   0.542430189E-03
   0.123500000E+04   0.419642790E-02
   0.280800000E+03   0.215409141E-01
   0.792700000E+02   0.836149496E-01
   0.255900000E+02   0.239871619E+00
   0.899700000E+01   0.443751820E+00
   0.331900000E+01   0.353579696E+00
   0.364300000E+00  -0.917636608E-02
    s    8
   0.823600000E+04  -0.196392234E-03
   0.123500000E+04  -0.152595027E-02
   0.280800000E+03  -0.789044903E-02
   0.792700000E+02  -0.315148705E-01
   0.255900000E+02  -0.969100083E-01
   0.899700000E+01  -0.220541526E+00
   0.331900000E+01  -0.296069113E+00
   0.364300000E+00   0.104050343E+01
    s    1
   0.905900000E+00   0.100000000E+01
    s    1
   0.128500000E+00   0.100000000E+01
    p    3
   0.187100000E+02   0.394263872E-01
   0.413300000E+01   0.244088985E+00
   0.120000000E+01   0.815492009E+00
    p    1
   0.382700000E+00   0.100000000E+01
    p    1
   0.120900000E+00   0.100000000E+01
    d    1
   0.109700000E+01   0.100000000E+01
    d    1
   0.318000000E+00   0.100000000E+01
    f    1
   0.761000000E+00   0.100000000E+01
 
    3
    s    8
   0.823600000E+04   0.542430189E-03
   0.123500000E+04   0.419642790E-02
   0.280800000E+03   0.215409141E-01
   0.792700000E+02   0.836149496E-01
   0.255900000E+02   0.239871619E+00
   0.899700000E+01   0.443751820E+00
   0.331900000E+01   0.353579696E+00
   0.364300000E+00  -0.917636608E-02
    s    8
   0.823600000E+04  -0.196392234E-03
   0.123500000E+04  -0.152595027E-02
   0.280800000E+03  -0.789044903E-02
   0.792700000E+02  -0.315148705E-01
   0.255900000E+02  -0.969100083E-01
   0.899700000E+01  -0.220541526E+00
   0.331900000E+01  -0.296069113E+00
   0.364300000E+00   0.104050343E+01
    s    1
   0.905900000E+00   0.100000000E+01
    s    1
   0.128500000E+00   0.100000000E+01
    p    3
   0.187100000E+02   0.394263872E-01
   0.413300000E+01   0.244088985E+00
   0.120000000E+01   0.815492009E+00
    p    1
   0.382700000E+00   0.100000000E+01
    p    1
   0.120900000E+00   0.100000000E+01
    d    1
   0.109700000E+01   0.100000000E+01
    d    1
   0.318000000E+00   0.100000000E+01
    f    1
   0.761000000E+00   0.100000000E+01
 
    4
    s    8
   0.823600000E+04   0.542430189E-03
   0.123500000E+04   0.419642790E-02
   0.280800000E+03   0.215409141E-01
   0.792700000E+02   0.836149496E-01
   0.255900000E+02   0.239871619E+00
   0.899700000E+01   0.443751820E+00
   0.331900000E+01   0.353579696E+00
   0.364300000E+00  -0.917636608E-02
    s    8
   0.823600000E+04  -0.196392234E-03
   0.123500000E+04  -0.152595027E-02
   0.280800000E+03  -0.789044903E-02
   0.792700000E+02  -0.315148705E-01
   0.255900000E+02  -0.969100083E-01
   0.899700000E+01  -0.220541526E+00
   0.331900000E+01  -0.296069113E+00
   0.364300000E+00   0.104050343E+01
    s    1
   0.905900000E+00   0.100000000E+01
    s    1
   0.128500000E+00   0.100000000E+01
    p    3
   0.187100000E+02   0.394263872E-01
   0.413300000E+01   0.244088985E+00
   0.120000000E+01   0.815492009E+00
    p    1
   0.382700000E+00   0.100000000E+01
    p    1
   0.120900000E+00   0.100000000E+01
    d    1
   0.109700000E+01   0.100000000E+01
    d    1
   0.318000000E+00   0.100000000E+01
    f    1
   0.761000000E+00   0.100000000E+01
 
    5
    s    8
   0.823600000E+04   0.542430189E-03
   0.123500000E+04   0.419642790E-02
   0.280800000E+03   0.215409141E-01
   0.792700000E+02   0.836149496E-01
   0.255900000E+02   0.239871619E+00
   0.899700000E+01   0.443751820E+00
   0.331900000E+01   0.353579696E+00
   0.364300000E+00  -0.917636608E-02
    s    8
   0.823600000E+04  -0.196392234E-03
   0.123500000E+04  -0.152595027E-02
   0.280800000E+03  -0.789044903E-02
   0.792700000E+02  -0.315148705E-01
   0.255900000E+02  -0.969100083E-01
   0.899700000E+01  -0.220541526E+00
   0.331900000E+01  -0.296069113E+00
   0.364300000E+00   0.104050343E+01
    s    1
   0.905900000E+00   0.100000000E+01
    s    1
   0.128500000E+00   0.100000000E+01
    p    3
   0.187100000E+02   0.394263872E-01
   0.413300000E+01   0.244088985E+00
   0.120000000E+01   0.815492009E+00
    p    1
   0.382700000E+00   0.100000000E+01
    p    1
   0.120900000E+00   0.100000000E+01
    d    1
   0.109700000E+01   0.100000000E+01
    d    1
   0.318000000E+00   0.100000000E+01
    f    1
   0.761000000E+00   0.100000000E+01
 
    6
    s    8
   0.823600000E+04   0.542430189E-03
   0.123500000E+04   0.419642790E-02
   0.280800000E+03   0.215409141E-01
   0.792700000E+02   0.836149496E-01
   0.255900000E+02   0.239871619E+00
   0.899700000E+01   0.443751820E+00
   0.331900000E+01   0.353579696E+00
   0.364300000E+00  -0.917636608E-02
    s    8
   0.823600000E+04  -0.196392234E-03
   0.123500000E+04  -0.152595027E-02
   0.280800000E+03  -0.789044903E-02
   0.792700000E+02  -0.315148705E-01
   0.255900000E+02  -0.969100083E-01
   0.899700000E+01  -0.220541526E+00
   0.331900000E+01  -0.296069113E+00
   0.364300000E+00   0.104050343E+01
    s    1
   0.905900000E+00   0.100000000E+01
    s    1
   0.128500000E+00   0.100000000E+01
    p    3
   0.187100000E+02   0.394263872E-01
   0.413300000E+01   0.244088985E+00
   0.120000000E+01   0.815492009E+00
    p    1
   0.382700000E+00   0.100000000E+01
    p    1
   0.120900000E+00   0.100000000E+01
    d    1
   0.109700000E+01   0.100000000E+01
    d    1
   0.318000000E+00   0.100000000E+01
    f    1
   0.761000000E+00   0.100000000E+01
 
    7
    s    3
   0.338700000E+02   0.254948632E-01
   0.509500000E+01   0.190362766E+00
   0.115900000E+01   0.852162022E+00
    s    1
   0.325800000E+00   0.100000000E+01
    s    1
   0.102700000E+00   0.100000000E+01
    p    1
   0.140700000E+01   0.100000000E+01
    p    1
   0.388000000E+00   0.100000000E+01
    d    1
   0.105700000E+01   0.100000000E+01
 
    8
    s    3
   0.338700000E+02   0.254948632E-01
   0.509500000E+01   0.190362766E+00
   0.115900000E+01   0.852162022E+00
    s    1
   0.325800000E+00   0.100000000E+01
    s    1
   0.102700000E+00   0.100000000E+01
    p    1
   0.140700000E+01   0.100000000E+01
    p    1
   0.388000000E+00   0.100000000E+01
    d    1
   0.105700000E+01   0.100000000E+01
 
    9
    s    3
   0.338700000E+02   0.254948632E-01
   0.509500000E+01   0.190362766E+00
   0.115900000E+01   0.852162022E+00
    s    1
   0.325800000E+00   0.100000000E+01
    s    1
   0.102700000E+00   0.100000000E+01
    p    1
   0.140700000E+01   0.100000000E+01
    p    1
   0.388000000E+00   0.100000000E+01
    d    1
   0.105700000E+01   0.100000000E+01
 
   10
    s    3
   0.338700000E+02   0.254948632E-01
   0.509500000E+01   0.190362766E+00
   0.115900000E+01   0.852162022E+00
    s    1
   0.325800000E+00   0.100000000E+01
    s    1
   0.102700000E+00   0.100000000E+01
    p    1
   0.140700000E+01   0.100000000E+01
    p    1
   0.388000000E+00   0.100000000E+01
    d    1
   0.105700000E+01   0.100000000E+01
 
   11
    s    3
   0.338700000E+02   0.254948632E-01
   0.509500000E+01   0.190362766E+00
   0.115900000E+01   0.852162022E+00
    s    1
   0.325800000E+00   0.100000000E+01
    s    1
   0.102700000E+00   0.100000000E+01
    p    1
   0.140700000E+01   0.100000000E+01
    p    1
   0.388000000E+00   0.100000000E+01
    d    1
   0.105700000E+01   0.100000000E+01
 
   12
    s    3
   0.338700000E+02   0.254948632E-01
   0.509500000E+01   0.190362766E+00
   0.115900000E+01   0.852162022E+00
    s    1
   0.325800000E+00   0.100000000E+01
    s    1
   0.102700000E+00   0.100000000E+01
    p    1
   0.140700000E+01   0.100000000E+01
    p    1
   0.388000000E+00   0.100000000E+01
    d    1
   0.105700000E+01   0.100000000E+01
 
[MO]
 Sym= Ag  
 Ene=       -11.226108
 Spin= Alpha
 Occup=       2.000000
   1        0.399209658
   2        0.000595002
   3        0.017114307
   4        0.001404911
   5        0.000073744
   6        0.000000000
   7        0.000000000
   8       -0.000241706
   9        0.000000000
  10        0.000000000
  11       -0.000284385
  12        0.000000000
  13        0.000000000
  14       -0.000160188
  15        0.000000000
  16        0.000000000
  17        0.000016043
  18        0.000000000
  19       -0.000080145
  20        0.000000000
  21        0.000000000
  22        0.000184199
  23        0.000000000
  24        0.000000000
  25        0.000087804
  26        0.000000000
  27        0.000000000
  28        0.000000000
  29       -0.000074982
  30        0.000000000
  31        0.399287030
  32        0.000595105
  33        0.017117552
  34        0.001405975
  35        0.000036891
  36       -0.000063844
  37        0.000000000
  38       -0.000120722
  39        0.000209551
  40        0.000000000
  41       -0.000141999
  42        0.000245918
  43        0.000000000
  44       -0.000160224
  45        0.000000000
  46        0.000000000
  47       -0.000007979
  48       -0.000013828
  49       -0.000080232
  50        0.000000000
  51        0.000000000
  52       -0.000092801
  53       -0.000160333
  54        0.000000000
  55        0.000043920
  56       -0.000076021
  57        0.000000000
  58        0.000000000
  59        0.000075022
  60        0.000000029
  61        0.399287030
  62        0.000595105
  63        0.017117552
  64        0.001405975
  65       -0.000036891
  66       -0.000063844
  67        0.000000000
  68        0.000120722
  69        0.000209551
  70        0.000000000
  71        0.000141999
  72        0.000245918
  73        0.000000000
  74       -0.000160224
  75        0.000000000
  76        0.000000000
  77       -0.000007979
  78        0.000013828
  79       -0.000080232
  80        0.000000000
  81        0.000000000
  82       -0.000092801
  83        0.000160333
  84        0.000000000
  85       -0.000043920
  86       -0.000076021
  87        0.000000000
  88        0.000000000
  89       -0.000075022
  90        0.000000029
  91        0.399209658
  92        0.000595002
  93        0.017114307
  94        0.001404911
  95       -0.000073744
  96        0.000000000
  97        0.000000000
  98        0.000241706
  99        0.000000000
 100        0.000000000
 101        0.000284385
 102        0.000000000
 103        0.000000000
 104       -0.000160188
 105        0.000000000
 106        0.000000000
 107        0.000016043
 108        0.000000000
 109       -0.000080145
 110        0.000000000
 111        0.000000000
 112        0.000184199
 113        0.000000000
 114        0.000000000
 115       -0.000087804
 116        0.000000000
 117        0.000000000
 118        0.000000000
 119        0.000074982
 120        0.000000000
 121        0.399287030
 122        0.000595105
 123        0.017117552
 124        0.001405975
 125       -0.000036891
 126        0.000063844
 127        0.000000000
 128        0.000120722
 129       -0.000209551
 130        0.000000000
 131        0.000141999
 132       -0.000245918
 133        0.000000000
 134       -0.000160224
 135        0.000000000
 136        0.000000000
 137       -0.000007979
 138       -0.000013828
 139       -0.000080232
 140        0.000000000
 141        0.000000000
 142       -0.000092801
 143       -0.000160333
 144        0.000000000
 145       -0.000043920
 146        0.000076021
 147        0.000000000
 148        0.000000000
 149       -0.000075022
 150       -0.000000029
 151        0.399287030
 152        0.000595105
 153        0.017117552
 154        0.001405975
 155        0.000036891
 156        0.000063844
 157        0.000000000
 158       -0.000120722
 159       -0.000209551
 160        0.000000000
 161       -0.000141999
 162       -0.000245918
 163        0.000000000
 164       -0.000160224
 165        0.000000000
 166        0.000000000
 167       -0.000007979
 168        0.000013828
 169       -0.000080232
 170        0.000000000
 171        0.000000000
 172       -0.000092801
 173        0.000160333
 174        0.000000000
 175        0.000043920
 176        0.000076021
 177        0.000000000
 178        0.000000000
 179        0.000075022
 180       -0.000000029
 181        0.000074632
 182       -0.000467106
 183       -0.000480587
 184       -0.000126042
 185        0.000000000
 186        0.000000000
 187       -0.000235371
 188        0.000000000
 189        0.000000000
 190        0.000057016
 191        0.000000000
 192        0.000000000
 193       -0.000108647
 194        0.000000000
 195        0.000074601
 196       -0.000467905
 197       -0.000480479
 198       -0.000063030
 199        0.000109177
 200        0.000000000
 201       -0.000117888
 202        0.000204035
 203        0.000000000
 204        0.000056994
 205        0.000000000
 206        0.000000000
 207        0.000054332
 208        0.000094123
 209        0.000074601
 210       -0.000467905
 211       -0.000480479
 212        0.000063030
 213        0.000109177
 214        0.000000000
 215        0.000117888
 216        0.000204035
 217        0.000000000
 218        0.000056994
 219        0.000000000
 220        0.000000000
 221        0.000054332
 222       -0.000094123
 223        0.000074632
 224       -0.000467106
 225       -0.000480587
 226        0.000126042
 227        0.000000000
 228        0.000000000
 229        0.000235371
 230        0.000000000
 231        0.000000000
 232        0.000057016
 233        0.000000000
 234        0.000000000
 235       -0.000108647
 236        0.000000000
 237        0.000074601
 238       -0.000467905
 239       -0.000480479
 240        0.000063030
 241       -0.000109177
 242        0.000000000
 243        0.000117888
 244       -0.000204035
 245        0.000000000
 246        0.000056994
 247        0.000000000
 248        0.000000000
 249        0.000054332
 250        0.000094123
 251        0.000074601
 252       -0.000467905
 253       -0.000480479
 254       -0.000063030
 255       -0.000109177
 256        0.000000000
 257       -0.000117888
 258       -0.000204035
 259        0.000000000
 260        0.000056994
 261        0.000000000
 262        0.000000000
 263        0.000054332
 264       -0.000094123
 Sym= Ag  
 Ene=       -11.224350
 Spin= Alpha
 Occup=       2.000000
   1        0.564997875
   2        0.000861597
   3        0.023888250
   4        0.003080174
   5       -0.000215078
   6        0.000000000
   7        0.000000000
   8        0.001485188
   9        0.000000000
  10        0.000000000
  11        0.001016375
  12        0.000000000
  13        0.000000000
  14       -0.000515385
  15        0.000000000
  16        0.000000000
  17       -0.000001391
  18        0.000000000
  19        0.000205454
  20        0.000000000
  21        0.000000000
  22       -0.001498447
  23        0.000000000
  24        0.000000000
  25       -0.000040940
  26        0.000000000
  27        0.000000000
  28        0.000000000
  29       -0.000636421
  30        0.000000000
  31       -0.282444323
  32       -0.000430795
  33       -0.011941739
  34       -0.001540073
  35       -0.000146735
  36       -0.000208877
  37        0.000000000
  38        0.000252505
  39        0.001003012
  40        0.000000000
  41        0.000125121
  42        0.000658996
  43        0.000000000
  44        0.000257659
  45        0.000000000
  46        0.000000000
  47        0.000088375
  48       -0.000051882
  49       -0.000102672
  50        0.000000000
  51        0.000000000
  52        0.000025812
  53       -0.000879997
  54        0.000000000
  55       -0.000078512
  56       -0.000068970
  57        0.000000000
  58        0.000000000
  59       -0.000318190
  60        0.000066570
  61       -0.282444323
  62       -0.000430795
  63       -0.011941739
  64       -0.001540073
  65        0.000146735
  66       -0.000208877
  67        0.000000000
  68       -0.000252505
  69        0.001003012
  70        0.000000000
  71       -0.000125121
  72        0.000658996
  73        0.000000000
  74        0.000257659
  75        0.000000000
  76        0.000000000
  77        0.000088375
  78        0.000051882
  79       -0.000102672
  80        0.000000000
  81        0.000000000
  82        0.000025812
  83        0.000879997
  84        0.000000000
  85        0.000078512
  86       -0.000068970
  87        0.000000000
  88        0.000000000
  89        0.000318190
  90        0.000066570
  91        0.564997875
  92        0.000861597
  93        0.023888250
  94        0.003080174
  95        0.000215078
  96        0.000000000
  97        0.000000000
  98       -0.001485188
  99        0.000000000
 100        0.000000000
 101       -0.001016375
 102        0.000000000
 103        0.000000000
 104       -0.000515385
 105        0.000000000
 106        0.000000000
 107       -0.000001391
 108        0.000000000
 109        0.000205454
 110        0.000000000
 111        0.000000000
 112       -0.001498447
 113        0.000000000
 114        0.000000000
 115        0.000040940
 116        0.000000000
 117        0.000000000
 118        0.000000000
 119        0.000636421
 120        0.000000000
 121       -0.282444323
 122       -0.000430795
 123       -0.011941739
 124       -0.001540073
 125        0.000146735
 126        0.000208877
 127        0.000000000
 128       -0.000252505
 129       -0.001003012
 130        0.000000000
 131       -0.000125121
 132       -0.000658996
 133        0.000000000
 134        0.000257659
 135        0.000000000
 136        0.000000000
 137        0.000088375
 138       -0.000051882
 139       -0.000102672
 140        0.000000000
 141        0.000000000
 142        0.000025812
 143       -0.000879997
 144        0.000000000
 145        0.000078512
 146        0.000068970
 147        0.000000000
 148        0.000000000
 149        0.000318190
 150       -0.000066570
 151       -0.282444323
 152       -0.000430795
 153       -0.011941739
 154       -0.001540073
 155       -0.000146735
 156        0.000208877
 157        0.000000000
 158        0.000252505
 159       -0.001003012
 160        0.000000000
 161        0.000125121
 162       -0.000658996
 163        0.000000000
 164        0.000257659
 165        0.000000000
 166        0.000000000
 167        0.000088375
 168        0.000051882
 169       -0.000102672
 170        0.000000000
 171        0.000000000
 172        0.000025812
 173        0.000879997
 174        0.000000000
 175       -0.000078512
 176        0.000068970
 177        0.000000000
 178        0.000000000
 179       -0.000318190
 180       -0.000066570
 181        0.000063330
 182        0.002048499
 183        0.000128117
 184       -0.000196891
 185        0.000000000
 186        0.000000000
 187        0.000740386
 188        0.000000000
 189        0.000000000
 190        0.000053436
 191        0.000000000
 192        0.000000000
 193       -0.000150194
 194        0.000000000
 195       -0.000031664
 196       -0.001024036
 197       -0.000064062
 198        0.000063805
 199       -0.000076814
 200        0.000000000
 201       -0.000050246
 202        0.000398349
 203        0.000000000
 204       -0.000026717
 205        0.000000000
 206        0.000000000
 207        0.000021347
 208       -0.000099027
 209       -0.000031664
 210       -0.001024036
 211       -0.000064062
 212       -0.000063805
 213       -0.000076814
 214        0.000000000
 215        0.000050246
 216        0.000398349
 217        0.000000000
 218       -0.000026717
 219        0.000000000
 220        0.000000000
 221        0.000021347
 222        0.000099027
 223        0.000063330
 224        0.002048499
 225        0.000128117
 226        0.000196891
 227        0.000000000
 228        0.000000000
 229       -0.000740386
 230        0.000000000
 231        0.000000000
 232        0.000053436
 233        0.000000000
 234        0.000000000
 235       -0.000150194
 236        0.000000000
 237       -0.000031664
 238       -0.001024036
 239       -0.000064062
 240       -0.000063805
 241        0.000076814
 242        0.000000000
 243        0.000050246
 244       -0.000398349
 245        0.000000000
 246       -0.000026717
 247        0.000000000
 248        0.000000000
 249        0.000021347
 250       -0.000099027
 251       -0.000031664
 252       -0.001024036
 253       -0.000064062
 254        0.000063805
 255        0.000076814
 256        0.000000000
 257       -0.000050246
 258       -0.000398349
 259        0.000000000
 260       -0.000026717
 261        0.000000000
 262        0.000000000
 263        0.000021347
 264        0.000099027
 Sym= Ag  
 Ene=        -1.139998
 Spin= Alpha
 Occup=       2.000000
   1        0.011121422
   2       -0.204889293
   3       -0.040584805
   4       -0.056286603
   5       -0.033495290
   6        0.000000000
   7        0.000000000
   8       -0.031496371
   9        0.000000000
  10        0.000000000
  11       -0.000857909
  12        0.000000000
  13        0.000000000
  14        0.007510486
  15        0.000000000
  16        0.000000000
  17        0.001444560
  18        0.000000000
  19        0.006705107
  20        0.000000000
  21        0.000000000
  22       -0.001594716
  23        0.000000000
  24        0.000000000
  25        0.000931500
  26        0.000000000
  27        0.000000000
  28        0.000000000
  29        0.004721703
  30        0.000000000
  31        0.011121241
  32       -0.204888048
  33       -0.040584744
  34       -0.056279086
  35       -0.016744914
  36        0.029007229
  37        0.000000000
  38       -0.015746436
  39        0.027277666
  40        0.000000000
  41       -0.000427973
  42        0.000740693
  43        0.000000000
  44        0.007510501
  45        0.000000000
  46        0.000000000
  47       -0.000722304
  48       -0.001251538
  49        0.006704140
  50        0.000000000
  51        0.000000000
  52        0.000795755
  53        0.001378402
  54        0.000000000
  55        0.000465672
  56       -0.000806629
  57        0.000000000
  58        0.000000000
  59       -0.004721824
  60        0.000000246
  61        0.011121241
  62       -0.204888048
  63       -0.040584744
  64       -0.056279086
  65        0.016744914
  66        0.029007229
  67        0.000000000
  68        0.015746436
  69        0.027277666
  70        0.000000000
  71        0.000427973
  72        0.000740693
  73        0.000000000
  74        0.007510501
  75        0.000000000
  76        0.000000000
  77       -0.000722304
  78        0.001251538
  79        0.006704140
  80        0.000000000
  81        0.000000000
  82        0.000795755
  83       -0.001378402
  84        0.000000000
  85       -0.000465672
  86       -0.000806629
  87        0.000000000
  88        0.000000000
  89        0.004721824
  90        0.000000246
  91        0.011121422
  92       -0.204889293
  93       -0.040584805
  94       -0.056286603
  95        0.033495290
  96        0.000000000
  97        0.000000000
  98        0.031496371
  99        0.000000000
 100        0.000000000
 101        0.000857909
 102        0.000000000
 103        0.000000000
 104        0.007510486
 105        0.000000000
 106        0.000000000
 107        0.001444560
 108        0.000000000
 109        0.006705107
 110        0.000000000
 111        0.000000000
 112       -0.001594716
 113        0.000000000
 114        0.000000000
 115       -0.000931500
 116        0.000000000
 117        0.000000000
 118        0.000000000
 119       -0.004721703
 120        0.000000000
 121        0.011121241
 122       -0.204888048
 123       -0.040584744
 124       -0.056279086
 125        0.016744914
 126       -0.029007229
 127        0.000000000
 128        0.015746436
 129       -0.027277666
 130        0.000000000
 131        0.000427973
 132       -0.000740693
 133        0.000000000
 134        0.007510501
 135        0.000000000
 136        0.000000000
 137       -0.000722304
 138       -0.001251538
 139        0.006704140
 140        0.000000000
 141        0.000000000
 142        0.000795755
 143        0.001378402
 144        0.000000000
 145       -0.000465672
 146        0.000806629
 147        0.000000000
 148        0.000000000
 149        0.004721824
 150       -0.000000246
 151        0.011121241
 152       -0.204888048
 153       -0.040584744
 154       -0.056279086
 155       -0.016744914
 156       -0.029007229
 157        0.000000000
 158       -0.015746436
 159       -0.027277666
 160        0.000000000
 161       -0.000427973
 162       -0.000740693
 163        0.000000000
 164        0.007510501
 165        0.000000000
 166        0.000000000
 167       -0.000722304
 168        0.001251538
 169        0.006704140
 170        0.000000000
 171        0.000000000
 172        0.000795755
 173       -0.001378402
 174        0.000000000
 175        0.000465672
 176        0.000806629
 177        0.000000000
 178        0.000000000
 179       -0.004721824
 180       -0.000000246
 181       -0.020715023
 182       -0.011296603
 183        0.000987336
 184       -0.001614509
 185        0.000000000
 186        0.000000000
 187        0.003434071
 188        0.000000000
 189        0.000000000
 190        0.000031073
 191        0.000000000
 192        0.000000000
 193        0.000630225
 194        0.000000000
 195       -0.020714935
 196       -0.011300334
 197        0.000987762
 198       -0.000807227
 199        0.001398227
 200        0.000000000
 201        0.001716209
 202       -0.002972673
 203        0.000000000
 204        0.000031077
 205        0.000000000
 206        0.000000000
 207       -0.000315072
 208       -0.000545725
 209       -0.020714935
 210       -0.011300334
 211        0.000987762
 212        0.000807227
 213        0.001398227
 214        0.000000000
 215       -0.001716209
 216       -0.002972673
 217        0.000000000
 218        0.000031077
 219        0.000000000
 220        0.000000000
 221       -0.000315072
 222        0.000545725
 223       -0.020715023
 224       -0.011296603
 225        0.000987336
 226        0.001614509
 227        0.000000000
 228        0.000000000
 229       -0.003434071
 230        0.000000000
 231        0.000000000
 232        0.000031073
 233        0.000000000
 234        0.000000000
 235        0.000630225
 236        0.000000000
 237       -0.020714935
 238       -0.011300334
 239        0.000987762
 240        0.000807227
 241       -0.001398227
 242        0.000000000
 243       -0.001716209
 244        0.002972673
 245        0.000000000
 246        0.000031077
 247        0.000000000
 248        0.000000000
 249       -0.000315072
 250       -0.000545725
 251       -0.020714935
 252       -0.011300334
 253        0.000987762
 254       -0.000807227
 255       -0.001398227
 256        0.000000000
 257        0.001716209
 258        0.002972673
 259        0.000000000
 260        0.000031077
 261        0.000000000
 262        0.000000000
 263       -0.000315072
 264        0.000545725
 Sym= Ag  
 Ene=        -0.814526
 Spin= Alpha
 Occup=       2.000000
   1        0.005490473
   2       -0.238772128
   3       -0.046007597
   4       -0.158179154
   5        0.032801916
   6        0.000000000
   7        0.000000000
   8        0.039624167
   9        0.000000000
  10        0.000000000
  11        0.005132373
  12        0.000000000
  13        0.000000000
  14        0.006878304
  15        0.000000000
  16        0.000000000
  17       -0.000307610
  18        0.000000000
  19        0.013564130
  20        0.000000000
  21        0.000000000
  22       -0.001432269
  23        0.000000000
  24        0.000000000
  25        0.000251047
  26        0.000000000
  27        0.000000000
  28        0.000000000
  29        0.006772525
  30        0.000000000
  31       -0.002745091
  32        0.119385190
  33        0.023003511
  34        0.079089579
  35        0.075674133
  36        0.062624270
  37        0.000000000
  38        0.084029546
  39        0.071385243
  40        0.000000000
  41        0.014023034
  42        0.011058518
  43        0.000000000
  44       -0.003439107
  45        0.000000000
  46        0.000000000
  47        0.006228373
  48       -0.003773595
  49       -0.006782129
  50        0.000000000