 Entering Gaussian System, Link 0=/apps/software/g16/g16
 Initial command:
 /apps/software/g16/l1.exe "/scratch/Gau-330858.inp" -scrdir="/scratch/"
 Entering Link 1 = /apps/software/g16/l1.exe PID=    330859.
  
 Copyright (c) 1988,1990,1992,1993,1995,1998,2003,2009,2016,
            Gaussian, Inc.  All Rights Reserved.
  
 This is part of the Gaussian(R) 16 program.  It is based on
 the Gaussian(R) 09 system (copyright 2009, Gaussian, Inc.),
 the Gaussian(R) 03 system (copyright 2003, Gaussian, Inc.),
 the Gaussian(R) 98 system (copyright 1998, Gaussian, Inc.),
 the Gaussian(R) 94 system (copyright 1995, Gaussian, Inc.),
 the Gaussian 92(TM) system (copyright 1992, Gaussian, Inc.),
 the Gaussian 90(TM) system (copyright 1990, Gaussian, Inc.),
 the Gaussian 88(TM) system (copyright 1988, Gaussian, Inc.),
 the Gaussian 86(TM) system (copyright 1986, Carnegie Mellon
 University), and the Gaussian 82(TM) system (copyright 1983,
 Carnegie Mellon University). Gaussian is a federally registered
 trademark of Gaussian, Inc.
  
 This software contains proprietary and confidential information,
 including trade secrets, belonging to Gaussian, Inc.
  
 This software is provided under written license and may be
 used, copied, transmitted, or stored only in accord with that
 written license.
  
 The following legend is applicable only to US Government
 contracts under FAR:
  
                    RESTRICTED RIGHTS LEGEND
  
 Use, reproduction and disclosure by the US Government is
 subject to restrictions as set forth in subparagraphs (a)
 and (c) of the Commercial Computer Software - Restricted
 Rights clause in FAR 52.227-19.
  
 Gaussian, Inc.
 340 Quinnipiac St., Bldg. 40, Wallingford CT 06492
  
  
 ---------------------------------------------------------------
 Warning -- This program may not be used in any manner that
 competes with the business of Gaussian, Inc. or will provide
 assistance to any competitor of Gaussian, Inc.  The licensee
 of this program is prohibited from giving any competitor of
 Gaussian, Inc. access to this program.  By using this program,
 the user acknowledges that Gaussian, Inc. is engaged in the
 business of creating and licensing software in the field of
 computational chemistry and represents and warrants to the
 licensee that it is not a competitor of Gaussian, Inc. and that
 it will not use this program in any manner prohibited above.
 ---------------------------------------------------------------
  

 Cite this work as:
 Gaussian 16, Revision A.03,
 M. J. Frisch, G. W. Trucks, H. B. Schlegel, G. E. Scuseria, 
 M. A. Robb, J. R. Cheeseman, G. Scalmani, V. Barone, 
 G. A. Petersson, H. Nakatsuji, X. Li, M. Caricato, A. V. Marenich, 
 J. Bloino, B. G. Janesko, R. Gomperts, B. Mennucci, H. P. Hratchian, 
 J. V. Ortiz, A. F. Izmaylov, J. L. Sonnenberg, D. Williams-Young, 
 F. Ding, F. Lipparini, F. Egidi, J. Goings, B. Peng, A. Petrone, 
 T. Henderson, D. Ranasinghe, V. G. Zakrzewski, J. Gao, N. Rega, 
 G. Zheng, W. Liang, M. Hada, M. Ehara, K. Toyota, R. Fukuda, 
 J. Hasegawa, M. Ishida, T. Nakajima, Y. Honda, O. Kitao, H. Nakai, 
 T. Vreven, K. Throssell, J. A. Montgomery, Jr., J. E. Peralta, 
 F. Ogliaro, M. J. Bearpark, J. J. Heyd, E. N. Brothers, K. N. Kudin, 
 V. N. Staroverov, T. A. Keith, R. Kobayashi, J. Normand, 
 K. Raghavachari, A. P. Rendell, J. C. Burant, S. S. Iyengar, 
 J. Tomasi, M. Cossi, J. M. Millam, M. Klene, C. Adamo, R. Cammi, 
 J. W. Ochterski, R. L. Martin, K. Morokuma, O. Farkas, 
 J. B. Foresman, and D. J. Fox, Gaussian, Inc., Wallingford CT, 2016.
 
 ******************************************
 Gaussian 16:  ES64L-G16RevA.03 25-Dec-2016
                15-May-2022 
 ******************************************
 %nprocshared=16
 Will use up to   16 processors via shared memory.
 -------------------------
 #p UHF/def2TZVP guess=mix
 -------------------------
 1/38=1,172=1/1;
 2/12=2,17=6,18=5,40=1/2;
 3/5=44,7=101,11=2,25=1,30=1,116=2/1,2,3;
 4/13=-1/1;
 5/5=2,38=5/2;
 6/7=2,8=2,9=2,10=2,28=1/1;
 99/5=1,9=1/99;
 Leave Link    1 at Sun May 15 09:42:16 2022, MaxMem=           0 cpu:               0.2 elap:               0.0
 (Enter /apps/software/g16/l101.exe)
 ------------
 [Fe(H2O)6]2+
 ------------
 Symbolic Z-matrix:
 Charge =  2 Multiplicity = 3
 Fe                   -0.64257   0.51804   0.11515 
 O                     0.11175   2.15027  -0.78003 
 H                     0.70767   2.71591  -0.25347 
 O                    -1.31194  -0.30254  -1.59154 
 H                    -1.93648   0.13093  -2.20091 
 O                     0.02721   1.33941   1.82123 
 H                     0.65259   0.90687   2.4304 
 O                    -1.39648  -1.11445   1.01024 
 H                    -1.99331  -1.6794    0.48397 
 O                    -2.28682   1.63341   0.41005 
 H                    -2.35377   2.47291  -0.08302 
 O                     1.00194  -0.59712  -0.1795 
 H                     1.06808  -1.43759   0.31203 
 H                    -3.18922   1.2728    0.48036 
 H                    -0.66522  -0.78352  -2.14179 
 H                     1.90455  -0.23678  -0.24845 
 H                     0.43777   2.17114  -1.69794 
 H                    -0.61876   1.82124   2.3716 
 H                    -1.72126  -1.13595   1.92857 
 
 ITRead=  0  0  0  0  0  0  0  0  0  0  0  0  0  0  0  0  0  0  0
 MicOpt= -1 -1 -1 -1 -1 -1 -1 -1 -1 -1 -1 -1 -1 -1 -1 -1 -1 -1 -1
 NAtoms=     19 NQM=       19 NQMF=       0 NMMI=      0 NMMIF=      0
                NMic=       0 NMicF=      0.
                    Isotopes and Nuclear Properties:
 (Nuclear quadrupole moments (NQMom) in fm**2, nuclear magnetic moments (NMagM)
  in nuclear magnetons)

  Atom         1           2           3           4           5           6           7           8           9          10
 IAtWgt=          56          16           1          16           1          16           1          16           1          16
 AtmWgt=  55.9349393  15.9949146   1.0078250  15.9949146   1.0078250  15.9949146   1.0078250  15.9949146   1.0078250  15.9949146
 NucSpn=           0           0           1           0           1           0           1           0           1           0
 AtZEff=  -0.0000000  -0.0000000  -0.0000000  -0.0000000  -0.0000000  -0.0000000  -0.0000000  -0.0000000  -0.0000000  -0.0000000
 NQMom=    0.0000000   0.0000000   0.0000000   0.0000000   0.0000000   0.0000000   0.0000000   0.0000000   0.0000000   0.0000000
 NMagM=    0.0000000   0.0000000   2.7928460   0.0000000   2.7928460   0.0000000   2.7928460   0.0000000   2.7928460   0.0000000
 AtZNuc=  26.0000000   8.0000000   1.0000000   8.0000000   1.0000000   8.0000000   1.0000000   8.0000000   1.0000000   8.0000000

  Atom        11          12          13          14          15          16          17          18          19
 IAtWgt=           1          16           1           1           1           1           1           1           1
 AtmWgt=   1.0078250  15.9949146   1.0078250   1.0078250   1.0078250   1.0078250   1.0078250   1.0078250   1.0078250
 NucSpn=           1           0           1           1           1           1           1           1           1
 AtZEff=  -0.0000000  -0.0000000  -0.0000000  -0.0000000  -0.0000000  -0.0000000  -0.0000000  -0.0000000  -0.0000000
 NQMom=    0.0000000   0.0000000   0.0000000   0.0000000   0.0000000   0.0000000   0.0000000   0.0000000   0.0000000
 NMagM=    2.7928460   0.0000000   2.7928460   2.7928460   2.7928460   2.7928460   2.7928460   2.7928460   2.7928460
 AtZNuc=   1.0000000   8.0000000   1.0000000   1.0000000   1.0000000   1.0000000   1.0000000   1.0000000   1.0000000
 Leave Link  101 at Sun May 15 09:42:16 2022, MaxMem=   104857600 cpu:               1.3 elap:               0.1
 (Enter /apps/software/g16/l202.exe)
                          Input orientation:                          
 ---------------------------------------------------------------------
 Center     Atomic      Atomic             Coordinates (Angstroms)
 Number     Number       Type             X           Y           Z
 ---------------------------------------------------------------------
      1         26           0       -0.642572    0.518039    0.115153
      2          8           0        0.111747    2.150274   -0.780033
      3          1           0        0.707668    2.715906   -0.253469
      4          8           0       -1.311938   -0.302544   -1.591540
      5          1           0       -1.936484    0.130931   -2.200908
      6          8           0        0.027209    1.339406    1.821227
      7          1           0        0.652588    0.906869    2.430403
      8          8           0       -1.396481   -1.114448    1.010239
      9          1           0       -1.993314   -1.679405    0.483975
     10          8           0       -2.286820    1.633408    0.410054
     11          1           0       -2.353770    2.472911   -0.083018
     12          8           0        1.001944   -0.597123   -0.179502
     13          1           0        1.068078   -1.437588    0.312025
     14          1           0       -3.189221    1.272802    0.480364
     15          1           0       -0.665220   -0.783520   -2.141795
     16          1           0        1.904546   -0.236783   -0.248450
     17          1           0        0.437767    2.171136   -1.697943
     18          1           0       -0.618756    1.821240    2.371599
     19          1           0       -1.721260   -1.135950    1.928569
 ---------------------------------------------------------------------
                    Distance matrix (angstroms):
                    1          2          3          4          5
     1  Fe   0.000000
     2  O    2.008617   0.000000
     3  H    2.605695   0.975875   0.000000
     4  O    2.008534   2.949871   3.870438   0.000000
     5  H    2.681081   3.208095   4.179253   0.974314   0.000000
     6  O    2.008467   2.726024   2.581112   4.017000   4.636169
     7  H    2.681233   3.485034   3.237100   4.636601   5.362314
     8  O    2.008625   4.017242   4.549287   2.726828   3.486264
     9  H    2.605627   4.549223   5.211323   2.582204   3.238694
    10  O    2.008623   2.727009   3.252541   2.950370   3.032704
    11  H    2.605570   2.582382   3.075793   3.326289   3.185035
    12  O    2.008691   2.949793   3.326896   2.726661   3.640124
    13  H    2.605678   3.870389   4.207279   3.252132   4.219298
    14  H    2.681132   3.640734   4.219811   3.209158   3.172135
    15  H    2.605452   3.326442   4.206731   0.975891   1.567108
    16  H    2.681376   3.032285   3.186051   3.486257   4.324444
    17  H    2.680891   0.974312   1.567204   3.031812   3.170563
    18  H    2.605849   3.251873   3.074216   4.549442   5.049887
    19  H    2.680994   4.636346   5.049532   3.640505   4.324799
                    6          7          8          9         10
     6  O    0.000000
     7  H    0.974311   0.000000
     8  O    2.950592   3.209559   0.000000
     9  H    3.870914   4.180692   0.975879   0.000000
    10  O    2.726276   3.640026   2.950194   3.326611   0.000000
    11  H    3.252698   4.219948   3.870498   4.206321   0.975893
    12  O    2.950113   3.032432   2.726820   3.253168   4.017314
    13  H    3.327581   3.186948   2.581854   3.075737   4.549282
    14  H    3.485365   4.323893   3.032103   3.185237   0.974324
    15  H    4.548825   5.049656   3.252626   3.075892   3.870796
    16  H    3.208166   3.170425   3.640244   4.220299   4.636680
    17  H    3.639353   4.322935   4.636138   5.049513   3.486571
    18  H    0.975881   1.567114   3.328125   4.207974   2.581739
    19  H    3.032499   3.171766   0.974307   1.567229   3.208597
                   11         12         13         14         15
    11  H    0.000000
    12  O    4.549201   0.000000
    13  H    5.211248   0.975886   0.000000
    14  H    1.567047   4.636584   5.049668   0.000000
    15  H    4.206436   2.581622   3.074632   4.180282   0.000000
    16  H    5.050056   0.974316   1.567082   5.362507   3.238421
    17  H    3.239094   3.207370   4.178536   4.325167   3.184898
    18  H    3.075726   3.870822   4.207994   3.238030   5.211300
    19  H    4.179764   3.485704   3.237994   3.170851   4.219868
                   16         17         18         19
    16  H    0.000000
    17  H    3.170260   0.000000
    18  H    4.179374   4.218986   0.000000
    19  H    4.323701   5.361884   3.186967   0.000000
 Stoichiometry    FeH12O6(2+,3)
 Framework group  C1[X(FeH12O6)]
 Deg. of freedom    51
 Full point group                 C1      NOp   1
 Largest Abelian subgroup         C1      NOp   1
 Largest concise Abelian subgroup C1      NOp   1
                         Standard orientation:                         
 ---------------------------------------------------------------------
 Center     Atomic      Atomic             Coordinates (Angstroms)
 Number     Number       Type             X           Y           Z
 ---------------------------------------------------------------------
      1         26           0        0.000065    0.000163   -0.000017
      2          8           0       -1.246719   -1.256779    0.948755
      3          1           0       -1.906773   -1.728539    0.406440
      4          8           0        1.248166    0.192856    1.561816
      5          1           0        0.978517    0.504619    2.444641
      6          8           0       -1.248574   -0.193244   -1.561244
      7          1           0       -0.979714   -0.505995   -2.443958
      8          8           0        1.247144    1.256732   -0.948912
      9          1           0        1.906411    1.729332   -0.406365
     10          8           0       -1.247341    1.449656    0.614407
     11          1           0       -1.905699    1.215874    1.295786
     12          8           0        1.247217   -1.449530   -0.614705
     13          1           0        1.906902   -1.215343   -1.294651
     14          1           0       -0.977458    2.370268    0.784533
     15          1           0        1.907641   -0.513331    1.698765
     16          1           0        0.977196   -2.369840   -0.786194
     17          1           0       -0.975734   -1.865439    1.659658
     18          1           0       -1.908858    0.512144   -1.698350
     19          1           0        0.976718    1.864477   -1.660803
 ---------------------------------------------------------------------
 Rotational constants (GHZ):           1.7156112           1.5579535           1.5576482
 Leave Link  202 at Sun May 15 09:42:16 2022, MaxMem=   104857600 cpu:               0.1 elap:               0.0
 (Enter /apps/software/g16/l301.exe)
 Standard basis: def2TZVP (5D, 7F)
 Ernie: Thresh=  0.10000D-02 Tol=  0.10000D-05 Strict=F.
 There are   340 symmetry adapted cartesian basis functions of A   symmetry.
 There are   303 symmetry adapted basis functions of A   symmetry.
   303 basis functions,   504 primitive gaussians,   340 cartesian basis functions
    43 alpha electrons       41 beta electrons
       nuclear repulsion energy       695.7934702665 Hartrees.
 IExCor=    0 DFT=F Ex=HF Corr=None ExCW=0 ScaHFX=  1.000000
 ScaDFX=  1.000000  1.000000  1.000000  1.000000 ScalE2=  1.000000  1.000000
 IRadAn=      5 IRanWt=     -1 IRanGd=            0 ICorTp=0 IEmpDi=  4
 NAtoms=   19 NActive=   19 NUniq=   19 SFac= 1.00D+00 NAtFMM=   60 NAOKFM=F Big=F
 Integral buffers will be    131072 words long.
 Raffenetti 2 integral format.
 Two-electron integral symmetry is turned on.
 Leave Link  301 at Sun May 15 09:42:17 2022, MaxMem=   104857600 cpu:               0.8 elap:               0.1
 (Enter /apps/software/g16/l302.exe)
 NPDir=0 NMtPBC=     1 NCelOv=     1 NCel=       1 NClECP=     1 NCelD=      1
         NCelK=      1 NCelE2=     1 NClLst=     1 CellRange=     0.0.
 One-electron integrals computed using PRISM.
 One-electron integral symmetry used in STVInt
 PrsmSu:  requested number of processors reduced to:  13 ShMem   1 Linda.
   1 Symmetry operations used in ECPInt.
 ECPInt:  NShTT=    8385 NPrTT=   26333 LenC2=    8206 LenP2D=   19816.
 LDataN:  DoStor=T MaxTD1= 6 Len=  172
 NBasis=   303 RedAO= T EigKep=  1.62D-03  NBF=   303
 NBsUse=   303 1.00D-06 EigRej= -1.00D+00 NBFU=   303
 Leave Link  302 at Sun May 15 09:42:17 2022, MaxMem=   104857600 cpu:               2.8 elap:               0.2
 (Enter /apps/software/g16/l303.exe)
 DipDrv:  MaxL=1.
 Leave Link  303 at Sun May 15 09:42:17 2022, MaxMem=   104857600 cpu:               0.5 elap:               0.1
 (Enter /apps/software/g16/l401.exe)
 ExpMin= 4.20D-02 ExpMax= 3.01D+05 ExpMxC= 2.91D+03 IAcc=3 IRadAn=         5 AccDes= 0.00D+00
 Harris functional with IExCor=  205 and IRadAn=       5 diagonalized for initial guess.
 HarFok:  IExCor=  205 AccDes= 0.00D+00 IRadAn=         5 IDoV= 1 UseB2=F ITyADJ=14
 ICtDFT=  3500011 ScaDFX=  1.000000  1.000000  1.000000  1.000000
 FoFCou: FMM=F IPFlag=           0 FMFlag=      100000 FMFlg1=           0
         NFxFlg=           0 DoJE=T BraDBF=F KetDBF=T FulRan=T
         wScrn=  0.000000 ICntrl=       500 IOpCl=  0 I1Cent=   200000004 NGrid=           0
         NMat0=    1 NMatS0=      1 NMatT0=    0 NMatD0=    1 NMtDS0=    0 NMtDT0=    0
 Petite list used in FoFCou.
 Harris En= -1718.36095950106    
 JPrj=0 DoOrth=F DoCkMO=T.
 Mixing orbitals, IMix= 1 IMixAn=  0 NRI=1 NE=   43 Coef=  7.07106781D-01  7.07106781D-01
 Mixing orbitals, IMix= 1 IMixAn=  0 NRI=1 NE=   41 Coef= -7.07106781D-01  7.07106781D-01
 Initial guess <Sx>= 0.0000 <Sy>= 0.0000 <Sz>= 1.0000 <S**2>= 2.0000 S= 1.0000
 Leave Link  401 at Sun May 15 09:42:17 2022, MaxMem=   104857600 cpu:               6.6 elap:               0.4
 (Enter /apps/software/g16/l502.exe)
 Integral symmetry usage will be decided dynamically.
 UHF open shell SCF:
 Using DIIS extrapolation, IDIIS=  1040.
 NGot=   104857600 LenX=   104617651 LenY=   104501610
 Requested convergence on RMS density matrix=1.00D-08 within 128 cycles.
 Requested convergence on MAX density matrix=1.00D-06.
 Requested convergence on             energy=1.00D-06.
 No special actions if energy rises.
 Fock matrices will be formed incrementally for  20 cycles.

 Cycle   1  Pass 0  IDiag  1:
 FoFJK:  IHMeth= 1 ICntrl=       0 DoSepK=F KAlg= 0 I1Cent=           0 FoldK=F
 IRaf= 950000000 NMat=       1 IRICut=       1 DoRegI=T DoRafI=F ISym2E= 0 IDoP0=0 IntGTp=1.
 FoFCou: FMM=F IPFlag=           0 FMFlag=      100000 FMFlg1=           0
         NFxFlg=           0 DoJE=F BraDBF=F KetDBF=F FulRan=T
         wScrn=  0.000000 ICntrl=         0 IOpCl=  1 I1Cent=           0 NGrid=           0
         NMat0=    1 NMatS0=      1 NMatT0=    0 NMatD0=    1 NMtDS0=    0 NMtDT0=    0
 Symmetry not used in FoFCou.
 E= -1717.86644138401    
 DIIS: error= 7.07D-02 at cycle   1 NSaved=   1.
 NSaved= 1 IEnMin= 1 EnMin= -1717.86644138401     IErMin= 1 ErrMin= 7.07D-02
 ErrMax= 7.07D-02  0.00D+00 EMaxC= 1.00D-01 BMatC= 4.59D+00 BMatP= 4.59D+00
 IDIUse=3 WtCom= 2.93D-01 WtEn= 7.07D-01
 Coeff-Com:  0.100D+01
 Coeff-En:   0.100D+01
 Coeff:      0.100D+01
 Gap=     0.659 Goal=   None    Shift=    0.000
 Gap=     0.699 Goal=   None    Shift=    0.000
 GapD=    0.659 DampG=2.000 DampE=0.250 DampFc=0.5000 IDamp=-1.
 Damping current iteration by 5.00D-01
 RMSDP=1.82D-03 MaxDP=9.46D-02              OVMax= 1.10D-01

 Cycle   2  Pass 0  IDiag  1:
 RMSU=  9.01D-04    CP:  9.92D-01
 E= -1718.08844683019     Delta-E=       -0.222005446180 Rises=F Damp=T
 DIIS: error= 3.31D-02 at cycle   2 NSaved=   2.
 NSaved= 2 IEnMin= 2 EnMin= -1718.08844683019     IErMin= 2 ErrMin= 3.31D-02
 ErrMax= 3.31D-02  0.00D+00 EMaxC= 1.00D-01 BMatC= 9.44D-01 BMatP= 4.59D+00
 IDIUse=3 WtCom= 6.69D-01 WtEn= 3.31D-01
 Coeff-Com: -0.571D+00 0.157D+01
 Coeff-En:   0.000D+00 0.100D+01
 Coeff:     -0.382D+00 0.138D+01
 Gap=     0.547 Goal=   None    Shift=    0.000
 Gap=     0.531 Goal=   None    Shift=    0.000
 RMSDP=7.34D-04 MaxDP=4.24D-02 DE=-2.22D-01 OVMax= 5.17D-02

 Cycle   3  Pass 0  IDiag  1:
 RMSU=  6.04D-04    CP:  9.89D-01  1.46D+00
 E= -1718.31334293142     Delta-E=       -0.224896101223 Rises=F Damp=F
 DIIS: error= 5.39D-03 at cycle   3 NSaved=   3.
 NSaved= 3 IEnMin= 3 EnMin= -1718.31334293142     IErMin= 3 ErrMin= 5.39D-03
 ErrMax= 5.39D-03  0.00D+00 EMaxC= 1.00D-01 BMatC= 2.86D-02 BMatP= 9.44D-01
 IDIUse=3 WtCom= 9.46D-01 WtEn= 5.39D-02
 Coeff-Com: -0.124D+00 0.186D+00 0.938D+00
 Coeff-En:   0.000D+00 0.000D+00 0.100D+01
 Coeff:     -0.117D+00 0.176D+00 0.941D+00
 Gap=     0.566 Goal=   None    Shift=    0.000
 Gap=     0.554 Goal=   None    Shift=    0.000
 RMSDP=1.98D-04 MaxDP=8.53D-03 DE=-2.25D-01 OVMax= 2.75D-02

 Cycle   4  Pass 0  IDiag  1:
 RMSU=  1.43D-04    CP:  9.88D-01  1.56D+00  1.17D+00
 E= -1718.32139139308     Delta-E=       -0.008048461667 Rises=F Damp=F
 DIIS: error= 2.91D-03 at cycle   4 NSaved=   4.
 NSaved= 4 IEnMin= 4 EnMin= -1718.32139139308     IErMin= 4 ErrMin= 2.91D-03
 ErrMax= 2.91D-03  0.00D+00 EMaxC= 1.00D-01 BMatC= 3.83D-03 BMatP= 2.86D-02
 IDIUse=3 WtCom= 9.71D-01 WtEn= 2.91D-02
 Coeff-Com:  0.685D-02-0.236D-01 0.528D-01 0.964D+00
 Coeff-En:   0.000D+00 0.000D+00 0.000D+00 0.100D+01
 Coeff:      0.665D-02-0.229D-01 0.513D-01 0.965D+00
 Gap=     0.555 Goal=   None    Shift=    0.000
 Gap=     0.540 Goal=   None    Shift=    0.000
 RMSDP=8.77D-05 MaxDP=7.36D-03 DE=-8.05D-03 OVMax= 2.32D-02

 Cycle   5  Pass 0  IDiag  1:
 RMSU=  6.85D-05    CP:  9.87D-01  1.57D+00  1.24D+00  1.22D+00
 E= -1718.32330692510     Delta-E=       -0.001915532016 Rises=F Damp=F
 DIIS: error= 2.62D-03 at cycle   5 NSaved=   5.
 NSaved= 5 IEnMin= 5 EnMin= -1718.32330692510     IErMin= 5 ErrMin= 2.62D-03
 ErrMax= 2.62D-03  0.00D+00 EMaxC= 1.00D-01 BMatC= 1.82D-03 BMatP= 3.83D-03
 IDIUse=3 WtCom= 9.74D-01 WtEn= 2.62D-02
 Coeff-Com:  0.266D-01-0.465D-01-0.162D+00 0.336D+00 0.846D+00
 Coeff-En:   0.000D+00 0.000D+00 0.000D+00 0.000D+00 0.100D+01
 Coeff:      0.259D-01-0.453D-01-0.158D+00 0.327D+00 0.850D+00
 Gap=     0.561 Goal=   None    Shift=    0.000
 Gap=     0.548 Goal=   None    Shift=    0.000
 RMSDP=7.11D-05 MaxDP=6.02D-03 DE=-1.92D-03 OVMax= 2.32D-02

 Cycle   6  Pass 0  IDiag  1:
 RMSU=  3.65D-05    CP:  9.87D-01  1.58D+00  1.29D+00  1.53D+00  1.45D+00
 E= -1718.32470281770     Delta-E=       -0.001395892602 Rises=F Damp=F
 DIIS: error= 2.46D-03 at cycle   6 NSaved=   6.
 NSaved= 6 IEnMin= 6 EnMin= -1718.32470281770     IErMin= 6 ErrMin= 2.46D-03
 ErrMax= 2.46D-03  0.00D+00 EMaxC= 1.00D-01 BMatC= 1.06D-03 BMatP= 1.82D-03
 IDIUse=3 WtCom= 9.75D-01 WtEn= 2.46D-02
 Coeff-Com: -0.217D-01 0.409D-01 0.124D+00-0.427D+00-0.710D+00 0.199D+01
 Coeff-En:   0.000D+00 0.000D+00 0.000D+00 0.000D+00 0.000D+00 0.100D+01
 Coeff:     -0.211D-01 0.399D-01 0.121D+00-0.416D+00-0.692D+00 0.197D+01
 Gap=     0.562 Goal=   None    Shift=    0.000
 Gap=     0.550 Goal=   None    Shift=    0.000
 RMSDP=1.18D-04 MaxDP=1.06D-02 DE=-1.40D-03 OVMax= 4.44D-02

 Cycle   7  Pass 0  IDiag  1:
 RMSU=  1.94D-05    CP:  9.87D-01  1.58D+00  1.32D+00  1.88D+00  2.59D+00
                    CP:  2.84D+00
 E= -1718.32685915941     Delta-E=       -0.002156341712 Rises=F Damp=F
 DIIS: error= 2.09D-03 at cycle   7 NSaved=   7.
 NSaved= 7 IEnMin= 7 EnMin= -1718.32685915941     IErMin= 7 ErrMin= 2.09D-03
 ErrMax= 2.09D-03  0.00D+00 EMaxC= 1.00D-01 BMatC= 7.97D-04 BMatP= 1.06D-03
 IDIUse=3 WtCom= 9.79D-01 WtEn= 2.09D-02
 Coeff-Com: -0.969D-02 0.148D-01 0.642D-01 0.148D-01-0.965D-01-0.165D+01
 Coeff-Com:  0.267D+01
 Coeff-En:   0.000D+00 0.000D+00 0.000D+00 0.000D+00 0.000D+00 0.000D+00
 Coeff-En:   0.100D+01
 Coeff:     -0.949D-02 0.145D-01 0.628D-01 0.145D-01-0.945D-01-0.162D+01
 Coeff:      0.263D+01
 Gap=     0.562 Goal=   None    Shift=    0.000
 Gap=     0.552 Goal=   None    Shift=    0.000
 RMSDP=2.14D-04 MaxDP=1.71D-02 DE=-2.16D-03 OVMax= 8.29D-02

 Cycle   8  Pass 0  IDiag  1:
 RMSU=  1.68D-04    CP:  9.87D-01  1.59D+00  1.36D+00  2.40D+00  3.00D+00
                    CP:  3.00D+00  3.00D+00
 E= -1718.33004311502     Delta-E=       -0.003183955610 Rises=F Damp=F
 DIIS: error= 1.35D-03 at cycle   8 NSaved=   8.
 NSaved= 8 IEnMin= 8 EnMin= -1718.33004311502     IErMin= 8 ErrMin= 1.35D-03
 ErrMax= 1.35D-03  0.00D+00 EMaxC= 1.00D-01 BMatC= 5.33D-04 BMatP= 7.97D-04
 IDIUse=3 WtCom= 9.87D-01 WtEn= 1.35D-02
 Coeff-Com:  0.868D-02-0.151D-01-0.519D-01 0.116D+00 0.397D+00-0.311D+00
 Coeff-Com: -0.680D+00 0.154D+01
 Coeff-En:   0.000D+00 0.000D+00 0.000D+00 0.000D+00 0.000D+00 0.000D+00
 Coeff-En:   0.000D+00 0.100D+01
 Coeff:      0.857D-02-0.149D-01-0.512D-01 0.115D+00 0.391D+00-0.307D+00
 Coeff:     -0.671D+00 0.153D+01
 Gap=     0.562 Goal=   None    Shift=    0.000
 Gap=     0.553 Goal=   None    Shift=    0.000
 RMSDP=1.03D-04 MaxDP=7.89D-03 DE=-3.18D-03 OVMax= 4.16D-02

 Cycle   9  Pass 0  IDiag  1:
 RMSU=  4.27D-05    CP:  9.86D-01  1.59D+00  1.38D+00  2.61D+00  3.00D+00
                    CP:  3.00D+00  3.00D+00  1.53D+00
 E= -1718.33138648972     Delta-E=       -0.001343374696 Rises=F Damp=F
 DIIS: error= 1.10D-03 at cycle   9 NSaved=   9.
 NSaved= 9 IEnMin= 9 EnMin= -1718.33138648972     IErMin= 9 ErrMin= 1.10D-03
 ErrMax= 1.10D-03  0.00D+00 EMaxC= 1.00D-01 BMatC= 4.70D-04 BMatP= 5.33D-04
 IDIUse=3 WtCom= 9.89D-01 WtEn= 1.10D-02
 Coeff-Com: -0.133D-02 0.351D-02 0.705D-02-0.776D-01-0.112D+00 0.751D+00
 Coeff-Com: -0.691D+00-0.434D+00 0.156D+01
 Coeff-En:   0.000D+00 0.000D+00 0.000D+00 0.000D+00 0.000D+00 0.000D+00
 Coeff-En:   0.000D+00 0.000D+00 0.100D+01
 Coeff:     -0.131D-02 0.347D-02 0.697D-02-0.767D-01-0.111D+00 0.742D+00
 Coeff:     -0.684D+00-0.429D+00 0.155D+01
 Gap=     0.563 Goal=   None    Shift=    0.000
 Gap=     0.552 Goal=   None    Shift=    0.000
 RMSDP=7.15D-05 MaxDP=5.60D-03 DE=-1.34D-03 OVMax= 2.76D-02

 Cycle  10  Pass 0  IDiag  1:
 RMSU=  1.76D-05    CP:  9.86D-01  1.59D+00  1.38D+00  2.71D+00  3.00D+00
                    CP:  3.00D+00  3.00D+00  1.82D+00  2.08D+00
 E= -1718.33234690821     Delta-E=       -0.000960418494 Rises=F Damp=F
 DIIS: error= 1.05D-03 at cycle  10 NSaved=  10.
 NSaved=10 IEnMin=10 EnMin= -1718.33234690821     IErMin=10 ErrMin= 1.05D-03
 ErrMax= 1.05D-03  0.00D+00 EMaxC= 1.00D-01 BMatC= 4.74D-04 BMatP= 4.70D-04
 IDIUse=3 WtCom= 9.89D-01 WtEn= 1.05D-02
 Coeff-Com: -0.273D-02 0.625D-02 0.155D-01-0.113D+00-0.188D+00 0.979D+00
 Coeff-Com: -0.806D+00-0.785D+00 0.255D+01-0.657D+00
 Coeff-En:   0.000D+00 0.000D+00 0.000D+00 0.000D+00 0.000D+00 0.000D+00
 Coeff-En:   0.000D+00 0.000D+00 0.000D+00 0.100D+01
 Coeff:     -0.270D-02 0.619D-02 0.153D-01-0.112D+00-0.186D+00 0.968D+00
 Coeff:     -0.797D+00-0.776D+00 0.252D+01-0.640D+00
 Gap=     0.562 Goal=   None    Shift=    0.000
 Gap=     0.553 Goal=   None    Shift=    0.000
 RMSDP=2.28D-05 MaxDP=2.03D-03 DE=-9.60D-04 OVMax= 7.60D-03

 Cycle  11  Pass 0  IDiag  1:
 RMSU=  2.22D-06    CP:  9.86D-01  1.59D+00  1.38D+00  2.69D+00  3.00D+00
                    CP:  3.00D+00  3.00D+00  1.75D+00  1.69D+00  4.43D-01
 E= -1718.33204516978     Delta-E=        0.000301738435 Rises=F Damp=F
 DIIS: error= 1.03D-03 at cycle  11 NSaved=  11.
 NSaved=11 IEnMin=10 EnMin= -1718.33234690821     IErMin=11 ErrMin= 1.03D-03
 ErrMax= 1.03D-03  0.00D+00 EMaxC= 1.00D-01 BMatC= 4.66D-04 BMatP= 4.70D-04
 IDIUse=3 WtCom= 9.90D-01 WtEn= 1.03D-02
 Rare condition: small coef for last iteration:  0.000D+00
 Coeff-Com: -0.778D-02 0.154D-01 0.457D-01-0.194D+00-0.419D+00 0.130D+01
 Coeff-Com: -0.630D+00-0.164D+01 0.317D+01-0.652D+01 0.588D+01
 Coeff-En:   0.000D+00 0.000D+00 0.000D+00 0.000D+00 0.000D+00 0.000D+00
 Coeff-En:   0.000D+00 0.000D+00 0.000D+00 0.000D+00 0.100D+01
 Coeff:     -0.778D-02 0.154D-01 0.457D-01-0.194D+00-0.419D+00 0.130D+01
 Coeff:     -0.630D+00-0.164D+01 0.317D+01-0.652D+01 0.588D+01
 Gap=     0.562 Goal=   None    Shift=    0.000
 Gap=     0.552 Goal=   None    Shift=    0.000
 RMSDP=1.10D-04 MaxDP=9.63D-03 DE= 3.02D-04 OVMax= 3.42D-02

 Cycle  12  Pass 0  IDiag  1:
 RMSU=  1.58D-05    CP:  9.86D-01  1.59D+00  1.38D+00  2.64D+00  3.00D+00
                    CP:  3.00D+00  3.00D+00  1.49D+00 -2.47D-01 -2.63D+00
                    CP:  3.00D+00
 E= -1718.33071598922     Delta-E=        0.001329180559 Rises=F Damp=F
 DIIS: error= 9.38D-04 at cycle  12 NSaved=  12.
 NSaved=12 IEnMin=10 EnMin= -1718.33234690821     IErMin=12 ErrMin= 9.38D-04
 ErrMax= 9.38D-04  0.00D+00 EMaxC= 1.00D-01 BMatC= 4.08D-04 BMatP= 4.66D-04
 IDIUse=3 WtCom= 9.91D-01 WtEn= 9.38D-03
 Rare condition: small coef for last iteration:  0.000D+00
 Coeff-Com:  0.819D-02-0.150D-01-0.494D-01 0.158D+00 0.506D+00-0.830D+00
 Coeff-Com:  0.758D-01 0.203D+01-0.636D+01 0.660D+01-0.501D+01 0.389D+01
 Coeff-En:   0.000D+00 0.000D+00 0.000D+00 0.000D+00 0.000D+00 0.000D+00
 Coeff-En:   0.000D+00 0.000D+00 0.000D+00 0.000D+00 0.000D+00 0.100D+01
 Coeff:      0.819D-02-0.150D-01-0.494D-01 0.158D+00 0.506D+00-0.830D+00
 Coeff:      0.758D-01 0.203D+01-0.636D+01 0.660D+01-0.501D+01 0.389D+01
 Gap=     0.562 Goal=   None    Shift=    0.000
 Gap=     0.548 Goal=   None    Shift=    0.000
 RMSDP=9.09D-05 MaxDP=9.41D-03 DE= 1.33D-03 OVMax= 3.02D-02

 Problem detected with inexpensive integrals.
 Switching to full accuracy and repeating last cycle.
 Cycle  13  Pass 1  IDiag  1:
 E= -1718.33071598922     Delta-E=       -0.000000000002 Rises=F Damp=F
 DIIS: error= 9.38D-04 at cycle   1 NSaved=   1.
 NSaved= 1 IEnMin= 1 EnMin= -1718.33071598922     IErMin= 1 ErrMin= 9.38D-04
 ErrMax= 9.38D-04  0.00D+00 EMaxC= 1.00D-01 BMatC= 4.08D-04 BMatP= 4.08D-04
 IDIUse=3 WtCom= 9.91D-01 WtEn= 9.38D-03
 Coeff-Com:  0.100D+01
 Coeff-En:   0.100D+01
 Coeff:      0.100D+01
 Gap=     0.562 Goal=   None    Shift=    0.000
 Gap=     0.553 Goal=   None    Shift=    0.000
 RMSDP=3.36D-05 MaxDP=2.76D-03 DE=-1.82D-12 OVMax= 1.26D-02

 Cycle  14  Pass 1  IDiag  1:
 RMSU=  3.36D-05    CP:  1.00D+00
 E= -1718.33113767169     Delta-E=       -0.000421682463 Rises=F Damp=F
 DIIS: error= 8.86D-04 at cycle   2 NSaved=   2.
 NSaved= 2 IEnMin= 2 EnMin= -1718.33113767169     IErMin= 2 ErrMin= 8.86D-04
 ErrMax= 8.86D-04  0.00D+00 EMaxC= 1.00D-01 BMatC= 4.06D-04 BMatP= 4.08D-04
 IDIUse=3 WtCom= 9.91D-01 WtEn= 8.86D-03
 Coeff-Com:  0.250D+00 0.750D+00
 Coeff-En:   0.000D+00 0.100D+01
 Coeff:      0.247D+00 0.753D+00
 Gap=     0.562 Goal=   None    Shift=    0.000
 Gap=     0.553 Goal=   None    Shift=    0.000
 RMSDP=2.53D-05 MaxDP=2.14D-03 DE=-4.22D-04 OVMax= 9.43D-03

 Cycle  15  Pass 1  IDiag  1:
 RMSU=  2.26D-06    CP:  1.00D+00  1.75D+00
 E= -1718.33145613810     Delta-E=       -0.000318466411 Rises=F Damp=F
 DIIS: error= 8.55D-04 at cycle   3 NSaved=   3.
 NSaved= 3 IEnMin= 3 EnMin= -1718.33145613810     IErMin= 3 ErrMin= 8.55D-04
 ErrMax= 8.55D-04  0.00D+00 EMaxC= 1.00D-01 BMatC= 4.08D-04 BMatP= 4.06D-04
 IDIUse=3 WtCom= 9.91D-01 WtEn= 8.55D-03
 Coeff-Com:  0.280D+00 0.111D+01-0.392D+00
 Coeff-En:   0.000D+00 0.000D+00 0.100D+01
 Coeff:      0.278D+00 0.110D+01-0.380D+00
 Gap=     0.562 Goal=   None    Shift=    0.000
 Gap=     0.553 Goal=   None    Shift=    0.000
 RMSDP=1.07D-05 MaxDP=8.97D-04 DE=-3.18D-04 OVMax= 3.94D-03

 Cycle  16  Pass 1  IDiag  1:
 RMSU=  6.48D-07    CP:  1.00D+00  1.43D+00  5.16D-01
 E= -1718.33132154166     Delta-E=        0.000134596437 Rises=F Damp=F
 DIIS: error= 8.65D-04 at cycle   4 NSaved=   4.
 NSaved= 4 IEnMin= 3 EnMin= -1718.33145613810     IErMin= 3 ErrMin= 8.55D-04
 ErrMax= 8.65D-04  0.00D+00 EMaxC= 1.00D-01 BMatC= 4.06D-04 BMatP= 4.06D-04
 IDIUse=3 WtCom= 9.91D-01 WtEn= 8.65D-03
 Large coefficients: NSaved=  4 BigCof=   14.82 CofMax=   10.00 Det=-4.95D-08
 Inversion failed.  Reducing to  3 matrices.
 Rare condition: small coef for last iteration:  0.000D+00
 Coeff-Com:  0.103D+01-0.531D+01 0.529D+01
 Coeff-En:   0.000D+00 0.000D+00 0.100D+01
 Coeff:      0.103D+01-0.531D+01 0.529D+01
 Gap=     0.562 Goal=   None    Shift=    0.000
 Gap=     0.553 Goal=   None    Shift=    0.000
 RMSDP=3.90D-05 MaxDP=3.30D-03 DE= 1.35D-04 OVMax= 1.40D-02

 Cycle  17  Pass 1  IDiag  1:
 RMSU=  3.32D-06    CP:  1.00D+00  2.97D-01 -2.36D+00  3.00D+00
 E= -1718.33084118448     Delta-E=        0.000480357181 Rises=F Damp=F
 DIIS: error= 9.11D-04 at cycle   5 NSaved=   4.
 NSaved= 4 IEnMin= 2 EnMin= -1718.33145613810     IErMin= 2 ErrMin= 8.55D-04
 ErrMax= 9.11D-04  0.00D+00 EMaxC= 1.00D-01 BMatC= 3.95D-04 BMatP= 4.06D-04
 IDIUse=3 WtCom= 9.91D-01 WtEn= 9.11D-03
 Large coefficients: NSaved=  4 BigCof=   35.18 CofMax=   10.00 Det=-3.25D-08
 Inversion failed.  Reducing to  3 matrices.
 Rare condition: small coef for last iteration:  0.000D+00
 Coeff-Com:  0.156D+01-0.420D+01 0.363D+01
 Coeff-En:   0.000D+00 0.000D+00 0.100D+01
 Coeff:      0.156D+01-0.420D+01 0.363D+01
 Gap=     0.562 Goal=   None    Shift=    0.000
 Gap=     0.553 Goal=   None    Shift=    0.000
 RMSDP=5.66D-05 MaxDP=4.59D-03 DE= 4.80D-04 OVMax= 1.86D-02

 Cycle  18  Pass 1  IDiag  1:
 RMSU=  1.66D-05    CP:  1.00D+00 -1.26D+00 -3.00D+00  3.00D+00  3.00D+00
 E= -1718.33021816283     Delta-E=        0.000623021643 Rises=F Damp=F
 DIIS: error= 9.56D-04 at cycle   6 NSaved=   4.
 NSaved= 4 IEnMin= 1 EnMin= -1718.33145613810     IErMin= 1 ErrMin= 8.55D-04
 ErrMax= 9.56D-04  0.00D+00 EMaxC= 1.00D-01 BMatC= 3.71D-04 BMatP= 3.95D-04
 IDIUse=3 WtCom= 9.91D-01 WtEn= 9.11D-03
 Large coefficients: NSaved=  4 BigCof=   71.67 CofMax=   10.00 Det=-2.24D-08
 Inversion failed.  Reducing to  3 matrices.
 Rare condition: small coef for last iteration:  0.000D+00
 Coeff-Com: -0.221D+00-0.844D+00 0.206D+01
 Coeff-En:   0.000D+00 0.000D+00 0.100D+01
 Coeff:     -0.221D+00-0.844D+00 0.206D+01
 Gap=     0.562 Goal=   None    Shift=    0.000
 Gap=     0.552 Goal=   None    Shift=    0.000
 RMSDP=4.79D-05 MaxDP=4.21D-03 DE= 6.23D-04 OVMax= 1.53D-02

 Cycle  19  Pass 1  IDiag  1:
 RMSU=  8.01D-06    CP:  1.00D+00 -2.33D+00 -3.00D+00  3.00D+00  3.00D+00
                    CP:  2.84D+00
 E= -1718.32984706252     Delta-E=        0.000371100314 Rises=F Damp=F
 DIIS: error= 9.64D-04 at cycle   7 NSaved=   4.
 NSaved= 4 IEnMin= 1 EnMin= -1718.33145613810     IErMin= 1 ErrMin= 8.55D-04
 ErrMax= 9.64D-04  0.00D+00 EMaxC= 1.00D-01 BMatC= 3.39D-04 BMatP= 3.71D-04
 IDIUse=3 WtCom= 9.91D-01 WtEn= 9.11D-03
 Large coefficients: NSaved=  4 BigCof=   22.68 CofMax=   10.00 Det=-2.64D-07
 Inversion failed.  Reducing to  3 matrices.
 Rare condition: small coef for last iteration:  0.000D+00
 Coeff-Com: -0.828D+00 0.577D+00 0.125D+01
 Coeff-En:   0.000D+00 0.000D+00 0.100D+01
 Coeff:     -0.828D+00 0.577D+00 0.125D+01
 Gap=     0.562 Goal=   None    Shift=    0.000
 Gap=     0.553 Goal=   None    Shift=    0.000
 RMSDP=7.79D-05 MaxDP=6.61D-03 DE= 3.71D-04 OVMax= 2.41D-02

 Cycle  20  Pass 1  IDiag  1:
 RMSU=  5.74D-05    CP:  1.00D+00 -3.00D+00 -3.00D+00  3.00D+00  3.00D+00
                    CP:  3.00D+00  2.60D+00
 E= -1718.32926806234     Delta-E=        0.000579000182 Rises=F Damp=F
 DIIS: error= 9.99D-04 at cycle   8 NSaved=   4.
 NSaved= 4 IEnMin= 1 EnMin= -1718.33145613810     IErMin= 1 ErrMin= 8.55D-04
 ErrMax= 9.99D-04  0.00D+00 EMaxC= 1.00D-01 BMatC= 3.09D-04 BMatP= 3.39D-04
 IDIUse=3 WtCom= 9.91D-01 WtEn= 9.11D-03
 Large coefficients: NSaved=  4 BigCof=   11.44 CofMax=   10.00 Det=-8.90D-07
 Inversion failed.  Reducing to  3 matrices.
 Rare condition: small coef for last iteration:  0.000D+00
 Coeff-Com: -0.440D+00 0.554D+00 0.885D+00
 Coeff-En:   0.000D+00 0.000D+00 0.100D+01
 Coeff:     -0.440D+00 0.554D+00 0.885D+00
 Gap=     0.562 Goal=   None    Shift=    0.000
 Gap=     0.553 Goal=   None    Shift=    0.000
 RMSDP=4.38D-05 MaxDP=3.80D-03 DE= 5.79D-04 OVMax= 1.39D-02

 Cycle  21  Pass 1  IDiag  1:
 RMSU=  1.09D-05    CP:  1.00D+00 -3.00D+00 -3.00D+00  3.00D+00  3.00D+00
                    CP:  3.00D+00  3.00D+00  1.73D+00
 E= -1718.32913588192     Delta-E=        0.000132180416 Rises=F Damp=F
 DIIS: error= 1.04D-03 at cycle   9 NSaved=   4.
 NSaved= 4 IEnMin= 1 EnMin= -1718.33145613810     IErMin= 1 ErrMin= 8.55D-04
 ErrMax= 1.04D-03  0.00D+00 EMaxC= 1.00D-01 BMatC= 2.79D-04 BMatP= 3.09D-04
 IDIUse=3 WtCom= 9.91D-01 WtEn= 9.11D-03
 Large coefficients: NSaved=  4 BigCof=   11.03 CofMax=   10.00 Det=-1.87D-06
 Inversion failed.  Reducing to  3 matrices.
 Rare condition: small coef for last iteration:  0.000D+00
 Coeff-Com:  0.416D-01-0.908D+00 0.187D+01
 Coeff-En:   0.000D+00 0.000D+00 0.100D+01
 Coeff:      0.416D-01-0.908D+00 0.187D+01
 Gap=     0.563 Goal=   None    Shift=    0.000
 Gap=     0.552 Goal=   None    Shift=    0.000
 RMSDP=3.90D-05 MaxDP=2.68D-03 DE= 1.32D-04 OVMax= 1.23D-02

 Cycle  22  Pass 1  IDiag  1:
 RMSU=  2.20D-05    CP:  1.00D+00 -3.00D+00 -3.00D+00  3.00D+00  3.00D+00
                    CP:  3.00D+00  3.00D+00  2.03D+00  3.00D+00
 E= -1718.32938390483     Delta-E=       -0.000248022909 Rises=F Damp=F
 DIIS: error= 1.07D-03 at cycle  10 NSaved=   4.
 NSaved= 4 IEnMin= 1 EnMin= -1718.33145613810     IErMin= 1 ErrMin= 8.55D-04
 ErrMax= 1.07D-03  0.00D+00 EMaxC= 1.00D-01 BMatC= 2.56D-04 BMatP= 2.79D-04
 IDIUse=3 WtCom= 9.91D-01 WtEn= 9.11D-03
 Coeff-Com:  0.660D+00-0.257D+01-0.826D+00 0.374D+01
 Coeff-En:   0.000D+00 0.000D+00 0.000D+00 0.100D+01
 Coeff:      0.654D+00-0.255D+01-0.818D+00 0.371D+01
 Gap=     0.564 Goal=   None    Shift=    0.000
 Gap=     0.550 Goal=   None    Shift=    0.000
 RMSDP=1.63D-04 MaxDP=1.25D-02 DE=-2.48D-04 OVMax= 6.53D-02

 Cycle  23  Pass 1  IDiag  1:
 RMSU=  9.61D-05    CP:  1.00D+00 -1.33D+00 -3.00D+00  3.00D+00  3.00D+00
                    CP:  3.00D+00  3.00D+00  2.33D+00  3.00D+00  3.00D+00
 E= -1718.33083732869     Delta-E=       -0.001453423855 Rises=F Damp=F
 DIIS: error= 1.15D-03 at cycle  11 NSaved=   5.
 NSaved= 5 IEnMin= 1 EnMin= -1718.33145613810     IErMin= 1 ErrMin= 8.55D-04
 ErrMax= 1.15D-03  0.00D+00 EMaxC= 1.00D-01 BMatC= 1.99D-04 BMatP= 2.56D-04
 IDIUse=3 WtCom= 9.91D-01 WtEn= 9.11D-03
 Coeff-Com:  0.144D+00-0.682D+00-0.182D+00 0.697D+00 0.102D+01
 Coeff-En:   0.000D+00 0.000D+00 0.000D+00 0.000D+00 0.100D+01
 Coeff:      0.142D+00-0.676D+00-0.180D+00 0.690D+00 0.102D+01
 Gap=     0.565 Goal=   None    Shift=    0.000
 Gap=     0.554 Goal=   None    Shift=    0.000
 RMSDP=5.84D-05 MaxDP=4.76D-03 DE=-1.45D-03 OVMax= 2.40D-02

 Cycle  24  Pass 1  IDiag  1:
 RMSU=  1.16D-05    CP:  1.00D+00 -1.98D-01 -3.00D+00  3.00D+00  3.00D+00
                    CP:  3.00D+00  3.00D+00  2.73D+00  3.00D+00  3.00D+00
                    CP:  1.38D+00
 E= -1718.33130097216     Delta-E=       -0.000463643469 Rises=F Damp=F
 DIIS: error= 1.17D-03 at cycle  12 NSaved=   6.
 NSaved= 6 IEnMin= 1 EnMin= -1718.33145613810     IErMin= 1 ErrMin= 8.55D-04
 ErrMax= 1.17D-03  0.00D+00 EMaxC= 1.00D-01 BMatC= 1.83D-04 BMatP= 1.99D-04
 IDIUse=3 WtCom= 9.91D-01 WtEn= 9.11D-03
 Coeff-Com:  0.598D+00-0.237D+01 0.186D+00 0.217D+01-0.196D+01 0.238D+01
 Coeff-En:   0.000D+00 0.000D+00 0.000D+00 0.000D+00 0.000D+00 0.100D+01
 Coeff:      0.593D+00-0.235D+01 0.185D+00 0.215D+01-0.194D+01 0.237D+01
 Gap=     0.566 Goal=   None    Shift=    0.000
 Gap=     0.555 Goal=   None    Shift=    0.000
 RMSDP=1.04D-04 MaxDP=8.53D-03 DE=-4.64D-04 OVMax= 4.40D-02

 Cycle  25  Pass 1  IDiag  1:
 RMSU=  1.66D-05    CP:  1.00D+00  2.19D+00 -3.00D+00  3.00D+00  3.00D+00
                    CP:  3.00D+00  3.00D+00  3.00D+00  3.00D+00  3.00D+00
                    CP:  1.94D+00  3.00D+00
 E= -1718.33210656328     Delta-E=       -0.000805591123 Rises=F Damp=F
 DIIS: error= 1.17D-03 at cycle  13 NSaved=   7.
 NSaved= 7 IEnMin= 7 EnMin= -1718.33210656328     IErMin= 1 ErrMin= 8.55D-04
 ErrMax= 1.17D-03  0.00D+00 EMaxC= 1.00D-01 BMatC= 1.71D-04 BMatP= 1.83D-04
 IDIUse=3 WtCom= 9.91D-01 WtEn= 9.11D-03
 Coeff-Com:  0.947D+00-0.383D+01-0.995D+00 0.666D+01-0.414D+01-0.104D+01
 Coeff-Com:  0.340D+01
 Coeff-En:   0.000D+00 0.000D+00 0.000D+00 0.000D+00 0.000D+00 0.000D+00
 Coeff-En:   0.100D+01
 Coeff:      0.938D+00-0.379D+01-0.986D+00 0.660D+01-0.410D+01-0.103D+01
 Coeff:      0.337D+01
 Gap=     0.565 Goal=   None    Shift=    0.000
 Gap=     0.548 Goal=   None    Shift=    0.000
 RMSDP=1.07D-04 MaxDP=9.92D-03 DE=-8.06D-04 OVMax= 4.59D-02

 Cycle  26  Pass 1  IDiag  1:
 RMSU=  5.44D-05    CP:  9.99D-01  3.00D+00 -3.00D+00  3.00D+00  3.00D+00
                    CP:  3.00D+00  3.00D+00  2.94D+00  3.00D+00  3.00D+00
                    CP:  2.70D+00  3.00D+00  1.12D+00
 E= -1718.33295190093     Delta-E=       -0.000845337653 Rises=F Damp=F
 DIIS: error= 1.14D-03 at cycle  14 NSaved=   8.
 NSaved= 8 IEnMin= 8 EnMin= -1718.33295190093     IErMin= 1 ErrMin= 8.55D-04
 ErrMax= 1.14D-03  0.00D+00 EMaxC= 1.00D-01 BMatC= 1.78D-04 BMatP= 1.71D-04
 IDIUse=3 WtCom= 9.91D-01 WtEn= 9.11D-03
 Coeff-Com:  0.899D+00-0.364D+01-0.998D+00 0.646D+01-0.407D+01-0.104D+01
 Coeff-Com:  0.333D+01 0.482D-01
 Coeff-En:   0.000D+00 0.000D+00 0.000D+00 0.000D+00 0.000D+00 0.000D+00
 Coeff-En:   0.000D+00 0.100D+01
 Coeff:      0.891D+00-0.360D+01-0.989D+00 0.640D+01-0.404D+01-0.103D+01
 Coeff:      0.330D+01 0.569D-01
 Gap=     0.565 Goal=   None    Shift=    0.000
 Gap=     0.549 Goal=   None    Shift=    0.000
 RMSDP=5.81D-06 MaxDP=5.42D-04 DE=-8.45D-04 OVMax= 2.52D-03

 Cycle  27  Pass 1  IDiag  1:
 RMSU=  8.14D-07    CP:  9.99D-01  3.00D+00 -3.00D+00  3.00D+00  3.00D+00
                    CP:  3.00D+00  3.00D+00  2.92D+00  3.00D+00  3.00D+00
                    CP:  2.75D+00  3.00D+00  1.15D+00  1.05D+00
 E= -1718.33299601453     Delta-E=       -0.000044113595 Rises=F Damp=F
 DIIS: error= 1.14D-03 at cycle  15 NSaved=   9.
 NSaved= 9 IEnMin= 9 EnMin= -1718.33299601453     IErMin= 1 ErrMin= 8.55D-04
 ErrMax= 1.14D-03  0.00D+00 EMaxC= 1.00D-01 BMatC= 1.75D-04 BMatP= 1.71D-04
 IDIUse=3 WtCom= 9.91D-01 WtEn= 9.11D-03
 Large coefficients: NSaved=  9 BigCof=   49.00 CofMax=   10.00 Det=-6.04D-09
 Inversion failed.  Reducing to  8 matrices.
 Large coefficients: NSaved=  8 BigCof=   44.69 CofMax=   10.00 Det=-8.76D-09
 Inversion failed.  Reducing to  7 matrices.
 Large coefficients: NSaved=  7 BigCof=   24.71 CofMax=   10.00 Det=-1.20D-08
 Inversion failed.  Reducing to  6 matrices.
 Large coefficients: NSaved=  6 BigCof=   30.56 CofMax=   10.00 Det=-2.05D-08
 Inversion failed.  Reducing to  5 matrices.
 Large coefficients: NSaved=  5 BigCof=   24.53 CofMax=   10.00 Det=-4.19D-08
 Inversion failed.  Reducing to  4 matrices.
 Large coefficients: NSaved=  4 BigCof=   22.54 CofMax=   10.00 Det=-4.56D-08
 Inversion failed.  Reducing to  3 matrices.
 Large coefficients: NSaved=  3 BigCof=   22.54 CofMax=   10.00 Det=-4.56D-08
 Inversion failed.  Reducing to  2 matrices.
 Large coefficients: NSaved=  2 BigCof=   25.36 CofMax=   10.00 Det=-5.18D-08
 Coeff-Com: -0.244D+02 0.254D+02
 Coeff-En:   0.000D+00 0.100D+01
 Coeff:     -0.241D+02 0.251D+02
 Gap=     0.566 Goal=   None    Shift=    0.000
 Gap=     0.557 Goal=   None    Shift=    0.000
 RMSDP=1.56D-04 MaxDP=1.46D-02 DE=-4.41D-05 OVMax= 6.68D-02

 Cycle  28  Pass 1  IDiag  1:
 RMSU=  1.01D-04    CP:  9.99D-01  3.00D+00 -3.00D+00  3.00D+00  3.00D+00
                    CP:  3.00D+00  3.00D+00  2.27D+00  3.00D+00  3.00D+00
                    CP:  3.00D+00  3.00D+00  2.36D+00  2.58D+00  3.00D+00
 E= -1718.33413082773     Delta-E=       -0.001134813200 Rises=F Damp=F
 DIIS: error= 1.07D-03 at cycle  16 NSaved=   3.
 NSaved= 3 IEnMin= 3 EnMin= -1718.33413082773     IErMin= 3 ErrMin= 1.07D-03
 ErrMax= 1.07D-03  0.00D+00 EMaxC= 1.00D-01 BMatC= 1.27D-04 BMatP= 1.75D-04
 IDIUse=3 WtCom= 9.91D-01 WtEn= 9.11D-03
 Coeff-Com:  0.567D+00-0.493D+00 0.926D+00
 Coeff-En:   0.000D+00 0.000D+00 0.100D+01
 Coeff:      0.562D+00-0.488D+00 0.927D+00
 Gap=     0.566 Goal=   None    Shift=    0.000
 Gap=     0.557 Goal=   None    Shift=    0.000
 RMSDP=6.74D-06 MaxDP=6.61D-04 DE=-1.13D-03 OVMax= 1.50D-03

 Cycle  29  Pass 1  IDiag  1:
 RMSU=  5.03D-06    CP:  9.99D-01  3.00D+00 -3.00D+00  3.00D+00  3.00D+00
                    CP:  3.00D+00  3.00D+00  2.22D+00  3.00D+00  3.00D+00
                    CP:  3.00D+00  3.00D+00  2.45D+00  2.64D+00  3.00D+00
                    CP:  9.96D-01
 E= -1718.33416026176     Delta-E=       -0.000029434028 Rises=F Damp=F
 DIIS: error= 1.07D-03 at cycle  17 NSaved=   4.
 NSaved= 4 IEnMin= 4 EnMin= -1718.33416026176     IErMin= 4 ErrMin= 1.07D-03
 ErrMax= 1.07D-03  0.00D+00 EMaxC= 1.00D-01 BMatC= 1.24D-04 BMatP= 1.27D-04
 IDIUse=3 WtCom= 9.91D-01 WtEn= 9.11D-03
 Coeff-Com:  0.274D+00-0.677D+00-0.315D+00 0.172D+01
 Coeff-En:   0.000D+00 0.000D+00 0.000D+00 0.100D+01
 Coeff:      0.271D+00-0.671D+00-0.312D+00 0.171D+01
 Gap=     0.567 Goal=   None    Shift=    0.000
 Gap=     0.560 Goal=   None    Shift=    0.000
 RMSDP=7.85D-05 MaxDP=8.10D-03 DE=-2.94D-05 OVMax= 3.35D-02

 Cycle  30  Pass 1  IDiag  1:
 RMSU=  2.78D-05    CP:  9.99D-01  3.00D+00 -3.00D+00  3.00D+00  3.00D+00
                    CP:  3.00D+00  3.00D+00  1.84D+00  3.00D+00  3.00D+00
                    CP:  3.00D+00  3.00D+00  3.00D+00  3.00D+00  3.00D+00
                    CP:  1.56D+00  2.40D+00
 E= -1718.33469965423     Delta-E=       -0.000539392475 Rises=F Damp=F
 DIIS: error= 1.01D-03 at cycle  18 NSaved=   5.
 NSaved= 5 IEnMin= 5 EnMin= -1718.33469965423     IErMin= 5 ErrMin= 1.01D-03
 ErrMax= 1.01D-03  0.00D+00 EMaxC= 1.00D-01 BMatC= 1.15D-04 BMatP= 1.24D-04
 IDIUse=3 WtCom= 9.91D-01 WtEn= 9.11D-03
 Large coefficients: NSaved=  5 BigCof=   13.42 CofMax=   10.00 Det=-1.49D-08
 Inversion failed.  Reducing to  4 matrices.
 Coeff-Com:  0.380D+00-0.193D+01-0.721D+00 0.327D+01
 Coeff-En:   0.000D+00 0.000D+00 0.000D+00 0.100D+01
 Coeff:      0.377D+00-0.192D+01-0.714D+00 0.325D+01
 Gap=     0.567 Goal=   None    Shift=    0.000
 Gap=     0.559 Goal=   None    Shift=    0.000
 RMSDP=1.40D-04 MaxDP=1.54D-02 DE=-5.39D-04 OVMax= 5.76D-02

 Cycle  31  Pass 1  IDiag  1:
 RMSU=  4.98D-05    CP:  9.99D-01  3.00D+00 -3.00D+00  3.00D+00  3.00D+00
                    CP:  3.00D+00  3.00D+00  1.12D+00  3.00D+00  3.00D+00
                    CP:  3.00D+00  3.00D+00  3.00D+00  3.00D+00  3.00D+00
                    CP:  2.42D+00  3.00D+00  3.00D+00
 E= -1718.33561486019     Delta-E=       -0.000915205961 Rises=F Damp=F
 DIIS: error= 9.14D-04 at cycle  19 NSaved=   5.
 NSaved= 5 IEnMin= 5 EnMin= -1718.33561486019     IErMin= 5 ErrMin= 9.14D-04
 ErrMax= 9.14D-04  0.00D+00 EMaxC= 1.00D-01 BMatC= 1.03D-04 BMatP= 1.15D-04
 IDIUse=3 WtCom= 9.91D-01 WtEn= 9.11D-03
 Coeff-Com:  0.431D+00 0.369D-01-0.622D+00-0.644D+00 0.180D+01
 Coeff-En:   0.000D+00 0.000D+00 0.000D+00 0.000D+00 0.100D+01
 Coeff:      0.427D+00 0.366D-01-0.616D+00-0.638D+00 0.179D+01
 Gap=     0.568 Goal=   None    Shift=    0.000
 Gap=     0.558 Goal=   None    Shift=    0.000
 RMSDP=7.68D-05 MaxDP=8.56D-03 DE=-9.15D-04 OVMax= 3.06D-02

 Cycle  32  Pass 1  IDiag  1:
 RMSU=  1.22D-05    CP:  9.98D-01  3.00D+00 -3.00D+00  3.00D+00  3.00D+00
                    CP:  3.00D+00  3.00D+00  7.46D-01  3.00D+00  3.00D+00
                    CP:  3.00D+00  3.00D+00  3.00D+00  3.00D+00  3.00D+00
                    CP:  2.77D+00  3.00D+00  3.00D+00  2.28D+00
 E= -1718.33609634472     Delta-E=       -0.000481484524 Rises=F Damp=F
 DIIS: error= 8.69D-04 at cycle  20 NSaved=   6.
 NSaved= 6 IEnMin= 6 EnMin= -1718.33609634472     IErMin= 6 ErrMin= 8.69D-04
 ErrMax= 8.69D-04  0.00D+00 EMaxC= 1.00D-01 BMatC= 9.88D-05 BMatP= 1.03D-04
 IDIUse=3 WtCom= 9.91D-01 WtEn= 8.69D-03
 Coeff-Com:  0.296D+00 0.802D+00-0.778D+00-0.129D+01 0.122D+01 0.754D+00
 Coeff-En:   0.000D+00 0.000D+00 0.000D+00 0.000D+00 0.000D+00 0.100D+01
 Coeff:      0.294D+00 0.795D+00-0.771D+00-0.128D+01 0.121D+01 0.756D+00
 Gap=     0.568 Goal=   None    Shift=    0.000
 Gap=     0.560 Goal=   None    Shift=    0.000
 RMSDP=6.14D-05 MaxDP=6.79D-03 DE=-4.81D-04 OVMax= 2.49D-02

 Cycle  33  Pass 1  IDiag  1:
 Restarting incremental Fock formation.
 E= -1718.33647256378     Delta-E=       -0.000376219062 Rises=F Damp=F
 DIIS: error= 8.28D-04 at cycle  21 NSaved=   7.
 NSaved= 7 IEnMin= 7 EnMin= -1718.33647256378     IErMin= 7 ErrMin= 8.28D-04
 ErrMax= 8.28D-04  0.00D+00 EMaxC= 1.00D-01 BMatC= 9.62D-05 BMatP= 9.88D-05
 IDIUse=3 WtCom= 9.92D-01 WtEn= 8.28D-03
 Coeff-Com:  0.403D+00 0.191D-01-0.639D+00 0.591D-01 0.531D+00-0.124D+01
 Coeff-Com:  0.186D+01
 Coeff-En:   0.000D+00 0.000D+00 0.000D+00 0.000D+00 0.000D+00 0.000D+00
 Coeff-En:   0.100D+01
 Coeff:      0.399D+00 0.189D-01-0.634D+00 0.586D-01 0.526D+00-0.123D+01
 Coeff:      0.186D+01
 Gap=     0.568 Goal=   None    Shift=    0.000
 Gap=     0.556 Goal=   None    Shift=    0.000
 RMSDP=2.99D-05 MaxDP=2.28D-03 DE=-3.76D-04 OVMax= 8.77D-03

 Cycle  34  Pass 1  IDiag  1:
 RMSU=  2.99D-05    CP:  1.00D+00
 E= -1718.33662856166     Delta-E=       -0.000155997878 Rises=F Damp=F
 DIIS: error= 8.31D-04 at cycle  22 NSaved=   8.
 NSaved= 8 IEnMin= 8 EnMin= -1718.33662856166     IErMin= 7 ErrMin= 8.28D-04
 ErrMax= 8.31D-04  0.00D+00 EMaxC= 1.00D-01 BMatC= 1.08D-04 BMatP= 9.62D-05
 IDIUse=3 WtCom= 9.92D-01 WtEn= 8.28D-03
 Coeff-Com:  0.566D-01 0.129D+01 0.124D+01-0.354D+01-0.421D-01 0.732D+00
 Coeff-Com:  0.381D+01-0.253D+01
 Coeff-En:   0.000D+00 0.000D+00 0.000D+00 0.000D+00 0.000D+00 0.000D+00
 Coeff-En:   0.000D+00 0.100D+01
 Coeff:      0.561D-01 0.128D+01 0.122D+01-0.351D+01-0.418D-01 0.726D+00
 Coeff:      0.377D+01-0.250D+01
 Gap=     0.568 Goal=   None    Shift=    0.000
 Gap=     0.552 Goal=   None    Shift=    0.000
 RMSDP=4.41D-05 MaxDP=3.57D-03 DE=-1.56D-04 OVMax= 1.64D-02

 Cycle  35  Pass 1  IDiag  1:
 RMSU=  1.77D-05    CP:  1.00D+00 -3.55D-01
 E= -1718.33635718802     Delta-E=        0.000271373633 Rises=F Damp=F
 DIIS: error= 8.48D-04 at cycle  23 NSaved=   9.
 NSaved= 9 IEnMin= 8 EnMin= -1718.33662856166     IErMin= 7 ErrMin= 8.28D-04
 ErrMax= 8.48D-04  0.00D+00 EMaxC= 1.00D-01 BMatC= 1.22D-04 BMatP= 9.62D-05
 IDIUse=3 WtCom= 9.92D-01 WtEn= 8.28D-03
 Large coefficients: NSaved=  9 BigCof=   11.96 CofMax=   10.00 Det=-5.00D-08
 Inversion failed.  Reducing to  8 matrices.
 Rare condition: small coef for last iteration:  0.000D+00
 Coeff-Com: -0.954D+00 0.146D+01 0.665D+00-0.185D+01-0.348D+01 0.890D+01
 Coeff-Com: -0.613D+01 0.238D+01
 Coeff-En:   0.000D+00 0.000D+00 0.000D+00 0.000D+00 0.000D+00 0.000D+00
 Coeff-En:   0.000D+00 0.100D+01
 Coeff:     -0.954D+00 0.146D+01 0.665D+00-0.185D+01-0.348D+01 0.890D+01
 Coeff:     -0.613D+01 0.238D+01
 Gap=     0.568 Goal=   None    Shift=    0.000
 Gap=     0.553 Goal=   None    Shift=    0.000
 RMSDP=6.40D-05 MaxDP=5.47D-03 DE= 2.71D-04 OVMax= 1.57D-02

 Cycle  36  Pass 1  IDiag  1:
 RMSU=  2.76D-05    CP:  1.00D+00 -2.29D+00  1.18D+00
 E= -1718.33608910041     Delta-E=        0.000268087613 Rises=F Damp=F
 DIIS: error= 8.37D-04 at cycle  24 NSaved=   9.
 NSaved= 9 IEnMin= 7 EnMin= -1718.33662856166     IErMin= 6 ErrMin= 8.28D-04
 ErrMax= 8.37D-04  0.00D+00 EMaxC= 1.00D-01 BMatC= 1.10D-04 BMatP= 9.62D-05
 IDIUse=3 WtCom= 9.92D-01 WtEn= 8.28D-03
 Rare condition: small coef for last iteration:  0.000D+00
 Coeff-Com:  0.417D+01 0.157D+01-0.930D+01 0.282D+01 0.395D+01-0.359D+01
 Coeff-Com:  0.516D+01-0.824D+01 0.446D+01
 Coeff-En:   0.000D+00 0.000D+00 0.000D+00 0.000D+00 0.000D+00 0.000D+00
 Coeff-En:   0.000D+00 0.000D+00 0.100D+01
 Coeff:      0.417D+01 0.157D+01-0.930D+01 0.282D+01 0.395D+01-0.359D+01
 Coeff:      0.516D+01-0.824D+01 0.446D+01
 Gap=     0.567 Goal=   None    Shift=    0.000
 Gap=     0.547 Goal=   None    Shift=    0.000
 RMSDP=6.11D-05 MaxDP=6.07D-03 DE= 2.68D-04 OVMax= 1.68D-02

 Cycle  37  Pass 1  IDiag  1:
 RMSU=  8.74D-06    CP:  1.00D+00 -3.00D+00  1.19D+00  3.00D+00
 E= -1718.33604786760     Delta-E=        0.000041232808 Rises=F Damp=F
 DIIS: error= 8.15D-04 at cycle  25 NSaved=  10.
 NSaved=10 IEnMin= 7 EnMin= -1718.33662856166     IErMin=10 ErrMin= 8.15D-04
 ErrMax= 8.15D-04  0.00D+00 EMaxC= 1.00D-01 BMatC= 1.46D-04 BMatP= 9.62D-05
 IDIUse=3 WtCom= 9.92D-01 WtEn= 8.28D-03
 Rare condition: small coef for last iteration:  0.000D+00
 Coeff-Com:  0.269D+01 0.124D+01-0.594D+01 0.151D+01 0.154D+01 0.839D+00
 Coeff-Com:  0.182D+01-0.519D+01 0.119D+01 0.129D+01
 Coeff-En:   0.000D+00 0.000D+00 0.000D+00 0.000D+00 0.000D+00 0.000D+00
 Coeff-En:   0.000D+00 0.000D+00 0.000D+00 0.100D+01
 Coeff:      0.269D+01 0.124D+01-0.594D+01 0.151D+01 0.154D+01 0.839D+00
 Coeff:      0.182D+01-0.519D+01 0.119D+01 0.129D+01
 Gap=     0.568 Goal=   None    Shift=    0.000
 Gap=     0.549 Goal=   None    Shift=    0.000
 RMSDP=3.26D-05 MaxDP=3.49D-03 DE= 4.12D-05 OVMax= 1.07D-02

 Cycle  38  Pass 1  IDiag  1:
 RMSU=  2.94D-05    CP:  1.00D+00 -2.94D+00  6.53D-01  3.00D+00  2.14D+00
 E= -1718.33614443515     Delta-E=       -0.000096567548 Rises=F Damp=F
 DIIS: error= 7.90D-04 at cycle  26 NSaved=  11.
 NSaved=11 IEnMin= 7 EnMin= -1718.33662856166     IErMin=11 ErrMin= 7.90D-04
 ErrMax= 7.90D-04  0.00D+00 EMaxC= 1.00D-01 BMatC= 1.26D-04 BMatP= 9.62D-05
 IDIUse=3 WtCom= 9.92D-01 WtEn= 8.28D-03
 Coeff-Com:  0.124D+01 0.133D+01-0.331D+01 0.845D-01 0.127D-01 0.313D+01
 Coeff-Com: -0.111D+01-0.157D+01 0.298D+00-0.172D+01 0.262D+01
 Coeff-En:   0.000D+00 0.000D+00 0.000D+00 0.000D+00 0.000D+00 0.000D+00
 Coeff-En:   0.000D+00 0.000D+00 0.000D+00 0.000D+00 0.100D+01
 Coeff:      0.123D+01 0.132D+01-0.329D+01 0.838D-01 0.126D-01 0.311D+01
 Coeff:     -0.111D+01-0.156D+01 0.295D+00-0.171D+01 0.261D+01
 Gap=     0.568 Goal=   None    Shift=    0.000
 Gap=     0.551 Goal=   None    Shift=    0.000
 RMSDP=4.68D-05 MaxDP=5.35D-03 DE=-9.66D-05 OVMax= 1.72D-02

 Cycle  39  Pass 1  IDiag  1:
 RMSU=  1.47D-05    CP:  1.00D+00 -2.21D+00  2.43D-01  3.00D+00  3.00D+00
                    CP:  2.17D+00
 E= -1718.33633906743     Delta-E=       -0.000194632285 Rises=F Damp=F
 DIIS: error= 7.60D-04 at cycle  27 NSaved=  12.
 NSaved=12 IEnMin= 7 EnMin= -1718.33662856166     IErMin=12 ErrMin= 7.60D-04
 ErrMax= 7.60D-04  0.00D+00 EMaxC= 1.00D-01 BMatC= 1.09D-04 BMatP= 9.62D-05
 IDIUse=3 WtCom= 9.92D-01 WtEn= 8.28D-03
 Coeff-Com:  0.387D+01 0.203D+01-0.939D+01 0.244D+01 0.397D+01-0.431D+01
 Coeff-Com:  0.525D+01-0.731D+01 0.495D+01-0.160D+01-0.231D+01 0.341D+01
 Coeff-En:   0.000D+00 0.000D+00 0.000D+00 0.000D+00 0.000D+00 0.000D+00
 Coeff-En:   0.000D+00 0.000D+00 0.000D+00 0.000D+00 0.000D+00 0.100D+01
 Coeff:      0.383D+01 0.201D+01-0.931D+01 0.242D+01 0.394D+01-0.427D+01
 Coeff:      0.521D+01-0.725D+01 0.491D+01-0.159D+01-0.229D+01 0.339D+01
 Gap=     0.568 Goal=   None    Shift=    0.000
 Gap=     0.547 Goal=   None    Shift=    0.000
 RMSDP=1.18D-04 MaxDP=1.35D-02 DE=-1.95D-04 OVMax= 4.34D-02

 Cycle  40  Pass 1  IDiag  1:
 RMSU=  4.78D-05    CP:  1.00D+00  5.50D-01 -2.13D-01  3.00D+00  3.00D+00
                    CP:  3.00D+00  3.00D+00
 E= -1718.33685357235     Delta-E=       -0.000514504912 Rises=F Damp=F
 DIIS: error= 7.02D-04 at cycle  28 NSaved=  13.
 NSaved=13 IEnMin=13 EnMin= -1718.33685357235     IErMin=13 ErrMin= 7.02D-04
 ErrMax= 7.02D-04  0.00D+00 EMaxC= 1.00D-01 BMatC= 1.21D-04 BMatP= 9.62D-05
 IDIUse=3 WtCom= 9.92D-01 WtEn= 8.28D-03
 Large coefficients: NSaved= 13 BigCof=   10.46 CofMax=   10.00 Det=-3.41D-08
 Inversion failed.  Reducing to 12 matrices.
 Coeff-Com:  0.156D+01-0.178D+01-0.658D-01-0.127D+01 0.341D+01-0.458D+00
 Coeff-Com: -0.253D+01 0.167D+01 0.139D+00-0.220D+01 0.171D+01 0.819D+00
 Coeff-En:   0.000D+00 0.000D+00 0.000D+00 0.000D+00 0.000D+00 0.000D+00
 Coeff-En:   0.000D+00 0.000D+00 0.000D+00 0.000D+00 0.000D+00 0.100D+01
 Coeff:      0.154D+01-0.176D+01-0.653D-01-0.126D+01 0.338D+01-0.454D+00
 Coeff:     -0.251D+01 0.166D+01 0.138D+00-0.219D+01 0.170D+01 0.821D+00
 Gap=     0.569 Goal=   None    Shift=    0.000
 Gap=     0.555 Goal=   None    Shift=    0.000
 RMSDP=4.79D-05 MaxDP=5.61D-03 DE=-5.15D-04 OVMax= 1.96D-02

 Cycle  41  Pass 1  IDiag  1:
 RMSU=  6.38D-06    CP:  1.00D+00  1.50D+00 -1.23D+00  3.00D+00  3.00D+00
                    CP:  3.00D+00  3.00D+00  1.70D+00
 E= -1718.33706633672     Delta-E=       -0.000212764377 Rises=F Damp=F
 DIIS: error= 6.54D-04 at cycle  29 NSaved=  13.
 NSaved=13 IEnMin=13 EnMin= -1718.33706633672     IErMin=13 ErrMin= 6.54D-04
 ErrMax= 6.54D-04  0.00D+00 EMaxC= 1.00D-01 BMatC= 6.84D-05 BMatP= 9.62D-05
 IDIUse=3 WtCom= 9.93D-01 WtEn= 6.54D-03
 Coeff-Com:  0.174D+01-0.184D+01-0.875D+00 0.160D+01-0.428D+00-0.112D+01
 Coeff-Com:  0.291D+01-0.352D+01 0.145D+01 0.282D+01-0.320D+01-0.415D+01
 Coeff-Com:  0.562D+01
 Coeff-En:   0.000D+00 0.000D+00 0.000D+00 0.000D+00 0.000D+00 0.000D+00
 Coeff-En:   0.000D+00 0.000D+00 0.000D+00 0.000D+00 0.000D+00 0.000D+00
 Coeff-En:   0.100D+01
 Coeff:      0.173D+01-0.183D+01-0.869D+00 0.159D+01-0.425D+00-0.111D+01
 Coeff:      0.289D+01-0.350D+01 0.144D+01 0.280D+01-0.318D+01-0.412D+01
 Coeff:      0.559D+01
 Gap=     0.569 Goal=   None    Shift=    0.000
 Gap=     0.549 Goal=   None    Shift=    0.000
 RMSDP=1.65D-04 MaxDP=1.70D-02 DE=-2.13D-04 OVMax= 5.63D-02

 Cycle  42  Pass 1  IDiag  1:
 RMSU=  9.79D-05    CP:  1.00D+00  3.00D+00 -9.18D-01  3.00D+00  3.00D+00
                    CP:  3.00D+00  3.00D+00  3.00D+00  1.99D+00
 E= -1718.33771581378     Delta-E=       -0.000649477053 Rises=F Damp=F
 DIIS: error= 5.78D-04 at cycle  30 NSaved=  14.
 NSaved=14 IEnMin=14 EnMin= -1718.33771581378     IErMin=14 ErrMin= 5.78D-04
 ErrMax= 5.78D-04  0.00D+00 EMaxC= 1.00D-01 BMatC= 9.92D-05 BMatP= 6.84D-05
 IDIUse=3 WtCom= 9.93D-01 WtEn= 6.54D-03
 Coeff-Com:  0.152D+01-0.365D+00-0.324D+01-0.826D+00 0.641D+01-0.755D+01
 Coeff-Com:  0.806D+01-0.542D+01-0.181D+01 0.713D+01-0.269D+01-0.673D+01
 Coeff-Com:  0.428D+01 0.224D+01
 Coeff-En:   0.000D+00 0.000D+00 0.000D+00 0.000D+00 0.000D+00 0.000D+00
 Coeff-En:   0.000D+00 0.000D+00 0.000D+00 0.000D+00 0.000D+00 0.000D+00
 Coeff-En:   0.000D+00 0.100D+01
 Coeff:      0.151D+01-0.362D+00-0.322D+01-0.821D+00 0.637D+01-0.750D+01
 Coeff:      0.801D+01-0.538D+01-0.180D+01 0.708D+01-0.268D+01-0.668D+01
 Coeff:      0.425D+01 0.223D+01
 Gap=     0.571 Goal=   None    Shift=    0.000
 Gap=     0.548 Goal=   None    Shift=    0.000
 RMSDP=2.51D-04 MaxDP=2.60D-02 DE=-6.49D-04 OVMax= 8.87D-02

 Cycle  43  Pass 1  IDiag  1:
 RMSU=  8.35D-05    CP:  9.99D-01  3.00D+00 -1.49D+00  3.00D+00  3.00D+00
                    CP:  3.00D+00  3.00D+00  3.00D+00  8.69D-01  3.00D+00
 E= -1718.33855708355     Delta-E=       -0.000841269769 Rises=F Damp=F
 DIIS: error= 4.11D-04 at cycle  31 NSaved=  15.
 NSaved=15 IEnMin=15 EnMin= -1718.33855708355     IErMin=15 ErrMin= 4.11D-04
 ErrMax= 4.11D-04  0.00D+00 EMaxC= 1.00D-01 BMatC= 6.82D-05 BMatP= 6.84D-05
 IDIUse=3 WtCom= 9.96D-01 WtEn= 4.11D-03
 Coeff-Com:  0.237D+01-0.208D+01-0.220D+01 0.787D+00 0.323D+01-0.462D+01
 Coeff-Com:  0.576D+01-0.446D+01-0.207D+01 0.548D+01-0.103D+01-0.486D+01
 Coeff-Com:  0.386D+01-0.226D+00 0.106D+01
 Coeff-En:   0.000D+00 0.000D+00 0.000D+00 0.000D+00 0.000D+00 0.000D+00
 Coeff-En:   0.000D+00 0.000D+00 0.000D+00 0.000D+00 0.000D+00 0.000D+00
 Coeff-En:   0.000D+00 0.000D+00 0.100D+01
 Coeff:      0.236D+01-0.207D+01-0.219D+01 0.784D+00 0.322D+01-0.460D+01
 Coeff:      0.573D+01-0.444D+01-0.206D+01 0.545D+01-0.103D+01-0.484D+01
 Coeff:      0.384D+01-0.225D+00 0.106D+01
 Gap=     0.571 Goal=   None    Shift=    0.000
 Gap=     0.547 Goal=   None    Shift=    0.000
 RMSDP=4.12D-05 MaxDP=3.84D-03 DE=-8.41D-04 OVMax= 1.25D-02

 Cycle  44  Pass 1  IDiag  1:
 RMSU=  3.20D-05    CP:  9.99D-01  3.00D+00 -1.23D+00  3.00D+00  3.00D+00
                    CP:  3.00D+00  3.00D+00  3.00D+00  2.21D-01  3.00D+00
                    CP:  1.30D+00
 E= -1718.33865240502     Delta-E=       -0.000095321475 Rises=F Damp=F
 DIIS: error= 5.38D-04 at cycle  32 NSaved=  16.
 NSaved=16 IEnMin=16 EnMin= -1718.33865240502     IErMin=15 ErrMin= 4.11D-04
 ErrMax= 5.38D-04  0.00D+00 EMaxC= 1.00D-01 BMatC= 1.33D-04 BMatP= 6.82D-05
 IDIUse=3 WtCom= 9.96D-01 WtEn= 4.11D-03
 Coeff-Com:  0.306D+01-0.307D+01-0.212D+01 0.251D+01 0.276D+00-0.341D+01
 Coeff-Com:  0.602D+01-0.474D+01-0.925D+00 0.537D+01-0.260D+01-0.660D+01
 Coeff-Com:  0.753D+01-0.194D+01 0.192D+00 0.145D+01
 Coeff-En:   0.000D+00 0.000D+00 0.000D+00 0.000D+00 0.000D+00 0.000D+00
 Coeff-En:   0.000D+00 0.000D+00 0.000D+00 0.000D+00 0.000D+00 0.000D+00
 Coeff-En:   0.000D+00 0.000D+00 0.000D+00 0.100D+01
 Coeff:      0.305D+01-0.306D+01-0.211D+01 0.250D+01 0.275D+00-0.340D+01
 Coeff:      0.599D+01-0.472D+01-0.921D+00 0.535D+01-0.259D+01-0.658D+01
 Coeff:      0.750D+01-0.193D+01 0.191D+00 0.145D+01
 Gap=     0.572 Goal=   None    Shift=    0.000
 Gap=     0.543 Goal=   None    Shift=    0.000
 RMSDP=1.40D-04 MaxDP=1.43D-02 DE=-9.53D-05 OVMax= 5.12D-02

 Cycle  45  Pass 1  IDiag  1:
 RMSU=  3.12D-05    CP:  9.98D-01  3.00D+00 -1.04D+00  3.00D+00  3.00D+00
                    CP:  3.00D+00  3.00D+00  3.00D+00  1.08D+00  3.00D+00
                    CP:  2.58D+00  3.00D+00
 E= -1718.33896491877     Delta-E=       -0.000312513752 Rises=F Damp=F
 DIIS: error= 6.00D-04 at cycle  33 NSaved=  17.
 NSaved=17 IEnMin=17 EnMin= -1718.33896491877     IErMin=15 ErrMin= 4.11D-04
 ErrMax= 6.00D-04  0.00D+00 EMaxC= 1.00D-01 BMatC= 1.55D-04 BMatP= 6.82D-05
 IDIUse=3 WtCom= 9.96D-01 WtEn= 4.11D-03
 Coeff-Com:  0.351D+01-0.342D+01-0.274D+01 0.273D+01 0.118D+01-0.490D+01
 Coeff-Com:  0.793D+01-0.625D+01-0.101D+01 0.716D+01-0.362D+01-0.845D+01
 Coeff-Com:  0.881D+01-0.644D+00-0.420D+00-0.144D+00 0.126D+01
 Coeff-En:   0.000D+00 0.000D+00 0.000D+00 0.000D+00 0.000D+00 0.000D+00
 Coeff-En:   0.000D+00 0.000D+00 0.000D+00 0.000D+00 0.000D+00 0.000D+00
 Coeff-En:   0.000D+00 0.000D+00 0.000D+00 0.000D+00 0.100D+01
 Coeff:      0.350D+01-0.340D+01-0.273D+01 0.271D+01 0.118D+01-0.488D+01
 Coeff:      0.790D+01-0.622D+01-0.100D+01 0.713D+01-0.360D+01-0.842D+01
 Coeff:      0.877D+01-0.641D+00-0.418D+00-0.144D+00 0.126D+01
 Gap=     0.571 Goal=   None    Shift=    0.000
 Gap=     0.537 Goal=   None    Shift=    0.000
 RMSDP=1.62D-05 MaxDP=1.58D-03 DE=-3.13D-04 OVMax= 4.58D-03

 Cycle  46  Pass 1  IDiag  1:
 RMSU=  1.11D-05    CP:  9.98D-01  3.00D+00 -7.43D-01  3.00D+00  3.00D+00
                    CP:  3.00D+00  3.00D+00  3.00D+00  1.10D+00  3.00D+00
                    CP:  2.66D+00  3.00D+00  1.26D+00
 E= -1718.33895822274     Delta-E=        0.000006696038 Rises=F Damp=F
 DIIS: error= 8.97D-04 at cycle  34 NSaved=  18.
 NSaved=18 IEnMin=17 EnMin= -1718.33896491877     IErMin=15 ErrMin= 4.11D-04
 ErrMax= 8.97D-04  0.00D+00 EMaxC= 1.00D-01 BMatC= 2.99D-04 BMatP= 6.82D-05
 IDIUse=3 WtCom= 9.96D-01 WtEn= 4.11D-03
 Rare condition: small coef for last iteration:  0.000D+00
 Coeff-Com:  0.263D+01-0.274D+01-0.176D+01 0.279D+01-0.495D+00-0.308D+01
 Coeff-Com:  0.570D+01-0.450D+01-0.590D-01 0.483D+01-0.330D+01-0.683D+01
 Coeff-Com:  0.759D+01-0.203D+00-0.209D+01 0.112D+01 0.307D+01-0.167D+01
 Coeff-En:   0.000D+00 0.000D+00 0.000D+00 0.000D+00 0.000D+00 0.000D+00
 Coeff-En:   0.000D+00 0.000D+00 0.000D+00 0.000D+00 0.000D+00 0.000D+00
 Coeff-En:   0.000D+00 0.000D+00 0.000D+00 0.000D+00 0.000D+00 0.100D+01
 Coeff:      0.263D+01-0.274D+01-0.176D+01 0.279D+01-0.495D+00-0.308D+01
 Coeff:      0.570D+01-0.450D+01-0.590D-01 0.483D+01-0.330D+01-0.683D+01
 Coeff:      0.759D+01-0.203D+00-0.209D+01 0.112D+01 0.307D+01-0.167D+01
 Gap=     0.571 Goal=   None    Shift=    0.000
 Gap=     0.546 Goal=   None    Shift=    0.000
 RMSDP=2.24D-05 MaxDP=1.73D-03 DE= 6.70D-06 OVMax= 5.29D-03

 Cycle  47  Pass 1  IDiag  1:
 RMSU=  1.20D-05    CP:  9.98D-01  3.00D+00 -7.68D-01  3.00D+00  3.00D+00
                    CP:  3.00D+00  3.00D+00  3.00D+00  1.39D+00  3.00D+00
                    CP:  2.83D+00  3.00D+00  1.49D+00  4.42D-02
 E= -1718.33901970813     Delta-E=       -0.000061485398 Rises=F Damp=F
 DIIS: error= 6.18D-04 at cycle  35 NSaved=  19.
 NSaved=19 IEnMin=19 EnMin= -1718.33901970813     IErMin=15 ErrMin= 4.11D-04
 ErrMax= 6.18D-04  0.00D+00 EMaxC= 1.00D-01 BMatC= 1.55D-04 BMatP= 6.82D-05
 IDIUse=3 WtCom= 9.96D-01 WtEn= 4.11D-03
 Coeff-Com:  0.206D+01-0.201D+01-0.171D+01 0.205D+01 0.124D+00-0.311D+01
 Coeff-Com:  0.543D+01-0.408D+01-0.105D+00 0.434D+01-0.293D+01-0.581D+01
 Coeff-Com:  0.626D+01 0.188D-01-0.149D+01 0.695D+00 0.134D+01-0.168D+01
 Coeff-Com:  0.162D+01
 Coeff-En:   0.000D+00 0.000D+00 0.000D+00 0.000D+00 0.000D+00 0.000D+00
 Coeff-En:   0.000D+00 0.000D+00 0.000D+00 0.000D+00 0.000D+00 0.000D+00
 Coeff-En:   0.000D+00 0.000D+00 0.000D+00 0.000D+00 0.000D+00 0.000D+00
 Coeff-En:   0.100D+01
 Coeff:      0.205D+01-0.200D+01-0.170D+01 0.205D+01 0.124D+00-0.310D+01
 Coeff:      0.540D+01-0.406D+01-0.105D+00 0.432D+01-0.292D+01-0.579D+01
 Coeff:      0.623D+01 0.187D-01-0.148D+01 0.692D+00 0.133D+01-0.167D+01
 Coeff:      0.162D+01
 Gap=     0.572 Goal=   None    Shift=    0.000
 Gap=     0.552 Goal=   None    Shift=    0.000
 RMSDP=3.72D-05 MaxDP=2.96D-03 DE=-6.15D-05 OVMax= 1.10D-02

 Cycle  48  Pass 1  IDiag  1:
 RMSU=  1.17D-05    CP:  9.98D-01  3.00D+00 -6.45D-01  3.00D+00  3.00D+00
                    CP:  3.00D+00  3.00D+00  3.00D+00  1.56D+00  3.00D+00
                    CP:  3.00D+00  3.00D+00  2.14D+00 -3.61D-01  2.45D+00
 E= -1718.33909436494     Delta-E=       -0.000074656802 Rises=F Damp=F
 DIIS: error= 4.35D-04 at cycle  36 NSaved=  20.
 NSaved=20 IEnMin=20 EnMin= -1718.33909436494     IErMin=15 ErrMin= 4.11D-04
 ErrMax= 4.35D-04  0.00D+00 EMaxC= 1.00D-01 BMatC= 8.78D-05 BMatP= 6.82D-05
 IDIUse=3 WtCom= 9.96D-01 WtEn= 4.11D-03
 Coeff-Com:  0.160D+01-0.149D+01-0.156D+01 0.170D+01 0.197D+00-0.276D+01
 Coeff-Com:  0.491D+01-0.381D+01-0.121D+00 0.400D+01-0.263D+01-0.487D+01
 Coeff-Com:  0.531D+01-0.198D+00-0.716D+00 0.438D+00-0.706D-01-0.648D+00
 Coeff-Com:  0.569D+00 0.113D+01
 Coeff-En:   0.000D+00 0.000D+00 0.000D+00 0.000D+00 0.000D+00 0.000D+00
 Coeff-En:   0.000D+00 0.000D+00 0.000D+00 0.000D+00 0.000D+00 0.000D+00
 Coeff-En:   0.000D+00 0.000D+00 0.000D+00 0.000D+00 0.000D+00 0.000D+00
 Coeff-En:   0.000D+00 0.100D+01
 Coeff:      0.160D+01-0.148D+01-0.155D+01 0.169D+01 0.196D+00-0.274D+01
 Coeff:      0.489D+01-0.379D+01-0.120D+00 0.398D+01-0.262D+01-0.485D+01
 Coeff:      0.528D+01-0.197D+00-0.713D+00 0.437D+00-0.703D-01-0.645D+00
 Coeff:      0.567D+00 0.113D+01
 Gap=     0.572 Goal=   None    Shift=    0.000
 Gap=     0.555 Goal=   None    Shift=    0.000
 RMSDP=1.82D-05 MaxDP=1.24D-03 DE=-7.47D-05 OVMax= 4.90D-03

 Cycle  49  Pass 1  IDiag  1:
 RMSU=  4.57D-06    CP:  9.98D-01  3.00D+00 -5.85D-01  3.00D+00  3.00D+00
                    CP:  3.00D+00  3.00D+00  3.00D+00  1.41D+00  3.00D+00
                    CP:  3.00D+00  3.00D+00  2.44D+00 -4.52D-01  3.00D+00
                    CP:  1.97D+00
 E= -1718.33913041075     Delta-E=       -0.000036045811 Rises=F Damp=F
 DIIS: error= 3.48D-04 at cycle  37 NSaved=  20.
 NSaved=20 IEnMin=20 EnMin= -1718.33913041075     IErMin=20 ErrMin= 3.48D-04
 ErrMax= 3.48D-04  0.00D+00 EMaxC= 1.00D-01 BMatC= 6.20D-05 BMatP= 6.82D-05
 IDIUse=3 WtCom= 9.97D-01 WtEn= 3.48D-03
 Coeff-Com:  0.999D-01-0.578D+00 0.123D+01-0.581D+00-0.166D+01 0.295D+01
 Coeff-Com: -0.218D+01 0.410D+00 0.235D+01-0.219D+01-0.321D+01 0.286D+01
 Coeff-Com:  0.159D+01-0.216D+01-0.136D+00 0.441D+01-0.176D+01 0.358D-01
 Coeff-Com: -0.540D+01 0.493D+01
 Coeff-En:   0.000D+00 0.000D+00 0.000D+00 0.000D+00 0.000D+00 0.000D+00
 Coeff-En:   0.000D+00 0.000D+00 0.000D+00 0.000D+00 0.000D+00 0.000D+00
 Coeff-En:   0.000D+00 0.000D+00 0.000D+00 0.000D+00 0.000D+00 0.000D+00
 Coeff-En:   0.000D+00 0.100D+01
 Coeff:      0.996D-01-0.576D+00 0.123D+01-0.579D+00-0.166D+01 0.294D+01
 Coeff:     -0.217D+01 0.409D+00 0.234D+01-0.218D+01-0.320D+01 0.285D+01
 Coeff:      0.159D+01-0.215D+01-0.136D+00 0.439D+01-0.176D+01 0.357D-01
 Coeff:     -0.538D+01 0.492D+01
 Gap=     0.572 Goal=   None    Shift=    0.000
 Gap=     0.568 Goal=   None    Shift=    0.000
 RMSDP=5.18D-05 MaxDP=4.14D-03 DE=-3.60D-05 OVMax= 1.85D-02

 Cycle  50  Pass 1  IDiag  1:
 RMSU=  3.16D-05    CP:  9.98D-01  3.00D+00 -9.02D-01  3.00D+00  3.00D+00
                    CP:  3.00D+00  3.00D+00  3.00D+00  1.62D+00  3.00D+00
                    CP:  3.00D+00  3.00D+00  3.00D+00 -3.70D-01  3.00D+00
                    CP:  3.00D+00  3.00D+00
 E= -1718.33923329629     Delta-E=       -0.000102885546 Rises=F Damp=F
 DIIS: error= 3.02D-04 at cycle  38 NSaved=  20.
 NSaved=20 IEnMin=20 EnMin= -1718.33923329629     IErMin=20 ErrMin= 3.02D-04
 ErrMax= 3.02D-04  0.00D+00 EMaxC= 1.00D-01 BMatC= 1.71D-05 BMatP= 6.20D-05
 IDIUse=3 WtCom= 9.97D-01 WtEn= 3.02D-03
 Coeff-Com:  0.304D-01 0.333D+00-0.410D+00-0.131D+00 0.330D+00-0.101D+00
 Coeff-Com:  0.386D+00-0.849D+00 0.163D+00-0.339D+00 0.656D+00-0.900D-01
 Coeff-Com: -0.108D+01 0.727D+00 0.154D+01 0.736D+00 0.320D+00-0.222D+01
 Coeff-Com: -0.181D+01 0.281D+01
 Coeff-En:   0.000D+00 0.000D+00 0.000D+00 0.000D+00 0.000D+00 0.000D+00
 Coeff-En:   0.000D+00 0.000D+00 0.000D+00 0.000D+00 0.000D+00 0.000D+00
 Coeff-En:   0.000D+00 0.000D+00 0.000D+00 0.000D+00 0.000D+00 0.000D+00
 Coeff-En:   0.000D+00 0.100D+01
 Coeff:      0.303D-01 0.332D+00-0.409D+00-0.131D+00 0.329D+00-0.101D+00
 Coeff:      0.385D+00-0.846D+00 0.163D+00-0.338D+00 0.654D+00-0.897D-01
 Coeff:     -0.107D+01 0.725D+00 0.154D+01 0.734D+00 0.319D+00-0.222D+01
 Coeff:     -0.180D+01 0.280D+01
 Gap=     0.574 Goal=   None    Shift=    0.000
 Gap=     0.573 Goal=   None    Shift=    0.000
 RMSDP=9.88D-05 MaxDP=9.80D-03 DE=-1.03D-04 OVMax= 4.08D-02

 Cycle  51  Pass 1  IDiag  1:
 RMSU=  4.53D-05    CP:  9.98D-01  3.00D+00 -1.33D+00  3.00D+00  3.00D+00
                    CP:  3.00D+00  3.00D+00  3.00D+00  2.91D+00  3.00D+00
                    CP:  3.00D+00  3.00D+00  3.00D+00  2.29D+00  3.00D+00
                    CP:  3.00D+00  3.00D+00  3.00D+00
 E= -1718.33938009121     Delta-E=       -0.000146794914 Rises=F Damp=F
 DIIS: error= 3.08D-04 at cycle  39 NSaved=  20.
 NSaved=20 IEnMin=20 EnMin= -1718.33938009121     IErMin=19 ErrMin= 3.02D-04
 ErrMax= 3.08D-04  0.00D+00 EMaxC= 1.00D-01 BMatC= 4.40D-05 BMatP= 1.71D-05
 IDIUse=3 WtCom= 9.97D-01 WtEn= 3.02D-03
 Coeff-Com:  0.282D+00-0.419D-01-0.276D+00 0.319D+00-0.507D+00 0.105D+01
 Coeff-Com: -0.594D+00-0.850D+00-0.831D+00 0.189D+01-0.661D+00-0.131D+01
 Coeff-Com:  0.234D+01-0.141D+01 0.936D+00-0.232D+00 0.551D+00-0.533D+00
 Coeff-Com: -0.880D+00 0.175D+01
 Coeff-En:   0.000D+00 0.000D+00 0.000D+00 0.000D+00 0.000D+00 0.000D+00
 Coeff-En:   0.000D+00 0.000D+00 0.000D+00 0.000D+00 0.000D+00 0.000D+00
 Coeff-En:   0.000D+00 0.000D+00 0.000D+00 0.000D+00 0.000D+00 0.000D+00
 Coeff-En:   0.000D+00 0.100D+01
 Coeff:      0.281D+00-0.418D-01-0.275D+00 0.319D+00-0.505D+00 0.105D+01
 Coeff:     -0.592D+00-0.847D+00-0.828D+00 0.189D+01-0.659D+00-0.130D+01
 Coeff:      0.233D+01-0.141D+01 0.933D+00-0.231D+00 0.549D+00-0.531D+00
 Coeff:     -0.878D+00 0.175D+01
 Gap=     0.574 Goal=   None    Shift=    0.000
 Gap=     0.569 Goal=   None    Shift=    0.000
 RMSDP=7.17D-05 MaxDP=7.36D-03 DE=-1.47D-04 OVMax= 2.99D-02

 Cycle  52  Pass 1  IDiag  1:
 RMSU=  4.29D-05    CP:  9.97D-01  3.00D+00 -1.75D+00  3.00D+00  3.00D+00
                    CP:  3.00D+00  3.00D+00  3.00D+00  3.00D+00  3.00D+00
                    CP:  3.00D+00  3.00D+00  3.00D+00  3.00D+00  3.00D+00
                    CP:  3.00D+00  3.00D+00  3.00D+00  2.17D+00
 E= -1718.33945873218     Delta-E=       -0.000078640978 Rises=F Damp=F
 DIIS: error= 3.80D-04 at cycle  40 NSaved=  20.
 NSaved=20 IEnMin=20 EnMin= -1718.33945873218     IErMin=18 ErrMin= 3.02D-04
 ErrMax= 3.80D-04  0.00D+00 EMaxC= 1.00D-01 BMatC= 5.61D-05 BMatP= 1.71D-05
 IDIUse=3 WtCom= 9.97D-01 WtEn= 3.02D-03
 Coeff-Com:  0.162D+00-0.469D+00 0.161D+00 0.319D+00-0.209D+00 0.496D+00
 Coeff-Com: -0.603D+00-0.130D+01 0.146D+01 0.724D-01-0.965D+00 0.987D+00
 Coeff-Com: -0.368D+00 0.731D+00-0.128D+00-0.298D+00 0.197D+00-0.386D+00
 Coeff-Com:  0.986D-01 0.103D+01
 Coeff-En:   0.000D+00 0.000D+00 0.000D+00 0.000D+00 0.000D+00 0.000D+00
 Coeff-En:   0.000D+00 0.000D+00 0.000D+00 0.000D+00 0.000D+00 0.000D+00
 Coeff-En:   0.000D+00 0.000D+00 0.000D+00 0.000D+00 0.000D+00 0.000D+00
 Coeff-En:   0.000D+00 0.100D+01
 Coeff:      0.161D+00-0.468D+00 0.160D+00 0.318D+00-0.208D+00 0.494D+00
 Coeff:     -0.601D+00-0.129D+01 0.146D+01 0.722D-01-0.962D+00 0.984D+00
 Coeff:     -0.367D+00 0.729D+00-0.128D+00-0.297D+00 0.196D+00-0.384D+00
 Coeff:      0.983D-01 0.103D+01
 Gap=     0.574 Goal=   None    Shift=    0.000
 Gap=     0.569 Goal=   None    Shift=    0.000
 RMSDP=3.05D-05 MaxDP=3.42D-03 DE=-7.86D-05 OVMax= 1.29D-02

 Cycle  53  Pass 1  IDiag  1:
 Restarting incremental Fock formation.
 E= -1718.33948160185     Delta-E=       -0.000022869663 Rises=F Damp=F
 DIIS: error= 3.32D-04 at cycle  41 NSaved=  20.
 NSaved=20 IEnMin=20 EnMin= -1718.33948160185     IErMin=17 ErrMin= 3.02D-04
 ErrMax= 3.32D-04  0.00D+00 EMaxC= 1.00D-01 BMatC= 4.26D-05 BMatP= 1.71D-05
 IDIUse=3 WtCom= 9.97D-01 WtEn= 3.02D-03
 Coeff-Com:  0.768D+00-0.153D+01 0.662D+00 0.137D+00-0.610D-01-0.500D+00
 Coeff-Com: -0.166D+00 0.136D+01-0.462D+00-0.792D+00 0.303D-01 0.101D+01
 Coeff-Com: -0.139D+00 0.442D+00 0.846D+00-0.249D+01 0.942D+00 0.115D+01
 Coeff-Com: -0.646D+01 0.626D+01
 Coeff-En:   0.000D+00 0.000D+00 0.000D+00 0.000D+00 0.000D+00 0.000D+00
 Coeff-En:   0.000D+00 0.000D+00 0.000D+00 0.000D+00 0.000D+00 0.000D+00
 Coeff-En:   0.000D+00 0.000D+00 0.000D+00 0.000D+00 0.000D+00 0.000D+00
 Coeff-En:   0.000D+00 0.100D+01
 Coeff:      0.766D+00-0.153D+01 0.660D+00 0.136D+00-0.608D-01-0.499D+00
 Coeff:     -0.166D+00 0.135D+01-0.461D+00-0.789D+00 0.302D-01 0.100D+01
 Coeff:     -0.139D+00 0.441D+00 0.843D+00-0.248D+01 0.940D+00 0.115D+01
 Coeff:     -0.644D+01 0.624D+01
 Gap=     0.571 Goal=   None    Shift=    0.000
 Gap=     0.568 Goal=   None    Shift=    0.000
 RMSDP=8.44D-05 MaxDP=9.51D-03 DE=-2.29D-05 OVMax= 3.45D-02

 Cycle  54  Pass 1  IDiag  1:
 RMSU=  8.44D-05    CP:  1.00D+00
 E= -1718.33949904889     Delta-E=       -0.000017447038 Rises=F Damp=F
 DIIS: error= 1.69D-04 at cycle  42 NSaved=  20.
 NSaved=20 IEnMin=20 EnMin= -1718.33949904889     IErMin=20 ErrMin= 1.69D-04
 ErrMax= 1.69D-04  0.00D+00 EMaxC= 1.00D-01 BMatC= 2.03D-05 BMatP= 1.71D-05
 IDIUse=3 WtCom= 9.97D-01 WtEn= 3.02D-03
 Coeff-Com: -0.271D+00 0.143D+00 0.182D+00-0.149D+00-0.270D+00-0.845D-01
 Coeff-Com:  0.893D+00-0.218D+00-0.596D+00-0.965D-01 0.443D+00 0.200D+00
 Coeff-Com:  0.415D+00 0.102D+01-0.239D+01 0.807D+00 0.968D+00-0.557D+01
 Coeff-Com:  0.559D+01-0.266D-01
 Coeff-En:   0.000D+00 0.000D+00 0.000D+00 0.000D+00 0.000D+00 0.000D+00
 Coeff-En:   0.000D+00 0.000D+00 0.000D+00 0.000D+00 0.000D+00 0.000D+00
 Coeff-En:   0.000D+00 0.000D+00 0.000D+00 0.000D+00 0.000D+00 0.000D+00
 Coeff-En:   0.000D+00 0.100D+01
 Coeff:     -0.270D+00 0.142D+00 0.181D+00-0.148D+00-0.269D+00-0.842D-01
 Coeff:      0.890D+00-0.217D+00-0.595D+00-0.962D-01 0.442D+00 0.199D+00
 Coeff:      0.414D+00 0.102D+01-0.238D+01 0.805D+00 0.965D+00-0.555D+01
 Coeff:      0.558D+01-0.235D-01
 Gap=     0.571 Goal=   None    Shift=    0.000
 Gap=     0.568 Goal=   None    Shift=    0.000
 RMSDP=1.25D-05 MaxDP=1.17D-03 DE=-1.74D-05 OVMax= 2.80D-03

 Cycle  55  Pass 1  IDiag  1:
 RMSU=  1.23D-05    CP:  1.00D+00  9.69D-01
 E= -1718.33950814725     Delta-E=       -0.000009098364 Rises=F Damp=F
 DIIS: error= 1.59D-04 at cycle  43 NSaved=  20.
 NSaved=20 IEnMin=20 EnMin= -1718.33950814725     IErMin=20 ErrMin= 1.59D-04
 ErrMax= 1.59D-04  0.00D+00 EMaxC= 1.00D-01 BMatC= 1.03D-05 BMatP= 1.71D-05
 IDIUse=3 WtCom= 9.98D-01 WtEn= 1.59D-03
 Coeff-Com:  0.233D+00-0.274D+00 0.726D-01-0.445D+00-0.113D+00 0.996D+00
 Coeff-Com: -0.331D+00-0.175D+00 0.117D+00-0.248D+01 0.158D+01-0.265D+00
 Coeff-Com:  0.437D+01-0.332D+01-0.125D+01 0.430D+01-0.757D+01 0.447D+01
 Coeff-Com: -0.213D+01 0.321D+01
 Coeff-En:   0.000D+00 0.000D+00 0.000D+00 0.000D+00 0.000D+00 0.000D+00
 Coeff-En:   0.000D+00 0.000D+00 0.000D+00 0.000D+00 0.000D+00 0.000D+00
 Coeff-En:   0.000D+00 0.000D+00 0.000D+00 0.000D+00 0.000D+00 0.000D+00
 Coeff-En:   0.000D+00 0.100D+01
 Coeff:      0.232D+00-0.274D+00 0.725D-01-0.445D+00-0.113D+00 0.995D+00
 Coeff:     -0.330D+00-0.175D+00 0.117D+00-0.247D+01 0.158D+01-0.265D+00
 Coeff:      0.436D+01-0.332D+01-0.125D+01 0.429D+01-0.756D+01 0.447D+01
 Coeff:     -0.213D+01 0.320D+01
 Gap=     0.571 Goal=   None    Shift=    0.000
 Gap=     0.567 Goal=   None    Shift=    0.000
 RMSDP=4.04D-05 MaxDP=4.80D-03 DE=-9.10D-06 OVMax= 1.78D-02

 Cycle  56  Pass 1  IDiag  1:
 RMSU=  1.48D-05    CP:  1.00D+00  1.40D+00  1.92D+00
 E= -1718.33949953396     Delta-E=        0.000008613289 Rises=F Damp=F
 DIIS: error= 1.54D-04 at cycle  44 NSaved=  20.
 NSaved=20 IEnMin=19 EnMin= -1718.33950814725     IErMin=20 ErrMin= 1.54D-04
 ErrMax= 1.54D-04  0.00D+00 EMaxC= 1.00D-01 BMatC= 9.72D-06 BMatP= 1.03D-05
 IDIUse=3 WtCom= 9.98D-01 WtEn= 1.54D-03
 Rare condition: small coef for last iteration:  0.000D+00
 Coeff-Com:  0.217D+00 0.157D+00-0.446D+00-0.437D-01 0.303D+00 0.990D-01
 Coeff-Com:  0.746D-01-0.621D+00-0.119D+01 0.116D+01-0.766D+00 0.259D+01
 Coeff-Com: -0.108D+01-0.143D+01 0.279D+01-0.504D+01 0.349D+01-0.136D+01
 Coeff-Com:  0.842D+00 0.127D+01
 Coeff-En:   0.000D+00 0.000D+00 0.000D+00 0.000D+00 0.000D+00 0.000D+00
 Coeff-En:   0.000D+00 0.000D+00 0.000D+00 0.000D+00 0.000D+00 0.000D+00
 Coeff-En:   0.000D+00 0.000D+00 0.000D+00 0.000D+00 0.000D+00 0.000D+00
 Coeff-En:   0.000D+00 0.100D+01
 Coeff:      0.217D+00 0.157D+00-0.446D+00-0.437D-01 0.303D+00 0.990D-01
 Coeff:      0.746D-01-0.621D+00-0.119D+01 0.116D+01-0.766D+00 0.259D+01
 Coeff:     -0.108D+01-0.143D+01 0.279D+01-0.504D+01 0.349D+01-0.136D+01
 Coeff:      0.842D+00 0.127D+01
 Gap=     0.570 Goal=   None    Shift=    0.000
 Gap=     0.563 Goal=   None    Shift=    0.000
 RMSDP=2.80D-05 MaxDP=3.23D-03 DE= 8.61D-06 OVMax= 1.19D-02

 Cycle  57  Pass 1  IDiag  1:
 RMSU=  3.18D-06    CP:  1.00D+00  1.70D+00  2.31D+00  1.64D+00
 E= -1718.33949198477     Delta-E=        0.000007549190 Rises=F Damp=F
 DIIS: error= 1.72D-04 at cycle  45 NSaved=  20.
 NSaved=20 IEnMin=18 EnMin= -1718.33950814725     IErMin=19 ErrMin= 1.54D-04
 ErrMax= 1.72D-04  0.00D+00 EMaxC= 1.00D-01 BMatC= 1.39D-05 BMatP= 9.72D-06
 IDIUse=3 WtCom= 9.98D-01 WtEn= 1.54D-03
 Rare condition: small coef for last iteration:  0.000D+00
 Coeff-Com: -0.293D+00 0.285D+00-0.773D-01-0.613D-01 0.959D+00-0.368D+00
 Coeff-Com: -0.153D+01 0.800D+00-0.327D+00 0.227D+00 0.178D+01-0.140D+01
 Coeff-Com: -0.456D+00 0.108D+01-0.368D+01 0.395D+01-0.910D+00 0.603D+00
 Coeff-Com: -0.279D+01 0.320D+01
 Coeff-En:   0.000D+00 0.000D+00 0.000D+00 0.000D+00 0.000D+00 0.000D+00
 Coeff-En:   0.000D+00 0.000D+00 0.000D+00 0.000D+00 0.000D+00 0.000D+00
 Coeff-En:   0.000D+00 0.000D+00 0.000D+00 0.000D+00 0.000D+00 0.000D+00
 Coeff-En:   0.000D+00 0.100D+01
 Coeff:     -0.293D+00 0.285D+00-0.773D-01-0.613D-01 0.959D+00-0.368D+00
 Coeff:     -0.153D+01 0.800D+00-0.327D+00 0.227D+00 0.178D+01-0.140D+01
 Coeff:     -0.456D+00 0.108D+01-0.368D+01 0.395D+01-0.910D+00 0.603D+00
 Coeff:     -0.279D+01 0.320D+01
 Gap=     0.570 Goal=   None    Shift=    0.000
 Gap=     0.559 Goal=   None    Shift=    0.000
 RMSDP=4.00D-05 MaxDP=4.36D-03 DE= 7.55D-06 OVMax= 1.71D-02

 Cycle  58  Pass 1  IDiag  1:
 RMSU=  1.30D-05    CP:  1.00D+00  2.14D+00  2.78D+00  1.91D+00 -5.20D-02
 E= -1718.33949685595     Delta-E=       -0.000004871183 Rises=F Damp=F
 DIIS: error= 2.15D-04 at cycle  46 NSaved=  20.
 NSaved=20 IEnMin=17 EnMin= -1718.33950814725     IErMin=18 ErrMin= 1.54D-04
 ErrMax= 2.15D-04  0.00D+00 EMaxC= 1.00D-01 BMatC= 2.43D-05 BMatP= 9.72D-06
 IDIUse=3 WtCom= 9.98D-01 WtEn= 1.54D-03
 Coeff-Com:  0.113D-01 0.616D+00-0.845D+00 0.754D+00-0.736D-02-0.132D+01
 Coeff-Com:  0.799D+00-0.752D+00 0.567D+00 0.148D+01-0.166D+01 0.153D+00
 Coeff-Com:  0.543D+00-0.271D+01 0.278D+01-0.107D+01 0.130D+01-0.187D+01
 Coeff-Com:  0.474D+00 0.176D+01
 Coeff-En:   0.000D+00 0.000D+00 0.000D+00 0.000D+00 0.000D+00 0.000D+00
 Coeff-En:   0.000D+00 0.000D+00 0.000D+00 0.000D+00 0.000D+00 0.000D+00
 Coeff-En:   0.000D+00 0.000D+00 0.000D+00 0.000D+00 0.000D+00 0.000D+00
 Coeff-En:   0.000D+00 0.100D+01
 Coeff:      0.112D-01 0.615D+00-0.844D+00 0.753D+00-0.735D-02-0.132D+01
 Coeff:      0.798D+00-0.751D+00 0.566D+00 0.148D+01-0.165D+01 0.153D+00
 Coeff:      0.543D+00-0.271D+01 0.277D+01-0.107D+01 0.130D+01-0.187D+01
 Coeff:      0.473D+00 0.176D+01
 Gap=     0.572 Goal=   None    Shift=    0.000
 Gap=     0.557 Goal=   None    Shift=    0.000
[...]
     8  O    0.005155  -0.000073   0.000000   0.000014  -0.000004  -0.000234
     9  H    0.000198   0.000000  -0.000001  -0.000032   0.000017   0.000028
    10  O   -0.026191   0.000071  -0.000062  -0.003943   0.000462  -0.004242
    11  H    0.000776  -0.000152   0.000030   0.000157  -0.000013   0.000141
    12  O   -0.026189  -0.000406  -0.000052  -0.004238   0.000071  -0.003944
    13  H    0.000777   0.000012   0.000005   0.000141  -0.000002   0.000157
    14  H    0.000778   0.000020   0.000002   0.000280  -0.000044   0.000159
    15  H   -0.000450   0.000004  -0.000002  -0.000936   0.000201  -0.000026
    16  H    0.000777  -0.000029   0.000008   0.000159  -0.000006   0.000281
    17  H    0.000218   0.000079   0.000175  -0.000058  -0.000027   0.000008
    18  H   -0.000448  -0.000019  -0.000018  -0.000026   0.000000  -0.000938
    19  H    0.000218   0.000001   0.000001   0.000008  -0.000003  -0.000058
               7          8          9         10         11         12
     1  Fe   0.000403   0.005155   0.000198  -0.026191   0.000776  -0.026189
     2  O   -0.000004  -0.000073   0.000000   0.000071  -0.000152  -0.000406
     3  H    0.000017   0.000000  -0.000001  -0.000062   0.000030  -0.000052
     4  O   -0.000023   0.000014  -0.000032  -0.003943   0.000157  -0.004238
     5  H    0.000001  -0.000004   0.000017   0.000462  -0.000013   0.000071
     6  O   -0.001248  -0.000234   0.000028  -0.004242   0.000141  -0.003944
     7  H    0.001729   0.000027   0.000005   0.000071  -0.000002   0.000463
     8  O    0.000027  -0.010794   0.000055  -0.000406   0.000012   0.000070
     9  H    0.000005   0.000055  -0.000630  -0.000052   0.000005  -0.000062
    10  O    0.000071  -0.000406  -0.000052   0.049664  -0.001551   0.000566
    11  H   -0.000002   0.000012   0.000005  -0.001551  -0.000604  -0.000019
    12  O    0.000463   0.000070  -0.000062   0.000566  -0.000019   0.049653
    13  H   -0.000013  -0.000152   0.000030  -0.000019  -0.000000  -0.001551
    14  H   -0.000006  -0.000029   0.000008  -0.001800   0.000725  -0.000022
    15  H    0.000000  -0.000019  -0.000017   0.000049  -0.000008   0.000888
    16  H   -0.000044   0.000020   0.000002  -0.000022   0.000003  -0.001800
    17  H   -0.000003   0.000001   0.000001   0.000001   0.000014   0.000031
    18  H    0.000202   0.000004  -0.000002   0.000888  -0.000061   0.000049
    19  H   -0.000027   0.000079   0.000175   0.000031   0.000003   0.000001
              13         14         15         16         17         18
     1  Fe   0.000777   0.000778  -0.000450   0.000777   0.000218  -0.000448
     2  O    0.000012   0.000020   0.000004  -0.000029   0.000079  -0.000019
     3  H    0.000005   0.000002  -0.000002   0.000008   0.000175  -0.000018
     4  O    0.000141   0.000280  -0.000936   0.000159  -0.000058  -0.000026
     5  H   -0.000002  -0.000044   0.000201  -0.000006  -0.000027   0.000000
     6  O    0.000157   0.000159  -0.000026   0.000281   0.000008  -0.000938
     7  H   -0.000013  -0.000006   0.000000  -0.000044  -0.000003   0.000202
     8  O   -0.000152  -0.000029  -0.000019   0.000020   0.000001   0.000004
     9  H    0.000030   0.000008  -0.000017   0.000002   0.000001  -0.000002
    10  O   -0.000019  -0.001800   0.000049  -0.000022   0.000001   0.000888
    11  H   -0.000000   0.000725  -0.000008   0.000003   0.000014  -0.000061
    12  O   -0.001551  -0.000022   0.000888  -0.001800   0.000031   0.000049
    13  H   -0.000609   0.000003  -0.000061   0.000725   0.000003  -0.000008
    14  H    0.000003   0.000701  -0.000009   0.000000  -0.000003  -0.000046
    15  H   -0.000061  -0.000009   0.002615  -0.000046   0.000012   0.000002
    16  H    0.000725   0.000000  -0.000046   0.000707  -0.000025  -0.000009
    17  H    0.000003  -0.000003   0.000012  -0.000025  -0.000777   0.000003
    18  H   -0.000008  -0.000046   0.000002  -0.000009   0.000003   0.002618
    19  H    0.000014  -0.000025   0.000003  -0.000003  -0.000001   0.000012
              19
     1  Fe   0.000218
     2  O    0.000001
     3  H    0.000001
     4  O    0.000008
     5  H   -0.000003
     6  O   -0.000058
     7  H   -0.000027
     8  O    0.000079
     9  H    0.000175
    10  O    0.000031
    11  H    0.000003
    12  O    0.000001
    13  H    0.000014
    14  H   -0.000025
    15  H    0.000003
    16  H   -0.000003
    17  H   -0.000001
    18  H    0.000012
    19  H   -0.000777
 Mulliken charges and spin densities:
               1          2
     1  Fe   1.130256   1.963098
     2  O   -0.689518  -0.006277
     3  H    0.426171  -0.000272
     4  O   -0.704861   0.007936
     5  H    0.417729   0.001547
     6  O   -0.705007   0.007934
     7  H    0.417734   0.001550
     8  O   -0.689579  -0.006275
     9  H    0.426169  -0.000272
    10  O   -0.702179   0.013514
    11  H    0.424510  -0.000544
    12  O   -0.702279   0.013510
    13  H    0.424544  -0.000549
    14  H    0.417812   0.000693
    15  H    0.425528   0.002200
    16  H    0.417815   0.000697
    17  H    0.419782  -0.000347
    18  H    0.425567   0.002204
    19  H    0.419807  -0.000348
 Sum of Mulliken charges =   2.00000   2.00000
 Mulliken charges and spin densities with hydrogens summed into heavy atoms:
               1          2
     1  Fe   1.130256   1.963098
     2  O    0.156435  -0.006896
     4  O    0.138396   0.011684
     6  O    0.138295   0.011687
     8  O    0.156396  -0.006894
    10  O    0.140143   0.013663
    12  O    0.140080   0.013658
 Electronic spatial extent (au):  <R**2>=           1031.3909
 Charge=              2.0000 electrons
 Dipole moment (field-independent basis, Debye):
    X=             -0.0011    Y=             -0.0013    Z=             -0.0018  Tot=              0.0025
 Quadrupole moment (field-independent basis, Debye-Ang):
   XX=            -23.2995   YY=            -15.3687   ZZ=            -15.6024
   XY=              0.1921   XZ=             -0.1894   YZ=             -0.2093
 Traceless Quadrupole moment (field-independent basis, Debye-Ang):
   XX=             -5.2093   YY=              2.7215   ZZ=              2.4878
   XY=              0.1921   XZ=             -0.1894   YZ=             -0.2093
 Octapole moment (field-independent basis, Debye-Ang**2):
  XXX=             -0.0098  YYY=              0.0116  ZZZ=              0.0056  XYY=              0.0029
  XXY=             -0.0084  XXZ=             -0.0329  XZZ=             -0.0080  YZZ=             -0.0121
  YYZ=             -0.0095  XYZ=             -0.0195
 Hexadecapole moment (field-independent basis, Debye-Ang**3):
 XXXX=           -288.2867 YYYY=           -159.8819 ZZZZ=           -161.2056 XXXY=              0.7936
 XXXZ=             -0.6165 YYYX=             10.5686 YYYZ=             -0.8808 ZZZX=             37.4670
 ZZZY=             -0.5179 XXYY=            -59.4383 XXZZ=            -59.9977 YYZZ=            -53.0615
 XXYZ=             -0.6232 YYXZ=            -38.7540 ZZXY=             -9.1510
 N-N= 6.957934702665D+02 E-N=-5.455110727454D+03  KE= 1.718130481960D+03
                          Isotropic Fermi Contact Couplings
        Atom                 a.u.       MegaHertz       Gauss      10(-4) cm-1
     1  Fe(57)             0.04880       3.53894       1.26278       1.18046
     2  O(17)             -0.01263       3.82738       1.36571       1.27668
     3  H(1)              -0.00015      -0.33722      -0.12033      -0.11248
     4  O(17)              0.06600     -20.00346      -7.13773      -6.67244
     5  H(1)               0.00064       1.42973       0.51016       0.47691
     6  O(17)              0.06605     -20.02011      -7.14367      -6.67799
     7  H(1)               0.00064       1.43234       0.51110       0.47778
     8  O(17)             -0.01263       3.82714       1.36562       1.27660
     9  H(1)              -0.00015      -0.33777      -0.12052      -0.11267
    10  O(17)              0.06979     -21.15320      -7.54799      -7.05595
    11  H(1)              -0.00050      -1.11838      -0.39907      -0.37305
    12  O(17)              0.06979     -21.15316      -7.54797      -7.05593
    13  H(1)              -0.00050      -1.12409      -0.40110      -0.37495
    14  H(1)               0.00008       0.18651       0.06655       0.06221
    15  H(1)               0.00102       2.28971       0.81702       0.76376
    16  H(1)               0.00009       0.19243       0.06866       0.06419
    17  H(1)              -0.00025      -0.54922      -0.19598      -0.18320
    18  H(1)               0.00103       2.29279       0.81813       0.76479
    19  H(1)              -0.00025      -0.55001      -0.19626      -0.18346
 --------------------------------------------------------
       Center         ----  Spin Dipole Couplings  ----
                      3XX-RR        3YY-RR        3ZZ-RR
 --------------------------------------------------------
     1   Atom       -0.487520     -0.548638      1.036158
     2   Atom        0.000488      0.006011     -0.006499
     3   Atom        0.008852      0.005225     -0.014078
     4   Atom        0.010719     -0.050942      0.040224
     5   Atom       -0.009680     -0.015482      0.025162
     6   Atom        0.010798     -0.050925      0.040126
     7   Atom       -0.009663     -0.015466      0.025128
     8   Atom        0.000485      0.005996     -0.006482
     9   Atom        0.008845      0.005236     -0.014080
    10   Atom        0.017961      0.008615     -0.026577
    11   Atom        0.012059     -0.008525     -0.003535
    12   Atom        0.017872      0.008641     -0.026514
    13   Atom        0.012094     -0.008527     -0.003568
    14   Atom       -0.010650      0.024497     -0.013847
    15   Atom        0.010903     -0.014700      0.003797
    16   Atom       -0.010653      0.024479     -0.013827
    17   Atom       -0.007758      0.006338      0.001419
    18   Atom        0.010935     -0.014710      0.003775
    19   Atom       -0.007746      0.006311      0.001435
 --------------------------------------------------------
                        XY            XZ            YZ
 --------------------------------------------------------
     1   Atom       -3.400327      2.469632      2.434395
     2   Atom        0.025191     -0.013846     -0.020692
     3   Atom        0.021429     -0.006543     -0.005701
     4   Atom        0.009816      0.087115      0.013396
     5   Atom        0.002145      0.014735      0.008952
     6   Atom        0.009888      0.087111      0.013450
     7   Atom        0.002160      0.014752      0.008979
     8   Atom        0.025194     -0.013858     -0.020691
     9   Atom        0.021431     -0.006540     -0.005704
    10   Atom       -0.088820     -0.002412      0.028486
    11   Atom       -0.015666     -0.021473      0.010197
    12   Atom       -0.088821     -0.002428      0.028436
    13   Atom       -0.015664     -0.021460      0.010184
    14   Atom       -0.013210     -0.004235      0.012573
    15   Atom       -0.009604      0.025160     -0.005814
    16   Atom       -0.013198     -0.004238      0.012599
    17   Atom        0.011490     -0.010410     -0.017070
    18   Atom       -0.009578      0.025151     -0.005784
    19   Atom        0.011488     -0.010422     -0.017066
 --------------------------------------------------------


 ---------------------------------------------------------------------------------
              Anisotropic Spin Dipole Couplings in Principal Axis System
 ---------------------------------------------------------------------------------

       Atom             a.u.   MegaHertz   Gauss  10(-4) cm-1        Axes

              Baa    -5.7028   -98.732   -35.230   -32.933  0.6275  0.6300 -0.4575
     1 Fe(57) Bbb     2.8039    48.543    17.321    16.192 -0.0026  0.5893  0.8079
              Bcc     2.8989    50.189    17.909    16.741  0.7787 -0.5057  0.3714
 
              Baa    -0.0241     1.744     0.622     0.582 -0.4767  0.7325  0.4859
     2 O(17)  Bbb    -0.0172     1.247     0.445     0.416  0.6660 -0.0598  0.7436
              Bcc     0.0413    -2.992    -1.067    -0.998  0.5738  0.6781 -0.4593
 
              Baa    -0.0158    -8.437    -3.011    -2.814  0.2510  0.0066  0.9680
     3 H(1)   Bbb    -0.0144    -7.698    -2.747    -2.568 -0.6433  0.7483  0.1617
              Bcc     0.0302    16.136     5.758     5.382  0.7233  0.6633 -0.1921
 
              Baa    -0.0630     4.559     1.627     1.521  0.7527  0.1085 -0.6493
     4 O(17)  Bbb    -0.0525     3.796     1.355     1.266 -0.1469  0.9891 -0.0049
              Bcc     0.1155    -8.356    -2.982    -2.787  0.6417  0.0991  0.7605
 
              Baa    -0.0177    -9.420    -3.361    -3.142  0.2933  0.9106 -0.2913
     5 H(1)   Bbb    -0.0147    -7.818    -2.790    -2.608  0.8959 -0.3682 -0.2488
              Bcc     0.0323    17.238     6.151     5.750  0.3338  0.1880  0.9237
 
              Baa    -0.0630     4.558     1.627     1.521  0.7525  0.1075 -0.6497
     6 O(17)  Bbb    -0.0525     3.797     1.355     1.266 -0.1464  0.9892 -0.0059
              Bcc     0.1155    -8.355    -2.981    -2.787  0.6421  0.0996  0.7602
 
              Baa    -0.0177    -9.418    -3.361    -3.142  0.2935  0.9102 -0.2923
     7 H(1)   Bbb    -0.0147    -7.817    -2.789    -2.608  0.8956 -0.3688 -0.2489
              Bcc     0.0323    17.236     6.150     5.749  0.3343  0.1887  0.9234
 
              Baa    -0.0241     1.744     0.622     0.582 -0.4775  0.7328  0.4848
     8 O(17)  Bbb    -0.0172     1.247     0.445     0.416  0.6654 -0.0587  0.7442
              Bcc     0.0413    -2.992    -1.068    -0.998  0.5738  0.6779 -0.4595
 
              Baa    -0.0158    -8.438    -3.011    -2.815  0.2501  0.0077  0.9682
     9 H(1)   Bbb    -0.0144    -7.699    -2.747    -2.568 -0.6439  0.7482  0.1603
              Bcc     0.0302    16.137     5.758     5.383  0.7231  0.6635 -0.1921
 
              Baa    -0.0824     5.964     2.128     1.989  0.6198  0.7096 -0.3352
    10 O(17)  Bbb    -0.0233     1.687     0.602     0.563  0.3465  0.1358  0.9282
              Bcc     0.1057    -7.651    -2.730    -2.552  0.7041 -0.6914 -0.1617
 
              Baa    -0.0187    -9.999    -3.568    -3.335  0.6339  0.2375  0.7360
    11 H(1)   Bbb    -0.0164    -8.733    -3.116    -2.913  0.1653  0.8881 -0.4290
              Bcc     0.0351    18.732     6.684     6.248  0.7555 -0.3936 -0.5237
 
              Baa    -0.0824     5.963     2.128     1.989  0.6204  0.7096 -0.3341
    12 O(17)  Bbb    -0.0233     1.685     0.601     0.562  0.3458  0.1349  0.9286
              Bcc     0.1057    -7.648    -2.729    -2.551  0.7039 -0.6916 -0.1617
 
              Baa    -0.0187    -9.996    -3.567    -3.334  0.6331  0.2359  0.7373
    13 H(1)   Bbb    -0.0164    -8.732    -3.116    -2.913  0.1668  0.8885 -0.4274
              Bcc     0.0351    18.728     6.683     6.247  0.7559 -0.3935 -0.5232
 
              Baa    -0.0176    -9.406    -3.356    -3.138  0.0991 -0.2559  0.9616
    14 H(1)   Bbb    -0.0151    -8.036    -2.867    -2.680  0.9473  0.3202 -0.0123
              Bcc     0.0327    17.442     6.224     5.818 -0.3048  0.9121  0.2742
 
              Baa    -0.0195   -10.419    -3.718    -3.475  0.6123  0.6042 -0.5099
    15 H(1)   Bbb    -0.0157    -8.371    -2.987    -2.792 -0.2728  0.7668  0.5810
              Bcc     0.0352    18.789     6.704     6.267  0.7421 -0.2167  0.6343
 
              Baa    -0.0176    -9.404    -3.356    -3.137  0.0979 -0.2570  0.9614
    16 H(1)   Bbb    -0.0151    -8.034    -2.867    -2.680  0.9474  0.3198 -0.0110
              Bcc     0.0327    17.438     6.222     5.817 -0.3046  0.9120  0.2748
 
              Baa    -0.0146    -7.781    -2.777    -2.596  0.8878 -0.1265  0.4425
    17 H(1)   Bbb    -0.0133    -7.088    -2.529    -2.364 -0.2295  0.7118  0.6638
              Bcc     0.0279    14.870     5.306     4.960  0.3990  0.6909 -0.6029
 
              Baa    -0.0195   -10.413    -3.716    -3.474  0.6116  0.6046 -0.5103
    18 H(1)   Bbb    -0.0157    -8.367    -2.986    -2.791 -0.2731  0.7667  0.5810
              Bcc     0.0352    18.780     6.701     6.264  0.7425 -0.2160  0.6341
 
              Baa    -0.0146    -7.780    -2.776    -2.595  0.8873 -0.1254  0.4437
    19 H(1)   Bbb    -0.0133    -7.088    -2.529    -2.364 -0.2307  0.7124  0.6627
              Bcc     0.0279    14.868     5.305     4.959  0.3993  0.6904 -0.6032
 

 ---------------------------------------------------------------------------------

 No NMR shielding tensors so no spin-rotation constants.
 Leave Link  601 at Sun May 15 09:45:08 2022, MaxMem=   104857600 cpu:               3.4 elap:               0.2
 (Enter /apps/software/g16/l9999.exe)
 1\1\GINC-CNODE10\SP\UHF\def2TZVP\Fe1H12O6(2+,3)\LCZ\15-May-2022\0\\#p 
 UHF/def2TZVP guess=mix\\[Fe(H2O)6]2+\\2,3\Fe,0,-0.6425717605,0.5180392
 056,0.1151525948\O,0,0.111746875,2.1502736296,-0.7800330766\H,0,0.7076
 677542,2.7159064382,-0.2534686021\O,0,-1.3119384494,-0.3025443721,-1.5
 915397432\H,0,-1.9364836681,0.1309313599,-2.2009076077\O,0,0.027209188
 ,1.3394057211,1.8212267689\H,0,0.6525876562,0.9068687008,2.4304031155\
 O,0,-1.3964805353,-1.1144480791,1.0102391629\H,0,-1.9933139268,-1.6794
 048423,0.4839749089\O,0,-2.2868202362,1.6334082837,0.4100537249\H,0,-2
 .353770211,2.4729106521,-0.0830180882\O,0,1.0019437293,-0.5971233562,-
 0.1795016516\H,0,1.0680776668,-1.4375884294,0.3120254585\H,0,-3.189220
 9847,1.2728024717,0.4803641716\H,0,-0.6652199156,-0.783520063,-2.14179
 46811\H,0,1.9045464642,-0.2367828976,-0.2484504359\H,0,0.437766506,2.1
 71136038,-1.697943468\H,0,-0.6187560453,1.8212395471,2.3715986615\H,0,
 -1.7212601067,-1.1359500081,1.9285687869\\Version=ES64L-G16RevA.03\Sta
 te=3-A\HF=-1718.3395462\S2=2.005387\S2-1=0.\S2A=2.000017\RMSD=5.112e-0
 9\Dipole=0.0007056,0.0003012,0.0006002\Quadrupole=1.8662033,-3.2224466
 ,1.3562433,0.4497843,-0.0304374,-1.8070947\PG=C01 [X(Fe1H12O6)]\\@


 "TIGER, TIGER BURNING BRIGHT
 IN THE FOREST OF THE NIGHT.
 WHAT IMMORTAL HAND OR EYE
 CAN FRAME THY FEARFUL SYMMETRYE?"
                     - WILLIAM BLAKE
 Job cpu time:       0 days  0 hours 45 minutes 42.6 seconds.
 Elapsed time:       0 days  0 hours  2 minutes 52.0 seconds.
 File lengths (MBytes):  RWF=     90 Int=      0 D2E=      0 Chk=      8 Scr=      1
 Normal termination of Gaussian 16 at Sun May 15 09:45:08 2022.

Sender: Unischeduler System <lcz@mgt01>
Subject: Job 132185: <#!/bin/bash
#BSUB -J intel
#BSUB -o energy-UHF-Mul3.out
#BSUB -n 16
#BSUB -q cqueue
#BSUB -R span[hosts=1]
export g16root=/apps/software
source /apps/software/g16/bsd/g16.profile
export GAUSS_SCRDIR=/scratch
/apps/software/g16/g16 < energy-UHF-Mul3.inp > energy-UHF-Mul3.out> Done

Job <#!/bin/bash
#BSUB -J intel
#BSUB -o energy-UHF-Mul3.out
#BSUB -n 16
#BSUB -q cqueue
#BSUB -R span[hosts=1]
export g16root=/apps/software
source /apps/software/g16/bsd/g16.profile
export GAUSS_SCRDIR=/scratch
/apps/software/g16/g16 < energy-UHF-Mul3.inp > energy-UHF-Mul3.out> was submitted from host <mgt01> by user <lcz>.
Job was executed on host(s) <16*cnode10>, in queue <cqueue>, as user <lcz>.
</apps/users/lcz> was used as the home directory.
</apps/users/lcz/exe5/task2/Multest/Gaussian> was used as the working directory.
Started at 2022-05-15 09:42:16
Results reported at 2022-05-15 09:45:08

Your job looked like:

------------------------------------------------------------
# User input
#!/bin/bash
#BSUB -J intel
#BSUB -o energy-UHF-Mul3.out
#BSUB -n 16
#BSUB -q cqueue
#BSUB -R span[hosts=1]
export g16root=/apps/software
source /apps/software/g16/bsd/g16.profile
export GAUSS_SCRDIR=/scratch
/apps/software/g16/g16 < energy-UHF-Mul3.inp > energy-UHF-Mul3.out
------------------------------------------------------------

Successfully completed.

Resource usage summary:

    CPU time   :         2688.89 sec.
    Max Memory :               527 MB
    Max Processes  :               5


The output (if any) follows:

