 Entering Gaussian System, Link 0=/apps/software/g16/g16
 Initial command:
 /apps/software/g16/l1.exe "/scratch/Gau-110362.inp" -scrdir="/scratch/"
 Entering Link 1 = /apps/software/g16/l1.exe PID=    110363.
  
 Copyright (c) 1988,1990,1992,1993,1995,1998,2003,2009,2016,
            Gaussian, Inc.  All Rights Reserved.
  
 This is part of the Gaussian(R) 16 program.  It is based on
 the Gaussian(R) 09 system (copyright 2009, Gaussian, Inc.),
 the Gaussian(R) 03 system (copyright 2003, Gaussian, Inc.),
 the Gaussian(R) 98 system (copyright 1998, Gaussian, Inc.),
 the Gaussian(R) 94 system (copyright 1995, Gaussian, Inc.),
 the Gaussian 92(TM) system (copyright 1992, Gaussian, Inc.),
 the Gaussian 90(TM) system (copyright 1990, Gaussian, Inc.),
 the Gaussian 88(TM) system (copyright 1988, Gaussian, Inc.),
 the Gaussian 86(TM) system (copyright 1986, Carnegie Mellon
 University), and the Gaussian 82(TM) system (copyright 1983,
 Carnegie Mellon University). Gaussian is a federally registered
 trademark of Gaussian, Inc.
  
 This software contains proprietary and confidential information,
 including trade secrets, belonging to Gaussian, Inc.
  
 This software is provided under written license and may be
 used, copied, transmitted, or stored only in accord with that
 written license.
  
 The following legend is applicable only to US Government
 contracts under FAR:
  
                    RESTRICTED RIGHTS LEGEND
  
 Use, reproduction and disclosure by the US Government is
 subject to restrictions as set forth in subparagraphs (a)
 and (c) of the Commercial Computer Software - Restricted
 Rights clause in FAR 52.227-19.
  
 Gaussian, Inc.
 340 Quinnipiac St., Bldg. 40, Wallingford CT 06492
  
  
 ---------------------------------------------------------------
 Warning -- This program may not be used in any manner that
 competes with the business of Gaussian, Inc. or will provide
 assistance to any competitor of Gaussian, Inc.  The licensee
 of this program is prohibited from giving any competitor of
 Gaussian, Inc. access to this program.  By using this program,
 the user acknowledges that Gaussian, Inc. is engaged in the
 business of creating and licensing software in the field of
 computational chemistry and represents and warrants to the
 licensee that it is not a competitor of Gaussian, Inc. and that
 it will not use this program in any manner prohibited above.
 ---------------------------------------------------------------
  

 Cite this work as:
 Gaussian 16, Revision A.03,
 M. J. Frisch, G. W. Trucks, H. B. Schlegel, G. E. Scuseria, 
 M. A. Robb, J. R. Cheeseman, G. Scalmani, V. Barone, 
 G. A. Petersson, H. Nakatsuji, X. Li, M. Caricato, A. V. Marenich, 
 J. Bloino, B. G. Janesko, R. Gomperts, B. Mennucci, H. P. Hratchian, 
 J. V. Ortiz, A. F. Izmaylov, J. L. Sonnenberg, D. Williams-Young, 
 F. Ding, F. Lipparini, F. Egidi, J. Goings, B. Peng, A. Petrone, 
 T. Henderson, D. Ranasinghe, V. G. Zakrzewski, J. Gao, N. Rega, 
 G. Zheng, W. Liang, M. Hada, M. Ehara, K. Toyota, R. Fukuda, 
 J. Hasegawa, M. Ishida, T. Nakajima, Y. Honda, O. Kitao, H. Nakai, 
 T. Vreven, K. Throssell, J. A. Montgomery, Jr., J. E. Peralta, 
 F. Ogliaro, M. J. Bearpark, J. J. Heyd, E. N. Brothers, K. N. Kudin, 
 V. N. Staroverov, T. A. Keith, R. Kobayashi, J. Normand, 
 K. Raghavachari, A. P. Rendell, J. C. Burant, S. S. Iyengar, 
 J. Tomasi, M. Cossi, J. M. Millam, M. Klene, C. Adamo, R. Cammi, 
 J. W. Ochterski, R. L. Martin, K. Morokuma, O. Farkas, 
 J. B. Foresman, and D. J. Fox, Gaussian, Inc., Wallingford CT, 2016.
 
 ******************************************
 Gaussian 16:  ES64L-G16RevA.03 25-Dec-2016
                15-May-2022 
 ******************************************
 %nprocshared=16
 Will use up to   16 processors via shared memory.
 -------------------------
 #p UHF/def2TZVP guess=mix
 -------------------------
 1/38=1,172=1/1;
 2/12=2,17=6,18=5,40=1/2;
 3/5=44,7=101,11=2,25=1,30=1,116=2/1,2,3;
 4/13=-1/1;
 5/5=2,38=5/2;
 6/7=2,8=2,9=2,10=2,28=1/1;
 99/5=1,9=1/99;
 Leave Link    1 at Sun May 15 10:04:58 2022, MaxMem=           0 cpu:               0.2 elap:               0.0
 (Enter /apps/software/g16/l101.exe)
 ------------
 [Fe(H2O)6]2+
 ------------
 Symbolic Z-matrix:
 Charge =  2 Multiplicity = 5
 Fe                   -0.64257   0.51804   0.11515 
 O                     0.11175   2.15027  -0.78003 
 H                     0.70767   2.71591  -0.25347 
 O                    -1.31194  -0.30254  -1.59154 
 H                    -1.93648   0.13093  -2.20091 
 O                     0.02721   1.33941   1.82123 
 H                     0.65259   0.90687   2.4304 
 O                    -1.39648  -1.11445   1.01024 
 H                    -1.99331  -1.6794    0.48397 
 O                    -2.28682   1.63341   0.41005 
 H                    -2.35377   2.47291  -0.08302 
 O                     1.00194  -0.59712  -0.1795 
 H                     1.06808  -1.43759   0.31203 
 H                    -3.18922   1.2728    0.48036 
 H                    -0.66522  -0.78352  -2.14179 
 H                     1.90455  -0.23678  -0.24845 
 H                     0.43777   2.17114  -1.69794 
 H                    -0.61876   1.82124   2.3716 
 H                    -1.72126  -1.13595   1.92857 
 
 ITRead=  0  0  0  0  0  0  0  0  0  0  0  0  0  0  0  0  0  0  0
 MicOpt= -1 -1 -1 -1 -1 -1 -1 -1 -1 -1 -1 -1 -1 -1 -1 -1 -1 -1 -1
 NAtoms=     19 NQM=       19 NQMF=       0 NMMI=      0 NMMIF=      0
                NMic=       0 NMicF=      0.
                    Isotopes and Nuclear Properties:
 (Nuclear quadrupole moments (NQMom) in fm**2, nuclear magnetic moments (NMagM)
  in nuclear magnetons)

  Atom         1           2           3           4           5           6           7           8           9          10
 IAtWgt=          56          16           1          16           1          16           1          16           1          16
 AtmWgt=  55.9349393  15.9949146   1.0078250  15.9949146   1.0078250  15.9949146   1.0078250  15.9949146   1.0078250  15.9949146
 NucSpn=           0           0           1           0           1           0           1           0           1           0
 AtZEff=  -0.0000000  -0.0000000  -0.0000000  -0.0000000  -0.0000000  -0.0000000  -0.0000000  -0.0000000  -0.0000000  -0.0000000
 NQMom=    0.0000000   0.0000000   0.0000000   0.0000000   0.0000000   0.0000000   0.0000000   0.0000000   0.0000000   0.0000000
 NMagM=    0.0000000   0.0000000   2.7928460   0.0000000   2.7928460   0.0000000   2.7928460   0.0000000   2.7928460   0.0000000
 AtZNuc=  26.0000000   8.0000000   1.0000000   8.0000000   1.0000000   8.0000000   1.0000000   8.0000000   1.0000000   8.0000000

  Atom        11          12          13          14          15          16          17          18          19
 IAtWgt=           1          16           1           1           1           1           1           1           1
 AtmWgt=   1.0078250  15.9949146   1.0078250   1.0078250   1.0078250   1.0078250   1.0078250   1.0078250   1.0078250
 NucSpn=           1           0           1           1           1           1           1           1           1
 AtZEff=  -0.0000000  -0.0000000  -0.0000000  -0.0000000  -0.0000000  -0.0000000  -0.0000000  -0.0000000  -0.0000000
 NQMom=    0.0000000   0.0000000   0.0000000   0.0000000   0.0000000   0.0000000   0.0000000   0.0000000   0.0000000
 NMagM=    2.7928460   0.0000000   2.7928460   2.7928460   2.7928460   2.7928460   2.7928460   2.7928460   2.7928460
 AtZNuc=   1.0000000   8.0000000   1.0000000   1.0000000   1.0000000   1.0000000   1.0000000   1.0000000   1.0000000
 Leave Link  101 at Sun May 15 10:04:58 2022, MaxMem=   104857600 cpu:               1.3 elap:               0.1
 (Enter /apps/software/g16/l202.exe)
                          Input orientation:                          
 ---------------------------------------------------------------------
 Center     Atomic      Atomic             Coordinates (Angstroms)
 Number     Number       Type             X           Y           Z
 ---------------------------------------------------------------------
      1         26           0       -0.642572    0.518039    0.115153
      2          8           0        0.111747    2.150274   -0.780033
      3          1           0        0.707668    2.715906   -0.253469
      4          8           0       -1.311938   -0.302544   -1.591540
      5          1           0       -1.936484    0.130931   -2.200908
      6          8           0        0.027209    1.339406    1.821227
      7          1           0        0.652588    0.906869    2.430403
      8          8           0       -1.396481   -1.114448    1.010239
      9          1           0       -1.993314   -1.679405    0.483975
     10          8           0       -2.286820    1.633408    0.410054
     11          1           0       -2.353770    2.472911   -0.083018
     12          8           0        1.001944   -0.597123   -0.179502
     13          1           0        1.068078   -1.437588    0.312025
     14          1           0       -3.189221    1.272802    0.480364
     15          1           0       -0.665220   -0.783520   -2.141795
     16          1           0        1.904546   -0.236783   -0.248450
     17          1           0        0.437767    2.171136   -1.697943
     18          1           0       -0.618756    1.821240    2.371599
     19          1           0       -1.721260   -1.135950    1.928569
 ---------------------------------------------------------------------
                    Distance matrix (angstroms):
                    1          2          3          4          5
     1  Fe   0.000000
     2  O    2.008617   0.000000
     3  H    2.605695   0.975875   0.000000
     4  O    2.008534   2.949871   3.870438   0.000000
     5  H    2.681081   3.208095   4.179253   0.974314   0.000000
     6  O    2.008467   2.726024   2.581112   4.017000   4.636169
     7  H    2.681233   3.485034   3.237100   4.636601   5.362314
     8  O    2.008625   4.017242   4.549287   2.726828   3.486264
     9  H    2.605627   4.549223   5.211323   2.582204   3.238694
    10  O    2.008623   2.727009   3.252541   2.950370   3.032704
    11  H    2.605570   2.582382   3.075793   3.326289   3.185035
    12  O    2.008691   2.949793   3.326896   2.726661   3.640124
    13  H    2.605678   3.870389   4.207279   3.252132   4.219298
    14  H    2.681132   3.640734   4.219811   3.209158   3.172135
    15  H    2.605452   3.326442   4.206731   0.975891   1.567108
    16  H    2.681376   3.032285   3.186051   3.486257   4.324444
    17  H    2.680891   0.974312   1.567204   3.031812   3.170563
    18  H    2.605849   3.251873   3.074216   4.549442   5.049887
    19  H    2.680994   4.636346   5.049532   3.640505   4.324799
                    6          7          8          9         10
     6  O    0.000000
     7  H    0.974311   0.000000
     8  O    2.950592   3.209559   0.000000
     9  H    3.870914   4.180692   0.975879   0.000000
    10  O    2.726276   3.640026   2.950194   3.326611   0.000000
    11  H    3.252698   4.219948   3.870498   4.206321   0.975893
    12  O    2.950113   3.032432   2.726820   3.253168   4.017314
    13  H    3.327581   3.186948   2.581854   3.075737   4.549282
    14  H    3.485365   4.323893   3.032103   3.185237   0.974324
    15  H    4.548825   5.049656   3.252626   3.075892   3.870796
    16  H    3.208166   3.170425   3.640244   4.220299   4.636680
    17  H    3.639353   4.322935   4.636138   5.049513   3.486571
    18  H    0.975881   1.567114   3.328125   4.207974   2.581739
    19  H    3.032499   3.171766   0.974307   1.567229   3.208597
                   11         12         13         14         15
    11  H    0.000000
    12  O    4.549201   0.000000
    13  H    5.211248   0.975886   0.000000
    14  H    1.567047   4.636584   5.049668   0.000000
    15  H    4.206436   2.581622   3.074632   4.180282   0.000000
    16  H    5.050056   0.974316   1.567082   5.362507   3.238421
    17  H    3.239094   3.207370   4.178536   4.325167   3.184898
    18  H    3.075726   3.870822   4.207994   3.238030   5.211300
    19  H    4.179764   3.485704   3.237994   3.170851   4.219868
                   16         17         18         19
    16  H    0.000000
    17  H    3.170260   0.000000
    18  H    4.179374   4.218986   0.000000
    19  H    4.323701   5.361884   3.186967   0.000000
 Stoichiometry    FeH12O6(2+,5)
 Framework group  C1[X(FeH12O6)]
 Deg. of freedom    51
 Full point group                 C1      NOp   1
 Largest Abelian subgroup         C1      NOp   1
 Largest concise Abelian subgroup C1      NOp   1
                         Standard orientation:                         
 ---------------------------------------------------------------------
 Center     Atomic      Atomic             Coordinates (Angstroms)
 Number     Number       Type             X           Y           Z
 ---------------------------------------------------------------------
      1         26           0        0.000065    0.000163   -0.000017
      2          8           0       -1.246719   -1.256779    0.948755
      3          1           0       -1.906773   -1.728539    0.406440
      4          8           0        1.248166    0.192856    1.561816
      5          1           0        0.978517    0.504619    2.444641
      6          8           0       -1.248574   -0.193244   -1.561244
      7          1           0       -0.979714   -0.505995   -2.443958
      8          8           0        1.247144    1.256732   -0.948912
      9          1           0        1.906411    1.729332   -0.406365
     10          8           0       -1.247341    1.449656    0.614407
     11          1           0       -1.905699    1.215874    1.295786
     12          8           0        1.247217   -1.449530   -0.614705
     13          1           0        1.906902   -1.215343   -1.294651
     14          1           0       -0.977458    2.370268    0.784533
     15          1           0        1.907641   -0.513331    1.698765
     16          1           0        0.977196   -2.369840   -0.786194
     17          1           0       -0.975734   -1.865439    1.659658
     18          1           0       -1.908858    0.512144   -1.698350
     19          1           0        0.976718    1.864477   -1.660803
 ---------------------------------------------------------------------
 Rotational constants (GHZ):           1.7156112           1.5579535           1.5576482
 Leave Link  202 at Sun May 15 10:04:58 2022, MaxMem=   104857600 cpu:               0.1 elap:               0.0
 (Enter /apps/software/g16/l301.exe)
 Standard basis: def2TZVP (5D, 7F)
 Ernie: Thresh=  0.10000D-02 Tol=  0.10000D-05 Strict=F.
 There are   340 symmetry adapted cartesian basis functions of A   symmetry.
 There are   303 symmetry adapted basis functions of A   symmetry.
   303 basis functions,   504 primitive gaussians,   340 cartesian basis functions
    44 alpha electrons       40 beta electrons
       nuclear repulsion energy       695.7934702665 Hartrees.
 IExCor=    0 DFT=F Ex=HF Corr=None ExCW=0 ScaHFX=  1.000000
 ScaDFX=  1.000000  1.000000  1.000000  1.000000 ScalE2=  1.000000  1.000000
 IRadAn=      5 IRanWt=     -1 IRanGd=            0 ICorTp=0 IEmpDi=  4
 NAtoms=   19 NActive=   19 NUniq=   19 SFac= 1.00D+00 NAtFMM=   60 NAOKFM=F Big=F
 Integral buffers will be    131072 words long.
 Raffenetti 2 integral format.
 Two-electron integral symmetry is turned on.
 Leave Link  301 at Sun May 15 10:04:58 2022, MaxMem=   104857600 cpu:               0.8 elap:               0.1
 (Enter /apps/software/g16/l302.exe)
 NPDir=0 NMtPBC=     1 NCelOv=     1 NCel=       1 NClECP=     1 NCelD=      1
         NCelK=      1 NCelE2=     1 NClLst=     1 CellRange=     0.0.
 One-electron integrals computed using PRISM.
 One-electron integral symmetry used in STVInt
 PrsmSu:  requested number of processors reduced to:  13 ShMem   1 Linda.
   1 Symmetry operations used in ECPInt.
 ECPInt:  NShTT=    8385 NPrTT=   26333 LenC2=    8206 LenP2D=   19816.
 LDataN:  DoStor=T MaxTD1= 6 Len=  172
 NBasis=   303 RedAO= T EigKep=  1.62D-03  NBF=   303
 NBsUse=   303 1.00D-06 EigRej= -1.00D+00 NBFU=   303
 Leave Link  302 at Sun May 15 10:04:59 2022, MaxMem=   104857600 cpu:               2.8 elap:               0.2
 (Enter /apps/software/g16/l303.exe)
 DipDrv:  MaxL=1.
 Leave Link  303 at Sun May 15 10:04:59 2022, MaxMem=   104857600 cpu:               0.5 elap:               0.1
 (Enter /apps/software/g16/l401.exe)
 ExpMin= 4.20D-02 ExpMax= 3.01D+05 ExpMxC= 2.91D+03 IAcc=3 IRadAn=         5 AccDes= 0.00D+00
 Harris functional with IExCor=  205 and IRadAn=       5 diagonalized for initial guess.
 HarFok:  IExCor=  205 AccDes= 0.00D+00 IRadAn=         5 IDoV= 1 UseB2=F ITyADJ=14
 ICtDFT=  3500011 ScaDFX=  1.000000  1.000000  1.000000  1.000000
 FoFCou: FMM=F IPFlag=           0 FMFlag=      100000 FMFlg1=           0
         NFxFlg=           0 DoJE=T BraDBF=F KetDBF=T FulRan=T
         wScrn=  0.000000 ICntrl=       500 IOpCl=  0 I1Cent=   200000004 NGrid=           0
         NMat0=    1 NMatS0=      1 NMatT0=    0 NMatD0=    1 NMtDS0=    0 NMtDT0=    0
 Petite list used in FoFCou.
 Harris En= -1718.30434092637    
 JPrj=0 DoOrth=F DoCkMO=T.
 Mixing orbitals, IMix= 1 IMixAn=  0 NRI=1 NE=   44 Coef=  7.07106781D-01  7.07106781D-01
 Mixing orbitals, IMix= 1 IMixAn=  0 NRI=1 NE=   40 Coef= -7.07106781D-01  7.07106781D-01
 Initial guess <Sx>= 0.0000 <Sy>= 0.0000 <Sz>= 2.0000 <S**2>= 6.0000 S= 2.0000
 Leave Link  401 at Sun May 15 10:04:59 2022, MaxMem=   104857600 cpu:               6.7 elap:               0.4
 (Enter /apps/software/g16/l502.exe)
 Integral symmetry usage will be decided dynamically.
 UHF open shell SCF:
 Using DIIS extrapolation, IDIIS=  1040.
 NGot=   104857600 LenX=   104617651 LenY=   104501610
 Requested convergence on RMS density matrix=1.00D-08 within 128 cycles.
 Requested convergence on MAX density matrix=1.00D-06.
 Requested convergence on             energy=1.00D-06.
 No special actions if energy rises.
 Fock matrices will be formed incrementally for  20 cycles.

 Cycle   1  Pass 0  IDiag  1:
 FoFJK:  IHMeth= 1 ICntrl=       0 DoSepK=F KAlg= 0 I1Cent=           0 FoldK=F
 IRaf= 950000000 NMat=       1 IRICut=       1 DoRegI=T DoRafI=F ISym2E= 0 IDoP0=0 IntGTp=1.
 FoFCou: FMM=F IPFlag=           0 FMFlag=      100000 FMFlg1=           0
         NFxFlg=           0 DoJE=F BraDBF=F KetDBF=F FulRan=T
         wScrn=  0.000000 ICntrl=         0 IOpCl=  1 I1Cent=           0 NGrid=           0
         NMat0=    1 NMatS0=      1 NMatT0=    0 NMatD0=    1 NMtDS0=    0 NMtDT0=    0
 Symmetry not used in FoFCou.
 E= -1717.75368337994    
 DIIS: error= 8.14D-02 at cycle   1 NSaved=   1.
 NSaved= 1 IEnMin= 1 EnMin= -1717.75368337994     IErMin= 1 ErrMin= 8.14D-02
 ErrMax= 8.14D-02  0.00D+00 EMaxC= 1.00D-01 BMatC= 5.07D+00 BMatP= 5.07D+00
 IDIUse=3 WtCom= 1.86D-01 WtEn= 8.14D-01
 Coeff-Com:  0.100D+01
 Coeff-En:   0.100D+01
 Coeff:      0.100D+01
 Gap=     0.196 Goal=   None    Shift=    0.000
 Gap=     0.708 Goal=   None    Shift=    0.000
 GapD=    0.196 DampG=1.000 DampE=0.250 DampFc=0.2500 IDamp=-1.
 Damping current iteration by 2.50D-01
 RMSDP=2.96D-03 MaxDP=2.54D-01              OVMax= 4.78D-01

 Cycle   2  Pass 0  IDiag  1:
 RMSU=  7.27D-04    CP:  9.90D-01
 E= -1717.91432408018     Delta-E=       -0.160640700237 Rises=F Damp=T
 DIIS: error= 5.43D-02 at cycle   2 NSaved=   2.
 NSaved= 2 IEnMin= 2 EnMin= -1717.91432408018     IErMin= 2 ErrMin= 5.43D-02
 ErrMax= 5.43D-02  0.00D+00 EMaxC= 1.00D-01 BMatC= 2.41D+00 BMatP= 5.07D+00
 IDIUse=3 WtCom= 4.57D-01 WtEn= 5.43D-01
 Coeff-Com: -0.166D+01 0.266D+01
 Coeff-En:   0.000D+00 0.100D+01
 Coeff:     -0.760D+00 0.176D+01
 Gap=     0.396 Goal=   None    Shift=    0.000
 Gap=     0.784 Goal=   None    Shift=    0.000
 RMSDP=2.29D-03 MaxDP=2.16D-01 DE=-1.61D-01 OVMax= 7.65D-02

 Cycle   3  Pass 0  IDiag  1:
 RMSU=  9.77D-04    CP:  9.56D-01  3.00D+00
 E= -1718.37708018380     Delta-E=       -0.462756103620 Rises=F Damp=F
 DIIS: error= 2.00D-02 at cycle   3 NSaved=   3.
 NSaved= 3 IEnMin= 3 EnMin= -1718.37708018380     IErMin= 3 ErrMin= 2.00D-02
 ErrMax= 2.00D-02  0.00D+00 EMaxC= 1.00D-01 BMatC= 1.09D-01 BMatP= 2.41D+00
 IDIUse=3 WtCom= 8.00D-01 WtEn= 2.00D-01
 Coeff-Com:  0.809D+00-0.111D+01 0.130D+01
 Coeff-En:   0.000D+00 0.000D+00 0.100D+01
 Coeff:      0.648D+00-0.889D+00 0.124D+01
 Gap=     0.557 Goal=   None    Shift=    0.000
 Gap=     0.507 Goal=   None    Shift=    0.000
 RMSDP=6.96D-04 MaxDP=6.55D-02 DE=-4.63D-01 OVMax= 1.18D-01

 Cycle   4  Pass 0  IDiag  1:
 RMSU=  4.39D-04    CP:  9.48D-01  3.00D+00  1.54D+00
 E= -1718.41247920343     Delta-E=       -0.035399019634 Rises=F Damp=F
 DIIS: error= 4.52D-03 at cycle   4 NSaved=   4.
 NSaved= 4 IEnMin= 4 EnMin= -1718.41247920343     IErMin= 4 ErrMin= 4.52D-03
 ErrMax= 4.52D-03  0.00D+00 EMaxC= 1.00D-01 BMatC= 8.10D-03 BMatP= 1.09D-01
 IDIUse=3 WtCom= 9.55D-01 WtEn= 4.52D-02
 Coeff-Com: -0.170D-01 0.518D-02 0.139D-01 0.998D+00
 Coeff-En:   0.000D+00 0.000D+00 0.000D+00 0.100D+01
 Coeff:     -0.162D-01 0.495D-02 0.133D-01 0.998D+00
 Gap=     0.577 Goal=   None    Shift=    0.000
 Gap=     0.495 Goal=   None    Shift=    0.000
 RMSDP=2.04D-04 MaxDP=2.20D-02 DE=-3.54D-02 OVMax= 3.02D-02

 Cycle   5  Pass 0  IDiag  1:
 RMSU=  1.12D-04    CP:  9.45D-01  3.00D+00  1.64D+00  1.30D+00
 E= -1718.41555842534     Delta-E=       -0.003079221903 Rises=F Damp=F
 DIIS: error= 2.13D-03 at cycle   5 NSaved=   5.
 NSaved= 5 IEnMin= 5 EnMin= -1718.41555842534     IErMin= 5 ErrMin= 2.13D-03
 ErrMax= 2.13D-03  0.00D+00 EMaxC= 1.00D-01 BMatC= 1.51D-03 BMatP= 8.10D-03
 IDIUse=3 WtCom= 9.79D-01 WtEn= 2.13D-02
 Coeff-Com: -0.138D+00 0.191D+00-0.211D+00 0.197D+00 0.961D+00
 Coeff-En:   0.000D+00 0.000D+00 0.000D+00 0.000D+00 0.100D+01
 Coeff:     -0.135D+00 0.187D+00-0.206D+00 0.193D+00 0.962D+00
 Gap=     0.586 Goal=   None    Shift=    0.000
 Gap=     0.501 Goal=   None    Shift=    0.000
 RMSDP=1.01D-04 MaxDP=9.57D-03 DE=-3.08D-03 OVMax= 1.41D-02

 Cycle   6  Pass 0  IDiag  1:
 RMSU=  5.01D-05    CP:  9.45D-01  3.00D+00  1.68D+00  1.47D+00  1.22D+00
 E= -1718.41612452192     Delta-E=       -0.000566096580 Rises=F Damp=F
 DIIS: error= 5.16D-04 at cycle   6 NSaved=   6.
 NSaved= 6 IEnMin= 6 EnMin= -1718.41612452192     IErMin= 6 ErrMin= 5.16D-04
 ErrMax= 5.16D-04  0.00D+00 EMaxC= 1.00D-01 BMatC= 1.08D-04 BMatP= 1.51D-03
 IDIUse=3 WtCom= 9.95D-01 WtEn= 5.16D-03
 Coeff-Com:  0.439D-01-0.596D-01 0.575D-01-0.119D+00-0.207D+00 0.128D+01
 Coeff-En:   0.000D+00 0.000D+00 0.000D+00 0.000D+00 0.000D+00 0.100D+01
 Coeff:      0.437D-01-0.593D-01 0.573D-01-0.118D+00-0.206D+00 0.128D+01
 Gap=     0.584 Goal=   None    Shift=    0.000
 Gap=     0.498 Goal=   None    Shift=    0.000
 RMSDP=3.94D-05 MaxDP=5.57D-03 DE=-5.66D-04 OVMax= 4.18D-03

 Cycle   7  Pass 0  IDiag  1:
 RMSU=  1.93D-05    CP:  9.45D-01  3.00D+00  1.68D+00  1.50D+00  1.38D+00
                    CP:  1.50D+00
 E= -1718.41618643933     Delta-E=       -0.000061917412 Rises=F Damp=F
 DIIS: error= 1.71D-04 at cycle   7 NSaved=   7.
 NSaved= 7 IEnMin= 7 EnMin= -1718.41618643933     IErMin= 7 ErrMin= 1.71D-04
 ErrMax= 1.71D-04  0.00D+00 EMaxC= 1.00D-01 BMatC= 1.37D-05 BMatP= 1.08D-04
 IDIUse=3 WtCom= 9.98D-01 WtEn= 1.71D-03
 Coeff-Com: -0.463D-02 0.611D-02-0.874D-03 0.220D-01-0.230D-01-0.426D+00
 Coeff-Com:  0.143D+01
 Coeff-En:   0.000D+00 0.000D+00 0.000D+00 0.000D+00 0.000D+00 0.000D+00
 Coeff-En:   0.100D+01
 Coeff:     -0.462D-02 0.610D-02-0.873D-03 0.220D-01-0.229D-01-0.425D+00
 Coeff:      0.143D+01
 Gap=     0.584 Goal=   None    Shift=    0.000
 Gap=     0.497 Goal=   None    Shift=    0.000
 RMSDP=1.72D-05 MaxDP=2.44D-03 DE=-6.19D-05 OVMax= 2.29D-03

 Cycle   8  Pass 0  IDiag  1:
 RMSU=  4.29D-06    CP:  9.45D-01  3.00D+00  1.68D+00  1.51D+00  1.43D+00
                    CP:  1.72D+00  1.56D+00
 E= -1718.41619791290     Delta-E=       -0.000011473568 Rises=F Damp=F
 DIIS: error= 1.50D-04 at cycle   8 NSaved=   8.
 NSaved= 8 IEnMin= 8 EnMin= -1718.41619791290     IErMin= 8 ErrMin= 1.50D-04
 ErrMax= 1.50D-04  0.00D+00 EMaxC= 1.00D-01 BMatC= 3.24D-06 BMatP= 1.37D-05
 IDIUse=3 WtCom= 9.99D-01 WtEn= 1.50D-03
 Coeff-Com: -0.367D-03 0.518D-03-0.159D-02-0.194D-02 0.994D-02 0.787D-01
 Coeff-Com: -0.443D+00 0.136D+01
 Coeff-En:   0.000D+00 0.000D+00 0.000D+00 0.000D+00 0.000D+00 0.000D+00
 Coeff-En:   0.000D+00 0.100D+01
 Coeff:     -0.366D-03 0.517D-03-0.159D-02-0.194D-02 0.993D-02 0.786D-01
 Coeff:     -0.442D+00 0.136D+01
 Gap=     0.585 Goal=   None    Shift=    0.000
 Gap=     0.497 Goal=   None    Shift=    0.000
 RMSDP=4.68D-06 MaxDP=4.24D-04 DE=-1.15D-05 OVMax= 1.94D-03

 Initial convergence to 1.0D-05 achieved.  Increase integral accuracy.
 Cycle   9  Pass 1  IDiag  1:
 E= -1718.41620246838     Delta-E=       -0.000004555481 Rises=F Damp=F
 DIIS: error= 1.51D-04 at cycle   1 NSaved=   1.
 NSaved= 1 IEnMin= 1 EnMin= -1718.41620246838     IErMin= 1 ErrMin= 1.51D-04
 ErrMax= 1.51D-04  0.00D+00 EMaxC= 1.00D-01 BMatC= 2.62D-06 BMatP= 2.62D-06
 IDIUse=3 WtCom= 9.98D-01 WtEn= 1.51D-03
 Coeff-Com:  0.100D+01
 Coeff-En:   0.100D+01
 Coeff:      0.100D+01
 Gap=     0.585 Goal=   None    Shift=    0.000
 Gap=     0.497 Goal=   None    Shift=    0.000
 RMSDP=4.68D-06 MaxDP=4.24D-04 DE=-4.56D-06 OVMax= 1.33D-03

 Cycle  10  Pass 1  IDiag  1:
 RMSU=  2.75D-06    CP:  1.00D+00
 E= -1718.41620531604     Delta-E=       -0.000002847665 Rises=F Damp=F
 DIIS: error= 1.51D-04 at cycle   2 NSaved=   2.
 NSaved= 2 IEnMin= 2 EnMin= -1718.41620531604     IErMin= 1 ErrMin= 1.51D-04
 ErrMax= 1.51D-04  0.00D+00 EMaxC= 1.00D-01 BMatC= 2.52D-06 BMatP= 2.62D-06
 IDIUse=3 WtCom= 9.98D-01 WtEn= 1.51D-03
 Coeff-Com: -0.126D+01 0.226D+01
 Coeff-En:   0.000D+00 0.100D+01
 Coeff:     -0.126D+01 0.226D+01
 Gap=     0.585 Goal=   None    Shift=    0.000
 Gap=     0.497 Goal=   None    Shift=    0.000
 RMSDP=6.07D-06 MaxDP=6.86D-04 DE=-2.85D-06 OVMax= 2.98D-03

 Cycle  11  Pass 1  IDiag  1:
 RMSU=  8.75D-07    CP:  1.00D+00  3.00D+00
 E= -1718.41621155313     Delta-E=       -0.000006237089 Rises=F Damp=F
 DIIS: error= 1.52D-04 at cycle   3 NSaved=   3.
 NSaved= 3 IEnMin= 3 EnMin= -1718.41621155313     IErMin= 1 ErrMin= 1.51D-04
 ErrMax= 1.52D-04  0.00D+00 EMaxC= 1.00D-01 BMatC= 2.42D-06 BMatP= 2.52D-06
 IDIUse=3 WtCom= 9.98D-01 WtEn= 1.52D-03
 Coeff-Com: -0.991D+00 0.658D+00 0.133D+01
 Coeff-En:   0.000D+00 0.000D+00 0.100D+01
 Coeff:     -0.990D+00 0.657D+00 0.133D+01
 Gap=     0.585 Goal=   None    Shift=    0.000
 Gap=     0.497 Goal=   None    Shift=    0.000
 RMSDP=7.26D-06 MaxDP=8.31D-04 DE=-6.24D-06 OVMax= 3.59D-03

 Cycle  12  Pass 1  IDiag  1:
 RMSU=  6.13D-06    CP:  1.00D+00  3.00D+00  3.00D+00
 E= -1718.41621890482     Delta-E=       -0.000007351685 Rises=F Damp=F
 DIIS: error= 1.54D-04 at cycle   4 NSaved=   4.
 NSaved= 4 IEnMin= 4 EnMin= -1718.41621890482     IErMin= 1 ErrMin= 1.51D-04
 ErrMax= 1.54D-04  0.00D+00 EMaxC= 1.00D-01 BMatC= 2.34D-06 BMatP= 2.42D-06
 IDIUse=3 WtCom= 9.98D-01 WtEn= 1.54D-03
 Coeff-Com:  0.391D+01-0.454D+01-0.282D+01 0.445D+01
 Coeff-En:   0.000D+00 0.000D+00 0.000D+00 0.100D+01
 Coeff:      0.391D+01-0.453D+01-0.282D+01 0.445D+01
 Gap=     0.585 Goal=   None    Shift=    0.000
 Gap=     0.497 Goal=   None    Shift=    0.000
 RMSDP=2.08D-05 MaxDP=2.42D-03 DE=-7.35D-06 OVMax= 1.03D-02

 Cycle  13  Pass 1  IDiag  1:
 RMSU=  9.59D-06    CP:  1.00D+00  3.00D+00  3.00D+00  3.00D+00
 E= -1718.41623947094     Delta-E=       -0.000020566121 Rises=F Damp=F
 DIIS: error= 1.57D-04 at cycle   5 NSaved=   5.
 NSaved= 5 IEnMin= 5 EnMin= -1718.41623947094     IErMin= 1 ErrMin= 1.51D-04
 ErrMax= 1.57D-04  0.00D+00 EMaxC= 1.00D-01 BMatC= 2.22D-06 BMatP= 2.34D-06
 IDIUse=3 WtCom= 9.98D-01 WtEn= 1.57D-03
 Coeff-Com:  0.302D+00-0.496D-01-0.644D+00-0.807D-01 0.147D+01
 Coeff-En:   0.000D+00 0.000D+00 0.000D+00 0.000D+00 0.100D+01
 Coeff:      0.302D+00-0.496D-01-0.643D+00-0.805D-01 0.147D+01
 Gap=     0.585 Goal=   None    Shift=    0.000
 Gap=     0.497 Goal=   None    Shift=    0.000
 RMSDP=1.27D-05 MaxDP=1.51D-03 DE=-2.06D-05 OVMax= 6.33D-03

 Cycle  14  Pass 1  IDiag  1:
 RMSU=  4.45D-06    CP:  1.00D+00  3.00D+00  3.00D+00  3.00D+00  2.24D+00
 E= -1718.41625185120     Delta-E=       -0.000012380262 Rises=F Damp=F
 DIIS: error= 1.58D-04 at cycle   6 NSaved=   6.
 NSaved= 6 IEnMin= 6 EnMin= -1718.41625185120     IErMin= 1 ErrMin= 1.51D-04
 ErrMax= 1.58D-04  0.00D+00 EMaxC= 1.00D-01 BMatC= 2.19D-06 BMatP= 2.22D-06
 IDIUse=3 WtCom= 9.98D-01 WtEn= 1.57D-03
 Coeff-Com: -0.101D+01 0.119D+01 0.727D+00-0.115D+01-0.178D+00 0.142D+01
 Coeff-En:   0.000D+00 0.000D+00 0.000D+00 0.000D+00 0.000D+00 0.100D+01
 Coeff:     -0.101D+01 0.119D+01 0.726D+00-0.114D+01-0.178D+00 0.142D+01
 Gap=     0.585 Goal=   None    Shift=    0.000
 Gap=     0.497 Goal=   None    Shift=    0.000
 RMSDP=7.82D-06 MaxDP=9.46D-04 DE=-1.24D-05 OVMax= 3.90D-03

 Cycle  15  Pass 1  IDiag  1:
 RMSU=  7.19D-07    CP:  1.00D+00  3.00D+00  3.00D+00  3.00D+00  3.00D+00
                    CP:  1.62D+00
 E= -1718.41625949413     Delta-E=       -0.000007642932 Rises=F Damp=F
 DIIS: error= 1.59D-04 at cycle   7 NSaved=   7.
 NSaved= 7 IEnMin= 7 EnMin= -1718.41625949413     IErMin= 1 ErrMin= 1.51D-04
 ErrMax= 1.59D-04  0.00D+00 EMaxC= 1.00D-01 BMatC= 2.18D-06 BMatP= 2.19D-06
 IDIUse=3 WtCom= 9.98D-01 WtEn= 1.57D-03
 Coeff-Com: -0.262D+00 0.233D+00 0.310D+00-0.219D+00-0.372D+00 0.133D+00
 Coeff-Com:  0.118D+01
 Coeff-En:   0.000D+00 0.000D+00 0.000D+00 0.000D+00 0.000D+00 0.000D+00
 Coeff-En:   0.100D+01
 Coeff:     -0.261D+00 0.233D+00 0.309D+00-0.219D+00-0.371D+00 0.133D+00
 Coeff:      0.118D+01
 Gap=     0.585 Goal=   None    Shift=    0.000
 Gap=     0.497 Goal=   None    Shift=    0.000
 RMSDP=5.39D-06 MaxDP=6.56D-04 DE=-7.64D-06 OVMax= 2.70D-03

 Cycle  16  Pass 1  IDiag  1:
 RMSU=  4.96D-06    CP:  1.00D+00  3.00D+00  3.00D+00  3.00D+00  3.00D+00
                    CP:  2.03D+00  2.43D+00
 E= -1718.41626478743     Delta-E=       -0.000005293294 Rises=F Damp=F
 DIIS: error= 1.59D-04 at cycle   8 NSaved=   8.
 NSaved= 8 IEnMin= 8 EnMin= -1718.41626478743     IErMin= 1 ErrMin= 1.51D-04
 ErrMax= 1.59D-04  0.00D+00 EMaxC= 1.00D-01 BMatC= 2.18D-06 BMatP= 2.18D-06
 IDIUse=3 WtCom= 9.98D-01 WtEn= 1.57D-03
 Coeff-Com:  0.665D+00-0.711D+00-0.552D+00 0.645D+00 0.317D+00-0.625D+00
 Coeff-Com: -0.511D+00 0.177D+01
 Coeff-En:   0.000D+00 0.000D+00 0.000D+00 0.000D+00 0.000D+00 0.000D+00
 Coeff-En:   0.000D+00 0.100D+01
 Coeff:      0.664D+00-0.710D+00-0.551D+00 0.644D+00 0.317D+00-0.624D+00
 Coeff:     -0.510D+00 0.177D+01
 Gap=     0.585 Goal=   None    Shift=    0.000
 Gap=     0.497 Goal=   None    Shift=    0.000
 RMSDP=5.92D-06 MaxDP=7.22D-04 DE=-5.29D-06 OVMax= 2.96D-03

 Cycle  17  Pass 1  IDiag  1:
 RMSU=  1.03D-06    CP:  1.00D+00  3.00D+00  3.00D+00  3.00D+00  3.00D+00
                    CP:  2.46D+00  3.00D+00  2.09D+00
 E= -1718.41627061532     Delta-E=       -0.000005827897 Rises=F Damp=F
 DIIS: error= 1.59D-04 at cycle   9 NSaved=   9.
 NSaved= 9 IEnMin= 9 EnMin= -1718.41627061532     IErMin= 1 ErrMin= 1.51D-04
 ErrMax= 1.59D-04  0.00D+00 EMaxC= 1.00D-01 BMatC= 2.18D-06 BMatP= 2.18D-06
 IDIUse=3 WtCom= 9.98D-01 WtEn= 1.57D-03
 Coeff-Com: -0.502D+00 0.631D+00 0.272D+00-0.437D+00-0.247D+00 0.804D+00
 Coeff-Com: -0.765D+00-0.247D+01 0.371D+01
 Coeff-En:   0.000D+00 0.000D+00 0.000D+00 0.000D+00 0.000D+00 0.000D+00
 Coeff-En:   0.000D+00 0.000D+00 0.100D+01
 Coeff:     -0.502D+00 0.630D+00 0.272D+00-0.436D+00-0.247D+00 0.802D+00
 Coeff:     -0.764D+00-0.246D+01 0.371D+01
 Gap=     0.585 Goal=   None    Shift=    0.000
 Gap=     0.497 Goal=   None    Shift=    0.000
 RMSDP=1.78D-05 MaxDP=2.18D-03 DE=-5.83D-06 OVMax= 8.89D-03

 Cycle  18  Pass 1  IDiag  1:
 RMSU=  1.24D-05    CP:  1.00D+00  3.00D+00  3.00D+00  3.00D+00  3.00D+00
                    CP:  3.00D+00  3.00D+00  3.00D+00  3.00D+00
 E= -1718.41628808794     Delta-E=       -0.000017472619 Rises=F Damp=F
 DIIS: error= 1.59D-04 at cycle  10 NSaved=  10.
 NSaved=10 IEnMin=10 EnMin= -1718.41628808794     IErMin= 1 ErrMin= 1.51D-04
 ErrMax= 1.59D-04  0.00D+00 EMaxC= 1.00D-01 BMatC= 2.18D-06 BMatP= 2.18D-06
 IDIUse=3 WtCom= 9.98D-01 WtEn= 1.57D-03
 Large coefficients: NSaved= 10 BigCof=   15.25 CofMax=   10.00 Det=-2.78D-11
 Inversion failed.  Reducing to  9 matrices.
 Coeff-Com: -0.594D-01 0.754D-01 0.177D-01-0.114D-01-0.713D+00 0.183D+01
 Coeff-Com:  0.183D+01-0.577D+01 0.380D+01
 Coeff-En:   0.000D+00 0.000D+00 0.000D+00 0.000D+00 0.000D+00 0.000D+00
 Coeff-En:   0.000D+00 0.000D+00 0.100D+01
 Coeff:     -0.593D-01 0.753D-01 0.176D-01-0.114D-01-0.712D+00 0.183D+01
 Coeff:      0.183D+01-0.576D+01 0.379D+01
 Gap=     0.585 Goal=   None    Shift=    0.000
 Gap=     0.497 Goal=   None    Shift=    0.000
 RMSDP=3.30D-05 MaxDP=4.11D-03 DE=-1.75D-05 OVMax= 1.65D-02

 Cycle  19  Pass 1  IDiag  1:
 RMSU=  8.59D-06    CP:  1.00D+00  3.00D+00  3.00D+00  3.00D+00  3.00D+00
                    CP:  3.00D+00  3.00D+00  3.00D+00  3.00D+00  3.00D+00
 E= -1718.41632048937     Delta-E=       -0.000032401425 Rises=F Damp=F
 DIIS: error= 1.58D-04 at cycle  11 NSaved=  10.
 NSaved=10 IEnMin=10 EnMin= -1718.41632048937     IErMin= 1 ErrMin= 1.51D-04
 ErrMax= 1.58D-04  0.00D+00 EMaxC= 1.00D-01 BMatC= 2.17D-06 BMatP= 2.18D-06
 IDIUse=3 WtCom= 9.98D-01 WtEn= 1.57D-03
 Coeff-Com:  0.104D+00-0.218D+00 0.116D+00 0.213D+00-0.274D+00-0.138D+01
 Coeff-Com:  0.155D+01 0.975D+00-0.115D+01 0.106D+01
 Coeff-En:   0.000D+00 0.000D+00 0.000D+00 0.000D+00 0.000D+00 0.000D+00
 Coeff-En:   0.000D+00 0.000D+00 0.000D+00 0.100D+01
 Coeff:      0.103D+00-0.217D+00 0.116D+00 0.213D+00-0.274D+00-0.138D+01
 Coeff:      0.155D+01 0.973D+00-0.115D+01 0.106D+01
 Gap=     0.585 Goal=   None    Shift=    0.000
 Gap=     0.497 Goal=   None    Shift=    0.000
 RMSDP=9.87D-06 MaxDP=1.24D-03 DE=-3.24D-05 OVMax= 4.94D-03

 Cycle  20  Pass 1  IDiag  1:
 RMSU=  1.95D-06    CP:  1.00D+00  3.00D+00  3.00D+00  3.00D+00  3.00D+00
                    CP:  3.00D+00  3.00D+00  3.00D+00  3.00D+00  2.86D+00
                    CP:  8.25D-02
 E= -1718.41631082927     Delta-E=        0.000009660102 Rises=F Damp=F
 DIIS: error= 1.58D-04 at cycle  12 NSaved=  11.
 NSaved=11 IEnMin=10 EnMin= -1718.41632048937     IErMin= 1 ErrMin= 1.51D-04
 ErrMax= 1.58D-04  0.00D+00 EMaxC= 1.00D-01 BMatC= 2.17D-06 BMatP= 2.17D-06
 IDIUse=3 WtCom= 9.98D-01 WtEn= 1.57D-03
 Large coefficients: NSaved= 11 BigCof=   24.95 CofMax=   10.00 Det=-1.95D-11
 Inversion failed.  Reducing to 10 matrices.
 Large coefficients: NSaved= 10 BigCof=   16.34 CofMax=   10.00 Det=-3.21D-11
 Inversion failed.  Reducing to  9 matrices.
 Large coefficients: NSaved=  9 BigCof=   17.30 CofMax=   10.00 Det=-3.40D-11
 Inversion failed.  Reducing to  8 matrices.
 Large coefficients: NSaved=  8 BigCof=   20.23 CofMax=   10.00 Det=-3.44D-11
 Inversion failed.  Reducing to  7 matrices.
 Large coefficients: NSaved=  7 BigCof=   20.45 CofMax=   10.00 Det=-3.45D-11
 Inversion failed.  Reducing to  6 matrices.
 Large coefficients: NSaved=  6 BigCof=   12.41 CofMax=   10.00 Det=-8.30D-11
 Inversion failed.  Reducing to  5 matrices.
 Large coefficients: NSaved=  5 BigCof=   15.26 CofMax=   10.00 Det=-1.64D-10
 Inversion failed.  Reducing to  4 matrices.
 Rare condition: small coef for last iteration:  0.000D+00
 Coeff-Com:  0.900D+00-0.624D+01 0.316D+01 0.318D+01
 Coeff-En:   0.000D+00 0.000D+00 0.000D+00 0.100D+01
 Coeff:      0.900D+00-0.624D+01 0.316D+01 0.318D+01
 Gap=     0.585 Goal=   None    Shift=    0.000
 Gap=     0.498 Goal=   None    Shift=    0.000
 RMSDP=1.40D-04 MaxDP=1.81D-02 DE= 9.66D-06 OVMax= 7.01D-02

 Cycle  21  Pass 1  IDiag  1:
 RMSU=  1.12D-04    CP:  1.00D+00  3.00D+00  3.00D+00  3.00D+00  3.00D+00
                    CP:  3.00D+00  3.00D+00  3.00D+00  3.00D+00  3.00D+00
                    CP:  3.00D+00 -3.00D+00
 E= -1718.41644586378     Delta-E=       -0.000135034510 Rises=F Damp=F
 DIIS: error= 1.56D-04 at cycle  13 NSaved=   5.
 NSaved= 5 IEnMin= 5 EnMin= -1718.41644586378     IErMin= 5 ErrMin= 1.56D-04
 ErrMax= 1.56D-04  0.00D+00 EMaxC= 1.00D-01 BMatC= 6.63D-06 BMatP= 2.17D-06
 IDIUse=3 WtCom= 9.98D-01 WtEn= 1.57D-03
 Large coefficients: NSaved=  5 BigCof=   21.44 CofMax=   10.00 Det=-2.08D-10
 Inversion failed.  Reducing to  4 matrices.
 Large coefficients: NSaved=  4 BigCof=   17.00 CofMax=   10.00 Det=-5.61D-10
 Inversion failed.  Reducing to  3 matrices.
 Large coefficients: NSaved=  3 BigCof=   16.83 CofMax=   10.00 Det=-7.70D-10
 Inversion failed.  Reducing to  2 matrices.
 Coeff-Com:  0.927D+00 0.731D-01
 Coeff-En:   0.000D+00 0.100D+01
 Coeff:      0.925D+00 0.745D-01
 Gap=     0.585 Goal=   None    Shift=    0.000
 Gap=     0.494 Goal=   None    Shift=    0.000
 RMSDP=1.27D-04 MaxDP=1.65D-02 DE=-1.35D-04 OVMax= 6.36D-02

 Cycle  22  Pass 1  IDiag  1:
 RMSU=  4.58D-07    CP:  1.00D+00  3.00D+00  3.00D+00  3.00D+00  3.00D+00
                    CP:  3.00D+00  3.00D+00  3.00D+00  3.00D+00  3.00D+00
                    CP:  1.34D+00 -3.64D-01  7.75D-05
 E= -1718.41632347256     Delta-E=        0.000122391220 Rises=F Damp=F
 DIIS: error= 1.58D-04 at cycle  14 NSaved=   3.
 NSaved= 3 IEnMin= 2 EnMin= -1718.41644586378     IErMin= 2 ErrMin= 1.56D-04
 ErrMax= 1.58D-04  0.00D+00 EMaxC= 1.00D-01 BMatC= 2.18D-06 BMatP= 2.17D-06
 IDIUse=3 WtCom= 9.98D-01 WtEn= 1.57D-03
 Large coefficients: NSaved=  3 BigCof=   17.72 CofMax=   10.00 Det=-4.15D-10
 Inversion failed.  Reducing to  2 matrices.
 Coeff-Com:  0.904D-01 0.910D+00
 Coeff-En:   0.000D+00 0.100D+01
 Coeff:      0.903D-01 0.910D+00
 Gap=     0.585 Goal=   None    Shift=    0.000
 Gap=     0.497 Goal=   None    Shift=    0.000
 RMSDP=1.40D-05 MaxDP=1.75D-03 DE= 1.22D-04 OVMax= 6.98D-03

 Cycle  23  Pass 1  IDiag  1:
 RMSU=  1.48D-07    CP:  1.00D+00  3.00D+00  3.00D+00  3.00D+00  3.00D+00
                    CP:  3.00D+00  3.00D+00  3.00D+00  3.00D+00  3.00D+00
                    CP:  2.91D+00 -2.15D+00  2.59D-04  2.10D+00
 E= -1718.41633712105     Delta-E=       -0.000013648497 Rises=F Damp=F
 DIIS: error= 1.58D-04 at cycle  15 NSaved=   3.
 NSaved= 3 IEnMin= 1 EnMin= -1718.41644586378     IErMin= 1 ErrMin= 1.56D-04
 ErrMax= 1.58D-04  0.00D+00 EMaxC= 1.00D-01 BMatC= 2.16D-06 BMatP= 2.18D-06
 IDIUse=3 WtCom= 9.98D-01 WtEn= 1.57D-03
 Large coefficients: NSaved=  3 BigCof=   27.45 CofMax=   10.00 Det=-1.11D-10
 Inversion failed.  Reducing to  2 matrices.
 Large coefficients: NSaved=  2 BigCof=   19.49 CofMax=   10.00 Det=-3.07D-10
 Coeff-Com: -0.185D+02 0.195D+02
 Coeff-En:   0.000D+00 0.100D+01
 Coeff:     -0.185D+02 0.195D+02
 Gap=     0.586 Goal=   None    Shift=    0.000
 Gap=     0.498 Goal=   None    Shift=    0.000
 RMSDP=2.53D-04 MaxDP=3.39D-02 DE=-1.36D-05 OVMax= 1.26D-01

 Cycle  24  Pass 1  IDiag  1:
 RMSU=  1.70D-05    CP:  1.00D+00  3.00D+00  3.00D+00  3.00D+00  3.00D+00
                    CP:  3.00D+00  3.00D+00  3.00D+00  3.00D+00  3.00D+00
                    CP:  3.00D+00 -3.00D+00  2.24D+00 -3.00D+00  3.00D+00
 E= -1718.41656939068     Delta-E=       -0.000232269626 Rises=F Damp=F
 DIIS: error= 3.84D-04 at cycle  16 NSaved=   3.
 NSaved= 3 IEnMin= 3 EnMin= -1718.41656939068     IErMin= 2 ErrMin= 1.58D-04
 ErrMax= 3.84D-04  0.00D+00 EMaxC= 1.00D-01 BMatC= 4.92D-05 BMatP= 2.16D-06
 IDIUse=3 WtCom= 9.98D-01 WtEn= 1.57D-03
 Large coefficients: NSaved=  3 BigCof=   18.96 CofMax=   10.00 Det=-1.22D-10
 Inversion failed.  Reducing to  2 matrices.
 Coeff-Com:  0.964D+00 0.359D-01
 Coeff-En:   0.000D+00 0.100D+01
 Coeff:      0.963D+00 0.375D-01
 Gap=     0.585 Goal=   None    Shift=    0.000
 Gap=     0.486 Goal=   None    Shift=    0.000
 RMSDP=2.42D-04 MaxDP=3.24D-02 DE=-2.32D-04 OVMax= 1.21D-01

 Cycle  25  Pass 1  IDiag  1:
 RMSU=  1.19D-06    CP:  1.00D+00  3.00D+00  3.00D+00  3.00D+00  3.00D+00
                    CP:  3.00D+00  3.00D+00  3.00D+00  3.00D+00  3.00D+00
                    CP:  3.00D+00 -3.00D+00  9.64D-02  2.89D+00 -2.52D+00
                    CP:  7.93D-03
 E= -1718.41634874054     Delta-E=        0.000220650139 Rises=F Damp=F
 DIIS: error= 1.57D-04 at cycle  17 NSaved=   3.
 NSaved= 3 IEnMin= 2 EnMin= -1718.41656939068     IErMin= 3 ErrMin= 1.57D-04
 ErrMax= 1.57D-04  0.00D+00 EMaxC= 1.00D-01 BMatC= 2.19D-06 BMatP= 2.16D-06
 IDIUse=3 WtCom= 9.98D-01 WtEn= 1.57D-03
 Rare condition: small coef for last iteration:  0.000D+00
 Coeff-Com: -0.732D+01 0.149D+00 0.817D+01
 Coeff-En:   0.000D+00 0.000D+00 0.100D+01
 Coeff:     -0.732D+01 0.149D+00 0.817D+01
 Gap=     0.586 Goal=   None    Shift=    0.000
 Gap=     0.496 Goal=   None    Shift=    0.000
 RMSDP=1.25D-04 MaxDP=1.63D-02 DE= 2.21D-04 OVMax= 6.26D-02

 Cycle  26  Pass 1  IDiag  1:
 RMSU=  1.40D-06    CP:  1.00D+00  3.00D+00  3.00D+00  3.00D+00  3.00D+00
                    CP:  3.00D+00  3.00D+00  3.00D+00  3.00D+00  3.00D+00
                    CP:  3.00D+00 -3.00D+00  1.21D+00  3.00D+00  3.00D+00
                    CP:  6.28D-02  9.73D-02
 E= -1718.41646931869     Delta-E=       -0.000120578143 Rises=F Damp=F
 DIIS: error= 1.53D-04 at cycle  18 NSaved=   4.
 NSaved= 4 IEnMin= 2 EnMin= -1718.41656939068     IErMin= 4 ErrMin= 1.53D-04
 ErrMax= 1.53D-04  0.00D+00 EMaxC= 1.00D-01 BMatC= 2.75D-06 BMatP= 2.16D-06
 IDIUse=3 WtCom= 9.98D-01 WtEn= 1.57D-03
 Large coefficients: NSaved=  4 BigCof=   18.63 CofMax=   10.00 Det=-7.14D-10
 Inversion failed.  Reducing to  3 matrices.
 Coeff-Com:  0.747D-01 0.109D+01-0.162D+00
 Coeff-En:   0.000D+00 0.000D+00 0.100D+01
 Coeff:      0.746D-01 0.109D+01-0.160D+00
 Gap=     0.585 Goal=   None    Shift=    0.000
 Gap=     0.494 Goal=   None    Shift=    0.000
 RMSDP=1.25D-04 MaxDP=1.63D-02 DE=-1.21D-04 OVMax= 6.25D-02

 Cycle  27  Pass 1  IDiag  1:
 RMSU=  3.10D-08    CP:  1.00D+00  3.00D+00  3.00D+00  3.00D+00  3.00D+00
                    CP:  3.00D+00  3.00D+00  3.00D+00  3.00D+00  3.00D+00
                    CP:  3.00D+00 -3.00D+00  9.95D-02  2.71D+00 -2.62D+00
                    CP:  7.77D-03  9.90D-01 -6.23D-03
 E= -1718.41634907899     Delta-E=        0.000120239697 Rises=F Damp=F
 DIIS: error= 1.57D-04 at cycle  19 NSaved=   4.
 NSaved= 4 IEnMin= 1 EnMin= -1718.41656939068     IErMin= 3 ErrMin= 1.53D-04
 ErrMax= 1.57D-04  0.00D+00 EMaxC= 1.00D-01 BMatC= 2.16D-06 BMatP= 2.19D-06
 IDIUse=3 WtCom= 9.98D-01 WtEn= 1.57D-03
 Rare condition: small coef for last iteration:  0.000D+00
 Coeff-Com: -0.686D-01 0.862D+01 0.127D+01-0.882D+01
 Coeff-En:   0.000D+00 0.000D+00 0.000D+00 0.100D+01
 Coeff:     -0.686D-01 0.862D+01 0.127D+01-0.882D+01
 Gap=     0.586 Goal=   None    Shift=    0.000
 Gap=     0.495 Goal=   None    Shift=    0.000
 RMSDP=1.41D-04 MaxDP=1.84D-02 DE= 1.20D-04 OVMax= 7.06D-02

 Cycle  28  Pass 1  IDiag  1:
 RMSU=  4.90D-07    CP:  1.00D+00  3.00D+00  3.00D+00  3.00D+00  3.00D+00
                    CP:  3.00D+00  3.00D+00  3.00D+00  3.00D+00  3.00D+00
                    CP:  3.00D+00 -3.00D+00  1.36D+00  3.00D+00  3.00D+00
                    CP:  1.38D-01  1.12D-01  1.83D+00 -1.46D+00
 E= -1718.41648482513     Delta-E=       -0.000135746145 Rises=F Damp=F
 DIIS: error= 1.53D-04 at cycle  20 NSaved=   5.
 NSaved= 5 IEnMin= 1 EnMin= -1718.41656939068     IErMin= 5 ErrMin= 1.53D-04
 ErrMax= 1.53D-04  0.00D+00 EMaxC= 1.00D-01 BMatC= 2.17D-06 BMatP= 2.16D-06
 IDIUse=3 WtCom= 9.98D-01 WtEn= 1.53D-03
 Large coefficients: NSaved=  5 BigCof=   23.80 CofMax=   10.00 Det=-8.89D-11
 Inversion failed.  Reducing to  4 matrices.
 Coeff-Com:  0.108D-01-0.360D+01-0.197D+01 0.656D+01
 Coeff-En:   0.000D+00 0.000D+00 0.000D+00 0.100D+01
 Coeff:      0.108D-01-0.359D+01-0.197D+01 0.655D+01
 Gap=     0.587 Goal=   None    Shift=    0.000
 Gap=     0.505 Goal=   None    Shift=    0.000
 RMSDP=3.20D-04 MaxDP=4.49D-02 DE=-1.36D-04 OVMax= 1.59D-01

 Cycle  29  Pass 1  IDiag  1:
 Restarting incremental Fock formation.
 E= -1718.41672716941     Delta-E=       -0.000242344277 Rises=F Damp=F
 DIIS: error= 7.21D-04 at cycle  21 NSaved=   5.
 NSaved= 5 IEnMin= 5 EnMin= -1718.41672716941     IErMin= 4 ErrMin= 1.53D-04
 ErrMax= 7.21D-04  0.00D+00 EMaxC= 1.00D-01 BMatC= 2.24D-04 BMatP= 2.16D-06
 IDIUse=3 WtCom= 9.98D-01 WtEn= 1.53D-03
 Large coefficients: NSaved=  5 BigCof=   23.97 CofMax=   10.00 Det=-1.44D-09
 Inversion failed.  Reducing to  4 matrices.
 Coeff-Com: -0.341D+00-0.206D+01 0.321D+01 0.196D+00
 Coeff-En:   0.000D+00 0.000D+00 0.000D+00 0.100D+01
 Coeff:     -0.340D+00-0.206D+01 0.320D+01 0.197D+00
 Gap=     0.586 Goal=   None    Shift=    0.000
 Gap=     0.484 Goal=   None    Shift=    0.000
 RMSDP=2.56D-04 MaxDP=3.65D-02 DE=-2.42D-04 OVMax= 1.28D-01

 Cycle  30  Pass 1  IDiag  1:
 RMSU=  2.56D-04    CP:  1.00D+00
 E= -1718.41654469511     Delta-E=        0.000182474302 Rises=F Damp=F
 DIIS: error= 1.48D-04 at cycle  22 NSaved=   5.
 NSaved= 5 IEnMin= 4 EnMin= -1718.41672716941     IErMin= 5 ErrMin= 1.48D-04
 ErrMax= 1.48D-04  0.00D+00 EMaxC= 1.00D-01 BMatC= 3.40D-06 BMatP= 2.17D-06
 IDIUse=3 WtCom= 9.98D-01 WtEn= 1.53D-03
 Rare condition: small coef for last iteration:  0.000D+00
 Coeff-Com:  0.113D+01 0.355D+01-0.900D+01-0.513D-01 0.537D+01
 Coeff-En:   0.000D+00 0.000D+00 0.000D+00 0.000D+00 0.100D+01
 Coeff:      0.113D+01 0.355D+01-0.900D+01-0.513D-01 0.537D+01
 Gap=     0.588 Goal=   None    Shift=    0.000
 Gap=     0.501 Goal=   None    Shift=    0.000
 RMSDP=3.09D-04 MaxDP=4.34D-02 DE= 1.82D-04 OVMax= 1.53D-01

 Cycle  31  Pass 1  IDiag  1:
 RMSU=  1.33D-05    CP:  1.00D+00 -2.03D-01
 E= -1718.41678541923     Delta-E=       -0.000240724118 Rises=F Damp=F
 DIIS: error= 5.41D-04 at cycle  23 NSaved=   6.
 NSaved= 6 IEnMin= 6 EnMin= -1718.41678541923     IErMin= 5 ErrMin= 1.48D-04
 ErrMax= 5.41D-04  0.00D+00 EMaxC= 1.00D-01 BMatC= 1.38D-04 BMatP= 2.17D-06
 IDIUse=3 WtCom= 9.98D-01 WtEn= 1.53D-03
 Coeff-Com:  0.153D+01-0.368D+00-0.290D+01-0.181D+01 0.272D+01 0.182D+01
 Coeff-En:   0.000D+00 0.000D+00 0.000D+00 0.000D+00 0.000D+00 0.100D+01
 Coeff:      0.153D+01-0.368D+00-0.290D+01-0.180D+01 0.272D+01 0.182D+01
 Gap=     0.588 Goal=   None    Shift=    0.000
 Gap=     0.514 Goal=   None    Shift=    0.000
 RMSDP=5.28D-05 MaxDP=6.83D-03 DE=-2.41D-04 OVMax= 2.63D-02

 Cycle  32  Pass 1  IDiag  1:
 RMSU=  2.95D-06    CP:  1.00D+00 -4.02D-01  2.05D+00
 E= -1718.41683462128     Delta-E=       -0.000049202050 Rises=F Damp=F
 DIIS: error= 4.13D-04 at cycle  24 NSaved=   7.
 NSaved= 7 IEnMin= 7 EnMin= -1718.41683462128     IErMin= 5 ErrMin= 1.48D-04
 ErrMax= 4.13D-04  0.00D+00 EMaxC= 1.00D-01 BMatC= 8.63D-05 BMatP= 2.17D-06
 IDIUse=3 WtCom= 9.98D-01 WtEn= 1.53D-03
 Coeff-Com:  0.132D+01-0.138D+01 0.128D+01-0.178D+01-0.513D+00-0.537D+00
 Coeff-Com:  0.261D+01
 Coeff-En:   0.000D+00 0.000D+00 0.000D+00 0.000D+00 0.000D+00 0.000D+00
 Coeff-En:   0.100D+01
 Coeff:      0.132D+01-0.137D+01 0.127D+01-0.178D+01-0.512D+00-0.536D+00
 Coeff:      0.261D+01
 Gap=     0.588 Goal=   None    Shift=    0.000
 Gap=     0.495 Goal=   None    Shift=    0.000
 RMSDP=4.25D-05 MaxDP=4.01D-03 DE=-4.92D-05 OVMax= 2.03D-02

 Cycle  33  Pass 1  IDiag  1:
 RMSU=  9.56D-06    CP:  1.00D+00 -5.44D-01  3.00D+00 -1.65D-01
 E= -1718.41687880962     Delta-E=       -0.000044188342 Rises=F Damp=F
 DIIS: error= 1.10D-04 at cycle  25 NSaved=   8.
 NSaved= 8 IEnMin= 8 EnMin= -1718.41687880962     IErMin= 8 ErrMin= 1.10D-04
 ErrMax= 1.10D-04  0.00D+00 EMaxC= 1.00D-01 BMatC= 2.88D-06 BMatP= 2.17D-06
 IDIUse=3 WtCom= 9.98D-01 WtEn= 1.53D-03
 Coeff-Com: -0.221D+01 0.397D+01-0.198D+01 0.272D+01-0.236D+01-0.312D+01
 Coeff-Com:  0.990D+00 0.299D+01
 Coeff-En:   0.000D+00 0.000D+00 0.000D+00 0.000D+00 0.000D+00 0.000D+00
 Coeff-En:   0.000D+00 0.100D+01
 Coeff:     -0.221D+01 0.397D+01-0.198D+01 0.272D+01-0.236D+01-0.312D+01
 Coeff:      0.988D+00 0.299D+01
 Gap=     0.593 Goal=   None    Shift=    0.000
 Gap=     0.526 Goal=   None    Shift=    0.000
 RMSDP=5.16D-04 MaxDP=6.87D-02 DE=-4.42D-05 OVMax= 2.45D-01

 Cycle  34  Pass 1  IDiag  1:
 RMSU=  2.49D-04    CP:  9.99D-01 -2.27D+00  3.00D+00  3.00D+00  3.00D+00
 E= -1718.41674018507     Delta-E=        0.000138624547 Rises=F Damp=F
 DIIS: error= 2.23D-03 at cycle  26 NSaved=   9.
 NSaved= 9 IEnMin= 8 EnMin= -1718.41687880962     IErMin= 8 ErrMin= 1.10D-04
 ErrMax= 2.23D-03  0.00D+00 EMaxC= 1.00D-01 BMatC= 2.24D-03 BMatP= 2.17D-06
 IDIUse=3 WtCom= 9.98D-01 WtEn= 1.53D-03
 Rare condition: small coef for last iteration:  0.000D+00
 Coeff-Com: -0.103D+01 0.569D+01-0.704D+01 0.321D+01 0.126D+00-0.324D+01
 Coeff-Com: -0.401D+00 0.361D+01 0.786D-01
 Coeff-En:   0.000D+00 0.000D+00 0.000D+00 0.000D+00 0.000D+00 0.000D+00
 Coeff-En:   0.000D+00 0.000D+00 0.100D+01
 Coeff:     -0.103D+01 0.569D+01-0.704D+01 0.321D+01 0.126D+00-0.324D+01
 Coeff:     -0.401D+00 0.361D+01 0.786D-01
 Gap=     0.593 Goal=   None    Shift=    0.000
 Gap=     0.618 Goal=   None    Shift=    0.000
 RMSDP=5.89D-05 MaxDP=8.32D-03 DE= 1.39D-04 OVMax= 2.37D-02

 Cycle  35  Pass 1  IDiag  1:
 RMSU=  1.52D-05    CP:  9.99D-01 -2.43D+00  3.00D+00  3.00D+00  3.00D+00
                    CP:  1.17D+00
 E= -1718.41635958617     Delta-E=        0.000380598904 Rises=F Damp=F
 DIIS: error= 3.26D-03 at cycle  27 NSaved=  10.
 NSaved=10 IEnMin= 8 EnMin= -1718.41687880962     IErMin= 8 ErrMin= 1.10D-04
 ErrMax= 3.26D-03  0.00D+00 EMaxC= 1.00D-01 BMatC= 4.55D-03 BMatP= 2.17D-06
 IDIUse=3 WtCom= 9.98D-01 WtEn= 1.53D-03
 Rare condition: small coef for last iteration:  0.000D+00
 Coeff-Com: -0.413D+00 0.622D+01-0.990D+01 0.357D+01 0.232D+01-0.317D+01
 Coeff-Com: -0.156D+01 0.363D+01 0.671D+00-0.364D+00
 Coeff-En:   0.000D+00 0.000D+00 0.000D+00 0.000D+00 0.000D+00 0.000D+00
 Coeff-En:   0.000D+00 0.000D+00 0.000D+00 0.100D+01
 Coeff:     -0.413D+00 0.622D+01-0.990D+01 0.357D+01 0.232D+01-0.317D+01
 Coeff:     -0.156D+01 0.363D+01 0.671D+00-0.364D+00
 Gap=     0.593 Goal=   None    Shift=    0.000
 Gap=     0.625 Goal=   None    Shift=    0.000
 RMSDP=2.77D-05 MaxDP=3.47D-03 DE= 3.81D-04 OVMax= 1.09D-02

 Cycle  36  Pass 1  IDiag  1:
 RMSU=  1.18D-06    CP:  9.99D-01 -2.50D+00  3.00D+00  3.00D+00  3.00D+00
                    CP:  1.25D+00  1.18D+00
 E= -1718.41621853679     Delta-E=        0.000141049377 Rises=F Damp=F
 DIIS: error= 3.58D-03 at cycle  28 NSaved=  11.
 NSaved=11 IEnMin= 8 EnMin= -1718.41687880962     IErMin= 8 ErrMin= 1.10D-04
 ErrMax= 3.58D-03  0.00D+00 EMaxC= 1.00D-01 BMatC= 5.42D-03 BMatP= 2.17D-06
 IDIUse=3 WtCom= 9.98D-01 WtEn= 1.53D-03
 Large coefficients: NSaved= 11 BigCof=   11.43 CofMax=   10.00 Det=-5.52D-10
 Inversion failed.  Reducing to 10 matrices.
 Rare condition: small coef for last iteration:  0.000D+00
 Coeff-Com: -0.242D+00-0.490D+01 0.273D+01 0.331D+01-0.132D+01-0.144D+01
 Coeff-Com:  0.263D+01 0.189D+01-0.509D+01 0.344D+01
 Coeff-En:   0.000D+00 0.000D+00 0.000D+00 0.000D+00 0.000D+00 0.000D+00
 Coeff-En:   0.000D+00 0.000D+00 0.000D+00 0.100D+01
 Coeff:     -0.242D+00-0.490D+01 0.273D+01 0.331D+01-0.132D+01-0.144D+01
 Coeff:      0.263D+01 0.189D+01-0.509D+01 0.344D+01
 Gap=     0.593 Goal=   None    Shift=    0.000
 Gap=     0.657 Goal=   None    Shift=    0.000
 RMSDP=4.58D-05 MaxDP=7.04D-03 DE= 1.41D-04 OVMax= 1.62D-02

 Cycle  37  Pass 1  IDiag  1:
 RMSU=  2.87D-06    CP:  9.99D-01 -2.59D+00  3.00D+00  3.00D+00  3.00D+00
                    CP:  1.37D+00  2.69D+00  1.66D+00
 E= -1718.41550140337     Delta-E=        0.000717133416 Rises=F Damp=F
 DIIS: error= 4.92D-03 at cycle  29 NSaved=  11.
 NSaved=11 IEnMin= 7 EnMin= -1718.41687880962     IErMin= 7 ErrMin= 1.10D-04
 ErrMax= 4.92D-03  0.00D+00 EMaxC= 1.00D-01 BMatC= 9.84D-03 BMatP= 2.17D-06
 IDIUse=3 WtCom= 9.98D-01 WtEn= 1.53D-03
 Rare condition: small coef for last iteration:  0.000D+00
 Coeff-Com: -0.289D+00-0.433D+01 0.259D+01 0.283D+01-0.138D+01-0.124D+01
 Coeff-Com:  0.253D+01 0.229D+01-0.544D+01 0.328D+01 0.173D+00
 Coeff-En:   0.000D+00 0.000D+00 0.000D+00 0.000D+00 0.000D+00 0.000D+00
 Coeff-En:   0.000D+00 0.000D+00 0.000D+00 0.000D+00 0.100D+01
 Coeff:     -0.289D+00-0.433D+01 0.259D+01 0.283D+01-0.138D+01-0.124D+01
 Coeff:      0.253D+01 0.229D+01-0.544D+01 0.328D+01 0.173D+00
 Gap=     0.593 Goal=   None    Shift=    0.000
 Gap=     0.644 Goal=   None    Shift=    0.000
 RMSDP=5.40D-06 MaxDP=7.68D-04 DE= 7.17D-04 OVMax= 1.28D-03

 Cycle  38  Pass 1  IDiag  1:
 RMSU=  3.67D-07    CP:  9.99D-01 -2.59D+00  3.00D+00  3.00D+00  3.00D+00
                    CP:  1.37D+00  2.36D+00  1.77D+00  9.16D-01
 E= -1718.41564760799     Delta-E=       -0.000146204617 Rises=F Damp=F
 DIIS: error= 4.68D-03 at cycle  30 NSaved=  12.
 NSaved=12 IEnMin= 7 EnMin= -1718.41687880962     IErMin= 7 ErrMin= 1.10D-04
 ErrMax= 4.68D-03  0.00D+00 EMaxC= 1.00D-01 BMatC= 8.93D-03 BMatP= 2.17D-06
 IDIUse=3 WtCom= 9.98D-01 WtEn= 1.53D-03
 Large coefficients: NSaved= 12 BigCof=   11.16 CofMax=   10.00 Det=-1.46D-09
 Inversion failed.  Reducing to 11 matrices.
 Coeff-Com: -0.762D+00-0.224D+00 0.229D+01-0.878D+00-0.212D+01-0.496D+00
 Coeff-Com:  0.293D+01 0.115D+01-0.139D+01-0.917D+00 0.141D+01
 Coeff-En:   0.000D+00 0.000D+00 0.000D+00 0.000D+00 0.000D+00 0.000D+00
 Coeff-En:   0.000D+00 0.000D+00 0.000D+00 0.000D+00 0.100D+01
 Coeff:     -0.761D+00-0.224D+00 0.229D+01-0.877D+00-0.212D+01-0.496D+00
 Coeff:      0.293D+01 0.115D+01-0.139D+01-0.915D+00 0.141D+01
 Gap=     0.593 Goal=   None    Shift=    0.000
 Gap=     0.624 Goal=   None    Shift=    0.000
 RMSDP=7.29D-05 MaxDP=1.07D-02 DE=-1.46D-04 OVMax= 2.91D-02

 Cycle  39  Pass 1  IDiag  1:
 RMSU=  2.97D-07    CP:  9.99D-01 -2.42D+00  3.00D+00  3.00D+00  3.00D+00
                    CP:  1.16D+00  5.49D-01  4.39D-01  2.47D-01  2.33D+00
 E= -1718.41648976010     Delta-E=       -0.000842152113 Rises=F Damp=F
 DIIS: error= 2.96D-03 at cycle  31 NSaved=  12.
 NSaved=12 IEnMin= 7 EnMin= -1718.41687880962     IErMin= 7 ErrMin= 1.10D-04
 ErrMax= 2.96D-03  0.00D+00 EMaxC= 1.00D-01 BMatC= 3.77D-03 BMatP= 2.17D-06
 IDIUse=3 WtCom= 9.98D-01 WtEn= 1.53D-03
 Coeff-Com: -0.148D+01-0.600D+01 0.573D+01 0.407D+01-0.510D+01 0.103D+00
 Coeff-Com:  0.399D+01 0.167D+00 0.272D+01-0.860D+01 0.983D+01-0.442D+01
 Coeff-En:   0.000D+00 0.000D+00 0.000D+00 0.000D+00 0.000D+00 0.000D+00
 Coeff-En:   0.000D+00 0.000D+00 0.000D+00 0.000D+00 0.000D+00 0.100D+01
 Coeff:     -0.148D+01-0.599D+01 0.572D+01 0.406D+01-0.509D+01 0.103D+00
 Coeff:      0.398D+01 0.167D+00 0.272D+01-0.859D+01 0.981D+01-0.441D+01
 Gap=     0.594 Goal=   None    Shift=    0.000
 Gap=     0.750 Goal=   None    Shift=    0.000
 RMSDP=1.59D-04 MaxDP=2.44D-02 DE=-8.42D-04 OVMax= 4.89D-02

 Cycle  40  Pass 1  IDiag  1:
 RMSU=  4.13D-05    CP:  9.99D-01 -2.76D+00  3.00D+00  3.00D+00  3.00D+00
                    CP:  1.59D+00  3.00D+00  3.00D+00  2.72D+00 -3.00D+00
                    CP: -1.14D+00
 E= -1718.41340715144     Delta-E=        0.003082608661 Rises=F Damp=F
 DIIS: error= 7.85D-03 at cycle  32 NSaved=  13.
 NSaved=13 IEnMin= 7 EnMin= -1718.41687880962     IErMin= 7 ErrMin= 1.10D-04
 ErrMax= 7.85D-03  0.00D+00 EMaxC= 1.00D-01 BMatC= 2.34D-02 BMatP= 2.17D-06
 IDIUse=3 WtCom= 9.98D-01 WtEn= 1.53D-03
 Large coefficients: NSaved= 13 BigCof=   11.49 CofMax=   10.00 Det=-1.09D-09
 Inversion failed.  Reducing to 12 matrices.
 Rare condition: small coef for last iteration:  0.000D+00
 Coeff-Com: -0.106D+01 0.132D+01 0.247D+01-0.234D+01-0.324D+01 0.498D+00
 Coeff-Com:  0.312D+01 0.173D+01-0.899D+00 0.895D+00-0.137D+01-0.112D+00
 Coeff-En:   0.000D+00 0.000D+00 0.000D+00 0.000D+00 0.000D+00 0.000D+00
 Coeff-En:   0.000D+00 0.000D+00 0.000D+00 0.000D+00 0.000D+00 0.100D+01
 Coeff:     -0.106D+01 0.132D+01 0.247D+01-0.234D+01-0.324D+01 0.498D+00
 Coeff:      0.312D+01 0.173D+01-0.899D+00 0.895D+00-0.137D+01-0.112D+00
 Gap=     0.595 Goal=   None    Shift=    0.000
 Gap=     0.651 Goal=   None    Shift=    0.000
 RMSDP=1.58D-04 MaxDP=2.44D-02 DE= 3.08D-03 OVMax= 5.89D-02

 Cycle  41  Pass 1  IDiag  1:
 RMSU=  2.64D-07    CP:  9.99D-01 -2.43D+00  3.00D+00  3.00D+00  3.00D+00
                    CP:  1.17D+00  2.83D-01  1.16D+00 -1.52D-01 -2.87D-02
                    CP:  2.82D-01  2.46D-04
 E= -1718.41654383093     Delta-E=       -0.003136679488 Rises=F Damp=F
 DIIS: error= 2.83D-03 at cycle  33 NSaved=  13.
 NSaved=13 IEnMin= 7 EnMin= -1718.41687880962     IErMin= 7 ErrMin= 1.10D-04
 ErrMax= 2.83D-03  0.00D+00 EMaxC= 1.00D-01 BMatC= 3.46D-03 BMatP= 2.17D-06
 IDIUse=3 WtCom= 9.98D-01 WtEn= 1.53D-03
 Coeff-Com: -0.562D+00-0.657D+01 0.481D+01 0.447D+01-0.400D+01-0.813D+00
 Coeff-Com:  0.367D+01 0.123D+01-0.101D+01 0.182D+01-0.505D+01-0.316D+00
 Coeff-Com:  0.332D+01
 Coeff-En:   0.000D+00 0.000D+00 0.000D+00 0.000D+00 0.000D+00 0.000D+00
 Coeff-En:   0.000D+00 0.000D+00 0.000D+00 0.000D+00 0.000D+00 0.000D+00
 Coeff-En:   0.100D+01
 Coeff:     -0.561D+00-0.656D+01 0.480D+01 0.447D+01-0.399D+01-0.812D+00
 Coeff:      0.367D+01 0.123D+01-0.101D+01 0.182D+01-0.504D+01-0.316D+00
 Coeff:      0.331D+01
 Gap=     0.594 Goal=   None    Shift=    0.000
 Gap=     0.735 Goal=   None    Shift=    0.000
 RMSDP=1.53D-04 MaxDP=2.31D-02 DE=-3.14D-03 OVMax= 5.76D-02

 Cycle  42  Pass 1  IDiag  1:
 RMSU=  1.97D-06    CP:  9.98D-01 -2.76D+00  3.00D+00  3.00D+00  3.00D+00
                    CP:  1.60D+00  3.00D+00  3.00D+00  1.79D+00 -3.00D+00
                    CP: -2.71D+00  7.05D-01  7.51D-01
 E= -1718.41391820388     Delta-E=        0.002625627056 Rises=F Damp=F
 DIIS: error= 7.23D-03 at cycle  34 NSaved=  14.
 NSaved=14 IEnMin= 7 EnMin= -1718.41687880962     IErMin= 7 ErrMin= 1.10D-04
 ErrMax= 7.23D-03  0.00D+00 EMaxC= 1.00D-01 BMatC= 2.01D-02 BMatP= 2.17D-06
 IDIUse=3 WtCom= 9.98D-01 WtEn= 1.53D-03
 Rare condition: small coef for last iteration:  0.000D+00
 Coeff-Com: -0.462D+00-0.656D+01 0.477D+01 0.442D+01-0.407D+01-0.808D+00
 Coeff-Com:  0.370D+01 0.127D+01-0.104D+01 0.194D+01-0.526D+01-0.224D+00
 Coeff-Com:  0.347D+01-0.143D+00
 Coeff-En:   0.000D+00 0.000D+00 0.000D+00 0.000D+00 0.000D+00 0.000D+00
 Coeff-En:   0.000D+00 0.000D+00 0.000D+00 0.000D+00 0.000D+00 0.000D+00
 Coeff-En:   0.000D+00 0.100D+01
 Coeff:     -0.462D+00-0.656D+01 0.477D+01 0.442D+01-0.407D+01-0.808D+00
 Coeff:      0.370D+01 0.127D+01-0.104D+01 0.194D+01-0.526D+01-0.224D+00
 Coeff:      0.347D+01-0.143D+00
 Gap=     0.593 Goal=   None    Shift=    0.000
 Gap=     0.651 Goal=   None    Shift=    0.000
 RMSDP=9.86D-07 MaxDP=1.37D-04 DE= 2.63D-03 OVMax= 2.40D-04

 Cycle  43  Pass 1  IDiag  1:
 RMSU=  4.48D-08    CP:  9.98D-01 -2.76D+00  3.00D+00  3.00D+00  3.00D+00
                    CP:  1.60D+00  3.00D+00  3.00D+00  1.75D+00 -3.00D+00
                    CP: -2.85D+00  6.82D-01  8.02D-01  1.04D+00
 E= -1718.41395763254     Delta-E=       -0.000039428662 Rises=F Damp=F
 DIIS: error= 7.18D-03 at cycle  35 NSaved=  15.
 NSaved=15 IEnMin= 7 EnMin= -1718.41687880962     IErMin= 7 ErrMin= 1.10D-04
 ErrMax= 7.18D-03  0.00D+00 EMaxC= 1.00D-01 BMatC= 1.98D-02 BMatP= 2.17D-06
 IDIUse=3 WtCom= 9.98D-01 WtEn= 1.53D-03
 Coeff-Com: -0.464D+00-0.655D+01 0.478D+01 0.441D+01-0.407D+01-0.806D+00
 Coeff-Com:  0.370D+01 0.127D+01-0.104D+01 0.195D+01-0.528D+01-0.227D+00
 Coeff-Com:  0.348D+01-0.790D-01-0.634D-01
 Coeff-En:   0.000D+00 0.000D+00 0.000D+00 0.000D+00 0.000D+00 0.000D+00
 Coeff-En:   0.000D+00 0.000D+00 0.000D+00 0.000D+00 0.000D+00 0.000D+00
 Coeff-En:   0.000D+00 0.000D+00 0.100D+01
 Coeff:     -0.463D+00-0.654D+01 0.477D+01 0.441D+01-0.406D+01-0.805D+00
 Coeff:      0.369D+01 0.127D+01-0.104D+01 0.195D+01-0.527D+01-0.227D+00
 Coeff:      0.347D+01-0.789D-01-0.617D-01
 Gap=     0.593 Goal=   None    Shift=    0.000
 Gap=     0.651 Goal=   None    Shift=    0.000
 RMSDP=1.78D-07 MaxDP=2.04D-05 DE=-3.94D-05 OVMax= 3.36D-05

 Cycle  44  Pass 1  IDiag  1:
 RMSU=  6.38D-08    CP:  9.98D-01 -2.76D+00  3.00D+00  3.00D+00  3.00D+00
                    CP:  1.60D+00  3.00D+00  3.00D+00  1.74D+00 -3.00D+00
                    CP: -2.67D+00  6.78D-01  7.45D-01  1.05D+00  1.87D-01
 E= -1718.41396534721     Delta-E=       -0.000007714675 Rises=F Damp=F
 DIIS: error= 7.17D-03 at cycle  36 NSaved=  16.
 NSaved=16 IEnMin= 7 EnMin= -1718.41687880962     IErMin= 7 ErrMin= 1.10D-04
 ErrMax= 7.17D-03  0.00D+00 EMaxC= 1.00D-01 BMatC= 1.97D-02 BMatP= 2.17D-06
 IDIUse=3 WtCom= 9.98D-01 WtEn= 1.53D-03
 Large coefficients: NSaved= 16 BigCof=   19.92 CofMax=   10.00 Det=-5.14D-11
 Inversion failed.  Reducing to 15 matrices.
 Large coefficients: NSaved= 15 BigCof=   18.13 CofMax=   10.00 Det=-7.79D-11
 Inversion failed.  Reducing to 14 matrices.
 Coeff-Com: -0.438D+00-0.617D+01 0.479D+01 0.405D+01-0.434D+01-0.618D+00
 Coeff-Com:  0.370D+01 0.173D+01-0.139D+01 0.270D+01-0.688D+01 0.446D+01
 Coeff-Com: -0.228D+01 0.170D+01
 Coeff-En:   0.000D+00 0.000D+00 0.000D+00 0.000D+00 0.000D+00 0.000D+00
 Coeff-En:   0.000D+00 0.000D+00 0.000D+00 0.000D+00 0.000D+00 0.000D+00
 Coeff-En:   0.000D+00 0.100D+01
 Coeff:     -0.438D+00-0.616D+01 0.478D+01 0.405D+01-0.433D+01-0.618D+00
 Coeff:      0.369D+01 0.173D+01-0.139D+01 0.269D+01-0.687D+01 0.445D+01
 Coeff:     -0.228D+01 0.170D+01
 Gap=     0.593 Goal=   None    Shift=    0.000
 Gap=     0.651 Goal=   None    Shift=    0.000
 RMSDP=4.78D-06 MaxDP=7.53D-04 DE=-7.71D-06 OVMax= 1.36D-03

 Cycle  45  Pass 1  IDiag  1:
 RMSU=  8.76D-08    CP:  9.98D-01 -2.75D+00  3.00D+00  3.00D+00  3.00D+00
                    CP:  1.59D+00  3.00D+00  3.00D+00  1.49D+00 -3.00D+00
                    CP: -2.88D+00  5.83D-01  9.04D-01  1.15D+00 -1.42D-01
                    CP:  9.88D-01
 E= -1718.41414137217     Delta-E=       -0.000176024961 Rises=F Damp=F
 DIIS: error= 6.94D-03 at cycle  37 NSaved=  15.
 NSaved=15 IEnMin= 7 EnMin= -1718.41687880962     IErMin= 7 ErrMin= 1.10D-04
 ErrMax= 6.94D-03  0.00D+00 EMaxC= 1.00D-01 BMatC= 1.86D-02 BMatP= 2.17D-06
 IDIUse=3 WtCom= 9.98D-01 WtEn= 1.53D-03
 Coeff-Com: -0.165D+01-0.631D+01 0.568D+01 0.452D+01-0.438D+01-0.382D+00
 Coeff-Com:  0.370D+01 0.185D+01-0.185D+01 0.257D+01-0.642D+01 0.387D+01
 Coeff-Com: -0.291D+01-0.129D+01 0.401D+01
 Coeff-En:   0.000D+00 0.000D+00 0.000D+00 0.000D+00 0.000D+00 0.000D+00
 Coeff-En:   0.000D+00 0.000D+00 0.000D+00 0.000D+00 0.000D+00 0.000D+00
 Coeff-En:   0.000D+00 0.000D+00 0.100D+01
 Coeff:     -0.165D+01-0.630D+01 0.567D+01 0.451D+01-0.437D+01-0.381D+00
 Coeff:      0.369D+01 0.184D+01-0.185D+01 0.257D+01-0.641D+01 0.386D+01
 Coeff:     -0.291D+01-0.129D+01 0.400D+01
 Gap=     0.593 Goal=   None    Shift=    0.000
 Gap=     0.651 Goal=   None    Shift=    0.000
 RMSDP=2.26D-05 MaxDP=3.60D-03 DE=-1.76D-04 OVMax= 4.89D-03

 Cycle  46  Pass 1  IDiag  1:
 RMSU=  2.34D-07    CP:  9.98D-01 -2.79D+00  3.00D+00  3.00D+00  3.00D+00
                    CP:  1.63D+00  3.00D+00  3.00D+00  2.41D+00 -3.00D+00
                    CP: -2.42D+00  9.99D-01  5.31D-01  1.17D+00 -1.44D+00
                    CP: -2.52D+00  1.95D+00
 E= -1718.41330810049     Delta-E=        0.000833271686 Rises=F Damp=F
 DIIS: error= 7.98D-03 at cycle  38 NSaved=  16.
 NSaved=16 IEnMin= 7 EnMin= -1718.41687880962     IErMin= 7 ErrMin= 1.10D-04
 ErrMax= 7.98D-03  0.00D+00 EMaxC= 1.00D-01 BMatC= 2.41D-02 BMatP= 2.17D-06
 IDIUse=3 WtCom= 9.98D-01 WtEn= 1.53D-03
 Large coefficients: NSaved= 16 BigCof=   20.36 CofMax=   10.00 Det=-9.88D-11
 Inversion failed.  Reducing to 15 matrices.
 Large coefficients: NSaved= 15 BigCof=   14.87 CofMax=   10.00 Det=-2.70D-10
 Inversion failed.  Reducing to 14 matrices.
 Rare condition: small coef for last iteration:  0.000D+00
 Coeff-Com:  0.157D+00-0.630D+01 0.430D+01 0.400D+01-0.408D+01-0.902D+00
 Coeff-Com:  0.371D+01 0.128D+01-0.101D+01 0.217D+01-0.564D+01 0.391D+01
 Coeff-Com: -0.726D+00 0.134D+00
 Coeff-En:   0.000D+00 0.000D+00 0.000D+00 0.000D+00 0.000D+00 0.000D+00
 Coeff-En:   0.000D+00 0.000D+00 0.000D+00 0.000D+00 0.000D+00 0.000D+00
 Coeff-En:   0.000D+00 0.100D+01
 Coeff:      0.157D+00-0.630D+01 0.430D+01 0.400D+01-0.408D+01-0.902D+00
 Coeff:      0.371D+01 0.128D+01-0.101D+01 0.217D+01-0.564D+01 0.391D+01
 Coeff:     -0.726D+00 0.134D+00
 Gap=     0.594 Goal=   None    Shift=    0.000
 Gap=     0.651 Goal=   None    Shift=    0.000
 RMSDP=3.18D-05 MaxDP=5.06D-03 DE= 8.33D-04 OVMax= 9.91D-03

 Cycle  47  Pass 1  IDiag  1:
 RMSU=  3.74D-08    CP:  9.99D-01 -2.74D+00  3.00D+00  3.00D+00  3.00D+00
                    CP:  1.57D+00  3.00D+00  3.00D+00  1.24D+00 -3.00D+00
                    CP: -2.99D+00  4.26D-01  1.20D+00  1.14D+00  2.56D+00
                    CP:  1.39D+00  6.43D-01 -1.89D-01
 E= -1718.41443113986     Delta-E=       -0.001123039374 Rises=F Damp=F
 DIIS: error= 6.55D-03 at cycle  39 NSaved=  15.
 NSaved=15 IEnMin= 7 EnMin= -1718.41687880962     IErMin= 7 ErrMin= 1.10D-04
 ErrMax= 6.55D-03  0.00D+00 EMaxC= 1.00D-01 BMatC= 1.67D-02 BMatP= 2.17D-06
 IDIUse=3 WtCom= 9.98D-01 WtEn= 1.53D-03
 Coeff-Com: -0.501D-01-0.624D+01 0.446D+01 0.400D+01-0.416D+01-0.819D+00
 Coeff-Com:  0.371D+01 0.146D+01-0.121D+01 0.241D+01-0.609D+01 0.414D+01
 Coeff-Com:  0.404D+00-0.181D+00-0.851D+00
 Coeff-En:   0.000D+00 0.000D+00 0.000D+00 0.000D+00 0.000D+00 0.000D+00
 Coeff-En:   0.000D+00 0.000D+00 0.000D+00 0.000D+00 0.000D+00 0.000D+00
 Coeff-En:   0.000D+00 0.000D+00 0.100D+01
 Coeff:     -0.500D-01-0.623D+01 0.446D+01 0.400D+01-0.415D+01-0.818D+00
 Coeff:      0.370D+01 0.146D+01-0.121D+01 0.240D+01-0.608D+01 0.413D+01
 Coeff:      0.403D+00-0.181D+00-0.848D+00
 Gap=     0.593 Goal=   None    Shift=    0.000
 Gap=     0.651 Goal=   None    Shift=    0.000
 RMSDP=2.69D-06 MaxDP=4.26D-04 DE=-1.12D-03 OVMax= 8.37D-04

 Cycle  48  Pass 1  IDiag  1:
 RMSU=  5.00D-09    CP:  9.99D-01 -2.74D+00  3.00D+00  3.00D+00  3.00D+00
                    CP:  1.57D+00  3.00D+00  3.00D+00  1.31D+00 -3.00D+00
                    CP: -2.85D+00  4.75D-01  1.07D+00  1.13D+00  6.56D-01
                    CP:  1.62D+00  8.15D-01 -1.47D-01  4.96D-01
 E= -1718.41434509879     Delta-E=        0.000086041075 Rises=F Damp=F
 DIIS: error= 6.67D-03 at cycle  40 NSaved=  16.
 NSaved=16 IEnMin= 7 EnMin= -1718.41687880962     IErMin= 7 ErrMin= 1.10D-04
 ErrMax= 6.67D-03  0.00D+00 EMaxC= 1.00D-01 BMatC= 1.73D-02 BMatP= 2.17D-06
 IDIUse=3 WtCom= 9.98D-01 WtEn= 1.53D-03
 Large coefficients: NSaved= 16 BigCof=   27.30 CofMax=   10.00 Det=-2.61D-11
 Inversion failed.  Reducing to 15 matrices.
 Rare condition: small coef for last iteration:  0.000D+00
 Coeff-Com:  0.670D+00-0.660D+01 0.398D+01 0.410D+01-0.393D+01-0.117D+01
 Coeff-Com:  0.377D+01 0.945D+00-0.749D+00 0.218D+01-0.523D+01 0.389D+01
 Coeff-Com:  0.264D+01 0.165D+01-0.514D+01
 Coeff-En:   0.000D+00 0.000D+00 0.000D+00 0.000D+00 0.000D+00 0.000D+00
 Coeff-En:   0.000D+00 0.000D+00 0.000D+00 0.000D+00 0.000D+00 0.000D+00
 Coeff-En:   0.000D+00 0.000D+00 0.100D+01
 Coeff:      0.670D+00-0.660D+01 0.398D+01 0.410D+01-0.393D+01-0.117D+01
 Coeff:      0.377D+01 0.945D+00-0.749D+00 0.218D+01-0.523D+01 0.389D+01
 Coeff:      0.264D+01 0.165D+01-0.514D+01
 Gap=     0.594 Goal=   None    Shift=    0.000
 Gap=     0.651 Goal=   None    Shift=    0.000
 RMSDP=6.23D-06 MaxDP=9.56D-04 DE= 8.60D-05 OVMax= 1.69D-03

 Cycle  49  Pass 1  IDiag  1:
 Restarting incremental Fock formation.
 E= -1718.41456332034     Delta-E=       -0.000218221558 Rises=F Damp=F
 DIIS: error= 6.37D-03 at cycle  41 NSaved=  16.
 NSaved=16 IEnMin= 7 EnMin= -1718.41687880962     IErMin= 7 ErrMin= 1.10D-04
 ErrMax= 6.37D-03  0.00D+00 EMaxC= 1.00D-01 BMatC= 1.59D-02 BMatP= 2.17D-06
 IDIUse=3 WtCom= 9.98D-01 WtEn= 1.53D-03
 Large coefficients: NSaved= 16 BigCof=   15.95 CofMax=   10.00 Det=-8.60D-11
 Inversion failed.  Reducing to 15 matrices.
 Large coefficients: NSaved= 15 BigCof=   17.54 CofMax=   10.00 Det=-1.83D-10
 Inversion failed.  Reducing to 14 matrices.
 Coeff-Com: -0.154D+00-0.661D+01 0.455D+01 0.439D+01-0.402D+01-0.893D+00
 Coeff-Com:  0.369D+01 0.111D+01-0.824D+00 0.158D+01-0.466D+01 0.314D+01
 Coeff-Com: -0.145D+01 0.116D+01
 Coeff-En:   0.000D+00 0.000D+00 0.000D+00 0.000D+00 0.000D+00 0.000D+00
 Coeff-En:   0.000D+00 0.000D+00 0.000D+00 0.000D+00 0.000D+00 0.000D+00
 Coeff-En:   0.000D+00 0.100D+01
 Coeff:     -0.154D+00-0.660D+01 0.454D+01 0.438D+01-0.401D+01-0.891D+00
 Coeff:      0.368D+01 0.111D+01-0.823D+00 0.158D+01-0.465D+01 0.313D+01
 Coeff:     -0.145D+01 0.116D+01
 Gap=     0.593 Goal=   None    Shift=    0.000
 Gap=     0.651 Goal=   None    Shift=    0.000
 RMSDP=1.33D-05 MaxDP=2.12D-03 DE=-2.18D-04 OVMax= 4.08D-03

 Cycle  50  Pass 1  IDiag  1:
 RMSU=  1.33D-05    CP:  1.00D+00
 E= -1718.41412494573     Delta-E=        0.000438374610 Rises=F Damp=F
 DIIS: error= 6.96D-03 at cycle  42 NSaved=  15.
 NSaved=15 IEnMin= 7 EnMin= -1718.41687880962     IErMin= 7 ErrMin= 1.10D-04
 ErrMax= 6.96D-03  0.00D+00 EMaxC= 1.00D-01 BMatC= 1.87D-02 BMatP= 2.17D-06
 IDIUse=3 WtCom= 9.98D-01 WtEn= 1.53D-03
 Rare condition: small coef for last iteration:  0.000D+00
 Coeff-Com:  0.128D+00-0.678D+01 0.439D+01 0.447D+01-0.403D+01-0.969D+00
 Coeff-Com:  0.368D+01 0.102D+01-0.565D+00 0.156D+01-0.479D+01 0.327D+01
 Coeff-Com: -0.268D+01 0.130D+01 0.981D+00
 Coeff-En:   0.000D+00 0.000D+00 0.000D+00 0.000D+00 0.000D+00 0.000D+00
 Coeff-En:   0.000D+00 0.000D+00 0.000D+00 0.000D+00 0.000D+00 0.000D+00
 Coeff-En:   0.000D+00 0.000D+00 0.100D+01
 Coeff:      0.128D+00-0.678D+01 0.439D+01 0.447D+01-0.403D+01-0.969D+00
 Coeff:      0.368D+01 0.102D+01-0.565D+00 0.156D+01-0.479D+01 0.327D+01
 Coeff:     -0.268D+01 0.130D+01 0.981D+00
 Gap=     0.593 Goal=   None    Shift=    0.000
 Gap=     0.651 Goal=   None    Shift=    0.000
 RMSDP=2.32D-06 MaxDP=3.22D-04 DE= 4.38D-04 OVMax= 5.78D-04

 Cycle  51  Pass 1  IDiag  1:
 RMSU=  9.90D-07    CP:  1.00D+00  8.42D-01
 E= -1718.41421467687     Delta-E=       -0.000089731136 Rises=F Damp=F
 DIIS: error= 6.84D-03 at cycle  43 NSaved=  16.
 NSaved=16 IEnMin= 7 EnMin= -1718.41687880962     IErMin= 7 ErrMin= 1.10D-04
 ErrMax= 6.84D-03  0.00D+00 EMaxC= 1.00D-01 BMatC= 1.81D-02 BMatP= 2.17D-06
 IDIUse=3 WtCom= 9.98D-01 WtEn= 1.53D-03
 Large coefficients: NSaved= 16 BigCof=   16.22 CofMax=   10.00 Det=-7.88D-11
 Inversion failed.  Reducing to 15 matrices.
 Coeff-Com:  0.173D-01-0.673D+01 0.444D+01 0.443D+01-0.396D+01-0.100D+01
 Coeff-Com:  0.371D+01 0.100D+01-0.818D+00 0.159D+01-0.447D+01 0.314D+01
 Coeff-Com: -0.352D+00-0.211D+01 0.209D+01
 Coeff-En:   0.000D+00 0.000D+00 0.000D+00 0.000D+00 0.000D+00 0.000D+00
 Coeff-En:   0.000D+00 0.000D+00 0.000D+00 0.000D+00 0.000D+00 0.000D+00
 Coeff-En:   0.000D+00 0.000D+00 0.100D+01
 Coeff:      0.173D-01-0.672D+01 0.444D+01 0.443D+01-0.395D+01-0.100D+01
 Coeff:      0.371D+01 0.100D+01-0.817D+00 0.159D+01-0.447D+01 0.314D+01
 Coeff:     -0.352D+00-0.211D+01 0.209D+01
 Gap=     0.593 Goal=   None    Shift=    0.000
 Gap=     0.651 Goal=   None    Shift=    0.000
 RMSDP=1.42D-06 MaxDP=1.17D-04 DE=-8.97D-05 OVMax= 4.81D-04

 Cycle  52  Pass 1  IDiag  1:
 RMSU=  1.33D-07    CP:  1.00D+00  8.81D-01 -3.34D-01
 E= -1718.41417294286     Delta-E=        0.000041734006 Rises=F Damp=F
 DIIS: error= 6.90D-03 at cycle  44 NSaved=  16.
 NSaved=16 IEnMin= 7 EnMin= -1718.41687880962     IErMin= 7 ErrMin= 1.10D-04
 ErrMax= 6.90D-03  0.00D+00 EMaxC= 1.00D-01 BMatC= 1.84D-02 BMatP= 2.17D-06
 IDIUse=3 WtCom= 9.98D-01 WtEn= 1.53D-03
 Large coefficients: NSaved= 16 BigCof=   14.87 CofMax=   10.00 Det=-8.23D-11
 Inversion failed.  Reducing to 15 matrices.
 Rare condition: small coef for last iteration:  0.000D+00
 Coeff-Com:  0.201D+00-0.707D+01 0.438D+01 0.467D+01-0.389D+01-0.113D+01
 Coeff-Com:  0.375D+01 0.773D+00-0.553D+00 0.144D+01-0.406D+01 0.292D+01
 Coeff-Com: -0.558D+00 0.313D+01-0.300D+01
 Coeff-En:   0.000D+00 0.000D+00 0.000D+00 0.000D+00 0.000D+00 0.000D+00
 Coeff-En:   0.000D+00 0.000D+00 0.000D+00 0.000D+00 0.000D+00 0.000D+00
 Coeff-En:   0.000D+00 0.000D+00 0.100D+01
 Coeff:      0.201D+00-0.707D+01 0.438D+01 0.467D+01-0.389D+01-0.113D+01
 Coeff:      0.375D+01 0.773D+00-0.553D+00 0.144D+01-0.406D+01 0.292D+01
 Coeff:     -0.558D+00 0.313D+01-0.300D+01
 Gap=     0.593 Goal=   None    Shift=    0.000
 Gap=     0.651 Goal=   None    Shift=    0.000
 RMSDP=2.78D-06 MaxDP=4.18D-04 DE= 4.17D-05 OVMax= 1.03D-03

 Cycle  53  Pass 1  IDiag  1:
 RMSU=  8.42D-08    CP:  1.00D+00  1.08D+00  6.46D-01  3.99D-01
 E= -1718.41410119707     Delta-E=        0.000071745797 Rises=F Damp=F
 DIIS: error= 6.99D-03 at cycle  45 NSaved=  16.
 NSaved=16 IEnMin= 7 EnMin= -1718.41687880962     IErMin= 7 ErrMin= 1.10D-04
 ErrMax= 6.99D-03  0.00D+00 EMaxC= 1.00D-01 BMatC= 1.89D-02 BMatP= 2.17D-06
 IDIUse=3 WtCom= 9.98D-01 WtEn= 1.53D-03
 Rare condition: small coef for last iteration:  0.000D+00
 Coeff-Com:  0.415D-01-0.715D+01 0.453D+01 0.479D+01-0.393D+01-0.110D+01
 Coeff-Com:  0.375D+01 0.843D+00-0.629D+00 0.149D+01-0.419D+01 0.293D+01
 Coeff-Com: -0.752D+00 0.453D+01-0.262D+01-0.154D+01
 Coeff-En:   0.000D+00 0.000D+00 0.000D+00 0.000D+00 0.000D+00 0.000D+00
 Coeff-En:   0.000D+00 0.000D+00 0.000D+00 0.000D+00 0.000D+00 0.000D+00
 Coeff-En:   0.000D+00 0.000D+00 0.000D+00 0.100D+01
 Coeff:      0.415D-01-0.715D+01 0.453D+01 0.479D+01-0.393D+01-0.110D+01
 Coeff:      0.375D+01 0.843D+00-0.629D+00 0.149D+01-0.419D+01 0.293D+01
 Coeff:     -0.752D+00 0.453D+01-0.262D+01-0.154D+01
 Gap=     0.593 Goal=   None    Shift=    0.000
 Gap=     0.651 Goal=   None    Shift=    0.000
 RMSDP=3.51D-06 MaxDP=5.63D-04 DE= 7.17D-05 OVMax= 1.03D-03

 Cycle  54  Pass 1  IDiag  1:
 RMSU=  9.66D-08    CP:  1.00D+00  1.34D+00  5.00D-01  2.56D-01  9.08D-01
 E= -1718.41397551059     Delta-E=        0.000125686475 Rises=F Damp=F
 DIIS: error= 7.15D-03 at cycle  46 NSaved=  17.
 NSaved=17 IEnMin= 7 EnMin= -1718.41687880962     IErMin= 7 ErrMin= 1.10D-04
 ErrMax= 7.15D-03  0.00D+00 EMaxC= 1.00D-01 BMatC= 1.97D-02 BMatP= 2.17D-06
 IDIUse=3 WtCom= 9.98D-01 WtEn= 1.53D-03
 Large coefficients: NSaved= 17 BigCof=   17.44 CofMax=   10.00 Det=-2.64D-11
 Inversion failed.  Reducing to 16 matrices.
 Large coefficients: NSaved= 16 BigCof=   11.89 CofMax=   10.00 Det=-2.81D-11
 Inversion failed.  Reducing to 15 matrices.
 Rare condition: small coef for last iteration:  0.000D+00
 Coeff-Com: -0.473D+00-0.617D+01 0.468D+01 0.408D+01-0.407D+01-0.746D+00
 Coeff-Com:  0.367D+01 0.143D+01-0.130D+01 0.194D+01-0.521D+01 0.343D+01
 Coeff-Com:  0.432D+00 0.351D+00-0.106D+01
 Coeff-En:   0.000D+00 0.000D+00 0.000D+00 0.000D+00 0.000D+00 0.000D+00
 Coeff-En:   0.000D+00 0.000D+00 0.000D+00 0.000D+00 0.000D+00 0.000D+00
 Coeff-En:   0.000D+00 0.000D+00 0.100D+01
 Coeff:     -0.473D+00-0.617D+01 0.468D+01 0.408D+01-0.407D+01-0.746D+00
 Coeff:      0.367D+01 0.143D+01-0.130D+01 0.194D+01-0.521D+01 0.343D+01
 Coeff:      0.432D+00 0.351D+00-0.106D+01
 Gap=     0.593 Goal=   None    Shift=    0.000
 Gap=     0.651 Goal=   None    Shift=    0.000
 RMSDP=7.46D-06 MaxDP=1.13D-03 DE= 1.26D-04 OVMax= 2.87D-03

 Cycle  55  Pass 1  IDiag  1:
 RMSU=  2.26D-07    CP:  1.00D+00  8.30D-01 -2.62D+00  5.19D-01  9.51D-01
                    CP:  9.27D-01
 E= -1718.41415004878     Delta-E=       -0.000174538188 Rises=F Damp=F
 DIIS: error= 6.93D-03 at cycle  47 NSaved=  16.
 NSaved=16 IEnMin= 7 EnMin= -1718.41687880962     IErMin= 7 ErrMin= 1.10D-04
 ErrMax= 6.93D-03  0.00D+00 EMaxC= 1.00D-01 BMatC= 1.85D-02 BMatP= 2.17D-06
 IDIUse=3 WtCom= 9.98D-01 WtEn= 1.53D-03
 Coeff-Com: -0.340D+00-0.716D+01 0.486D+01 0.495D+01-0.418D+01-0.798D+00
 Coeff-Com:  0.364D+01 0.121D+01-0.623D+00 0.204D+01-0.589D+01 0.382D+01
 Coeff-Com:  0.130D+01-0.262D+01 0.389D+01-0.310D+01
 Coeff-En:   0.000D+00 0.000D+00 0.000D+00 0.000D+00 0.000D+00 0.000D+00
 Coeff-En:   0.000D+00 0.000D+00 0.000D+00 0.000D+00 0.000D+00 0.000D+00
 Coeff-En:   0.000D+00 0.000D+00 0.000D+00 0.100D+01
 Coeff:     -0.339D+00-0.715D+01 0.485D+01 0.494D+01-0.417D+01-0.796D+00
 Coeff:      0.364D+01 0.121D+01-0.622D+00 0.204D+01-0.588D+01 0.381D+01
 Coeff:      0.130D+01-0.262D+01 0.389D+01-0.309D+01
 Gap=     0.593 Goal=   None    Shift=    0.000
 Gap=     0.651 Goal=   None    Shift=    0.000
 RMSDP=1.84D-05 MaxDP=2.72D-03 DE=-1.75D-04 OVMax= 6.92D-03

 Cycle  56  Pass 1  IDiag  1:
 RMSU=  2.89D-06    CP:  1.00D+00  2.06D+00  3.00D+00 -3.00D+00 -2.80D+00
                    CP:  2.74D+00 -1.68D+00
 E= -1718.41374183300     Delta-E=        0.000408215780 Rises=F Damp=F
 DIIS: error= 7.45D-03 at cycle  48 NSaved=  17.
 NSaved=17 IEnMin= 7 EnMin= -1718.41687880962     IErMin= 7 ErrMin= 1.10D-04
 ErrMax= 7.45D-03  0.00D+00 EMaxC= 1.00D-01 BMatC= 2.12D-02 BMatP= 2.17D-06
 IDIUse=3 WtCom= 9.98D-01 WtEn= 1.53D-03
 Large coefficients: NSaved= 17 BigCof=   16.86 CofMax=   10.00 Det=-9.78D-11
 Inversion failed.  Reducing to 16 matrices.
 Rare condition: small coef for last iteration:  0.000D+00
 Coeff-Com: -0.125D+01-0.885D+01 0.599D+01 0.673D+01-0.431D+01-0.774D+00
 Coeff-Com:  0.364D+01 0.142D+01-0.605D+00 0.318D+01-0.813D+01 0.487D+01
 Coeff-Com:  0.250D+01-0.493D+01-0.185D+01 0.339D+01
 Coeff-En:   0.000D+00 0.000D+00 0.000D+00 0.000D+00 0.000D+00 0.000D+00
 Coeff-En:   0.000D+00 0.000D+00 0.000D+00 0.000D+00 0.000D+00 0.000D+00
 Coeff-En:   0.000D+00 0.000D+00 0.000D+00 0.100D+01
 Coeff:     -0.125D+01-0.885D+01 0.599D+01 0.673D+01-0.431D+01-0.774D+00
 Coeff:      0.364D+01 0.142D+01-0.605D+00 0.318D+01-0.813D+01 0.487D+01
 Coeff:      0.250D+01-0.493D+01-0.185D+01 0.339D+01
 Gap=     0.593 Goal=   None    Shift=    0.000
 Gap=     0.651 Goal=   None    Shift=    0.000
 RMSDP=4.25D-05 MaxDP=6.77D-03 DE= 4.08D-04 OVMax= 1.20D-02

 Cycle  57  Pass 1  IDiag  1:
 RMSU=  2.93D-05    CP:  1.00D+00  3.00D+00  3.00D+00 -3.00D+00  3.00D+00
                    CP:  3.00D+00 -3.00D+00  3.00D+00
 E= -1718.41220097530     Delta-E=        0.001540857704 Rises=F Damp=F
 DIIS: error= 9.23D-03 at cycle  49 NSaved=  17.
 NSaved=17 IEnMin= 7 EnMin= -1718.41687880962     IErMin= 7 ErrMin= 1.10D-04
 ErrMax= 9.23D-03  0.00D+00 EMaxC= 1.00D-01 BMatC= 3.16D-02 BMatP= 2.17D-06
 IDIUse=3 WtCom= 9.98D-01 WtEn= 1.53D-03
 Large coefficients: NSaved= 17 BigCof=   10.12 CofMax=   10.00 Det=-7.82D-10
 Inversion failed.  Reducing to 16 matrices.
 Rare condition: small coef for last iteration:  0.000D+00
 Coeff-Com:  0.537D+00-0.927D+01 0.474D+01 0.650D+01-0.405D+01-0.127D+01
 Coeff-Com:  0.376D+01 0.481D+00 0.572D+00 0.329D+01-0.803D+01 0.530D+01
 Coeff-Com:  0.130D+01-0.351D+01-0.228D+00 0.887D+00
 Coeff-En:   0.000D+00 0.000D+00 0.000D+00 0.000D+00 0.000D+00 0.000D+00
 Coeff-En:   0.000D+00 0.000D+00 0.000D+00 0.000D+00 0.000D+00 0.000D+00
 Coeff-En:   0.000D+00 0.000D+00 0.000D+00 0.100D+01
 Coeff:      0.537D+00-0.927D+01 0.474D+01 0.650D+01-0.405D+01-0.127D+01
 Coeff:      0.376D+01 0.481D+00 0.572D+00 0.329D+01-0.803D+01 0.530D+01
 Coeff:      0.130D+01-0.351D+01-0.228D+00 0.887D+00
 Gap=     0.593 Goal=   None    Shift=    0.000
 Gap=     0.651 Goal=   None    Shift=    0.000
 RMSDP=1.76D-05 MaxDP=2.60D-03 DE= 1.54D-03 OVMax= 3.52D-03

 Cycle  58  Pass 1  IDiag  1:
 RMSU=  7.38D-06    CP:  1.00D+00  3.00D+00  3.00D+00 -3.00D+00 -3.00D+00
                    CP:  3.00D+00 -3.00D+00  3.00D+00  4.55D-01
 E= -1718.41306333990     Delta-E=       -0.000862364607 Rises=F Damp=F
 DIIS: error= 8.27D-03 at cycle  50 NSaved=  17.
 NSaved=17 IEnMin= 7 EnMin= -1718.41687880962     IErMin= 7 ErrMin= 1.10D-04
 ErrMax= 8.27D-03  0.00D+00 EMaxC= 1.00D-01 BMatC= 2.58D-02 BMatP= 2.17D-06
 IDIUse=3 WtCom= 9.98D-01 WtEn= 1.53D-03
 Large coefficients: NSaved= 17 BigCof=   11.69 CofMax=   10.00 Det=-1.04D-09
 Inversion failed.  Reducing to 16 matrices.
 Coeff-Com:  0.509D+00-0.994D+01 0.490D+01 0.715D+01-0.402D+01-0.140D+01
 Coeff-Com:  0.372D+01 0.592D+00 0.647D+00 0.325D+01-0.812D+01 0.537D+01
 Coeff-Com: -0.340D+00-0.239D+01 0.161D+00 0.892D+00
 Coeff-En:   0.000D+00 0.000D+00 0.000D+00 0.000D+00 0.000D+00 0.000D+00
 Coeff-En:   0.000D+00 0.000D+00 0.000D+00 0.000D+00 0.000D+00 0.000D+00
 Coeff-En:   0.000D+00 0.000D+00 0.000D+00 0.100D+01
 Coeff:      0.508D+00-0.993D+01 0.490D+01 0.714D+01-0.401D+01-0.140D+01
 Coeff:      0.372D+01 0.591D+00 0.646D+00 0.325D+01-0.811D+01 0.537D+01
 Coeff:     -0.340D+00-0.238D+01 0.161D+00 0.892D+00
 Gap=     0.593 Goal=   None    Shift=    0.000
 Gap=     0.651 Goal=   None    Shift=    0.000
 RMSDP=8.80D-06 MaxDP=1.39D-03 DE=-8.62D-04 OVMax= 2.39D-03

 Cycle  59  Pass 1  IDiag  1:
[...]
     6  O   -0.027022  -0.002777   0.000494   0.000726  -0.000025   0.052969
     7  H    0.001157   0.000070   0.000014  -0.000025  -0.000000  -0.001783
     8  O   -0.026996   0.000725  -0.000029  -0.002775   0.000070  -0.003012
     9  H    0.000011  -0.000029   0.000001   0.000493   0.000014   0.000036
    10  O   -0.026992  -0.002773   0.000054  -0.003012   0.000228  -0.002778
    11  H    0.000010   0.000493  -0.000068   0.000107   0.000044   0.000054
    12  O   -0.027001  -0.003014   0.000107  -0.002774   0.000063  -0.003013
    13  H    0.000013   0.000036  -0.000009   0.000054   0.000010   0.000107
    14  H    0.001155   0.000063   0.000010   0.000219  -0.000103   0.000070
    15  H    0.000014   0.000108  -0.000009  -0.001565   0.000732  -0.000029
    16  H    0.001155   0.000229   0.000044   0.000070  -0.000014   0.000219
    17  H    0.001153  -0.001782   0.000730   0.000229  -0.000104   0.000063
    18  H    0.000016   0.000054  -0.000068  -0.000029   0.000003  -0.001567
    19  H    0.001153  -0.000025   0.000003   0.000063  -0.000014   0.000228
               7          8          9         10         11         12
     1  Fe   0.001157  -0.026996   0.000011  -0.026992   0.000010  -0.027001
     2  O    0.000070   0.000725  -0.000029  -0.002773   0.000493  -0.003014
     3  H    0.000014  -0.000029   0.000001   0.000054  -0.000068   0.000107
     4  O   -0.000025  -0.002775   0.000493  -0.003012   0.000107  -0.002774
     5  H   -0.000000   0.000070   0.000014   0.000228   0.000044   0.000063
     6  O   -0.001783  -0.003012   0.000036  -0.002778   0.000054  -0.003013
     7  H   -0.000038   0.000219   0.000005   0.000063   0.000010   0.000228
     8  O    0.000219   0.052921  -0.001562  -0.003013   0.000036  -0.002773
     9  H    0.000005  -0.001562   0.001383   0.000107  -0.000009   0.000054
    10  O    0.000063  -0.003013   0.000107   0.052915  -0.001562   0.000725
    11  H    0.000010   0.000036  -0.000009  -0.001562   0.001387  -0.000029
    12  O    0.000228  -0.002773   0.000054   0.000725  -0.000029   0.052924
    13  H    0.000044   0.000493  -0.000068  -0.000029   0.000001  -0.001563
    14  H   -0.000014   0.000229   0.000044  -0.001779   0.000728  -0.000025
    15  H    0.000003   0.000054  -0.000068   0.000036  -0.000009   0.000492
    16  H   -0.000104   0.000063   0.000010  -0.000025   0.000003  -0.001781
    17  H   -0.000015  -0.000025   0.000003   0.000070   0.000014   0.000220
    18  H    0.000732   0.000107  -0.000009   0.000492  -0.000068   0.000036
    19  H   -0.000103  -0.001780   0.000728   0.000219   0.000005   0.000070
              13         14         15         16         17         18
     1  Fe   0.000013   0.001155   0.000014   0.001155   0.001153   0.000016
     2  O    0.000036   0.000063   0.000108   0.000229  -0.001782   0.000054
     3  H   -0.000009   0.000010  -0.000009   0.000044   0.000730  -0.000068
     4  O    0.000054   0.000219  -0.001565   0.000070   0.000229  -0.000029
     5  H    0.000010  -0.000103   0.000732  -0.000014  -0.000104   0.000003
     6  O    0.000107   0.000070  -0.000029   0.000219   0.000063  -0.001567
     7  H    0.000044  -0.000014   0.000003  -0.000104  -0.000015   0.000732
     8  O    0.000493   0.000229   0.000054   0.000063  -0.000025   0.000107
     9  H   -0.000068   0.000044  -0.000068   0.000010   0.000003  -0.000009
    10  O   -0.000029  -0.001779   0.000036  -0.000025   0.000070   0.000492
    11  H    0.000001   0.000728  -0.000009   0.000003   0.000014  -0.000068
    12  O   -0.001563  -0.000025   0.000492  -0.001781   0.000220   0.000036
    13  H    0.001380   0.000003  -0.000068   0.000730   0.000005  -0.000009
    14  H    0.000003  -0.000036   0.000005  -0.000000  -0.000014   0.000014
    15  H   -0.000068   0.000005   0.001375   0.000014   0.000044   0.000001
    16  H    0.000730  -0.000000   0.000014  -0.000033  -0.000103   0.000005
    17  H    0.000005  -0.000014   0.000044  -0.000103  -0.000035   0.000010
    18  H   -0.000009   0.000014   0.000001   0.000005   0.000010   0.001378
    19  H    0.000014  -0.000103   0.000010  -0.000014  -0.000000   0.000044
              19
     1  Fe   0.001153
     2  O   -0.000025
     3  H    0.000003
     4  O    0.000063
     5  H   -0.000014
     6  O    0.000228
     7  H   -0.000103
     8  O   -0.001780
     9  H    0.000728
    10  O    0.000219
    11  H    0.000005
    12  O    0.000070
    13  H    0.000014
    14  H   -0.000103
    15  H    0.000010
    16  H   -0.000014
    17  H   -0.000000
    18  H    0.000044
    19  H   -0.000034
 Mulliken charges and spin densities:
               1          2
     1  Fe   1.187365   3.912644
     2  O   -0.707734   0.012959
     3  H    0.425991   0.001141
     4  O   -0.707745   0.012965
     5  H    0.417243   0.000461
     6  O   -0.707885   0.012960
     7  H    0.417248   0.000462
     8  O   -0.707799   0.012952
     9  H    0.425990   0.001144
    10  O   -0.707738   0.012945
    11  H    0.425961   0.001147
    12  O   -0.707835   0.012946
    13  H    0.425996   0.001142
    14  H    0.417233   0.000463
    15  H    0.425976   0.001138
    16  H    0.417233   0.000465
    17  H    0.417229   0.000462
    18  H    0.426013   0.001142
    19  H    0.417256   0.000462
 Sum of Mulliken charges =   2.00000   4.00000
 Mulliken charges and spin densities with hydrogens summed into heavy atoms:
               1          2
     1  Fe   1.187365   3.912644
     2  O    0.135486   0.014562
     4  O    0.135474   0.014564
     6  O    0.135376   0.014564
     8  O    0.135447   0.014558
    10  O    0.135457   0.014554
    12  O    0.135395   0.014553
 Electronic spatial extent (au):  <R**2>=           1032.1296
 Charge=              2.0000 electrons
 Dipole moment (field-independent basis, Debye):
    X=             -0.0010    Y=             -0.0011    Z=             -0.0018  Tot=              0.0023
 Quadrupole moment (field-independent basis, Debye-Ang):
   XX=            -23.7131   YY=            -15.7711   ZZ=            -15.7800
   XY=             -0.0007   XZ=              0.0118   YZ=              0.0050
 Traceless Quadrupole moment (field-independent basis, Debye-Ang):
   XX=             -5.2917   YY=              2.6503   ZZ=              2.6414
   XY=             -0.0007   XZ=              0.0118   YZ=              0.0050
 Octapole moment (field-independent basis, Debye-Ang**2):
  XXX=             -0.0098  YYY=              0.0121  ZZZ=              0.0059  XYY=              0.0030
  XXY=             -0.0085  XXZ=             -0.0326  XZZ=             -0.0080  YZZ=             -0.0119
  YYZ=             -0.0094  XYZ=             -0.0194
 Hexadecapole moment (field-independent basis, Debye-Ang**3):
 XXXX=           -289.0901 YYYY=           -162.9168 ZZZZ=           -162.9633 XXXY=             -0.0102
 XXXZ=              0.0921 YYYX=              9.7910 YYYZ=             -0.0028 ZZZX=             37.8196
 ZZZY=              0.0473 XXYY=            -60.6005 XXZZ=            -60.4867 YYZZ=            -54.2723
 XXYZ=              0.0196 YYXZ=            -37.7896 ZZXY=             -9.7958
 N-N= 6.957934702665D+02 E-N=-5.455795444253D+03  KE= 1.718551462879D+03
                          Isotropic Fermi Contact Couplings
        Atom                 a.u.       MegaHertz       Gauss      10(-4) cm-1
     1  Fe(57)             0.08082       2.93062       1.04572       0.97755
     2  O(17)              0.08548     -12.95421      -4.62238      -4.32106
     3  H(1)               0.00041       0.46277       0.16513       0.15437
     4  O(17)              0.08549     -12.95528      -4.62277      -4.32142
     5  H(1)              -0.00008      -0.09151      -0.03265      -0.03052
     6  O(17)              0.08554     -12.96384      -4.62582      -4.32427
     7  H(1)              -0.00008      -0.09078      -0.03239      -0.03028
     8  O(17)              0.08544     -12.94761      -4.62003      -4.31886
     9  H(1)               0.00042       0.46497       0.16591       0.15510
    10  O(17)              0.08545     -12.94937      -4.62066      -4.31944
    11  H(1)               0.00042       0.46689       0.16660       0.15574
    12  O(17)              0.08548     -12.95427      -4.62241      -4.32108
    13  H(1)               0.00041       0.46350       0.16539       0.15461
    14  H(1)              -0.00008      -0.08985      -0.03206      -0.02997
    15  H(1)               0.00041       0.46129       0.16460       0.15387
    16  H(1)              -0.00008      -0.08884      -0.03170      -0.02963
    17  H(1)              -0.00008      -0.09050      -0.03229      -0.03019
    18  H(1)               0.00041       0.46316       0.16527       0.15449
    19  H(1)              -0.00008      -0.08972      -0.03201      -0.02993
 --------------------------------------------------------
       Center         ----  Spin Dipole Couplings  ----
                      3XX-RR        3YY-RR        3ZZ-RR
 --------------------------------------------------------
     1   Atom       -2.669543      1.337709      1.331834
     2   Atom        0.023900      0.008588     -0.032489
     3   Atom        0.021745      0.008033     -0.029778
     4   Atom        0.024176     -0.079550      0.055374
     5   Atom       -0.018700     -0.028868      0.047568
     6   Atom        0.024257     -0.079505      0.055248
     7   Atom       -0.018667     -0.028837      0.047504
     8   Atom        0.024000      0.008528     -0.032528
     9   Atom        0.021716      0.008063     -0.029779
    10   Atom        0.024114      0.034932     -0.059045
    11   Atom        0.021677     -0.012724     -0.008953
    12   Atom        0.023997      0.034957     -0.058954
    13   Atom        0.021740     -0.012730     -0.009010
    14   Atom       -0.018720      0.043474     -0.024754
    15   Atom        0.021796     -0.027931      0.006134
    16   Atom       -0.018727      0.043441     -0.024714
    17   Atom       -0.018765      0.013523      0.005242
    18   Atom        0.021850     -0.027947      0.006097
    19   Atom       -0.018744      0.013451      0.005293
 --------------------------------------------------------
                        XY            XZ            YZ
 --------------------------------------------------------
     1   Atom        0.001148      0.001145     -0.004413
     2   Atom        0.100766     -0.102896     -0.066167
     3   Atom        0.049543     -0.008650     -0.008799
     4   Atom        0.038671      0.138742      0.015188
     5   Atom        0.005538      0.028886      0.017295
     6   Atom        0.038752      0.138697      0.015226
     7   Atom        0.005566      0.028914      0.017342
     8   Atom        0.100745     -0.102881     -0.066160
     9   Atom        0.049553     -0.008649     -0.008796
    10   Atom       -0.139445     -0.035937      0.050924
    11   Atom       -0.032240     -0.038623      0.020796
    12   Atom       -0.139429     -0.035939      0.050902
    13   Atom       -0.032240     -0.038598      0.020769
    14   Atom       -0.027766     -0.009632      0.024424
    15   Atom       -0.017321      0.047224     -0.011992
    16   Atom       -0.027739     -0.009639      0.024468
    17   Atom        0.022200     -0.019195     -0.041788
    18   Atom       -0.017275      0.047207     -0.011941
    19   Atom        0.022204     -0.019224     -0.041778
 --------------------------------------------------------


 ---------------------------------------------------------------------------------
              Anisotropic Spin Dipole Couplings in Principal Axis System
 ---------------------------------------------------------------------------------

       Atom             a.u.   MegaHertz   Gauss  10(-4) cm-1        Axes

              Baa    -2.6695   -46.217   -16.492   -15.416  1.0000 -0.0003 -0.0003
     1 Fe(57) Bbb     1.3295    23.017     8.213     7.678  0.0004  0.4722  0.8815
              Bcc     1.3401    23.200     8.279     7.739  0.0001  0.8815 -0.4722
 
              Baa    -0.1123     8.128     2.900     2.711  0.6663 -0.1562  0.7292
     2 O(17)  Bbb    -0.0723     5.232     1.867     1.745 -0.3354  0.8105  0.4802
              Bcc     0.1846   -13.360    -4.767    -4.457  0.6660  0.5645 -0.4876
 
              Baa    -0.0353   -18.861    -6.730    -6.291 -0.6182  0.7522  0.2282
     3 H(1)   Bbb    -0.0311   -16.608    -5.926    -5.540  0.2442 -0.0921  0.9653
              Bcc     0.0665    35.469    12.656    11.831  0.7471  0.6525 -0.1268
 
              Baa    -0.1123     8.127     2.900     2.711  0.6656 -0.5535 -0.5006
     4 O(17)  Bbb    -0.0723     5.232     1.867     1.745  0.3353  0.8211 -0.4620
              Bcc     0.1846   -13.359    -4.767    -4.456  0.6667  0.1397  0.7321
 
              Baa    -0.0327   -17.459    -6.230    -5.824  0.1784  0.9467 -0.2681
     5 H(1)   Bbb    -0.0293   -15.628    -5.576    -5.213  0.9225 -0.2557 -0.2892
              Bcc     0.0620    33.087    11.806    11.037  0.3423  0.1957  0.9190
 
              Baa    -0.1123     8.127     2.900     2.711  0.6654 -0.5538 -0.5005
     6 O(17)  Bbb    -0.0723     5.229     1.866     1.744  0.3352  0.8208 -0.4626
              Bcc     0.1846   -13.356    -4.766    -4.455  0.6670  0.1401  0.7318
 
              Baa    -0.0327   -17.455    -6.228    -5.822  0.1787  0.9464 -0.2690
     7 H(1)   Bbb    -0.0293   -15.626    -5.576    -5.212  0.9222 -0.2564 -0.2893
              Bcc     0.0620    33.081    11.804    11.035  0.3428  0.1964  0.9186
 
              Baa    -0.1123     8.126     2.899     2.710  0.6658 -0.1556  0.7297
     8 O(17)  Bbb    -0.0723     5.234     1.868     1.746 -0.3359  0.8108  0.4794
              Bcc     0.1846   -13.359    -4.767    -4.456  0.6662  0.5643 -0.4876
 
              Baa    -0.0354   -18.862    -6.731    -6.292 -0.6187  0.7521  0.2270
     9 H(1)   Bbb    -0.0311   -16.609    -5.927    -5.540  0.2435 -0.0911  0.9656
              Bcc     0.0665    35.472    12.657    11.832  0.7470  0.6527 -0.1268
 
              Baa    -0.1123     8.123     2.898     2.709  0.6655  0.7101 -0.2301
    10 O(17)  Bbb    -0.0724     5.240     1.870     1.748  0.3363 -0.0099  0.9417
              Bcc     0.1847   -13.362    -4.768    -4.457 -0.6664  0.7041  0.2454
 
              Baa    -0.0354   -18.863    -6.731    -6.292  0.6193  0.1801  0.7642
    11 H(1)   Bbb    -0.0311   -16.610    -5.927    -5.540  0.2426  0.8818 -0.4044
              Bcc     0.0665    35.473    12.658    11.833  0.7467 -0.4359 -0.5025
 
              Baa    -0.1123     8.123     2.899     2.710  0.6661  0.7099 -0.2288
    12 O(17)  Bbb    -0.0723     5.235     1.868     1.746  0.3354 -0.0111  0.9420
              Bcc     0.1846   -13.358    -4.767    -4.456 -0.6662  0.7042  0.2455
 
              Baa    -0.0353   -18.860    -6.730    -6.291  0.6183  0.1785  0.7654
    13 H(1)   Bbb    -0.0311   -16.607    -5.926    -5.540  0.2439  0.8822 -0.4028
              Bcc     0.0665    35.467    12.656    11.831  0.7471 -0.4357 -0.5019
 
              Baa    -0.0327   -17.458    -6.230    -5.824  0.1797 -0.2403  0.9539
    14 H(1)   Bbb    -0.0293   -15.627    -5.576    -5.213  0.9224  0.3783 -0.0785
              Bcc     0.0620    33.086    11.806    11.036 -0.3420  0.8940  0.2896
 
              Baa    -0.0354   -18.865    -6.732    -6.293  0.6182  0.5732 -0.5379
    15 H(1)   Bbb    -0.0311   -16.612    -5.928    -5.541 -0.2432  0.7902  0.5625
              Bcc     0.0665    35.477    12.659    11.834  0.7475 -0.2169  0.6279
 
              Baa    -0.0327   -17.454    -6.228    -5.822  0.1786 -0.2414  0.9538
    16 H(1)   Bbb    -0.0293   -15.623    -5.575    -5.211  0.9226  0.3779 -0.0772
              Bcc     0.0620    33.077    11.803    11.033 -0.3418  0.8938  0.2902
 
              Baa    -0.0327   -17.465    -6.232    -5.826 -0.1781  0.7053  0.6861
    17 H(1)   Bbb    -0.0293   -15.632    -5.578    -5.214  0.9229 -0.1222  0.3651
              Bcc     0.0620    33.096    11.810    11.040  0.3413  0.6983 -0.6292
 
              Baa    -0.0353   -18.856    -6.728    -6.290  0.6175  0.5736 -0.5382
    18 H(1)   Bbb    -0.0311   -16.605    -5.925    -5.539 -0.2436  0.7901  0.5625
              Bcc     0.0665    35.461    12.653    11.828  0.7479 -0.2162  0.6276
 
              Baa    -0.0327   -17.462    -6.231    -5.825 -0.1790  0.7060  0.6852
    19 H(1)   Bbb    -0.0293   -15.630    -5.577    -5.214  0.9226 -0.1215  0.3661
              Bcc     0.0620    33.092    11.808    11.038  0.3417  0.6977 -0.6296
 

 ---------------------------------------------------------------------------------

 No NMR shielding tensors so no spin-rotation constants.
 Leave Link  601 at Sun May 15 10:07:21 2022, MaxMem=   104857600 cpu:               3.4 elap:               0.2
 (Enter /apps/software/g16/l9999.exe)
 1\1\GINC-CNODE15\SP\UHF\def2TZVP\Fe1H12O6(2+,5)\LCZ\15-May-2022\0\\#p 
 UHF/def2TZVP guess=mix\\[Fe(H2O)6]2+\\2,5\Fe,0,-0.6425717605,0.5180392
 056,0.1151525948\O,0,0.111746875,2.1502736296,-0.7800330766\H,0,0.7076
 677542,2.7159064382,-0.2534686021\O,0,-1.3119384494,-0.3025443721,-1.5
 915397432\H,0,-1.9364836681,0.1309313599,-2.2009076077\O,0,0.027209188
 ,1.3394057211,1.8212267689\H,0,0.6525876562,0.9068687008,2.4304031155\
 O,0,-1.3964805353,-1.1144480791,1.0102391629\H,0,-1.9933139268,-1.6794
 048423,0.4839749089\O,0,-2.2868202362,1.6334082837,0.4100537249\H,0,-2
 .353770211,2.4729106521,-0.0830180882\O,0,1.0019437293,-0.5971233562,-
 0.1795016516\H,0,1.0680776668,-1.4375884294,0.3120254585\H,0,-3.189220
 9847,1.2728024717,0.4803641716\H,0,-0.6652199156,-0.783520063,-2.14179
 46811\H,0,1.9045464642,-0.2367828976,-0.2484504359\H,0,0.437766506,2.1
 71136038,-1.697943468\H,0,-0.6187560453,1.8212395471,2.3715986615\H,0,
 -1.7212601067,-1.1359500081,1.9285687869\\Version=ES64L-G16RevA.03\Sta
 te=5-A\HF=-1718.4171736\S2=6.007647\S2-1=0.\S2A=6.000015\RMSD=2.761e-0
 9\Dipole=0.0006299,0.0002812,0.0006041\Quadrupole=1.9512731,-3.4016654
 ,1.4503923,0.3338559,0.1036849,-1.6569255\PG=C01 [X(Fe1H12O6)]\\@


 THE HURRIEDER I GO, THE BEHINDER I GET.
 Job cpu time:       0 days  0 hours 37 minutes 56.5 seconds.
 Elapsed time:       0 days  0 hours  2 minutes 22.8 seconds.
 File lengths (MBytes):  RWF=     90 Int=      0 D2E=      0 Chk=      8 Scr=      1
 Normal termination of Gaussian 16 at Sun May 15 10:07:21 2022.

Sender: Unischeduler System <lcz@mgt01>
Subject: Job 132198: <#!/bin/bash
#BSUB -J intel
#BSUB -o energy-UHF-Mul5.out
#BSUB -n 16
#BSUB -q cqueue
#BSUB -R span[hosts=1]
export g16root=/apps/software
source /apps/software/g16/bsd/g16.profile
export GAUSS_SCRDIR=/scratch
/apps/software/g16/g16 < energy-UHF-Mul5.inp > energy-UHF-Mul5.out> Done

Job <#!/bin/bash
#BSUB -J intel
#BSUB -o energy-UHF-Mul5.out
#BSUB -n 16
#BSUB -q cqueue
#BSUB -R span[hosts=1]
export g16root=/apps/software
source /apps/software/g16/bsd/g16.profile
export GAUSS_SCRDIR=/scratch
/apps/software/g16/g16 < energy-UHF-Mul5.inp > energy-UHF-Mul5.out> was submitted from host <mgt01> by user <lcz>.
Job was executed on host(s) <16*cnode15>, in queue <cqueue>, as user <lcz>.
</apps/users/lcz> was used as the home directory.
</apps/users/lcz/exe5/task2/Multest/Gaussian> was used as the working directory.
Started at 2022-05-15 10:04:58
Results reported at 2022-05-15 10:07:21

Your job looked like:

------------------------------------------------------------
# User input
#!/bin/bash
#BSUB -J intel
#BSUB -o energy-UHF-Mul5.out
#BSUB -n 16
#BSUB -q cqueue
#BSUB -R span[hosts=1]
export g16root=/apps/software
source /apps/software/g16/bsd/g16.profile
export GAUSS_SCRDIR=/scratch
/apps/software/g16/g16 < energy-UHF-Mul5.inp > energy-UHF-Mul5.out
------------------------------------------------------------

Successfully completed.

Resource usage summary:

    CPU time   :         2229.45 sec.
    Max Memory :               521 MB
    Max Processes  :               5


The output (if any) follows:

