
                                        *****************
                                        * O   R   C   A *
                                        *****************

                                            #,                                       
                                            ###                                      
                                            ####                                     
                                            #####                                    
                                            ######                                   
                                           ########,                                 
                                     ,,################,,,,,                         
                               ,,#################################,,                 
                          ,,##########################################,,             
                       ,#########################################, ''#####,          
                    ,#############################################,,   '####,        
                  ,##################################################,,,,####,       
                ,###########''''           ''''###############################       
              ,#####''   ,,,,##########,,,,          '''####'''          '####       
            ,##' ,,,,###########################,,,                        '##       
           ' ,,###''''                  '''############,,,                           
         ,,##''                                '''############,,,,        ,,,,,,###''
      ,#''                                            '''#######################'''  
     '                                                          ''''####''''         
             ,#######,   #######,   ,#######,      ##                                
            ,#'     '#,  ##    ##  ,#'     '#,    #''#        ######   ,####,        
            ##       ##  ##   ,#'  ##            #'  '#       #        #'  '#        
            ##       ##  #######   ##           ,######,      #####,   #    #        
            '#,     ,#'  ##    ##  '#,     ,#' ,#      #,         ##   #,  ,#        
             '#######'   ##     ##  '#######'  #'      '#     #####' # '####'        



                  #######################################################
                  #                        -***-                        #
                  #          Department of theory and spectroscopy      #
                  #    Directorship and core code : Frank Neese         #
                  #        Max Planck Institute fuer Kohlenforschung    #
                  #                Kaiser Wilhelm Platz 1               #
                  #                 D-45470 Muelheim/Ruhr               #
                  #                      Germany                        #
                  #                                                     #
                  #                  All rights reserved                #
                  #                        -***-                        #
                  #######################################################


                         Program Version 5.0.0 -  RELEASE  -
                                (SVN: $Rev: 19529$)
                ($Date: 2021-06-28 11:36:33 +0200 (Mo, 28 Jun 2021) $)


 With contributions from (in alphabetic order):
   Daniel Aravena         : Magnetic Suceptibility
   Michael Atanasov       : Ab Initio Ligand Field Theory (pilot matlab implementation)
   Alexander A. Auer      : GIAO ZORA, VPT2 properties, NMR spectrum
   Ute Becker             : Parallelization
   Giovanni Bistoni       : ED, misc. LED, open-shell LED, HFLD
   Martin Brehm           : Molecular dynamics
   Dmytro Bykov           : SCF Hessian
   Vijay G. Chilkuri      : MRCI spin determinant printing, contributions to CSF-ICE
   Dipayan Datta          : RHF DLPNO-CCSD density
   Achintya Kumar Dutta   : EOM-CC, STEOM-CC
   Dmitry Ganyushin       : Spin-Orbit,Spin-Spin,Magnetic field MRCI
   Miquel Garcia          : C-PCM Hessian, Gaussian charge scheme
   Yang Guo               : DLPNO-NEVPT2, F12-NEVPT2, CIM, IAO-localization
   Andreas Hansen         : Spin unrestricted coupled pair/coupled cluster methods
   Benjamin Helmich-Paris : MC-RPA, TRAH-SCF, COSX integrals
   Lee Huntington         : MR-EOM, pCC
   Robert Izsak           : Overlap fitted RIJCOSX, COSX-SCS-MP3, EOM
   Marcus Kettner         : VPT2
   Christian Kollmar      : KDIIS, OOCD, Brueckner-CCSD(T), CCSD density, CASPT2, CASPT2-K
   Simone Kossmann        : Meta GGA functionals, TD-DFT gradient, OOMP2, MP2 Hessian
   Martin Krupicka        : Initial AUTO-CI
   Lucas Lang             : DCDCAS
   Marvin Lechner         : AUTO-CI (C++ implementation), FIC-MRCC
   Dagmar Lenk            : GEPOL surface, SMD
   Dimitrios Liakos       : Extrapolation schemes; Compound Job, initial MDCI parallelization
   Dimitrios Manganas     : Further ROCIS development; embedding schemes
   Dimitrios Pantazis     : SARC Basis sets
   Anastasios Papadopoulos: AUTO-CI, single reference methods and gradients
   Taras Petrenko         : DFT Hessian,TD-DFT gradient, ASA, ECA, R-Raman, ABS, FL, XAS/XES, NRVS
   Peter Pinski           : DLPNO-MP2, DLPNO-MP2 Gradient
   Christoph Reimann      : Effective Core Potentials
   Marius Retegan         : Local ZFS, SOC
   Christoph Riplinger    : Optimizer, TS searches, QM/MM, DLPNO-CCSD(T), (RO)-DLPNO pert. Triples
   Tobias Risthaus        : Range-separated hybrids, TD-DFT gradient, RPA, STAB
   Michael Roemelt        : Original ROCIS implementation
   Masaaki Saitow         : Open-shell DLPNO-CCSD energy and density
   Barbara Sandhoefer     : DKH picture change effects
   Avijit Sen             : IP-ROCIS
   Kantharuban Sivalingam : CASSCF convergence, NEVPT2, FIC-MRCI
   Bernardo de Souza      : ESD, SOC TD-DFT
   Georgi Stoychev        : AutoAux, RI-MP2 NMR
   Willem Van den Heuvel  : Paramagnetic NMR
   Boris Wezisla          : Elementary symmetry handling
   Frank Wennmohs         : Technical directorship


 We gratefully acknowledge several colleagues who have allowed us to
 interface, adapt or use parts of their codes:
   Stefan Grimme, W. Hujo, H. Kruse, P. Pracht,  : VdW corrections, initial TS optimization,
                  C. Bannwarth, S. Ehlert          DFT functionals, gCP, sTDA/sTD-DF
   Ed Valeev, F. Pavosevic, A. Kumar             : LibInt (2-el integral package), F12 methods
   Garnet Chan, S. Sharma, J. Yang, R. Olivares  : DMRG
   Ulf Ekstrom                                   : XCFun DFT Library
   Mihaly Kallay                                 : mrcc  (arbitrary order and MRCC methods)
   Jiri Pittner, Ondrej Demel                    : Mk-CCSD
   Frank Weinhold                                : gennbo (NPA and NBO analysis)
   Christopher J. Cramer and Donald G. Truhlar   : smd solvation model
   Lars Goerigk                                  : TD-DFT with DH, B97 family of functionals
   V. Asgeirsson, H. Jonsson                     : NEB implementation
   FAccTs GmbH                                   : IRC, NEB, NEB-TS, DLPNO-Multilevel, CI-OPT
                                                   MM, QMMM, 2- and 3-layer-ONIOM, Crystal-QMMM,
                                                   LR-CPCM, SF, NACMEs, symmetry and pop. for TD-DFT,
                                                   nearIR, NL-DFT gradient (VV10), updates on ESD,
                                                   ML-optimized integration grids
   S Lehtola, MJT Oliveira, MAL Marques          : LibXC Library
   Liviu Ungur et al                             : ANISO software


 Your calculation uses the libint2 library for the computation of 2-el integrals
 For citations please refer to: http://libint.valeyev.net

 Your ORCA version has been built with support for libXC version: 5.1.0
 For citations please refer to: https://tddft.org/programs/libxc/

 This ORCA versions uses:
   CBLAS   interface :  Fast vector & matrix operations
   LAPACKE interface :  Fast linear algebra routines
   SCALAPACK package :  Parallel linear algebra routines
   Shared memory     :  Shared parallel matrices
   BLAS/LAPACK       :  OpenBLAS 0.3.15  USE64BITINT DYNAMIC_ARCH NO_AFFINITY SkylakeX SINGLE_THREADED
        Core in use  :  SkylakeX
   Copyright (c) 2011-2014, The OpenBLAS Project


Your calculation utilizes the atom-pairwise dispersion correction
with the Becke-Johnson damping scheme (D3BJ)
Cite in your paper:
S.Grimme, S.Ehrlich, L.Goerigk, J Comput Chem, (2011), 32, 1456–1465 
S.Grimme, J.Antony, S.Ehrlich and H.Krieg, J.Chem.Phys., 132, (2010), 154104 
   

================================================================================

----- Orbital basis set information -----
Your calculation utilizes the basis: cc-pVDZ 
       H, B-Ne : Obtained from the ccRepo (grant-hill.group.shef.ac.uk/ccrepo) Feb. 2017
                 T. H. Dunning, Jr., J. Chem. Phys. 90, 1007 (1989)
            He : Obtained from the ccRepo (grant-hill.group.shef.ac.uk/ccrepo) Feb. 2017
                 D. E. Woon, T. H. Dunning, Jr., J. Chem. Phys. 100, 2975 (1994)
  Li-Be, Na-Mg : Obtained from the ccRepo (grant-hill.group.shef.ac.uk/ccrepo) Feb. 2017
                 B. P. Prascher, D. E. Woon, K. A. Peterson, T. H. Dunning, Jr., A. K. Wilson, Theor. Chem. Acc. 128, 69 (2011)
         Al-Ar : Obtained from the ccRepo (grant-hill.group.shef.ac.uk/ccrepo) Feb. 2017
                 D. E. Woon, T. H. Dunning, Jr., J. Chem. Phys. 98, 1358 (1993)
            Ca : Obtained from the Peterson Research Group Website (tyr0.chem.wsu.edu/~kipeters) Feb. 2017
                 J. Koput, K. A. Peterson, J. Phys. Chem. 106, 9595 (2002)
         Sc-Zn : Obtained from the ccRepo (grant-hill.group.shef.ac.uk/ccrepo) Feb. 2017
                 N. B. Balabanov, K. A. Peterson, J. Chem. Phys. 123, 064107 (2005)
                 N. B. Balabanov, K. A. Peterson, J. Chem. Phys. 125, 074110 (2006)
         Ga-Kr : Obtained from the ccRepo (grant-hill.group.shef.ac.uk/ccrepo) Feb. 2017
                 A. K. Wilson, D. E. Woon, K. A. Peterson, T. H. Dunning, Jr., J. Chem. Phys. 110, 7667 (1999)

----- AuxJ basis set information -----
Your calculation utilizes the auxiliary basis: def2/J
   F. Weigend, Phys. Chem. Chem. Phys. 8, 1057 (2006).

================================================================================
                                        WARNINGS
                       Please study these warnings very carefully!
================================================================================


WARNING: Geometry Optimization
  ===> : Switching off AutoStart
         For restart on a previous wavefunction, please use MOREAD

INFO   : the flag for use of the SHARK integral package has been found!

================================================================================
                                       INPUT FILE
================================================================================
NAME = trans-1,3-bivinyl-opt.inp
|  1> ! RKS B3LYP cc-pvdz D3 pal8 Opt Freq NoUseSym
|  2> 
|  3> *xyz 0 1
|  4>  C                 -6.65646033   -1.61889996    0.00000000
|  5>  H                 -6.12272786   -2.54627780    0.00000000
|  6>  H                 -7.72645933   -1.61743693   -0.00000000
|  7>  C                 -5.97725622   -0.44618993    0.00000000
|  8>  H                 -6.51098869    0.48118790    0.00000000
|  9>  C                 -4.43725766   -0.44829561   -0.00000000
| 10>  H                 -3.90352519   -1.37567345    0.00000000
| 11>  C                 -3.75805355    0.72441442    0.00000000
| 12>  H                 -4.29178602    1.65179225   -0.00000000
| 13>  H                 -2.68805455    0.72295138    0.00000000
| 14> *
| 15> 
| 16> 
| 17>                          ****END OF INPUT****
================================================================================

                       *****************************
                       * Geometry Optimization Run *
                       *****************************

Geometry optimization settings:
Update method            Update   .... BFGS
Choice of coordinates    CoordSys .... Z-matrix Internals
Initial Hessian          InHess   .... Almoef's Model

Convergence Tolerances:
Energy Change            TolE     ....  5.0000e-06 Eh
Max. Gradient            TolMAXG  ....  3.0000e-04 Eh/bohr
RMS Gradient             TolRMSG  ....  1.0000e-04 Eh/bohr
Max. Displacement        TolMAXD  ....  4.0000e-03 bohr
RMS Displacement         TolRMSD  ....  2.0000e-03 bohr
Strict Convergence                ....  False
------------------------------------------------------------------------------
                        ORCA OPTIMIZATION COORDINATE SETUP
------------------------------------------------------------------------------

The optimization will be done in new redundant internal coordinates
Making redundant internal coordinates   ...  (new redundants) done
Evaluating the initial hessian          ...  (Almloef) done
Evaluating the coordinates              ...  done
Calculating the B-matrix                .... done
Calculating the G-matrix                .... done
Diagonalizing the G-matrix              .... done
The first mode is                       ....    9
The number of degrees of freedom        ....   24

    -----------------------------------------------------------------
                    Redundant Internal Coordinates


    -----------------------------------------------------------------
         Definition                    Initial Value    Approx d2E/dq
    -----------------------------------------------------------------
      1. B(H   1,C   0)                  1.0700         0.387554   
      2. B(H   2,C   0)                  1.0700         0.387554   
      3. B(C   3,C   0)                  1.3552         0.710002   
      4. B(H   4,C   3)                  1.0700         0.387554   
      5. B(C   5,C   3)                  1.5400         0.360100   
      6. B(H   6,C   5)                  1.0700         0.387554   
      7. B(C   7,C   5)                  1.3552         0.710002   
      8. B(H   8,C   7)                  1.0700         0.387554   
      9. B(H   9,C   7)                  1.0700         0.387554   
     10. A(H   1,C   0,H   2)          120.0000         0.297665   
     11. A(H   1,C   0,C   3)          120.0000         0.365694   
     12. A(H   2,C   0,C   3)          120.0000         0.365694   
     13. A(H   4,C   3,C   5)          120.0000         0.326284   
     14. A(C   0,C   3,C   5)          120.0000         0.403643   
     15. A(C   0,C   3,H   4)          120.0000         0.365694   
     16. A(C   3,C   5,H   6)          120.0000         0.326284   
     17. A(H   6,C   5,C   7)          120.0000         0.365694   
     18. A(C   3,C   5,C   7)          120.0000         0.403643   
     19. A(H   8,C   7,H   9)          120.0000         0.297665   
     20. A(C   5,C   7,H   9)          120.0000         0.365694   
     21. A(C   5,C   7,H   8)          120.0000         0.365694   
     22. D(H   4,C   3,C   0,H   2)      0.0000         0.035590   
     23. D(C   5,C   3,C   0,H   1)      0.0000         0.035590   
     24. D(H   4,C   3,C   0,H   1)    180.0000         0.035590   
     25. D(C   5,C   3,C   0,H   2)    180.0000         0.035590   
     26. D(H   6,C   5,C   3,H   4)    180.0000         0.009056   
     27. D(C   7,C   5,C   3,C   0)    180.0000         0.009056   
     28. D(H   6,C   5,C   3,C   0)      0.0000         0.009056   
     29. D(C   7,C   5,C   3,H   4)      0.0000         0.009056   
     30. D(H   9,C   7,C   5,H   6)      0.0000         0.035590   
     31. D(H   9,C   7,C   5,C   3)    180.0000         0.035590   
     32. D(H   8,C   7,C   5,H   6)    180.0000         0.035590   
     33. D(H   8,C   7,C   5,C   3)      0.0000         0.035590   
    -----------------------------------------------------------------

Number of atoms                         .... 10
Number of degrees of freedom            .... 33

         *************************************************************
         *                GEOMETRY OPTIMIZATION CYCLE   1            *
         *************************************************************
---------------------------------
CARTESIAN COORDINATES (ANGSTROEM)
---------------------------------
  C     -6.656460   -1.618900    0.000000
  H     -6.122728   -2.546278    0.000000
  H     -7.726459   -1.617437   -0.000000
  C     -5.977256   -0.446190    0.000000
  H     -6.510989    0.481188    0.000000
  C     -4.437258   -0.448296   -0.000000
  H     -3.903525   -1.375673    0.000000
  C     -3.758054    0.724414    0.000000
  H     -4.291786    1.651792   -0.000000
  H     -2.688055    0.722951    0.000000

----------------------------
CARTESIAN COORDINATES (A.U.)
----------------------------
  NO LB      ZA    FRAG     MASS         X           Y           Z
   0 C     6.0000    0    12.011  -12.578887   -3.059278    0.000000
   1 H     1.0000    0     1.008  -11.570279   -4.811768    0.000000
   2 H     1.0000    0     1.008  -14.600892   -3.056513   -0.000000
   3 C     6.0000    0    12.011  -11.295377   -0.843177    0.000000
   4 H     1.0000    0     1.008  -12.303985    0.909313    0.000000
   5 C     6.0000    0    12.011   -8.385202   -0.847156   -0.000000
   6 H     1.0000    0     1.008   -7.376594   -2.599646    0.000000
   7 C     6.0000    0    12.011   -7.101692    1.368945    0.000000
   8 H     1.0000    0     1.008   -8.110300    3.121435   -0.000000
   9 H     1.0000    0     1.008   -5.079687    1.366180    0.000000

--------------------------------
INTERNAL COORDINATES (ANGSTROEM)
--------------------------------
 C      0   0   0     0.000000000000     0.00000000     0.00000000
 H      1   0   0     1.070000003577     0.00000000     0.00000000
 H      1   2   0     1.070000000214   119.99999935     0.00000000
 C      1   2   3     1.355199999079   120.00000025   180.00000000
 H      4   1   2     1.069999994910   119.99999998   180.00000000
 C      4   1   2     1.539999999575   120.00000001     0.00000000
 H      6   4   1     1.070000003577   119.99999975     0.00000000
 C      6   4   1     1.355199999079   120.00000001   180.00000121
 H      8   6   4     1.069999994910   119.99999998     0.00000000
 H      8   6   4     1.070000000228   119.99999987   180.00000000

---------------------------
INTERNAL COORDINATES (A.U.)
---------------------------
 C      0   0   0     0.000000000000     0.00000000     0.00000000
 H      1   0   0     2.022006970056     0.00000000     0.00000000
 H      1   2   0     2.022006963700   119.99999935     0.00000000
 C      1   2   3     2.560956854949   120.00000025   180.00000000
 H      4   1   2     2.022006953677   119.99999998   180.00000000
 C      4   1   2     2.910178245435   120.00000001     0.00000000
 H      6   4   1     2.022006970056   119.99999975     0.00000000
 C      6   4   1     2.560956854949   120.00000001   180.00000121
 H      8   6   4     2.022006953677   119.99999998     0.00000000
 H      8   6   4     2.022006963726   119.99999987   180.00000000

---------------------
BASIS SET INFORMATION
---------------------
There are 2 groups of distinct atoms

 Group   1 Type C   : 17s4p1d contracted to 3s2p1d pattern {881/31/1}
 Group   2 Type H   : 4s1p contracted to 2s1p pattern {31/1}

Atom   0C    basis set group =>   1
Atom   1H    basis set group =>   2
Atom   2H    basis set group =>   2
Atom   3C    basis set group =>   1
Atom   4H    basis set group =>   2
Atom   5C    basis set group =>   1
Atom   6H    basis set group =>   2
Atom   7C    basis set group =>   1
Atom   8H    basis set group =>   2
Atom   9H    basis set group =>   2
---------------------------------
AUXILIARY/J BASIS SET INFORMATION
---------------------------------
There are 2 groups of distinct atoms

 Group   1 Type C   : 12s5p4d2f1g contracted to 6s4p3d1f1g pattern {711111/2111/211/2/1}
 Group   2 Type H   : 5s2p1d contracted to 3s1p1d pattern {311/2/1}

Atom   0C    basis set group =>   1
Atom   1H    basis set group =>   2
Atom   2H    basis set group =>   2
Atom   3C    basis set group =>   1
Atom   4H    basis set group =>   2
Atom   5C    basis set group =>   1
Atom   6H    basis set group =>   2
Atom   7C    basis set group =>   1
Atom   8H    basis set group =>   2
Atom   9H    basis set group =>   2
--------------------------------------------------------------------------
WARNING: There was an error initializing an OpenFabrics device.

  Local host:   cnode16
  Local device: mlx5_0
--------------------------------------------------------------------------


           ************************************************************
           *        Program running with 8 parallel MPI-processes     *
           *              working on a common directory               *
           ************************************************************
------------------------------------------------------------------------------
                           ORCA GTO INTEGRAL CALCULATION
                           -- RI-GTO INTEGRALS CHOSEN --
------------------------------------------------------------------------------
------------------------------------------------------------------------------
                   ___                                                        
                  /   \      - P O W E R E D   B Y -                         
                 /     \                                                     
                 |  |  |   _    _      __       _____    __    __             
                 |  |  |  | |  | |    /  \     |  _  \  |  |  /  |          
                  \  \/   | |  | |   /    \    | | | |  |  | /  /          
                 / \  \   | |__| |  /  /\  \   | |_| |  |  |/  /          
                |  |  |   |  __  | /  /__\  \  |    /   |      \           
                |  |  |   | |  | | |   __   |  |    \   |  |\   \          
                \     /   | |  | | |  |  |  |  | |\  \  |  | \   \       
                 \___/    |_|  |_| |__|  |__|  |_| \__\ |__|  \__/        
                                                                              
                      - O R C A' S   B I G   F R I E N D -                    
                                      &                                       
                       - I N T E G R A L  F E E D E R -                       
                                                                              
 v1 FN, 2020, v2 2021                                                         
------------------------------------------------------------------------------


Reading SHARK input file trans-1,3-bivinyl-opt.SHARKINP.tmp ... ok
----------------------
SHARK INTEGRAL PACKAGE
----------------------

Number of atoms                             ...     10
Number of basis functions                   ...     86
Number of shells                            ...     42
Maximum angular momentum                    ...      2
Integral batch strategy                     ... SHARK/LIBINT Hybrid
RI-J (if used) integral strategy            ... SPLIT-RIJ (Revised 2003 algorithm where possible)
Printlevel                                  ...      1
Contraction scheme used                     ... SEGMENTED contraction
Coulomb Range Separation                    ... NOT USED
Exchange Range Separation                   ... NOT USED
Finite Nucleus Model                        ... NOT USED
Auxiliary Coulomb fitting basis             ... AVAILABLE
   # of basis functions in Aux-J            ...    262
   # of shells in Aux-J                     ...     90
   Maximum angular momentum in Aux-J        ...      4
Auxiliary J/K fitting basis                 ... NOT available
Auxiliary Correlation fitting basis         ... NOT available
Auxiliary 'external' fitting basis          ... NOT available
Integral threshold                          ...     2.500000e-11
Primitive cut-off                           ...     2.500000e-12
Primitive pair pre-selection threshold      ...     2.500000e-12

Calculating pre-screening integrals         ... done (  0.0 sec) Dimension = 42
Organizing shell pair data                  ... done (  0.0 sec)
Shell pair information
Total number of shell pairs                 ...       903
Shell pairs after pre-screening             ...       900
Total number of primitive shell pairs       ...      7275
Primitive shell pairs kept                  ...      5185
          la=0 lb=0:    300 shell pairs
          la=1 lb=0:    334 shell pairs
          la=1 lb=1:    104 shell pairs
          la=2 lb=0:     96 shell pairs
          la=2 lb=1:     56 shell pairs
          la=2 lb=2:     10 shell pairs

Calculating one electron integrals          ... done (  0.0 sec)
Calculating RI/J V-Matrix + Cholesky decomp.... done (  0.0 sec)
Calculating Nuclear repulsion               ... done (  0.0 sec) ENN=    102.509110455627 Eh

SHARK setup successfully completed in   0.1 seconds

Maximum memory used throughout the entire GTOINT-calculation: 13.1 MB
[cnode16:208391] 7 more processes have sent help message help-mpi-btl-openib.txt / error in device init
[cnode16:208391] Set MCA parameter "orte_base_help_aggregate" to 0 to see all help / error messages
--------------------------------------------------------------------------
WARNING: There was an error initializing an OpenFabrics device.

  Local host:   cnode16
  Local device: mlx5_0
--------------------------------------------------------------------------


           ************************************************************
           *        Program running with 8 parallel MPI-processes     *
           *              working on a common directory               *
           ************************************************************
-------------------------------------------------------------------------------
                                 ORCA SCF
-------------------------------------------------------------------------------

------------
SCF SETTINGS
------------
Hamiltonian:
 Density Functional     Method          .... DFT(GTOs)
 Exchange Functional    Exchange        .... B88
   X-Alpha parameter    XAlpha          ....  0.666667
   Becke's b parameter  XBeta           ....  0.004200
 Correlation Functional Correlation     .... LYP
 LDA part of GGA corr.  LDAOpt          .... VWN-5
 Gradients option       PostSCFGGA      .... off
 Hybrid DFT is turned on
   Fraction HF Exchange ScalHFX         ....  0.200000
   Scaling of DF-GGA-X  ScalDFX         ....  0.720000
   Scaling of DF-GGA-C  ScalDFC         ....  0.810000
   Scaling of DF-LDA-C  ScalLDAC        ....  1.000000
   Perturbative correction              ....  0.000000
   Density functional embedding theory  .... OFF
   NL short-range parameter             ....  4.800000
 RI-approximation to the Coulomb term is turned on
   Number of AuxJ basis functions       .... 262
   RIJ-COSX (HFX calculated with COS-X)).... on


General Settings:
 Integral files         IntName         .... trans-1,3-bivinyl-opt
 Hartree-Fock type      HFTyp           .... RHF
 Total Charge           Charge          ....    0
 Multiplicity           Mult            ....    1
 Number of Electrons    NEL             ....   30
 Basis Dimension        Dim             ....   86
 Nuclear Repulsion      ENuc            ....    102.5091104556 Eh

Convergence Acceleration:
 DIIS                   CNVDIIS         .... on
   Start iteration      DIISMaxIt       ....    12
   Startup error        DIISStart       ....  0.200000
   # of expansion vecs  DIISMaxEq       ....     5
   Bias factor          DIISBfac        ....   1.050
   Max. coefficient     DIISMaxC        ....  10.000
 Trust-Rad. Augm. Hess. CNVTRAH         .... auto
   Auto Start mean grad. ratio tolernc. ....  1.125000
   Auto Start start iteration           ....    20
   Auto Start num. interpolation iter.  ....    10
   Max. Number of Micro iterations      ....    16
   Max. Number of Macro iterations      .... Maxiter - #DIIS iter
   Number of Davidson start vectors     ....     2
   Converg. threshold I  (grad. norm)   ....   1.000e-05
   Converg. threshold II (energy diff.) ....   1.000e-08
   Grad. Scal. Fac. for Micro threshold ....   0.100
   Minimum threshold for Micro iter.    ....   0.010
   NR start threshold (gradient norm)   ....   0.001
   Initial trust radius                 ....   0.400
   Minimum AH scaling param. (alpha)    ....   1.000
   Maximum AH scaling param. (alpha)    .... 1000.000
   Orbital update algorithm             .... Taylor
   White noise on init. David. guess    .... on
   Maximum white noise                  ....   0.010
   Quad. conv. algorithm                .... NR
 SOSCF                  CNVSOSCF        .... on
   Start iteration      SOSCFMaxIt      ....   150
   Startup grad/error   SOSCFStart      ....  0.003300
 Level Shifting         CNVShift        .... on
   Level shift para.    LevelShift      ....    0.2500
   Turn off err/grad.   ShiftErr        ....    0.0010
 Zerner damping         CNVZerner       .... off
 Static damping         CNVDamp         .... on
   Fraction old density DampFac         ....    0.7000
   Max. Damping (<1)    DampMax         ....    0.9800
   Min. Damping (>=0)   DampMin         ....    0.0000
   Turn off err/grad.   DampErr         ....    0.1000
 Fernandez-Rico         CNVRico         .... off

SCF Procedure:
 Maximum # iterations   MaxIter         ....   125
 SCF integral mode      SCFMode         .... Direct
   Integral package                     .... SHARK and LIBINT hybrid scheme
 Reset frequency        DirectResetFreq ....    20
 Integral Threshold     Thresh          ....  2.500e-11 Eh
 Primitive CutOff       TCut            ....  2.500e-12 Eh

Convergence Tolerance:
 Convergence Check Mode ConvCheckMode   .... Total+1el-Energy
 Convergence forced     ConvForced      .... 0
 Energy Change          TolE            ....  1.000e-08 Eh
 1-El. energy change                    ....  1.000e-05 Eh
 Orbital Gradient       TolG            ....  1.000e-05
 Orbital Rotation angle TolX            ....  1.000e-05
 DIIS Error             TolErr          ....  5.000e-07


Diagonalization of the overlap matrix:
Smallest eigenvalue                        ... 2.542e-03
Time for diagonalization                   ...    0.001 sec
Threshold for overlap eigenvalues          ... 1.000e-08
Number of eigenvalues below threshold      ... 0
Time for construction of square roots      ...    0.003 sec
Total time needed                          ...    0.005 sec

Time for model grid setup =    0.027 sec

------------------------------
INITIAL GUESS: MODEL POTENTIAL
------------------------------
Loading Hartree-Fock densities                     ... done
Calculating cut-offs                               ... done
Initializing the effective Hamiltonian             ... done
Setting up the integral package (SHARK)            ... done
Starting the Coulomb interaction                   ... done (   0.0 sec)
Reading the grid                                   ... done
Mapping shells                                     ... done
Starting the XC term evaluation                    ... done (   0.0 sec)
  promolecular density results
     # of electrons  =     29.996845124
     EX              =    -22.270344192
     EC              =     -0.950293113
     EX+EC           =    -23.220637305
Transforming the Hamiltonian                       ... done (   0.0 sec)
Diagonalizing the Hamiltonian                      ... done (   0.0 sec)
Back transforming the eigenvectors                 ... done (   0.0 sec)
Now organizing SCF variables                       ... done
                      ------------------
                      INITIAL GUESS DONE (   0.0 sec)
                      ------------------
-------------------
DFT GRID GENERATION
-------------------

General Integration Accuracy     IntAcc      ... 4.388
Radial Grid Type                 RadialGrid  ... OptM3 with GC (2021)
Angular Grid (max. ang.)         AngularGrid ... 4 (Lebedev-302)
Angular grid pruning method      GridPruning ... 4 (adaptive)
Weight generation scheme         WeightScheme... Becke
Basis function cutoff            BFCut       ... 1.0000e-11
Integration weight cutoff        WCut        ... 1.0000e-14
Angular grids for H and He will be reduced by one unit
Partially contracted basis set               ... off
Rotationally invariant grid construction     ... off

Total number of grid points                  ...    43796
Total number of batches                      ...      686
Average number of points per batch           ...       63
Average number of grid points per atom       ...     4380
Time for grid setup =    0.144 sec

--------------------
COSX GRID GENERATION
--------------------

GRIDX 1
-------
General Integration Accuracy     IntAcc      ... 3.816
Radial Grid Type                 RadialGrid  ... OptM3 with GC (2021)
Angular Grid (max. ang.)         AngularGrid ... 1 (Lebedev-50)
Angular grid pruning method      GridPruning ... 4 (adaptive)
Weight generation scheme         WeightScheme... Becke
Basis function cutoff            BFCut       ... 1.0000e-11
Integration weight cutoff        WCut        ... 1.0000e-14
Angular grids for H and He will be reduced by one unit
Partially contracted basis set               ... on
Rotationally invariant grid construction     ... off

Total number of grid points                  ...     5652
Total number of batches                      ...       92
Average number of points per batch           ...       61
Average number of grid points per atom       ...      565
UseSFitting                                  ... on

GRIDX 2
-------
General Integration Accuracy     IntAcc      ... 4.020
Radial Grid Type                 RadialGrid  ... OptM3 with GC (2021)
Angular Grid (max. ang.)         AngularGrid ... 2 (Lebedev-110)
Angular grid pruning method      GridPruning ... 4 (adaptive)
Weight generation scheme         WeightScheme... Becke
Basis function cutoff            BFCut       ... 1.0000e-11
Integration weight cutoff        WCut        ... 1.0000e-14
Angular grids for H and He will be reduced by one unit
Partially contracted basis set               ... on
Rotationally invariant grid construction     ... off

Total number of grid points                  ...    12020
Total number of batches                      ...      192
Average number of points per batch           ...       62
Average number of grid points per atom       ...     1202
UseSFitting                                  ... on

GRIDX 3
-------
General Integration Accuracy     IntAcc      ... 4.338
Radial Grid Type                 RadialGrid  ... OptM3 with GC (2021)
Angular Grid (max. ang.)         AngularGrid ... 3 (Lebedev-194)
Angular grid pruning method      GridPruning ... 4 (adaptive)
Weight generation scheme         WeightScheme... Becke
Basis function cutoff            BFCut       ... 1.0000e-11
Integration weight cutoff        WCut        ... 1.0000e-14
Angular grids for H and He will be reduced by one unit
Partially contracted basis set               ... on
Rotationally invariant grid construction     ... off

Total number of grid points                  ...    26446
Total number of batches                      ...      420
Average number of points per batch           ...       62
Average number of grid points per atom       ...     2645
UseSFitting                                  ... on

Time for X-Grid setup             =    0.116 sec

 re-compute Schwartz prescreening matrix in partically contracted basis (1) ...done (   0.071 sec)
--------------
SCF ITERATIONS
--------------
ITER       Energy         Delta-E        Max-DP      RMS-DP      [F,P]     Damp
               ***  Starting incremental Fock matrix formation  ***
  0   -155.7682635898   0.000000000000 0.04733066  0.00235548  0.1443865 0.7000
  1   -155.8192050751  -0.050941485333 0.03253655  0.00178152  0.0800423 0.7000
                               ***Turning on DIIS***
  2   -155.8425093909  -0.023304315815 0.05628144  0.00323450  0.0341364 0.0000
  3   -155.8743466834  -0.031837292502 0.02311810  0.00117215  0.0411179 0.0000
  4   -155.8829702102  -0.008623526804 0.00507678  0.00036127  0.0090689 0.0000
                      *** Initiating the SOSCF procedure ***
                           *** Shutting down DIIS ***
                      *** Re-Reading the Fockian *** 
                      *** Removing any level shift *** 
ITER      Energy       Delta-E        Grad      Rot      Max-DP    RMS-DP
  5   -155.88345830  -0.0004880923  0.000865  0.000865  0.001944  0.000126
               *** Restarting incremental Fock matrix formation ***
  6   -155.88352929  -0.0000709854  0.000392  0.001156  0.001205  0.000092
  7   -155.88352878   0.0000005118  0.000546  0.000882  0.000879  0.000031
  8   -155.88353232  -0.0000035437  0.000139  0.000316  0.000397  0.000019
  9   -155.88353227   0.0000000483  0.000163  0.000129  0.000197  0.000010
 10   -155.88353258  -0.0000003052  0.000003  0.000006  0.000007  0.000000
                 **** Energy Check signals convergence ****
              ***Rediagonalizing the Fockian in SOSCF/NRSCF***

               *****************************************************
               *                     SUCCESS                       *
               *           SCF CONVERGED AFTER  11 CYCLES          *
               *****************************************************

Old exchange energy                            =     -4.558096427 Eh
New exchange energy                            =     -4.558067184 Eh
Exchange energy change after final integration =      0.000029243 Eh
Total energy after final integration           =   -155.883503335 Eh
Final COS-X integration done in                =     0.217 sec

----------------
TOTAL SCF ENERGY
----------------

Total Energy       :         -155.88350333 Eh           -4241.80577 eV

Components:
Nuclear Repulsion  :          102.50911046 Eh            2789.41471 eV
Electronic Energy  :         -258.39261379 Eh           -7031.22048 eV
One Electron Energy:         -410.95496154 Eh          -11182.65302 eV
Two Electron Energy:          152.56234775 Eh            4151.43254 eV
Max COSX asymmetry :            0.00000172 Eh               0.00005 eV

Virial components:
Potential Energy   :         -310.60374599 Eh           -8451.95762 eV
Kinetic Energy     :          154.72024265 Eh            4210.15184 eV
Virial Ratio       :            2.00751848


DFT components:
N(Alpha)           :       15.000026514985 electrons
N(Beta)            :       15.000026514985 electrons
N(Total)           :       30.000053029969 electrons
E(X)               :      -18.073870684705 Eh       
E(C)               :       -1.134572037889 Eh       
E(XC)              :      -19.208442722594 Eh       
DFET-embed. en.    :        0.000000000000 Eh       

---------------
SCF CONVERGENCE
---------------

  Last Energy change         ...   -9.9735e-10  Tolerance :   1.0000e-08
  Last MAX-Density change    ...    2.2204e-15  Tolerance :   1.0000e-07
  Last RMS-Density change    ...    4.8528e-17  Tolerance :   5.0000e-09
  Last Orbital Gradient      ...    1.5538e-06  Tolerance :   1.0000e-05
  Last Orbital Rotation      ...    1.1617e-06  Tolerance :   1.0000e-05

             **** THE GBW FILE WAS UPDATED (trans-1,3-bivinyl-opt.gbw) ****
             **** DENSITY trans-1,3-bivinyl-opt.scfp WAS UPDATED ****
             **** ENERGY FILE WAS UPDATED (trans-1,3-bivinyl-opt.en.tmp) ****
             **** THE GBW FILE WAS UPDATED (trans-1,3-bivinyl-opt.gbw) ****
             **** DENSITY trans-1,3-bivinyl-opt.scfp WAS UPDATED ****
----------------
ORBITAL ENERGIES
----------------

  NO   OCC          E(Eh)            E(eV) 
   0   2.0000     -10.196483      -277.4604 
   1   2.0000     -10.196332      -277.4563 
   2   2.0000     -10.180740      -277.0320 
   3   2.0000     -10.180735      -277.0319 
   4   2.0000      -0.793167       -21.5832 
   5   2.0000      -0.730761       -19.8850 
   6   2.0000      -0.594621       -16.1805 
   7   2.0000      -0.556134       -15.1332 
   8   2.0000      -0.463732       -12.6188 
   9   2.0000      -0.457167       -12.4401 
  10   2.0000      -0.390386       -10.6230 
  11   2.0000      -0.388155       -10.5622 
  12   2.0000      -0.345335        -9.3970 
  13   2.0000      -0.313093        -8.5197 
  14   2.0000      -0.232548        -6.3279 
  15   0.0000      -0.023857        -0.6492 
  16   0.0000       0.060121         1.6360 
  17   0.0000       0.085871         2.3367 
  18   0.0000       0.089392         2.4325 
  19   0.0000       0.095329         2.5940 
  20   0.0000       0.149655         4.0723 
  21   0.0000       0.155330         4.2267 
  22   0.0000       0.157108         4.2751 
  23   0.0000       0.267751         7.2859 
  24   0.0000       0.289392         7.8748 
  25   0.0000       0.355138         9.6638 
  26   0.0000       0.394473        10.7341 
  27   0.0000       0.424653        11.5554 
  28   0.0000       0.469508        12.7760 
  29   0.0000       0.493432        13.4270 
  30   0.0000       0.505834        13.7645 
  31   0.0000       0.516135        14.0447 
  32   0.0000       0.535708        14.5774 
  33   0.0000       0.571556        15.5528 
  34   0.0000       0.572459        15.5774 
  35   0.0000       0.603662        16.4265 
  36   0.0000       0.652939        17.7674 
  37   0.0000       0.678568        18.4648 
  38   0.0000       0.689314        18.7572 
  39   0.0000       0.723016        19.6743 
  40   0.0000       0.741068        20.1655 
  41   0.0000       0.778356        21.1801 
  42   0.0000       0.869786        23.6681 
  43   0.0000       0.889605        24.2074 
  44   0.0000       0.951817        25.9003 
  45   0.0000       0.955308        25.9952 
  46   0.0000       1.003905        27.3176 
  47   0.0000       1.008260        27.4362 
  48   0.0000       1.011968        27.5371 
  49   0.0000       1.046724        28.4828 
  50   0.0000       1.063724        28.9454 
  51   0.0000       1.109687        30.1961 
  52   0.0000       1.232062        33.5261 
  53   0.0000       1.340814        36.4854 
  54   0.0000       1.448116        39.4052 
  55   0.0000       1.448351        39.4116 
  56   0.0000       1.470289        40.0086 
  57   0.0000       1.472910        40.0799 
  58   0.0000       1.477695        40.2101 
  59   0.0000       1.577525        42.9266 
  60   0.0000       1.593886        43.3718 
  61   0.0000       1.597001        43.4566 
  62   0.0000       1.622930        44.1622 
  63   0.0000       1.635644        44.5081 
  64   0.0000       1.693980        46.0955 
  65   0.0000       1.731631        47.1201 
  66   0.0000       1.773702        48.2649 
  67   0.0000       1.789203        48.6867 
  68   0.0000       1.857007        50.5317 
  69   0.0000       1.903399        51.7941 
  70   0.0000       1.921205        52.2786 
  71   0.0000       1.966511        53.5115 
  72   0.0000       2.099535        57.1312 
  73   0.0000       2.104749        57.2731 
  74   0.0000       2.131660        58.0054 
  75   0.0000       2.168872        59.0180 
  76   0.0000       2.208020        60.0833 
  77   0.0000       2.263424        61.5909 
  78   0.0000       2.284077        62.1529 
  79   0.0000       2.343147        63.7603 
  80   0.0000       2.502477        68.0959 
  81   0.0000       2.516846        68.4869 
  82   0.0000       2.717676        73.9517 
  83   0.0000       2.751593        74.8746 
  84   0.0000       2.965047        80.6830 
  85   0.0000       3.174027        86.3697 

                    ********************************
                    * MULLIKEN POPULATION ANALYSIS *
                    ********************************

-----------------------
MULLIKEN ATOMIC CHARGES
-----------------------
   0 C :    0.046769
   1 H :    0.002812
   2 H :    0.007875
   3 C :   -0.032725
   4 H :   -0.024731
   5 C :   -0.032724
   6 H :   -0.024731
   7 C :    0.046769
   8 H :    0.002811
   9 H :    0.007874
Sum of atomic charges:   -0.0000000

--------------------------------
MULLIKEN REDUCED ORBITAL CHARGES
--------------------------------
  0 C s       :     3.035543  s :     3.035543
      pz      :     1.002754  p :     2.875760
      px      :     0.903824
      py      :     0.969182
      dz2     :     0.000584  d :     0.041929
      dxz     :     0.002204
      dyz     :     0.006109
      dx2y2   :     0.019393
      dxy     :     0.013639
  1 H s       :     0.966209  s :     0.966209
      pz      :     0.006361  p :     0.030979
      px      :     0.008817
      py      :     0.015801
  2 H s       :     0.961005  s :     0.961005
      pz      :     0.006433  p :     0.031120
      px      :     0.019186
      py      :     0.005501
  3 C s       :     3.166562  s :     3.166562
      pz      :     0.954384  p :     2.803948
      px      :     0.904525
      py      :     0.945038
      dz2     :     0.003277  d :     0.062215
      dxz     :     0.008521
      dyz     :     0.006988
      dx2y2   :     0.022284
      dxy     :     0.021144
  4 H s       :     0.995190  s :     0.995190
      pz      :     0.006245  p :     0.029541
      px      :     0.007910
      py      :     0.015386
  5 C s       :     3.166562  s :     3.166562
      pz      :     0.954384  p :     2.803947
      px      :     0.904525
      py      :     0.945037
      dz2     :     0.003277  d :     0.062215
      dxz     :     0.008521
      dyz     :     0.006988
      dx2y2   :     0.022284
      dxy     :     0.021144
  6 H s       :     0.995190  s :     0.995190
      pz      :     0.006245  p :     0.029541
      px      :     0.007910
      py      :     0.015386
  7 C s       :     3.035543  s :     3.035543
      pz      :     1.002754  p :     2.875759
      px      :     0.903824
      py      :     0.969181
      dz2     :     0.000584  d :     0.041929
      dxz     :     0.002204
      dyz     :     0.006109
      dx2y2   :     0.019393
      dxy     :     0.013639
  8 H s       :     0.966210  s :     0.966210
      pz      :     0.006361  p :     0.030979
      px      :     0.008817
      py      :     0.015801
  9 H s       :     0.961005  s :     0.961005
      pz      :     0.006433  p :     0.031120
      px      :     0.019186
      py      :     0.005501


                     *******************************
                     * LOEWDIN POPULATION ANALYSIS *
                     *******************************

----------------------
LOEWDIN ATOMIC CHARGES
----------------------
   0 C :   -0.041133
   1 H :    0.017328
   2 H :    0.019101
   3 C :   -0.016367
   4 H :    0.021071
   5 C :   -0.016367
   6 H :    0.021071
   7 C :   -0.041133
   8 H :    0.017328
   9 H :    0.019101

-------------------------------
LOEWDIN REDUCED ORBITAL CHARGES
-------------------------------
  0 C s       :     2.840077  s :     2.840077
      pz      :     0.962432  p :     3.060684
      px      :     1.037036
      py      :     1.061217
      dz2     :     0.010085  d :     0.140372
      dxz     :     0.004753
      dyz     :     0.013706
      dx2y2   :     0.062525
      dxy     :     0.049302
  1 H s       :     0.895919  s :     0.895919
      pz      :     0.020099  p :     0.086753
      px      :     0.025827
      py      :     0.040827
  2 H s       :     0.894056  s :     0.894056
      pz      :     0.020287  p :     0.086843
      px      :     0.050209
      py      :     0.016347
  3 C s       :     2.845054  s :     2.845054
      pz      :     0.924344  p :     2.990125
      px      :     1.001530
      py      :     1.064252
      dz2     :     0.011574  d :     0.181189
      dxz     :     0.020010
      dyz     :     0.016230
      dx2y2   :     0.068854
      dxy     :     0.064520
  4 H s       :     0.894152  s :     0.894152
      pz      :     0.018140  p :     0.084777
      px      :     0.025494
      py      :     0.041144
  5 C s       :     2.845054  s :     2.845054
      pz      :     0.924344  p :     2.990125
      px      :     1.001530
      py      :     1.064252
      dz2     :     0.011574  d :     0.181189
      dxz     :     0.020010
      dyz     :     0.016230
      dx2y2   :     0.068854
      dxy     :     0.064520
  6 H s       :     0.894152  s :     0.894152
      pz      :     0.018140  p :     0.084777
      px      :     0.025494
      py      :     0.041144
  7 C s       :     2.840077  s :     2.840077
      pz      :     0.962432  p :     3.060685
      px      :     1.037036
      py      :     1.061217
      dz2     :     0.010085  d :     0.140372
      dxz     :     0.004753
      dyz     :     0.013706
      dx2y2   :     0.062525
      dxy     :     0.049302
  8 H s       :     0.895919  s :     0.895919
      pz      :     0.020099  p :     0.086753
      px      :     0.025827
      py      :     0.040827
  9 H s       :     0.894056  s :     0.894056
      pz      :     0.020287  p :     0.086843
      px      :     0.050209
      py      :     0.016347


                      *****************************
                      * MAYER POPULATION ANALYSIS *
                      *****************************

  NA   - Mulliken gross atomic population
  ZA   - Total nuclear charge
  QA   - Mulliken gross atomic charge
  VA   - Mayer's total valence
  BVA  - Mayer's bonded valence
  FA   - Mayer's free valence

  ATOM       NA         ZA         QA         VA         BVA        FA
  0 C      5.9532     6.0000     0.0468     3.9724     3.9724    -0.0000
  1 H      0.9972     1.0000     0.0028     0.9769     0.9769    -0.0000
  2 H      0.9921     1.0000     0.0079     0.9684     0.9684    -0.0000
  3 C      6.0327     6.0000    -0.0327     4.1095     4.1095    -0.0000
  4 H      1.0247     1.0000    -0.0247     0.9806     0.9806     0.0000
  5 C      6.0327     6.0000    -0.0327     4.1095     4.1095    -0.0000
  6 H      1.0247     1.0000    -0.0247     0.9806     0.9806    -0.0000
  7 C      5.9532     6.0000     0.0468     3.9724     3.9724    -0.0000
  8 H      0.9972     1.0000     0.0028     0.9769     0.9769    -0.0000
  9 H      0.9921     1.0000     0.0079     0.9684     0.9684    -0.0000

  Mayer bond orders larger than 0.100000
B(  0-C ,  1-H ) :   0.9426 B(  0-C ,  2-H ) :   0.9398 B(  0-C ,  3-C ) :   1.9754 
B(  0-C ,  7-C ) :   0.1031 B(  3-C ,  4-H ) :   0.9529 B(  3-C ,  5-C ) :   1.0993 
B(  5-C ,  6-H ) :   0.9529 B(  5-C ,  7-C ) :   1.9754 B(  7-C ,  8-H ) :   0.9426 
B(  7-C ,  9-H ) :   0.9398 

-------
TIMINGS
-------

Total SCF time: 0 days 0 hours 0 min 2 sec 

Total time                  ....       2.818 sec
Sum of individual times     ....       2.625 sec  ( 93.2%)

Fock matrix formation       ....       2.265 sec  ( 80.4%)
  Split-RI-J                ....       0.329 sec  ( 14.5% of F)
  Chain of spheres X        ....       1.286 sec  ( 56.8% of F)
  XC integration            ....       0.562 sec  ( 24.8% of F)
    Basis function eval.    ....       0.211 sec  ( 37.6% of XC)
    Density eval.           ....       0.066 sec  ( 11.8% of XC)
    XC-Functional eval.     ....       0.062 sec  ( 11.0% of XC)
    XC-Potential eval.      ....       0.087 sec  ( 15.5% of XC)
Diagonalization             ....       0.013 sec  (  0.5%)
Density matrix formation    ....       0.001 sec  (  0.0%)
Population analysis         ....       0.007 sec  (  0.3%)
Initial guess               ....       0.023 sec  (  0.8%)
Orbital Transformation      ....       0.000 sec  (  0.0%)
Orbital Orthonormalization  ....       0.000 sec  (  0.0%)
DIIS solution               ....       0.017 sec  (  0.6%)
SOSCF solution              ....       0.012 sec  (  0.4%)
Grid generation             ....       0.286 sec  ( 10.2%)

Maximum memory used throughout the entire SCF-calculation: 47.6 MB
[cnode16:208452] 7 more processes have sent help message help-mpi-btl-openib.txt / error in device init
[cnode16:208452] Set MCA parameter "orte_base_help_aggregate" to 0 to see all help / error messages


-------------------------------------------------------------------------------
                          DFT DISPERSION CORRECTION                            
                                                                               
                              DFTD3 V3.1  Rev 1                                
                          USING Becke-Johnson damping                          
-------------------------------------------------------------------------------
The B3LYP functional is recognized
Active option DFTDOPT                   ...         4   

molecular C6(AA) [au] = 947.108673 


            DFT-D V3
 parameters
 s6 scaling factor         :     1.0000 
 a1 scaling factor         :     0.3981 
 s8 scaling factor         :     1.9889 
 a2 scaling factor         :     4.4211 
 ad hoc parameters k1-k3   :    16.0000     1.3333    -4.0000 

 Edisp/kcal,au: -6.751163263120  -0.010758662334 
 E6   /kcal   :  -3.240409204 
 E8   /kcal   :  -3.510754059 
 % E8         :  52.002209428 

-------------------------   ----------------
Dispersion correction           -0.010758662
-------------------------   ----------------


-------------------------   --------------------
FINAL SINGLE POINT ENERGY      -155.894261997286
-------------------------   --------------------

--------------------------------------------------------------------------
WARNING: There was an error initializing an OpenFabrics device.

  Local host:   cnode16
  Local device: mlx5_0
--------------------------------------------------------------------------


           ************************************************************
           *        Program running with 8 parallel MPI-processes     *
           *              working on a common directory               *
           ************************************************************
------------------------------------------------------------------------------
                         ORCA SCF GRADIENT CALCULATION
------------------------------------------------------------------------------

 ... reading COSX grid (gridx3)
Gradient of the Kohn-Sham DFT energy:
Kohn-Sham wavefunction type      ... RKS
Hartree-Fock exchange scaling    ...    0.200
Number of operators              ...    1
Number of atoms                  ...   10
Basis set dimensions             ...   86
Integral neglect threshold       ... 2.5e-11
Integral primitive cutoff        ... 2.5e-12
SHARK Integral package           ... ON

Nuc. rep. gradient       (SHARK) ... done (  0.0 sec)
HCore & Overlap gradient (SHARK) ... done (  0.0 sec)
RI-J gradient            (SHARK) ... done (  0.1 sec)
COSX-gradient                    ... done (  0.3 sec)
Exchange-correlation gradient    ... done
Dispersion correction            ... done

------------------
CARTESIAN GRADIENT
------------------

   1   C   :   -0.013296471   -0.032397614   -0.000000018
   2   H   :   -0.005524681    0.015957769    0.000000005
   3   H   :    0.016337179    0.003586836    0.000000000
   4   C   :   -0.043428642    0.045462505    0.000000015
   5   H   :    0.003521805   -0.017554240    0.000000001
   6   C   :    0.043428634   -0.045462522    0.000000004
   7   H   :   -0.003521779    0.017554245   -0.000000003
   8   C   :    0.013296447    0.032397619   -0.000000004
   9   H   :    0.005524680   -0.015957767    0.000000006
  10   H   :   -0.016337163   -0.003586834   -0.000000008

Difference to translation invariance:
           :    0.0000000097   -0.0000000052   -0.0000000023

Difference to rotation invariance:
           :    0.0000000251   -0.0000000009   -0.0003624757

Norm of the cartesian gradient     ...    0.1101343146
RMS gradient                       ...    0.0201076828
MAX gradient                       ...    0.0454625225

-------
TIMINGS
-------

Total SCF gradient time            ...        0.736 sec

One electron gradient       ....       0.009 sec  (  1.2%)
RI-J Coulomb gradient       ....       0.089 sec  ( 12.2%)
COSX gradient               ....       0.329 sec  ( 44.7%)
XC gradient                 ....       0.138 sec  ( 18.8%)

Maximum memory used throughout the entire SCFGRAD-calculation: 36.0 MB
[cnode16:208523] 7 more processes have sent help message help-mpi-btl-openib.txt / error in device init
[cnode16:208523] Set MCA parameter "orte_base_help_aggregate" to 0 to see all help / error messages
------------------------------------------------------------------------------
                         ORCA GEOMETRY RELAXATION STEP
------------------------------------------------------------------------------

Reading the OPT-File                    .... done
Getting information on internals        .... done
Copying old internal coords+grads       .... done
Making the new internal coordinates     .... (new redundants).... done
Validating the new internal coordinates .... (new redundants).... done
Calculating the B-matrix                .... done
Calculating the G,G- and P matrices     .... done
Transforming gradient to internals      .... done
Projecting the internal gradient        .... done
Number of atoms                         ....  10
Number of internal coordinates          ....  33
Current Energy                          ....  -155.894261997 Eh
Current gradient norm                   ....     0.110134315 Eh/bohr
Maximum allowed component of the step   ....  0.300
Current trust radius                    ....  0.300
Evaluating the initial hessian          ....  (Almloef) done
Projecting the Hessian                  .... done
Forming the augmented Hessian           .... done
Diagonalizing the augmented Hessian     .... done
Last element of RFO vector              ....  0.986239204
Lowest eigenvalues of augmented Hessian:
 -0.010898185  0.009056445  0.022323414  0.022323414  0.035590382
Length of the computed step             ....  0.167631366
The final length of the internal step   ....  0.167631366
Converting the step to cartesian space:
 Initial RMS(Int)=    0.0291808753
Transforming coordinates:
 Iter   0:  RMS(Cart)=    0.0298301409 RMS(Int)=    1.5470894252
 Iter   1:  RMS(Cart)=    0.0004664219 RMS(Int)=    0.0002865881
 Iter   2:  RMS(Cart)=    0.0000159650 RMS(Int)=    0.0000071700
 Iter   3:  RMS(Cart)=    0.0000003437 RMS(Int)=    0.0000001620
 Iter   4:  RMS(Cart)=    0.0000000074 RMS(Int)=    0.0000000036
done
Storing new coordinates                 .... done

                                .--------------------.
          ----------------------|Geometry convergence|-------------------------
          Item                value                   Tolerance       Converged
          ---------------------------------------------------------------------
          RMS gradient        0.0114167643            0.0001000000      NO
          MAX gradient        0.0423941185            0.0003000000      NO
          RMS step            0.0291808753            0.0020000000      NO
          MAX step            0.1142704200            0.0040000000      NO
          ........................................................
          Max(Bonds)      0.0605      Max(Angles)    1.76
          Max(Dihed)        0.00      Max(Improp)    0.00
          ---------------------------------------------------------------------

The optimization has not yet converged - more geometry cycles are needed


    ---------------------------------------------------------------------------
                         Redundant Internal Coordinates
                            (Angstroem and degrees)

        Definition                    Value    dE/dq     Step     New-Value
    ----------------------------------------------------------------------------
     1. B(H   1,C   0)                1.0700 -0.016578  0.0220    1.0920   
     2. B(H   2,C   0)                1.0700 -0.016338  0.0217    1.0917   
     3. B(C   3,C   0)                1.3552  0.012377 -0.0091    1.3461   
     4. B(H   4,C   3)                1.0700 -0.016974  0.0225    1.0925   
     5. B(C   5,C   3)                1.5400  0.042394 -0.0605    1.4795   
     6. B(H   6,C   5)                1.0700 -0.016974  0.0225    1.0925   
     7. B(C   7,C   5)                1.3552  0.012377 -0.0091    1.3461   
     8. B(H   8,C   7)                1.0700 -0.016578  0.0220    1.0920   
     9. B(H   9,C   7)                1.0700 -0.016338  0.0217    1.0917   
    10. A(H   1,C   0,H   2)          120.00  0.004567   -0.79    119.21   
    11. A(H   1,C   0,C   3)          120.00 -0.001860    0.33    120.33   
    12. A(H   2,C   0,C   3)          120.00 -0.002706    0.46    120.46   
    13. A(H   4,C   3,C   5)          120.00  0.011107   -1.76    118.24   
    14. A(C   0,C   3,C   5)          120.00 -0.010666    1.58    121.58   
    15. A(C   0,C   3,H   4)          120.00 -0.000441    0.18    120.18   
    16. A(C   3,C   5,H   6)          120.00  0.011107   -1.76    118.24   
    17. A(H   6,C   5,C   7)          120.00 -0.000441    0.18    120.18   
    18. A(C   3,C   5,C   7)          120.00 -0.010666    1.58    121.58   
    19. A(H   8,C   7,H   9)          120.00  0.004567   -0.79    119.21   
    20. A(C   5,C   7,H   9)          120.00 -0.002706    0.46    120.46   
    21. A(C   5,C   7,H   8)          120.00 -0.001860    0.33    120.33   
    22. D(H   4,C   3,C   0,H   2)      0.00 -0.000000    0.00      0.00   
    23. D(C   5,C   3,C   0,H   1)      0.00  0.000000   -0.00     -0.00   
    24. D(H   4,C   3,C   0,H   1)    180.00  0.000000   -0.00    180.00   
    25. D(C   5,C   3,C   0,H   2)    180.00  0.000000   -0.00    180.00   
    26. D(H   6,C   5,C   3,H   4)    180.00  0.000000   -0.00    180.00   
    27. D(C   7,C   5,C   3,C   0)    180.00 -0.000000    0.00    180.00   
    28. D(H   6,C   5,C   3,C   0)      0.00 -0.000000    0.00      0.00   
    29. D(C   7,C   5,C   3,H   4)      0.00 -0.000000    0.00      0.00   
    30. D(H   9,C   7,C   5,H   6)      0.00  0.000000   -0.00     -0.00   
    31. D(H   9,C   7,C   5,C   3)    180.00  0.000000   -0.00    180.00   
    32. D(H   8,C   7,C   5,H   6)    180.00  0.000000    0.00    180.00   
    33. D(H   8,C   7,C   5,C   3)      0.00  0.000000   -0.00     -0.00   
    ----------------------------------------------------------------------------
--------------------------------------------------------------------------
WARNING: There was an error initializing an OpenFabrics device.

  Local host:   cnode16
  Local device: mlx5_0
--------------------------------------------------------------------------
[cnode16:208584] 7 more processes have sent help message help-mpi-btl-openib.txt / error in device init
[cnode16:208584] Set MCA parameter "orte_base_help_aggregate" to 0 to see all help / error messages

         *************************************************************
         *                GEOMETRY OPTIMIZATION CYCLE   2            *
         *************************************************************
---------------------------------
CARTESIAN COORDINATES (ANGSTROEM)
---------------------------------
  C     -6.635828   -1.614030    0.000000
  H     -6.108263   -2.570155   -0.000000
  H     -7.727510   -1.607907    0.000000
  C     -5.946951   -0.457539   -0.000000
  H     -6.477258    0.497671   -0.000000
  C     -4.467563   -0.436947   -0.000000
  H     -3.937256   -1.392156   -0.000000
  C     -3.778685    0.719544    0.000000
  H     -4.306250    1.675669   -0.000000
  H     -2.687004    0.713422    0.000000

----------------------------
CARTESIAN COORDINATES (A.U.)
----------------------------
  NO LB      ZA    FRAG     MASS         X           Y           Z
   0 C     6.0000    0    12.011  -12.539899   -3.050075    0.000000
   1 H     1.0000    0     1.008  -11.542945   -4.856889   -0.000000
   2 H     1.0000    0     1.008  -14.602877   -3.038505    0.000000
   3 C     6.0000    0    12.011  -11.238108   -0.864623   -0.000000
   4 H     1.0000    0     1.008  -12.240243    0.940462   -0.000000
   5 C     6.0000    0    12.011   -8.442471   -0.825710   -0.000000
   6 H     1.0000    0     1.008   -7.440336   -2.630794   -0.000000
   7 C     6.0000    0    12.011   -7.140680    1.359742    0.000000
   8 H     1.0000    0     1.008   -8.137634    3.166556   -0.000000
   9 H     1.0000    0     1.008   -5.077702    1.348172    0.000000

--------------------------------
INTERNAL COORDINATES (ANGSTROEM)
--------------------------------
 C      0   0   0     0.000000000000     0.00000000     0.00000000
 H      1   0   0     1.092016320991     0.00000000     0.00000000
 H      1   2   0     1.091698231989   119.21011382     0.00000000
 C      1   2   3     1.346114688522   120.33057443   180.00000719
 H      4   1   2     1.092543410395   120.18147677   179.99999879
 C      4   1   2     1.479530697863   121.57810591     0.00000000
 H      6   4   1     1.092543410242   118.24040911     0.00000000
 C      6   4   1     1.346114686636   121.57811366   180.00001764
 H      8   6   4     1.092016307194   120.33057473     0.00000000
 H      8   6   4     1.091698212900   120.45931041   179.99998766

---------------------------
INTERNAL COORDINATES (A.U.)
---------------------------
 C      0   0   0     0.000000000000     0.00000000     0.00000000
 H      1   0   0     2.063611780445     0.00000000     0.00000000
 H      1   2   0     2.063010679346   119.21011382     0.00000000
 C      1   2   3     2.543788106156   120.33057443   180.00000719
 H      4   1   2     2.064607835066   120.18147677   179.99999879
 C      4   1   2     2.795907825691   121.57810591     0.00000000
 H      6   4   1     2.064607834777   118.24040911     0.00000000
 C      6   4   1     2.543788102592   121.57811366   180.00001764
 H      8   6   4     2.063611754372   120.33057473     0.00000000
 H      8   6   4     2.063010643273   120.45931041   179.99998766

--------------------------------------------------------------------------
WARNING: There was an error initializing an OpenFabrics device.

  Local host:   cnode16
  Local device: mlx5_0
--------------------------------------------------------------------------


           ************************************************************
           *        Program running with 8 parallel MPI-processes     *
           *              working on a common directory               *
           ************************************************************
------------------------------------------------------------------------------
                   ___                                                        
                  /   \      - P O W E R E D   B Y -                         
                 /     \                                                     
                 |  |  |   _    _      __       _____    __    __             
                 |  |  |  | |  | |    /  \     |  _  \  |  |  /  |          
                  \  \/   | |  | |   /    \    | | | |  |  | /  /          
                 / \  \   | |__| |  /  /\  \   | |_| |  |  |/  /          
                |  |  |   |  __  | /  /__\  \  |    /   |      \           
                |  |  |   | |  | | |   __   |  |    \   |  |\   \          
                \     /   | |  | | |  |  |  |  | |\  \  |  | \   \       
                 \___/    |_|  |_| |__|  |__|  |_| \__\ |__|  \__/        
                                                                              
                      - O R C A' S   B I G   F R I E N D -                    
                                      &                                       
                       - I N T E G R A L  F E E D E R -                       
                                                                              
 v1 FN, 2020, v2 2021                                                         
------------------------------------------------------------------------------


Reading SHARK input file trans-1,3-bivinyl-opt.SHARKINP.tmp ... ok
----------------------
SHARK INTEGRAL PACKAGE
----------------------

Number of atoms                             ...     10
Number of basis functions                   ...     86
Number of shells                            ...     42
Maximum angular momentum                    ...      2
Integral batch strategy                     ... SHARK/LIBINT Hybrid
RI-J (if used) integral strategy            ... SPLIT-RIJ (Revised 2003 algorithm where possible)
Printlevel                                  ...      1
Contraction scheme used                     ... SEGMENTED contraction
Coulomb Range Separation                    ... NOT USED
Exchange Range Separation                   ... NOT USED
Finite Nucleus Model                        ... NOT USED
Auxiliary Coulomb fitting basis             ... AVAILABLE
   # of basis functions in Aux-J            ...    262
   # of shells in Aux-J                     ...     90
   Maximum angular momentum in Aux-J        ...      4
Auxiliary J/K fitting basis                 ... NOT available
Auxiliary Correlation fitting basis         ... NOT available
Auxiliary 'external' fitting basis          ... NOT available
Integral threshold                          ...     2.500000e-11
Primitive cut-off                           ...     2.500000e-12
Primitive pair pre-selection threshold      ...     2.500000e-12

Calculating pre-screening integrals         ... done (  0.0 sec) Dimension = 42
Organizing shell pair data                  ... done (  0.0 sec)
Shell pair information
Total number of shell pairs                 ...       903
Shell pairs after pre-screening             ...       900
Total number of primitive shell pairs       ...      7275
Primitive shell pairs kept                  ...      5194
          la=0 lb=0:    300 shell pairs
          la=1 lb=0:    334 shell pairs
          la=1 lb=1:    104 shell pairs
          la=2 lb=0:     96 shell pairs
          la=2 lb=1:     56 shell pairs
          la=2 lb=2:     10 shell pairs

Calculating one electron integrals          ... done (  0.0 sec)
Calculating RI/J V-Matrix + Cholesky decomp.... done (  0.0 sec)
Calculating Nuclear repulsion               ... done (  0.0 sec) ENN=    103.230903612016 Eh

SHARK setup successfully completed in   0.1 seconds

Maximum memory used throughout the entire GTOINT-calculation: 13.1 MB
[cnode16:208645] 7 more processes have sent help message help-mpi-btl-openib.txt / error in device init
[cnode16:208645] Set MCA parameter "orte_base_help_aggregate" to 0 to see all help / error messages
--------------------------------------------------------------------------
WARNING: There was an error initializing an OpenFabrics device.

  Local host:   cnode16
  Local device: mlx5_0
--------------------------------------------------------------------------


           ************************************************************
           *        Program running with 8 parallel MPI-processes     *
           *              working on a common directory               *
           ************************************************************

Diagonalization of the overlap matrix:
Smallest eigenvalue                        ... 2.333e-03
Time for diagonalization                   ...    0.001 sec
Threshold for overlap eigenvalues          ... 1.000e-08
Number of eigenvalues below threshold      ... 0
Time for construction of square roots      ...    0.002 sec
Total time needed                          ...    0.004 sec

-------------------
DFT GRID GENERATION
-------------------

General Integration Accuracy     IntAcc      ... 4.388
Radial Grid Type                 RadialGrid  ... OptM3 with GC (2021)
Angular Grid (max. ang.)         AngularGrid ... 4 (Lebedev-302)
Angular grid pruning method      GridPruning ... 4 (adaptive)
Weight generation scheme         WeightScheme... Becke
Basis function cutoff            BFCut       ... 1.0000e-11
Integration weight cutoff        WCut        ... 1.0000e-14
Angular grids for H and He will be reduced by one unit
Partially contracted basis set               ... off
Rotationally invariant grid construction     ... off

Total number of grid points                  ...    43796
Total number of batches                      ...      688
Average number of points per batch           ...       63
Average number of grid points per atom       ...     4380
Time for grid setup =    0.149 sec

--------------------
COSX GRID GENERATION
--------------------

GRIDX 1
-------
General Integration Accuracy     IntAcc      ... 3.816
Radial Grid Type                 RadialGrid  ... OptM3 with GC (2021)
Angular Grid (max. ang.)         AngularGrid ... 1 (Lebedev-50)
Angular grid pruning method      GridPruning ... 4 (adaptive)
Weight generation scheme         WeightScheme... Becke
Basis function cutoff            BFCut       ... 1.0000e-11
Integration weight cutoff        WCut        ... 1.0000e-14
Angular grids for H and He will be reduced by one unit
Partially contracted basis set               ... on
Rotationally invariant grid construction     ... off

Total number of grid points                  ...     5650
Total number of batches                      ...       92
Average number of points per batch           ...       61
Average number of grid points per atom       ...      565
UseSFitting                                  ... on

GRIDX 2
-------
General Integration Accuracy     IntAcc      ... 4.020
Radial Grid Type                 RadialGrid  ... OptM3 with GC (2021)
Angular Grid (max. ang.)         AngularGrid ... 2 (Lebedev-110)
Angular grid pruning method      GridPruning ... 4 (adaptive)
Weight generation scheme         WeightScheme... Becke
Basis function cutoff            BFCut       ... 1.0000e-11
Integration weight cutoff        WCut        ... 1.0000e-14
Angular grids for H and He will be reduced by one unit
Partially contracted basis set               ... on
Rotationally invariant grid construction     ... off

Total number of grid points                  ...    12016
Total number of batches                      ...      192
Average number of points per batch           ...       62
Average number of grid points per atom       ...     1202
UseSFitting                                  ... on

GRIDX 3
-------
General Integration Accuracy     IntAcc      ... 4.338
Radial Grid Type                 RadialGrid  ... OptM3 with GC (2021)
Angular Grid (max. ang.)         AngularGrid ... 3 (Lebedev-194)
Angular grid pruning method      GridPruning ... 4 (adaptive)
Weight generation scheme         WeightScheme... Becke
Basis function cutoff            BFCut       ... 1.0000e-11
Integration weight cutoff        WCut        ... 1.0000e-14
Angular grids for H and He will be reduced by one unit
Partially contracted basis set               ... on
Rotationally invariant grid construction     ... off

Total number of grid points                  ...    26444
Total number of batches                      ...      418
Average number of points per batch           ...       63
Average number of grid points per atom       ...     2644
UseSFitting                                  ... on

Time for X-Grid setup             =    0.116 sec

 re-compute Schwartz prescreening matrix in partically contracted basis (1) ...done (   0.072 sec)
--------------
SCF ITERATIONS
--------------
ITER       Energy         Delta-E        Max-DP      RMS-DP      [F,P]     Damp
               ***  Starting incremental Fock matrix formation  ***
  0   -155.8888977487   0.000000000000 0.00315769  0.00023991  0.0099512 0.7000
                      *** Initiating the SOSCF procedure ***
                      *** Re-Reading the Fockian *** 
                      *** Removing any level shift *** 
ITER      Energy       Delta-E        Grad      Rot      Max-DP    RMS-DP
  1   -155.88930386  -0.0004061159  0.001506  0.001506  0.009564  0.000687
               *** Restarting incremental Fock matrix formation ***
  2   -155.89026874  -0.0009648758  0.002495  0.008297  0.005857  0.000284
  3   -155.89021057   0.0000581738  0.003835  0.004848  0.004196  0.000157
  4   -155.89032523  -0.0001146674  0.000105  0.000132  0.000313  0.000016
  5   -155.89032537  -0.0000001350  0.000114  0.000080  0.000149  0.000008
  6   -155.89032557  -0.0000002013  0.000011  0.000011  0.000024  0.000001
  7   -155.89032557  -0.0000000014  0.000007  0.000004  0.000008  0.000000
                 **** Energy Check signals convergence ****
              ***Rediagonalizing the Fockian in SOSCF/NRSCF***

               *****************************************************
               *                     SUCCESS                       *
               *           SCF CONVERGED AFTER   8 CYCLES          *
               *****************************************************

Old exchange energy                            =     -4.555434961 Eh
New exchange energy                            =     -4.555395171 Eh
Exchange energy change after final integration =      0.000039790 Eh
Total energy after final integration           =   -155.890285783 Eh
Final COS-X integration done in                =     0.223 sec
Total Energy       :         -155.89028578 Eh           -4241.99033 eV
  Last Energy change         ...   -1.3213e-09  Tolerance :   1.0000e-08
  Last MAX-Density change    ...    1.3323e-15  Tolerance :   1.0000e-07
             **** THE GBW FILE WAS UPDATED (trans-1,3-bivinyl-opt.gbw) ****
             **** DENSITY trans-1,3-bivinyl-opt.scfp WAS UPDATED ****
             **** ENERGY FILE WAS UPDATED (trans-1,3-bivinyl-opt.en.tmp) ****
             **** THE GBW FILE WAS UPDATED (trans-1,3-bivinyl-opt.gbw) ****
             **** DENSITY trans-1,3-bivinyl-opt.scfp WAS UPDATED ****
Total SCF time: 0 days 0 hours 0 min 2 sec 

Maximum memory used throughout the entire SCF-calculation: 47.6 MB
[cnode16:208705] 7 more processes have sent help message help-mpi-btl-openib.txt / error in device init
[cnode16:208705] Set MCA parameter "orte_base_help_aggregate" to 0 to see all help / error messages


-------------------------------------------------------------------------------
                          DFT DISPERSION CORRECTION                            
                                                                               
                              DFTD3 V3.1  Rev 1                                
                          USING Becke-Johnson damping                          
-------------------------------------------------------------------------------
-------------------------   ----------------
Dispersion correction           -0.010813985
-------------------------   ----------------


-------------------------   --------------------
FINAL SINGLE POINT ENERGY      -155.901099768681
-------------------------   --------------------

--------------------------------------------------------------------------
WARNING: There was an error initializing an OpenFabrics device.

  Local host:   cnode16
  Local device: mlx5_0
--------------------------------------------------------------------------


           ************************************************************
           *        Program running with 8 parallel MPI-processes     *
           *              working on a common directory               *
           ************************************************************
------------------------------------------------------------------------------
                         ORCA SCF GRADIENT CALCULATION
------------------------------------------------------------------------------

 ... reading COSX grid (gridx3)
Gradient of the Kohn-Sham DFT energy:
Kohn-Sham wavefunction type      ... RKS
Hartree-Fock exchange scaling    ...    0.200
[...]
     14      -0.402207   0.000000   0.000002  -0.315512   0.074151   0.000000
     15       0.000000  -0.146700   0.022976   0.000000  -0.000000   0.128784
     16      -0.000000   0.098886   0.172089   0.000000   0.000000  -0.033126
     17      -0.205304  -0.000000  -0.000000   0.051368   0.167938   0.000000
     18       0.000000  -0.287322   0.140027   0.000000  -0.000000   0.042070
     19      -0.000000   0.018379   0.229447   0.000000  -0.000000  -0.088785
     20      -0.402207  -0.000000   0.000002  -0.315512  -0.074151   0.000000
     21       0.000000   0.124891   0.177213   0.000000  -0.000000   0.129085
     22       0.000000  -0.072872   0.117469   0.000000  -0.000000   0.027976
     23       0.179635   0.000000   0.000000  -0.015449  -0.008414  -0.000000
     24       0.000000   0.421834   0.463463   0.000001   0.000000  -0.293646
     25       0.000000   0.078030   0.264768   0.000001   0.000000  -0.178898
     26       0.435045   0.000000  -0.000002   0.386049   0.321742   0.000000
     27       0.000000   0.125350   0.181527   0.000000  -0.000000   0.131941
     28       0.000000  -0.406393  -0.185874  -0.000000  -0.000000   0.565314
     29       0.273033  -0.000000   0.000003  -0.498539  -0.602254  -0.000000
                 12         13         14         15         16         17    
      0      -0.000000  -0.000000  -0.077012   0.000000  -0.000000   0.057835
      1       0.000000  -0.000000   0.032680  -0.000000  -0.000000  -0.016486
      2      -0.120685   0.115509   0.000000   0.026599   0.005821   0.000000
      3      -0.000000   0.000000   0.333652  -0.000002  -0.000000  -0.208422
      4      -0.000000   0.000000   0.236442  -0.000001  -0.000000  -0.145234
      5       0.497612  -0.550972   0.000001   0.243906   0.305475  -0.000000
      6      -0.000000   0.000000  -0.073519   0.000000   0.000000   0.050475
      7      -0.000000   0.000000  -0.419795   0.000002   0.000000   0.214318
      8       0.485945  -0.419277  -0.000001  -0.254818  -0.219697   0.000000
      9      -0.000000   0.000000   0.026026  -0.000000   0.000000  -0.158283
     10      -0.000000  -0.000000  -0.029710   0.000000  -0.000000   0.106551
     11       0.039194  -0.034700  -0.000000  -0.092144  -0.062982  -0.000000
     12       0.000000  -0.000000   0.347405  -0.000002   0.000000  -0.576478
     13       0.000000  -0.000000   0.147954  -0.000001  -0.000000  -0.120977
     14      -0.012532  -0.077921   0.000003   0.605293   0.595330   0.000000
     15       0.000000  -0.000000   0.026026  -0.000000  -0.000000   0.158283
     16      -0.000000  -0.000000  -0.029710   0.000000  -0.000000  -0.106550
     17       0.039192   0.034702   0.000000   0.092144  -0.062982  -0.000000
     18       0.000000  -0.000000   0.347405  -0.000002  -0.000000   0.576481
     19      -0.000000   0.000000   0.147954  -0.000001   0.000000   0.120978
     20      -0.012536   0.077921  -0.000003  -0.605293   0.595330   0.000000
     21      -0.000000  -0.000000  -0.077012   0.000000  -0.000000  -0.057835
     22      -0.000000  -0.000000   0.032680  -0.000000   0.000000   0.016486
     23      -0.120681  -0.115513  -0.000000  -0.026599   0.005821   0.000000
     24       0.000000   0.000000   0.333651  -0.000002   0.000000   0.208421
     25       0.000000   0.000000   0.236442  -0.000001   0.000000   0.145233
     26       0.497591   0.550990  -0.000001  -0.243906   0.305475  -0.000000
     27       0.000000   0.000000  -0.073519   0.000000  -0.000000  -0.050475
     28       0.000000   0.000000  -0.419793   0.000002  -0.000000  -0.214319
     29       0.485930   0.419295   0.000001   0.254817  -0.219697  -0.000000
                 18         19         20         21         22         23    
      0       0.029951   0.018829  -0.015051   0.012738   0.161665   0.135231
      1      -0.072755  -0.087898  -0.003844   0.057468   0.232325   0.206669
      2      -0.000000  -0.000000  -0.000000   0.000000   0.000000   0.000000
      3      -0.184898  -0.318602  -0.405973  -0.380002  -0.416992  -0.308094
      4      -0.178358  -0.269004  -0.222979  -0.154936  -0.028115   0.014391
      5      -0.000000  -0.000000  -0.000000  -0.000000  -0.000000  -0.000000
      6       0.024069   0.006135  -0.032367   0.003585   0.191694   0.166061
      7       0.093903  -0.071642  -0.515022  -0.516382  -0.318875  -0.204450
      8       0.000000   0.000000  -0.000000  -0.000000  -0.000000  -0.000000
      9      -0.060269  -0.038390   0.060483   0.077677  -0.159465  -0.246492
     10       0.048455   0.077513   0.066915   0.024100  -0.199540  -0.247453
     11       0.000000   0.000000   0.000000   0.000000  -0.000000  -0.000000
     12       0.522088   0.433790  -0.103017  -0.192732   0.199093   0.383223
     13       0.374010   0.342339  -0.013534  -0.133053  -0.043663   0.075122
     14       0.000000   0.000000  -0.000000  -0.000000   0.000000   0.000000
     15      -0.060267   0.038393   0.060483  -0.077678  -0.159465   0.246493
     16       0.048451  -0.077516   0.066914  -0.024100  -0.199540   0.247454
     17       0.000000   0.000000  -0.000000   0.000000   0.000000  -0.000000
     18       0.522063  -0.433819  -0.103018   0.192733   0.199092  -0.383223
     19       0.373991  -0.342360  -0.013534   0.133053  -0.043663  -0.075121
     20      -0.000000   0.000000   0.000000  -0.000000  -0.000000   0.000000
     21       0.029950  -0.018831  -0.015051  -0.012738   0.161665  -0.135231
     22      -0.072751   0.087902  -0.003844  -0.057468   0.232325  -0.206670
     23      -0.000000  -0.000000  -0.000000   0.000000  -0.000000   0.000000
     24      -0.184882   0.318614  -0.405971   0.380004  -0.416992   0.308095
     25      -0.178345   0.269015  -0.222978   0.154937  -0.028116  -0.014391
     26       0.000000  -0.000000   0.000000  -0.000000   0.000000  -0.000000
     27       0.024069  -0.006136  -0.032367  -0.003585   0.191693  -0.166062
     28       0.093908   0.071638  -0.515020   0.516384  -0.318873   0.204450
     29      -0.000000   0.000000   0.000000  -0.000000  -0.000000  -0.000000
                 24         25         26         27         28         29    
      0      -0.013411   0.018303   0.011048   0.001230  -0.062946   0.062738
      1      -0.022964   0.040254   0.040064   0.022848   0.029832  -0.029635
      2      -0.000000   0.000000   0.000000   0.000000  -0.000000   0.000000
      3      -0.146707   0.236057   0.220876   0.116209   0.185672  -0.184956
      4       0.270739  -0.448492  -0.422943  -0.220474  -0.375309   0.376060
      5       0.000000  -0.000000  -0.000000  -0.000000  -0.000000   0.000000
      6       0.302265  -0.423499  -0.309092  -0.086833   0.561322  -0.558318
      7      -0.008526   0.010419   0.006691   0.004731   0.002557  -0.002279
      8       0.000000  -0.000000  -0.000000  -0.000000   0.000000  -0.000000
      9       0.024585  -0.012868   0.014874   0.022689  -0.003511   0.003310
     10      -0.039333   0.014567  -0.035160  -0.052780   0.006717  -0.008090
     11       0.000000   0.000000  -0.000000  -0.000000  -0.000000  -0.000000
     12      -0.269563   0.122682  -0.201004  -0.314390   0.031320  -0.043735
     13       0.488080  -0.215149   0.364926   0.572403  -0.061617   0.075738
     14      -0.000000   0.000000  -0.000000  -0.000000  -0.000000  -0.000000
     15      -0.024585  -0.012869  -0.014873   0.022690   0.003510   0.003311
     16       0.039332   0.014568   0.035158  -0.052781  -0.006715  -0.008091
     17      -0.000000  -0.000000  -0.000000   0.000000   0.000000  -0.000000
     18       0.269562   0.122689   0.200991  -0.314396  -0.031310  -0.043741
     19      -0.488078  -0.215162  -0.364902   0.572415   0.061600   0.075750
     20       0.000000   0.000000   0.000000  -0.000000  -0.000000  -0.000000
     21       0.013411   0.018303  -0.011048   0.001230   0.062933   0.062751
     22       0.022964   0.040253  -0.040064   0.022849  -0.029826  -0.029642
     23      -0.000000  -0.000000   0.000000  -0.000000  -0.000000  -0.000000
     24       0.146705   0.236054  -0.220877   0.116216  -0.185633  -0.184996
     25      -0.270734  -0.448486   0.422945  -0.220488   0.375229   0.376140
     26      -0.000000  -0.000000   0.000000  -0.000000   0.000000   0.000000
     27      -0.302260  -0.423496   0.309099  -0.086845  -0.561203  -0.558437
     28       0.008526   0.010419  -0.006691   0.004732  -0.002556  -0.002279
     29       0.000000   0.000000  -0.000000   0.000000   0.000000   0.000000


-----------
IR SPECTRUM
-----------

 Mode   freq       eps      Int      T**2         TX        TY        TZ
       cm**-1   L/(mol*cm) km/mol    a.u.
----------------------------------------------------------------------------
  6:    179.39   0.000050    0.25  0.000088  (-0.000000 -0.000000  0.009356)
  7:    297.17   0.000544    2.75  0.000571  (-0.021706 -0.009998  0.000000)
  8:    516.83   0.000000    0.00  0.000000  ( 0.000000 -0.000000  0.000000)
  9:    538.95   0.001547    7.82  0.000895  (-0.000000 -0.000000 -0.029924)
 10:    778.67   0.000000    0.00  0.000000  (-0.000000 -0.000000  0.000000)
 11:    902.30   0.000000    0.00  0.000000  (-0.000000 -0.000000 -0.000000)
 12:    926.22   0.012528   63.31  0.004221  ( 0.000000  0.000000  0.064969)
 13:    929.11   0.000000    0.00  0.000000  ( 0.000000  0.000000  0.000001)
 14:    994.39   0.000447    2.26  0.000140  ( 0.010428  0.005626 -0.000000)
 15:    996.90   0.000000    0.00  0.000000  (-0.000000 -0.000000 -0.000000)
 16:   1055.08   0.004614   23.32  0.001365  (-0.000000 -0.000000  0.036943)
 17:   1223.28   0.000000    0.00  0.000000  ( 0.000000 -0.000000  0.000000)
 18:   1303.95   0.000478    2.42  0.000114  ( 0.004862 -0.009529 -0.000000)
 19:   1305.42   0.000000    0.00  0.000000  (-0.000000  0.000000  0.000000)
 20:   1397.96   0.000910    4.60  0.000203  (-0.002433 -0.014045  0.000000)
 21:   1453.35   0.000000    0.00  0.000000  ( 0.000000  0.000000 -0.000000)
 22:   1658.68   0.002849   14.40  0.000536  (-0.015362 -0.017322 -0.000000)
 23:   1715.77   0.000000    0.00  0.000000  ( 0.000000  0.000000  0.000000)
 24:   3127.86   0.000000    0.00  0.000000  (-0.000000 -0.000000 -0.000000)
 25:   3134.53   0.003579   18.08  0.000356  (-0.003002  0.018635  0.000000)
 26:   3140.17   0.000000    0.00  0.000000  ( 0.000000 -0.000000 -0.000000)
 27:   3142.78   0.002668   13.49  0.000265  ( 0.013228 -0.009486 -0.000000)
 28:   3231.91   0.000000    0.00  0.000000  (-0.000002  0.000001 -0.000000)
 29:   3232.29   0.004861   24.57  0.000469  ( 0.018248 -0.011678  0.000000)

* The epsilon (eps) is given for a Dirac delta lineshape.
** The dipole moment derivative (T) already includes vibrational overlap.

The first frequency considered to be a vibration is 6
The total number of vibrations considered is 24


--------------------------
THERMOCHEMISTRY AT 298.15K
--------------------------

Temperature         ... 298.15 K
Pressure            ... 1.00 atm
Total Mass          ... 54.09 AMU

Throughout the following assumptions are being made:
  (1) The electronic state is orbitally nondegenerate
  (2) There are no thermally accessible electronically excited states
  (3) Hindered rotations indicated by low frequency modes are not
      treated as such but are treated as vibrations and this may
      cause some error
  (4) All equations used are the standard statistical mechanics
      equations for an ideal gas
  (5) All vibrations are strictly harmonic

freq.     179.39  E(vib)   ...       0.37 
freq.     297.17  E(vib)   ...       0.27 
freq.     516.83  E(vib)   ...       0.13 
freq.     538.95  E(vib)   ...       0.12 
freq.     778.67  E(vib)   ...       0.05 
freq.     902.30  E(vib)   ...       0.03 
freq.     926.22  E(vib)   ...       0.03 
freq.     929.11  E(vib)   ...       0.03 
freq.     994.39  E(vib)   ...       0.02 
freq.     996.90  E(vib)   ...       0.02 
freq.    1055.08  E(vib)   ...       0.02 
freq.    1223.28  E(vib)   ...       0.01 
freq.    1303.95  E(vib)   ...       0.01 
freq.    1305.42  E(vib)   ...       0.01 
freq.    1397.96  E(vib)   ...       0.00 
freq.    1453.35  E(vib)   ...       0.00 
freq.    1658.68  E(vib)   ...       0.00 
freq.    1715.77  E(vib)   ...       0.00 
freq.    3127.86  E(vib)   ...       0.00 
freq.    3134.53  E(vib)   ...       0.00 
freq.    3140.17  E(vib)   ...       0.00 
freq.    3142.78  E(vib)   ...       0.00 
freq.    3231.91  E(vib)   ...       0.00 
freq.    3232.29  E(vib)   ...       0.00 

------------
INNER ENERGY
------------

The inner energy is: U= E(el) + E(ZPE) + E(vib) + E(rot) + E(trans)
    E(el)   - is the total energy from the electronic structure calculation
              = E(kin-el) + E(nuc-el) + E(el-el) + E(nuc-nuc)
    E(ZPE)  - the the zero temperature vibrational energy from the frequency calculation
    E(vib)  - the the finite temperature correction to E(ZPE) due to population
              of excited vibrational states
    E(rot)  - is the rotational thermal energy
    E(trans)- is the translational thermal energy

Summary of contributions to the inner energy U:
Electronic energy                ...   -155.90219644 Eh
Zero point energy                ...      0.08470904 Eh      53.16 kcal/mol
Thermal vibrational correction   ...      0.00182183 Eh       1.14 kcal/mol
Thermal rotational correction    ...      0.00141627 Eh       0.89 kcal/mol
Thermal translational correction ...      0.00141627 Eh       0.89 kcal/mol
-----------------------------------------------------------------------
Total thermal energy                   -155.81283303 Eh


Summary of corrections to the electronic energy:
(perhaps to be used in another calculation)
Total thermal correction                  0.00465437 Eh       2.92 kcal/mol
Non-thermal (ZPE) correction              0.08470904 Eh      53.16 kcal/mol
-----------------------------------------------------------------------
Total correction                          0.08936341 Eh      56.08 kcal/mol


--------
ENTHALPY
--------

The enthalpy is H = U + kB*T
                kB is Boltzmann's constant
Total free energy                 ...   -155.81283303 Eh 
Thermal Enthalpy correction       ...      0.00094421 Eh       0.59 kcal/mol
-----------------------------------------------------------------------
Total Enthalpy                    ...   -155.81188883 Eh


Note: Rotational entropy computed according to Herzberg 
Infrared and Raman Spectra, Chapter V,1, Van Nostrand Reinhold, 1945 
Point Group:  C2h, Symmetry Number:   2  
Rotational constants in cm-1:     1.397081     0.146782     0.132827 

Vibrational entropy computed according to the QRRHO of S. Grimme
Chem.Eur.J. 2012 18 9955


-------
ENTROPY
-------

The entropy contributions are T*S = T*(S(el)+S(vib)+S(rot)+S(trans))
     S(el)   - electronic entropy
     S(vib)  - vibrational entropy
     S(rot)  - rotational entropy
     S(trans)- translational entropy
The entropies will be listed as multiplied by the temperature to get
units of energy

Electronic entropy                ...      0.00000000 Eh      0.00 kcal/mol
Vibrational entropy               ...      0.00283523 Eh      1.78 kcal/mol
Rotational entropy                ...      0.01055736 Eh      6.62 kcal/mol
Translational entropy             ...      0.01800097 Eh     11.30 kcal/mol
-----------------------------------------------------------------------
Final entropy term                ...      0.03139356 Eh     19.70 kcal/mol

In case the symmetry of your molecule has not been determined correctly
or in case you have a reason to use a different symmetry number we print 
out the resulting rotational entropy values for sn=1,12 :
 --------------------------------------------------------
|  sn= 1 | S(rot)=       0.01121181 Eh      7.04 kcal/mol|
|  sn= 2 | S(rot)=       0.01055736 Eh      6.62 kcal/mol|
|  sn= 3 | S(rot)=       0.01017453 Eh      6.38 kcal/mol|
|  sn= 4 | S(rot)=       0.00990290 Eh      6.21 kcal/mol|
|  sn= 5 | S(rot)=       0.00969221 Eh      6.08 kcal/mol|
|  sn= 6 | S(rot)=       0.00952007 Eh      5.97 kcal/mol|
|  sn= 7 | S(rot)=       0.00937452 Eh      5.88 kcal/mol|
|  sn= 8 | S(rot)=       0.00924845 Eh      5.80 kcal/mol|
|  sn= 9 | S(rot)=       0.00913724 Eh      5.73 kcal/mol|
|  sn=10 | S(rot)=       0.00903776 Eh      5.67 kcal/mol|
|  sn=11 | S(rot)=       0.00894777 Eh      5.61 kcal/mol|
|  sn=12 | S(rot)=       0.00886561 Eh      5.56 kcal/mol|
 --------------------------------------------------------


-------------------
GIBBS FREE ENERGY
-------------------

The Gibbs free energy is G = H - T*S

Total enthalpy                    ...   -155.81188883 Eh 
Total entropy correction          ...     -0.03139356 Eh    -19.70 kcal/mol
-----------------------------------------------------------------------
Final Gibbs free energy         ...   -155.84328238 Eh

For completeness - the Gibbs free energy minus the electronic energy
G-E(el)                           ...      0.05891406 Eh     36.97 kcal/mol

--------------------------------------------------------------------------
WARNING: There was an error initializing an OpenFabrics device.

  Local host:   cnode16
  Local device: mlx5_0
--------------------------------------------------------------------------
[cnode16:210306] 7 more processes have sent help message help-mpi-btl-openib.txt / error in device init
[cnode16:210306] Set MCA parameter "orte_base_help_aggregate" to 0 to see all help / error messages

Timings for individual modules:

Sum of individual times         ...       41.980 sec (=   0.700 min)
GTO integral calculation        ...        3.709 sec (=   0.062 min)   8.8 %
SCF iterations                  ...       19.123 sec (=   0.319 min)  45.6 %
SCF Gradient evaluation         ...        7.827 sec (=   0.130 min)  18.6 %
Geometry relaxation             ...        0.143 sec (=   0.002 min)   0.3 %
Analytical frequency calculation...       11.179 sec (=   0.186 min)  26.6 %
                             ****ORCA TERMINATED NORMALLY****
TOTAL RUN TIME: 0 days 0 hours 0 minutes 46 seconds 212 msec

Sender: Unischeduler System <lcz@mgt01>
Subject: Job 121190: <#!/bin/bash
#BSUB -J intel
#BSUB -o trans-1,3-bivinyl-opt.out
#BSUB -n 8
#BSUB -q cqueue
#BSUB -R span[hosts=1]
export LD_LIBRARY_PATH=/apps/software/openmpi-4.1.1/lib:/apps/software/orca_5_0_0:$LD_LIBRARY_PATH
export PATH=/apps/software/openmpi-4.1.1/bin:/apps/software/orca_5_0_0:$PATH
/apps/software/orca_5_0_0/orca trans-1,3-bivinyl-opt.inp >& trans-1,3-bivinyl-opt.out> Done

Job <#!/bin/bash
#BSUB -J intel
#BSUB -o trans-1,3-bivinyl-opt.out
#BSUB -n 8
#BSUB -q cqueue
#BSUB -R span[hosts=1]
export LD_LIBRARY_PATH=/apps/software/openmpi-4.1.1/lib:/apps/software/orca_5_0_0:$LD_LIBRARY_PATH
export PATH=/apps/software/openmpi-4.1.1/bin:/apps/software/orca_5_0_0:$PATH
/apps/software/orca_5_0_0/orca trans-1,3-bivinyl-opt.inp >& trans-1,3-bivinyl-opt.out> was submitted from host <mgt01> by user <lcz>.
Job was executed on host(s) <8*cnode16>, in queue <cqueue>, as user <lcz>.
</apps/users/lcz> was used as the home directory.
</apps/users/lcz/exe9/task1/orca/bivinyl> was used as the working directory.
Started at 2022-04-21 11:53:40
Results reported at 2022-04-21 11:54:26

Your job looked like:

------------------------------------------------------------
# User input
#!/bin/bash
#BSUB -J intel
#BSUB -o trans-1,3-bivinyl-opt.out
#BSUB -n 8
#BSUB -q cqueue
#BSUB -R span[hosts=1]
export LD_LIBRARY_PATH=/apps/software/openmpi-4.1.1/lib:/apps/software/orca_5_0_0:$LD_LIBRARY_PATH
export PATH=/apps/software/openmpi-4.1.1/bin:/apps/software/orca_5_0_0:$PATH
/apps/software/orca_5_0_0/orca trans-1,3-bivinyl-opt.inp >& trans-1,3-bivinyl-opt.out
------------------------------------------------------------

Successfully completed.

Resource usage summary:

    CPU time   :          293.66 sec.
    Max Memory :              1455 MB
    Max Processes  :              13


The output (if any) follows:

