 Entering Gaussian System, Link 0=/apps/software/g16/g16
 Initial command:
 /apps/software/g16/l1.exe "/scratch/Gau-284360.inp" -scrdir="/scratch/"
 Entering Link 1 = /apps/software/g16/l1.exe PID=    284361.
  
 Copyright (c) 1988,1990,1992,1993,1995,1998,2003,2009,2016,
            Gaussian, Inc.  All Rights Reserved.
  
 This is part of the Gaussian(R) 16 program.  It is based on
 the Gaussian(R) 09 system (copyright 2009, Gaussian, Inc.),
 the Gaussian(R) 03 system (copyright 2003, Gaussian, Inc.),
 the Gaussian(R) 98 system (copyright 1998, Gaussian, Inc.),
 the Gaussian(R) 94 system (copyright 1995, Gaussian, Inc.),
 the Gaussian 92(TM) system (copyright 1992, Gaussian, Inc.),
 the Gaussian 90(TM) system (copyright 1990, Gaussian, Inc.),
 the Gaussian 88(TM) system (copyright 1988, Gaussian, Inc.),
 the Gaussian 86(TM) system (copyright 1986, Carnegie Mellon
 University), and the Gaussian 82(TM) system (copyright 1983,
 Carnegie Mellon University). Gaussian is a federally registered
 trademark of Gaussian, Inc.
  
 This software contains proprietary and confidential information,
 including trade secrets, belonging to Gaussian, Inc.
  
 This software is provided under written license and may be
 used, copied, transmitted, or stored only in accord with that
 written license.
  
 The following legend is applicable only to US Government
 contracts under FAR:
  
                    RESTRICTED RIGHTS LEGEND
  
 Use, reproduction and disclosure by the US Government is
 subject to restrictions as set forth in subparagraphs (a)
 and (c) of the Commercial Computer Software - Restricted
 Rights clause in FAR 52.227-19.
  
 Gaussian, Inc.
 340 Quinnipiac St., Bldg. 40, Wallingford CT 06492
  
  
 ---------------------------------------------------------------
 Warning -- This program may not be used in any manner that
 competes with the business of Gaussian, Inc. or will provide
 assistance to any competitor of Gaussian, Inc.  The licensee
 of this program is prohibited from giving any competitor of
 Gaussian, Inc. access to this program.  By using this program,
 the user acknowledges that Gaussian, Inc. is engaged in the
 business of creating and licensing software in the field of
 computational chemistry and represents and warrants to the
 licensee that it is not a competitor of Gaussian, Inc. and that
 it will not use this program in any manner prohibited above.
 ---------------------------------------------------------------
  

 Cite this work as:
 Gaussian 16, Revision A.03,
 M. J. Frisch, G. W. Trucks, H. B. Schlegel, G. E. Scuseria, 
 M. A. Robb, J. R. Cheeseman, G. Scalmani, V. Barone, 
 G. A. Petersson, H. Nakatsuji, X. Li, M. Caricato, A. V. Marenich, 
 J. Bloino, B. G. Janesko, R. Gomperts, B. Mennucci, H. P. Hratchian, 
 J. V. Ortiz, A. F. Izmaylov, J. L. Sonnenberg, D. Williams-Young, 
 F. Ding, F. Lipparini, F. Egidi, J. Goings, B. Peng, A. Petrone, 
 T. Henderson, D. Ranasinghe, V. G. Zakrzewski, J. Gao, N. Rega, 
 G. Zheng, W. Liang, M. Hada, M. Ehara, K. Toyota, R. Fukuda, 
 J. Hasegawa, M. Ishida, T. Nakajima, Y. Honda, O. Kitao, H. Nakai, 
 T. Vreven, K. Throssell, J. A. Montgomery, Jr., J. E. Peralta, 
 F. Ogliaro, M. J. Bearpark, J. J. Heyd, E. N. Brothers, K. N. Kudin, 
 V. N. Staroverov, T. A. Keith, R. Kobayashi, J. Normand, 
 K. Raghavachari, A. P. Rendell, J. C. Burant, S. S. Iyengar, 
 J. Tomasi, M. Cossi, J. M. Millam, M. Klene, C. Adamo, R. Cammi, 
 J. W. Ochterski, R. L. Martin, K. Morokuma, O. Farkas, 
 J. B. Foresman, and D. J. Fox, Gaussian, Inc., Wallingford CT, 2016.
 
 ******************************************
 Gaussian 16:  ES64L-G16RevA.03 25-Dec-2016
                22-May-2022 
 ******************************************
 %oldchk=BH-0.9-UHF-G.chk
 %chk=BH-0.9-UCCSD-G.chk
 Copying data from "BH-0.9-UHF-G.chk" to current chk file "BH-0.9-UCCSD-G.chk"
 IOpt=  2 FromEx=T IUOpen= 4 IOptOp= 5 NList=   0 IFRang= 0 IUIn= 4 IUOut= 2.
 -------------------------------------
 #p UHF/aug-cc-pVQZ guess=read CCSD=FC
 -------------------------------------
 1/38=1,172=1/1;
 2/12=2,17=6,18=5,40=1/2;
 3/5=16,6=2,7=10,11=2,25=1,30=1,116=2/1,2,3;
 4/5=1/1;
 5/5=2,38=6/2;
 8/6=4,9=120000,10=1/1,4;
 9/5=7/13;
 6/7=2,8=2,9=2,10=2/1;
 99/5=1,9=1/99;
 Leave Link    1 at Sun May 22 18:37:56 2022, MaxMem=   104857600 cpu:               0.0 elap:               0.0
 (Enter /apps/software/g16/l101.exe)
 ------------------------
 BH UCCSD at 0.9 Angstrom
 ------------------------
 Symbolic Z-matrix:
 Charge =  0 Multiplicity = 1
 B                     0.        0.        0. 
 H                     0.9       0.        0. 
 
 ITRead=  0  0
 MicOpt= -1 -1
 NAtoms=      2 NQM=        2 NQMF=       0 NMMI=      0 NMMIF=      0
                NMic=       0 NMicF=      0.
                    Isotopes and Nuclear Properties:
 (Nuclear quadrupole moments (NQMom) in fm**2, nuclear magnetic moments (NMagM)
  in nuclear magnetons)

  Atom         1           2
 IAtWgt=          11           1
 AtmWgt=  11.0093053   1.0078250
 NucSpn=           3           1
 AtZEff=  -0.0000000  -0.0000000
 NQMom=    4.0590000   0.0000000
 NMagM=    2.6886370   2.7928460
 AtZNuc=   5.0000000   1.0000000
 Leave Link  101 at Sun May 22 18:37:56 2022, MaxMem=   104857600 cpu:               0.1 elap:               0.1
 (Enter /apps/software/g16/l202.exe)
                          Input orientation:                          
 ---------------------------------------------------------------------
 Center     Atomic      Atomic             Coordinates (Angstroms)
 Number     Number       Type             X           Y           Z
 ---------------------------------------------------------------------
      1          5           0        0.000000    0.000000    0.000000
      2          1           0        0.900000    0.000000    0.000000
 ---------------------------------------------------------------------
 Stoichiometry    BH
 Framework group  C*V[C*(HB)]
 Deg. of freedom     1
 Full point group                 C*V     NOp   4
 Largest Abelian subgroup         C2V     NOp   4
 Largest concise Abelian subgroup C1      NOp   1
                         Standard orientation:                         
 ---------------------------------------------------------------------
 Center     Atomic      Atomic             Coordinates (Angstroms)
 Number     Number       Type             X           Y           Z
 ---------------------------------------------------------------------
      1          5           0        0.000000    0.000000    0.150000
      2          1           0        0.000000    0.000000   -0.750000
 ---------------------------------------------------------------------
 Rotational constants (GHZ):           0.0000000         675.7528621         675.7528621
 Leave Link  202 at Sun May 22 18:37:56 2022, MaxMem=   104857600 cpu:               0.0 elap:               0.0
 (Enter /apps/software/g16/l301.exe)
 Standard basis: Aug-CC-pVQZ (5D, 7F)
 Ernie: Thresh=  0.10000D-02 Tol=  0.10000D-05 Strict=F.
 Ernie:  4 primitive shells out of 54 were deleted.
 There are    68 symmetry adapted cartesian basis functions of A1  symmetry.
 There are    18 symmetry adapted cartesian basis functions of A2  symmetry.
 There are    37 symmetry adapted cartesian basis functions of B1  symmetry.
 There are    37 symmetry adapted cartesian basis functions of B2  symmetry.
 There are    50 symmetry adapted basis functions of A1  symmetry.
 There are    16 symmetry adapted basis functions of A2  symmetry.
 There are    30 symmetry adapted basis functions of B1  symmetry.
 There are    30 symmetry adapted basis functions of B2  symmetry.
   126 basis functions,   180 primitive gaussians,   160 cartesian basis functions
     3 alpha electrons        3 beta electrons
       nuclear repulsion energy         2.9398733940 Hartrees.
 IExCor=    0 DFT=F Ex=HF Corr=None ExCW=0 ScaHFX=  1.000000
 ScaDFX=  1.000000  1.000000  1.000000  1.000000 ScalE2=  1.000000  1.000000
 IRadAn=      5 IRanWt=     -1 IRanGd=            0 ICorTp=0 IEmpDi=  4
 NAtoms=    2 NActive=    2 NUniq=    2 SFac= 1.00D+00 NAtFMM=   60 NAOKFM=F Big=F
 Integral buffers will be    131072 words long.
 Raffenetti 2 integral format.
 Two-electron integral symmetry is turned on.
 Leave Link  301 at Sun May 22 18:37:56 2022, MaxMem=   104857600 cpu:               0.1 elap:               0.1
 (Enter /apps/software/g16/l302.exe)
 NPDir=0 NMtPBC=     1 NCelOv=     1 NCel=       1 NClECP=     1 NCelD=      1
         NCelK=      1 NCelE2=     1 NClLst=     1 CellRange=     0.0.
 One-electron integrals computed using PRISM.
 One-electron integral symmetry used in STVInt
 NBasis=   126 RedAO= T EigKep=  4.25D-05  NBF=    50    16    30    30
 NBsUse=   126 1.00D-06 EigRej= -1.00D+00 NBFU=    50    16    30    30
 Leave Link  302 at Sun May 22 18:37:56 2022, MaxMem=   104857600 cpu:               0.1 elap:               0.1
 (Enter /apps/software/g16/l303.exe)
 DipDrv:  MaxL=1.
 Leave Link  303 at Sun May 22 18:37:56 2022, MaxMem=   104857600 cpu:               0.0 elap:               0.0
 (Enter /apps/software/g16/l401.exe)
 Initial guess from the checkpoint file:  "BH-0.9-UCCSD-G.chk"
 B after Tr=     0.000000    0.000000    0.000000
         Rot=    1.000000    0.000000    0.000000    0.000000 Ang=   0.00 deg.
 Guess basis will be translated and rotated to current coordinates.
 JPrj=2 DoOrth=T DoCkMO=T.
 Initial guess orbital symmetries:
 Alpha Orbitals:
       Occupied  (SG) (SG) (?A)
       Virtual   (?A) (?A) (?A) (?A) (?A) (?A) (?A) (?A) (?A) (?A)
                 (?A) (?A) (?A) (?A) (?A) (?A) (?A) (?A) (?A) (?A)
                 (?A) (?A) (?A) (?A) (?A) (?A) (?A) (?A) (?A) (?A)
                 (?A) (?A) (?B) (?B) (?B) (?B) (?B) (?C) (?C) (?C)
                 (?C) (?D) (?D) (?D) (?D) (?D) (?D) (?D) (?D) (?D)
                 (?D) (?D) (?D) (?D) (?D) (?D) (?D) (?E) (?E) (?E)
                 (?E) (?E) (SG) (PI) (PI) (SG) (?F) (?F) (?F) (?F)
                 (SG) (PI) (PI) (SG) (PI) (PI) (?G) (?G) (?G) (DLTA)
                 (DLTA) (?H) (?H) (?H) (?H) (?H) (?H) (?H) (?H)
                 (?H) (?H) (?H) (?H) (?H) (?H) (PI) (PI) (SG) (PI)
                 (PI) (DLTA) (DLTA) (SG) (SG) (PI) (PI) (PHI) (PHI)
                 (?I) (?I) (?I) (PI) (PI) (SG) (DLTA) (DLTA) (PI)
                 (PI) (SG) (PI) (PI) (SG) (SG)
 Beta  Orbitals:
       Occupied  (SG) (SG) (?A)
       Virtual   (?A) (?A) (?A) (?A) (?A) (?A) (?A) (?A) (?A) (?A)
                 (?A) (?A) (?A) (?A) (?A) (?A) (?A) (?A) (?A) (?A)
                 (?A) (?A) (?A) (?A) (?A) (?A) (?A) (?A) (?A) (?A)
                 (?A) (?A) (?B) (?B) (?B) (?B) (?B) (?C) (?C) (?C)
                 (?C) (?D) (?D) (?D) (?D) (?D) (?D) (?D) (?D) (?D)
                 (?D) (?D) (?D) (?D) (?D) (?D) (?D) (?E) (?E) (?E)
                 (?E) (?E) (SG) (PI) (PI) (SG) (?F) (?F) (?F) (?F)
                 (SG) (PI) (PI) (SG) (PI) (PI) (?G) (?G) (?G) (DLTA)
                 (DLTA) (?H) (?H) (?H) (?H) (?H) (?H) (?H) (?H)
                 (?H) (?H) (?H) (?H) (?H) (?H) (PI) (PI) (SG) (PI)
                 (PI) (DLTA) (DLTA) (SG) (SG) (PI) (PI) (PHI) (PHI)
                 (?I) (?I) (?I) (PI) (PI) (SG) (DLTA) (DLTA) (PI)
                 (PI) (SG) (PI) (PI) (SG) (SG)
 Initial guess <Sx>= 0.0000 <Sy>= 0.0000 <Sz>= 0.0000 <S**2>= 0.5456 S= 0.3920
 Leave Link  401 at Sun May 22 18:37:56 2022, MaxMem=   104857600 cpu:               0.1 elap:               0.1
 (Enter /apps/software/g16/l502.exe)
 Keep R1 and R2 ints in memory in symmetry-blocked form, NReq=40143665.
 FoFCou: FMM=F IPFlag=           0 FMFlag=           0 FMFlg1=           0
         NFxFlg=           0 DoJE=F BraDBF=F KetDBF=F FulRan=T
         wScrn=  0.000000 ICntrl=       600 IOpCl=  0 I1Cent=           0 NGrid=           0
         NMat0=    1 NMatS0=   8001 NMatT0=    0 NMatD0=    1 NMtDS0=    0 NMtDT0=    0
 Petite list used in FoFCou.
 UHF open shell SCF:
 Using DIIS extrapolation, IDIIS=  1040.
 NGot=   104857600 LenX=    88563632 LenY=    88537591
 Requested convergence on RMS density matrix=1.00D-08 within 128 cycles.
 Requested convergence on MAX density matrix=1.00D-06.
 Requested convergence on             energy=1.00D-06.
 No special actions if energy rises.
 An orbital has undefined symmetry, so N**3 symmetry is turned off.

 Cycle   1  Pass 1  IDiag  1:
 Density matrix breaks symmetry, PCut= 1.00D-07
 Density matrix has no symmetry -- integrals replicated.
 E= -25.0687224259372    
 DIIS: error= 3.01D-09 at cycle   1 NSaved=   1.
 NSaved= 1 IEnMin= 1 EnMin= -25.0687224259372     IErMin= 1 ErrMin= 3.01D-09
 ErrMax= 3.01D-09  0.00D+00 EMaxC= 1.00D-01 BMatC= 1.04D-15 BMatP= 1.04D-15
 IDIUse=1 WtCom= 1.00D+00 WtEn= 0.00D+00
 Coeff-Com:  0.100D+01
 Coeff:      0.100D+01
 Gap=     0.395 Goal=   None    Shift=    0.000
 Gap=     0.395 Goal=   None    Shift=    0.000
 RMSDP=2.17D-10 MaxDP=5.46D-09              OVMax= 1.82D-08

 Density matrix breaks symmetry, PCut= 1.00D-07
 Density matrix has no symmetry -- integrals replicated.
 SCF Done:  E(UHF) =  -25.0687224259     A.U. after    1 cycles
            NFock=  1  Conv=0.22D-09     -V/T= 1.9794
 <Sx>= 0.0000 <Sy>= 0.0000 <Sz>= 0.0000 <S**2>= 0.5456 S= 0.3920
 <L.S>=  0.00000000000    
 KE= 2.559716003542D+01 PE=-6.413560991674D+01 EE= 1.052985406139D+01
 Annihilation of the first spin contaminant:
 S**2 before annihilation     0.5456,   after     0.0040
 Leave Link  502 at Sun May 22 18:38:00 2022, MaxMem=   104857600 cpu:               3.6 elap:               3.6
 (Enter /apps/software/g16/l801.exe)
 Windowed orbitals will be sorted by symmetry type.
 ExpMin= 1.88D-02 ExpMax= 2.39D+04 ExpMxC= 2.30D+02 IAcc=3 IRadAn=         5 AccDes= 0.00D+00
 HarFok:  IExCor=  205 AccDes= 0.00D+00 IRadAn=         5 IDoV=-2 UseB2=F ITyADJ=14
 ICtDFT= 12500011 ScaDFX=  1.000000  1.000000  1.000000  1.000000
 Largest valence mixing into a core orbital is  2.84D-04
 Largest core mixing into a valence orbital is  3.79D-05
 Largest valence mixing into a core orbital is  2.84D-04
 Largest core mixing into a valence orbital is  3.79D-05
 Range of M.O.s used for correlation:     2   126
 NBasis=   126 NAE=     3 NBE=     3 NFC=     1 NFV=     0
 NROrb=    125 NOA=     2 NOB=     2 NVA=   123 NVB=   123

 **** Warning!!: The largest alpha MO coefficient is  0.33092344D+02


 **** Warning!!: The largest beta MO coefficient is  0.33092344D+02

 Leave Link  801 at Sun May 22 18:38:00 2022, MaxMem=   104857600 cpu:               0.1 elap:               0.1
 (Enter /apps/software/g16/l804.exe)
 Open-shell transformation, MDV=   104857600 ITran=4 ISComp=1.
 Unit  1 TFree=        991730 TCopy=        422292.
 Semi-Direct transformation.
 ModeAB=           2 MOrb=             2 LenV=     104170716
 LASXX=      1914004 LTotXX=     1914004 LenRXX=     1914004
 LTotAB=     1960875 MaxLAS=     3220000 LenRXY=     3220000
 NonZer=     3828008 LenScr=     6455808 LnRSAI=           0
 LnScr1=           0 LExtra=           0 Total=     11589812
 MaxDsk=          -1 SrtSym=           F ITran=            4
 DoSDTr:  NPSUse=  1
 JobTyp=1 Pass  1:  I=   1 to   2.
 (rs|ai) integrals will be sorted in core.
 Complete sort for first half transformation.
 First half transformation complete.
 Complete sort for second half transformation.
 Second half transformation complete.
 ModeAB=           2 MOrb=             2 LenV=     104170716
 LASXX=      1914004 LTotXX=     1914004 LenRXX=     3220000
 LTotAB=     1898874 MaxLAS=     3220000 LenRXY=     1898874
 NonZer=     3828008 LenScr=     6455808 LnRSAI=           0
 LnScr1=           0 LExtra=           0 Total=     11574682
 MaxDsk=          -1 SrtSym=           F ITran=            4
 DoSDTr:  NPSUse=  1
 JobTyp=2 Pass  1:  I=   1 to   2.
 (rs|ai) integrals will be sorted in core.
 Complete sort for first half transformation.
 First half transformation complete.
 Complete sort for second half transformation.
 Second half transformation complete.
 SymMOI:  orbitals are not symmetric.
 Spin components of T(2) and E(2):
     alpha-alpha T2 =       0.9676169636D-03 E2=     -0.2533193676D-02
     alpha-beta  T2 =       0.2144917305D-01 E2=     -0.5905272477D-01
     beta-beta   T2 =       0.9676169636D-03 E2=     -0.2533193676D-02
 ANorm=    0.1011624637D+01
 E2 =    -0.6411911212D-01 EUMP2 =    -0.25132841538055D+02
 (S**2,0)=  0.54560D+00           (S**2,1)=  0.52870D+00
 E(PUHF)=      -0.25076942359D+02        E(PMP2)=      -0.25140934630D+02
 Leave Link  804 at Sun May 22 18:38:10 2022, MaxMem=   104857600 cpu:              10.3 elap:              10.3
 (Enter /apps/software/g16/l913.exe)
 CIDS:  MDV=   104857600.
 Frozen-core window:  NFC=   1 NFV=   0.
 IFCWin=0 IBDFC=1 NFBD=     0     0 NFCmp=     0     0 NFFFC=     0     0
 Using original routines for 1st iteration.
 Using DD4UQ or CC4UQ for 2nd and later iterations.
 Keep R2 and R3 ints in memory in symmetry-blocked form, NReq=40147367.
 FoFCou: FMM=F IPFlag=           0 FMFlag=           0 FMFlg1=           0
         NFxFlg=           0 DoJE=F BraDBF=F KetDBF=F FulRan=T
         wScrn=  0.000000 ICntrl=       600 IOpCl=  0 I1Cent=           0 NGrid=           0
         NMat0=    1 NMatS0=   8001 NMatT0=    0 NMatD0=    1 NMtDS0=    0 NMtDT0=    0
 Petite list used in FoFCou.
 CIDS: In Core Option IDoMem=           1.
 Coupled Cluster theory with single and double substitutions
 ===========================================================
 Iterations=  50 Convergence= 0.100D-06
 Produce multiple copies of IABC intergrals
 Iteration Nr.   1
 **********************
 DD1Dir will call FoFMem   1 times, MxPair=        10
 NAB=     4 NAA=     1 NBB=     1.
 E(PMP3)=      -0.25151967062D+02
 MP4(R+Q)=  0.10080427D-02
 Maximum subspace dimension=  5
 A-vector RMS=  2.9854681D-03 Max=  1.1800231D-02 conv= 1.00D-05.
 RLE energy=       -0.0765141529
 E3=       -0.11385029D-01        EUMP3=      -0.25144226567D+02
 E4(DQ)=   -0.29902752D-02        UMP4(DQ)=   -0.25147216843D+02
 E4(SDQ)=  -0.35788629D-02        UMP4(SDQ)=  -0.25147805430D+02
 VARIATIONAL ENERGIES WITH THE FIRST-ORDER WAVEFUNCTION:
 DE(Corr)= -0.74506199E-01 E(Corr)=     -25.143228625    
 NORM(A)=   0.10201375D+01
 Iteration Nr.   2
 **********************
 DD1Dir will call FoFMem   1 times, MxPair=        10
 NAB=     4 NAA=     1 NBB=     1.
 A-vector RMS=  2.4334252D-03 Max=  1.1995643D-02 conv= 1.00D-05.
 RLE energy=       -0.0821791924
 DE(Corr)= -0.79165683E-01 E(CORR)=     -25.147888109     Delta=-4.66D-03
 NORM(A)=   0.10295752D+01
 Iteration Nr.   3
 **********************
 DD1Dir will call FoFMem   1 times, MxPair=        10
 NAB=     4 NAA=     1 NBB=     1.
 A-vector RMS=  2.1468941D-03 Max=  1.1285802D-02 conv= 1.00D-05.
 RLE energy=       -0.0855522153
 DE(Corr)= -0.82226311E-01 E(CORR)=     -25.150948737     Delta=-3.06D-03
 NORM(A)=   0.10515098D+01
 Iteration Nr.   4
 **********************
 DD1Dir will call FoFMem   1 times, MxPair=        10
 NAB=     4 NAA=     1 NBB=     1.
 A-vector RMS=  1.5731309D-03 Max=  8.1181651D-03 conv= 1.00D-05.
 RLE energy=       -0.0885846213
 DE(Corr)= -0.85583358E-01 E(CORR)=     -25.154305784     Delta=-3.36D-03
 NORM(A)=   0.10926115D+01
 Iteration Nr.   5
 **********************
 DD1Dir will call FoFMem   1 times, MxPair=        10
 NAB=     4 NAA=     1 NBB=     1.
 A-vector RMS=  9.5390716D-04 Max=  4.7199847D-03 conv= 1.00D-05.
 RLE energy=       -0.0902368055
 DE(Corr)= -0.88476551E-01 E(CORR)=     -25.157198977     Delta=-2.89D-03
 NORM(A)=   0.11336245D+01
 Iteration Nr.   6
 **********************
 DD1Dir will call FoFMem   1 times, MxPair=        10
 NAB=     4 NAA=     1 NBB=     1.
 A-vector RMS=  3.8664006D-04 Max=  2.3693637D-03 conv= 1.00D-05.
 RLE energy=       -0.0910677625
 DE(Corr)= -0.90290349E-01 E(CORR)=     -25.159012775     Delta=-1.81D-03
 NORM(A)=   0.11510492D+01
 Iteration Nr.   7
 **********************
 DD1Dir will call FoFMem   1 times, MxPair=        10
 NAB=     4 NAA=     1 NBB=     1.
 A-vector RMS=  1.7048806D-04 Max=  1.4022609D-03 conv= 1.00D-05.
 RLE energy=       -0.0910963834
 DE(Corr)= -0.90999369E-01 E(CORR)=     -25.159721795     Delta=-7.09D-04
 NORM(A)=   0.11536827D+01
 Iteration Nr.   8
 **********************
 DD1Dir will call FoFMem   1 times, MxPair=        10
 NAB=     4 NAA=     1 NBB=     1.
 A-vector RMS=  7.1687277D-05 Max=  5.1533160D-04 conv= 1.00D-05.
 RLE energy=       -0.0911605842
 DE(Corr)= -0.91080690E-01 E(CORR)=     -25.159803116     Delta=-8.13D-05
 NORM(A)=   0.11554532D+01
 Iteration Nr.   9
 **********************
 DD1Dir will call FoFMem   1 times, MxPair=        10
 NAB=     4 NAA=     1 NBB=     1.
 A-vector RMS=  3.1184444D-05 Max=  2.4114307D-04 conv= 1.00D-05.
 RLE energy=       -0.0911627944
 DE(Corr)= -0.91150219E-01 E(CORR)=     -25.159872645     Delta=-6.95D-05
 NORM(A)=   0.11560301D+01
 Iteration Nr.  10
 **********************
 DD1Dir will call FoFMem   1 times, MxPair=        10
 NAB=     4 NAA=     1 NBB=     1.
 A-vector RMS=  1.0053567D-05 Max=  8.8857487D-05 conv= 1.00D-05.
 RLE energy=       -0.0911509604
 DE(Corr)= -0.91160978E-01 E(CORR)=     -25.159883404     Delta=-1.08D-05
 NORM(A)=   0.11559909D+01
 Iteration Nr.  11
 **********************
 DD1Dir will call FoFMem   1 times, MxPair=        10
 NAB=     4 NAA=     1 NBB=     1.
 A-vector RMS=  4.0940851D-06 Max=  4.1845854D-05 conv= 1.00D-05.
 RLE energy=       -0.0911437775
 DE(Corr)= -0.91152540E-01 E(CORR)=     -25.159874966     Delta= 8.44D-06
 NORM(A)=   0.11558890D+01
 Iteration Nr.  12
 **********************
 DD1Dir will call FoFMem   1 times, MxPair=        10
 NAB=     4 NAA=     1 NBB=     1.
 A-vector RMS=  2.6336996D-06 Max=  1.3090218D-05 conv= 1.00D-05.
 RLE energy=       -0.0911391025
 DE(Corr)= -0.91144818E-01 E(CORR)=     -25.159867244     Delta= 7.72D-06
 NORM(A)=   0.11558006D+01
 Iteration Nr.  13
 **********************
 DD1Dir will call FoFMem   1 times, MxPair=        10
 NAB=     4 NAA=     1 NBB=     1.
 A-vector RMS=  2.2536440D-06 Max=  1.0682418D-05 conv= 1.00D-05.
 RLE energy=       -0.0911369512
 DE(Corr)= -0.91140270E-01 E(CORR)=     -25.159862696     Delta= 4.55D-06
 NORM(A)=   0.11557321D+01
 Iteration Nr.  14
 **********************
 DD1Dir will call FoFMem   1 times, MxPair=        10
 NAB=     4 NAA=     1 NBB=     1.
 A-vector RMS=  1.5320172D-06 Max=  7.5337214D-06 conv= 1.00D-05.
 RLE energy=       -0.0911349457
 DE(Corr)= -0.91137496E-01 E(CORR)=     -25.159859922     Delta= 2.77D-06
 NORM(A)=   0.11556712D+01
 Iteration Nr.  15
 **********************
 DD1Dir will call FoFMem   1 times, MxPair=        10
 NAB=     4 NAA=     1 NBB=     1.
 A-vector RMS=  9.4835562D-07 Max=  4.7262989D-06 conv= 1.00D-05.
 RLE energy=       -0.0911340642
 DE(Corr)= -0.91135197E-01 E(CORR)=     -25.159857623     Delta= 2.30D-06
 NORM(A)=   0.11556388D+01
 Iteration Nr.  16
 **********************
 DD1Dir will call FoFMem   1 times, MxPair=        10
 NAB=     4 NAA=     1 NBB=     1.
 A-vector RMS=  4.3865695D-07 Max=  2.0138315D-06 conv= 1.00D-05.
 RLE energy=       -0.0911337661
 DE(Corr)= -0.91134108E-01 E(CORR)=     -25.159856534     Delta= 1.09D-06
 NORM(A)=   0.11556288D+01
 Iteration Nr.  17
 **********************
 DD1Dir will call FoFMem   1 times, MxPair=        10
 NAB=     4 NAA=     1 NBB=     1.
 A-vector RMS=  1.9336400D-07 Max=  7.7019238D-07 conv= 1.00D-05.
 RLE energy=       -0.0911336540
 DE(Corr)= -0.91133763E-01 E(CORR)=     -25.159856189     Delta= 3.45D-07
 NORM(A)=   0.11556261D+01
 Iteration Nr.  18
 **********************
 DD1Dir will call FoFMem   1 times, MxPair=        10
 NAB=     4 NAA=     1 NBB=     1.
 A-vector RMS=  8.2072630D-08 Max=  3.3338789D-07 conv= 1.00D-05.
 RLE energy=       -0.0911336213
 DE(Corr)= -0.91133650E-01 E(CORR)=     -25.159856076     Delta= 1.13D-07
 NORM(A)=   0.11556258D+01
 Iteration Nr.  19
 **********************
 DD1Dir will call FoFMem   1 times, MxPair=        10
 NAB=     4 NAA=     1 NBB=     1.
 A-vector RMS=  3.7595819D-08 Max=  1.6832030D-07 conv= 1.00D-05.
 RLE energy=       -0.0911336054
 DE(Corr)= -0.91133620E-01 E(CORR)=     -25.159856046     Delta= 3.06D-08
 NORM(A)=   0.11556258D+01
 CI/CC converged in   19 iterations to DelEn= 3.06D-08 Conv= 1.00D-07 ErrA1= 3.76D-08 Conv= 1.00D-05
 Wavefunction amplitudes converged. E(Corr)=     -25.159856046    
 Dominant configurations:
 ***********************
 Spin Case        I    J    A    B          Value
    AA            3         6           -0.138789D+00
    AA            3         9            0.228595D+00
    BB            3         6           -0.138789D+00
    BB            3         9            0.228595D+00
 Largest amplitude= 2.29D-01

 S**2, projected HF & approx projected MPn energies after annihilation of
 unwanted spin states (see manual for definitions):

 spins       (S**2,0) (S**2,1)    PUHF        PMP2        PMP3        PMP4
 annihilated
 s+1        -0.00199 -0.00027  -25.076942  -25.140935  -25.151967
 s+1,s+2     0.00000  0.00000  -25.076616  -25.140616  -25.151663

 Discarding MO integrals.
 Leave Link  913 at Sun May 22 18:38:20 2022, MaxMem=   104857600 cpu:               9.8 elap:               9.8
 (Enter /apps/software/g16/l601.exe)
 Copying SCF densities to generalized density rwf, IOpCl= 1 IROHF=0.
 SCF density gives NOpUse=  1 NOpAll=  4.
 Marking SCF density as not fully symmetric.

 **********************************************************************

            Population analysis using the SCF density.

 **********************************************************************

 Orbital symmetries:
 Alpha Orbitals:
       Occupied  (SG) (SG) (?A)
       Virtual   (?A) (?A) (?A) (?A) (?A) (?A) (?A) (?A) (?A) (?A)
                 (?A) (?A) (?A) (?A) (?A) (?A) (?A) (?A) (?A) (?A)
                 (?A) (?A) (?A) (?A) (?A) (?A) (?A) (?A) (?A) (?A)
                 (?A) (?A) (?B) (?B) (?B) (?B) (?B) (?C) (?C) (?C)
                 (?C) (?D) (?D) (?D) (?D) (?D) (?D) (?D) (?D) (?D)
                 (?D) (?D) (?D) (?D) (?D) (?D) (?D) (?E) (?E) (?E)
                 (?E) (?E) (SG) (PI) (PI) (SG) (?F) (?F) (?F) (?F)
                 (SG) (PI) (PI) (SG) (PI) (PI) (?G) (?G) (?G) (DLTA)
                 (DLTA) (?H) (?H) (?H) (?H) (?H) (?H) (?H) (?H)
                 (?H) (?H) (?H) (?H) (?H) (?H) (PI) (PI) (SG) (PI)
                 (PI) (DLTA) (DLTA) (SG) (SG) (PI) (PI) (PHI) (PHI)
                 (?I) (?I) (?I) (PI) (PI) (SG) (DLTA) (DLTA) (PI)
                 (PI) (SG) (PI) (PI) (SG) (SG)
 Beta  Orbitals:
       Occupied  (SG) (SG) (?A)
       Virtual   (?A) (?A) (?A) (?A) (?A) (?A) (?A) (?A) (?A) (?A)
                 (?A) (?A) (?A) (?A) (?A) (?A) (?A) (?A) (?A) (?A)
                 (?A) (?A) (?A) (?A) (?A) (?A) (?A) (?A) (?A) (?A)
                 (?A) (?A) (?B) (?B) (?B) (?B) (?B) (?C) (?C) (?C)
                 (?C) (?D) (?D) (?D) (?D) (?D) (?D) (?D) (?D) (?D)
                 (?D) (?D) (?D) (?D) (?D) (?D) (?D) (?E) (?E) (?E)
                 (?E) (?E) (SG) (PI) (PI) (SG) (?F) (?F) (?F) (?F)
                 (SG) (PI) (PI) (SG) (PI) (PI) (?G) (?G) (?G) (DLTA)
                 (DLTA) (?H) (?H) (?H) (?H) (?H) (?H) (?H) (?H)
                 (?H) (?H) (?H) (?H) (?H) (?H) (PI) (PI) (SG) (PI)
                 (PI) (DLTA) (DLTA) (SG) (SG) (PI) (PI) (PHI) (PHI)
                 (?I) (?I) (?I) (PI) (PI) (SG) (DLTA) (DLTA) (PI)
                 (PI) (SG) (PI) (PI) (SG) (SG)
 Unable to determine electronic state:  an orbital has unidentified symmetry.
 Alpha  occ. eigenvalues --   -7.63782  -0.73321  -0.36834
 Alpha virt. eigenvalues --    0.02683   0.02845   0.03420   0.04309   0.08215
 Alpha virt. eigenvalues --    0.08987   0.12226   0.13087   0.13409   0.14602
 Alpha virt. eigenvalues --    0.14665   0.14677   0.17627   0.27184   0.27210
 Alpha virt. eigenvalues --    0.28761   0.33282   0.33331   0.41725   0.43424
 Alpha virt. eigenvalues --    0.43439   0.44394   0.46381   0.46396   0.47064
 Alpha virt. eigenvalues --    0.47515   0.49981   0.50581   0.50647   0.58541
 Alpha virt. eigenvalues --    0.60774   0.61186   0.77942   0.78022   0.78358
 Alpha virt. eigenvalues --    0.82358   0.82367   1.01423   1.03676   1.04538
 Alpha virt. eigenvalues --    1.05464   1.20994   1.21427   1.37521   1.37584
 Alpha virt. eigenvalues --    1.37585   1.37972   1.37973   1.40819   1.40832
 Alpha virt. eigenvalues --    1.42874   1.42902   1.45063   1.45070   1.45761
 Alpha virt. eigenvalues --    1.46332   1.47152   1.62990   1.64378   1.65051
 Alpha virt. eigenvalues --    1.73528   1.73540   1.89143   1.91012   1.91568
 Alpha virt. eigenvalues --    1.99262   2.02557   2.02557   2.03291   2.03293
 Alpha virt. eigenvalues --    2.15258   2.22818   2.23452   3.00035   3.16341
 Alpha virt. eigenvalues --    3.16934   3.32344   3.33774   3.34355   3.43472
 Alpha virt. eigenvalues --    3.43477   3.93553   3.93553   3.95146   3.95183
 Alpha virt. eigenvalues --    3.95233   3.97769   3.97796   4.04524   4.05533
 Alpha virt. eigenvalues --    4.07024   4.07851   4.08151   4.11263   4.11271
 Alpha virt. eigenvalues --    4.37926   4.38905   4.59503   4.67890   4.68799
 Alpha virt. eigenvalues --    4.82140   4.82161   5.70104   5.86956   6.02844
 Alpha virt. eigenvalues --    6.03685   6.98842   6.98842   7.96890   7.97876
 Alpha virt. eigenvalues --    7.98007   7.99141   7.99532   8.81138   9.13072
 Alpha virt. eigenvalues --    9.13073   9.26083   9.26494  10.31760  10.45778
 Alpha virt. eigenvalues --   10.46330  12.20513  18.21965
  Beta  occ. eigenvalues --   -7.63782  -0.73321  -0.36834
  Beta virt. eigenvalues --    0.02683   0.02845   0.03420   0.04309   0.08215
  Beta virt. eigenvalues --    0.08987   0.12226   0.13087   0.13409   0.14602
  Beta virt. eigenvalues --    0.14665   0.14677   0.17627   0.27184   0.27210
  Beta virt. eigenvalues --    0.28761   0.33282   0.33331   0.41725   0.43424
  Beta virt. eigenvalues --    0.43439   0.44394   0.46381   0.46396   0.47064
  Beta virt. eigenvalues --    0.47515   0.49981   0.50581   0.50647   0.58541
  Beta virt. eigenvalues --    0.60774   0.61186   0.77942   0.78022   0.78358
  Beta virt. eigenvalues --    0.82358   0.82367   1.01423   1.03676   1.04538
  Beta virt. eigenvalues --    1.05464   1.20994   1.21427   1.37521   1.37584
  Beta virt. eigenvalues --    1.37585   1.37972   1.37973   1.40819   1.40832
  Beta virt. eigenvalues --    1.42874   1.42902   1.45063   1.45070   1.45761
  Beta virt. eigenvalues --    1.46332   1.47152   1.62990   1.64378   1.65051
  Beta virt. eigenvalues --    1.73528   1.73540   1.89143   1.91012   1.91568
  Beta virt. eigenvalues --    1.99262   2.02557   2.02557   2.03291   2.03293
  Beta virt. eigenvalues --    2.15258   2.22818   2.23452   3.00035   3.16341
  Beta virt. eigenvalues --    3.16934   3.32344   3.33774   3.34355   3.43472
  Beta virt. eigenvalues --    3.43477   3.93553   3.93553   3.95146   3.95183
  Beta virt. eigenvalues --    3.95233   3.97769   3.97796   4.04524   4.05533
  Beta virt. eigenvalues --    4.07024   4.07851   4.08151   4.11263   4.11271
  Beta virt. eigenvalues --    4.37926   4.38905   4.59503   4.67890   4.68799
  Beta virt. eigenvalues --    4.82140   4.82161   5.70104   5.86956   6.02844
  Beta virt. eigenvalues --    6.03685   6.98842   6.98842   7.96890   7.97876
  Beta virt. eigenvalues --    7.98007   7.99141   7.99532   8.81138   9.13072
  Beta virt. eigenvalues --    9.13073   9.26083   9.26494  10.31760  10.45778
  Beta virt. eigenvalues --   10.46330  12.20513  18.21965
          Condensed to atoms (all electrons):
               1          2
     1  B    4.825817   0.164331
     2  H    0.164331   0.845521
          Atomic-Atomic Spin Densities.
               1          2
     1  B    0.000000   0.000000
     2  H    0.000000   0.000000
 Mulliken charges and spin densities:
               1          2
     1  B    0.009852   0.000000
     2  H   -0.009852   0.000000
 Sum of Mulliken charges =  -0.00000   0.00000
 Mulliken charges and spin densities with hydrogens summed into heavy atoms:
               1          2
     1  B   -0.000000   0.000000
 Electronic spatial extent (au):  <R**2>=             19.1708
 Charge=             -0.0000 electrons
 Dipole moment (field-independent basis, Debye):
    X=              0.0000    Y=              0.0000    Z=             -1.7806  Tot=              1.7806
 Quadrupole moment (field-independent basis, Debye-Ang):
   XX=             -7.2886   YY=             -6.0654   ZZ=             -9.1893
   XY=             -0.0000   XZ=              0.0000   YZ=              0.0000
 Traceless Quadrupole moment (field-independent basis, Debye-Ang):
   XX=              0.2259   YY=              1.4490   ZZ=             -1.6748
   XY=             -0.0000   XZ=              0.0000   YZ=              0.0000
 Octapole moment (field-independent basis, Debye-Ang**2):
  XXX=              0.0000  YYY=              0.0000  ZZZ=             -5.5099  XYY=              0.0000
  XXY=              0.0000  XXZ=             -2.1019  XZZ=              0.0000  YZZ=              0.0000
  YYZ=             -1.6797  XYZ=             -0.0000
 Hexadecapole moment (field-independent basis, Debye-Ang**3):
 XXXX=            -12.1824 YYYY=             -8.5704 ZZZZ=            -20.2819 XXXY=             -0.0000
 XXXZ=              0.0000 YYYX=             -0.0000 YYYZ=              0.0000 ZZZX=              0.0000
 ZZZY=              0.0000 XXYY=             -3.4586 XXZZ=             -5.5860 YYZZ=             -4.8592
 XXYZ=              0.0000 YYXZ=              0.0000 ZZXY=             -0.0000
 N-N= 2.939873394000D+00 E-N=-6.413560991898D+01  KE= 2.559716003542D+01
 Leave Link  601 at Sun May 22 18:38:20 2022, MaxMem=   104857600 cpu:               0.0 elap:               0.1
 (Enter /apps/software/g16/l9999.exe)
 1\1\GINC-CNODE08\SP\UCCSD-FC\Aug-CC-pVQZ\B1H1\LCZ\22-May-2022\0\\#p UH
 F/aug-cc-pVQZ guess=read CCSD=FC\\BH UCCSD at 0.9 Angstrom\\0,1\B,0,0.
 ,0.,0.\H,0,0.9,0.,0.\\Version=ES64L-G16RevA.03\HF=-25.0687224\MP2=-25.
 1328415\MP3=-25.1442266\MP4D=-25.1482249\MP4DQ=-25.1472168\PUHF=-25.07
 69424\PMP2-0=-25.1409346\PMP3-0=-25.1519671\MP4SDQ=-25.1478054\CCSD=-2
 5.159856\S2=0.5456\S2-1=0.5287\S2A=0.003982\RMSD=2.171e-10\PG=C*V [C*(
 H1B1)]\\@


 HONESTY IN A LAWYER IS LIKE A HEN'S HIND LEGS.
  -- MAGNUS OLESON, LAKE WOBEGON PATRIARCH, C.1875
 Job cpu time:       0 days  0 hours  0 minutes 24.3 seconds.
 Elapsed time:       0 days  0 hours  0 minutes 24.3 seconds.
 File lengths (MBytes):  RWF=    377 Int=      0 D2E=      0 Chk=     67 Scr=      1
 Normal termination of Gaussian 16 at Sun May 22 18:38:20 2022.

Sender: Unischeduler System <lcz@mgt01>
Subject: Job 134207: <#!/bin/bash
#BSUB -J intel
#BSUB -o BH-0.9-UCCSD-G.out
#BSUB -n 8
#BSUB -q cqueue
#BSUB -R span[hosts=1]
export g16root=/apps/software
source /apps/software/g16/bsd/g16.profile
export GAUSS_SCRDIR=/scratch
/apps/software/g16/g16 < BH-0.9-UCCSD-G.inp > BH-0.9-UCCSD-G.out> Done

Job <#!/bin/bash
#BSUB -J intel
#BSUB -o BH-0.9-UCCSD-G.out
#BSUB -n 8
#BSUB -q cqueue
#BSUB -R span[hosts=1]
export g16root=/apps/software
source /apps/software/g16/bsd/g16.profile
export GAUSS_SCRDIR=/scratch
/apps/software/g16/g16 < BH-0.9-UCCSD-G.inp > BH-0.9-UCCSD-G.out> was submitted from host <mgt01> by user <lcz>.
Job was executed on host(s) <8*cnode08>, in queue <cqueue>, as user <lcz>.
</apps/users/lcz> was used as the home directory.
</apps/users/lcz/exe13/UCCSD> was used as the working directory.
Started at 2022-05-22 18:37:55
Results reported at 2022-05-22 18:38:20

Your job looked like:

------------------------------------------------------------
# User input
#!/bin/bash
#BSUB -J intel
#BSUB -o BH-0.9-UCCSD-G.out
#BSUB -n 8
#BSUB -q cqueue
#BSUB -R span[hosts=1]
export g16root=/apps/software
source /apps/software/g16/bsd/g16.profile
export GAUSS_SCRDIR=/scratch
/apps/software/g16/g16 < BH-0.9-UCCSD-G.inp > BH-0.9-UCCSD-G.out
------------------------------------------------------------

Successfully completed.

Resource usage summary:

    CPU time   :           20.65 sec.
    Max Memory :               499 MB
    Max Processes  :               5


The output (if any) follows:

