 Entering Gaussian System, Link 0=/apps/software/g16/g16
 Initial command:
 /apps/software/g16/l1.exe "/scratch/Gau-403887.inp" -scrdir="/scratch/"
 Entering Link 1 = /apps/software/g16/l1.exe PID=    403888.
  
 Copyright (c) 1988,1990,1992,1993,1995,1998,2003,2009,2016,
            Gaussian, Inc.  All Rights Reserved.
  
 This is part of the Gaussian(R) 16 program.  It is based on
 the Gaussian(R) 09 system (copyright 2009, Gaussian, Inc.),
 the Gaussian(R) 03 system (copyright 2003, Gaussian, Inc.),
 the Gaussian(R) 98 system (copyright 1998, Gaussian, Inc.),
 the Gaussian(R) 94 system (copyright 1995, Gaussian, Inc.),
 the Gaussian 92(TM) system (copyright 1992, Gaussian, Inc.),
 the Gaussian 90(TM) system (copyright 1990, Gaussian, Inc.),
 the Gaussian 88(TM) system (copyright 1988, Gaussian, Inc.),
 the Gaussian 86(TM) system (copyright 1986, Carnegie Mellon
 University), and the Gaussian 82(TM) system (copyright 1983,
 Carnegie Mellon University). Gaussian is a federally registered
 trademark of Gaussian, Inc.
  
 This software contains proprietary and confidential information,
 including trade secrets, belonging to Gaussian, Inc.
  
 This software is provided under written license and may be
 used, copied, transmitted, or stored only in accord with that
 written license.
  
 The following legend is applicable only to US Government
 contracts under FAR:
  
                    RESTRICTED RIGHTS LEGEND
  
 Use, reproduction and disclosure by the US Government is
 subject to restrictions as set forth in subparagraphs (a)
 and (c) of the Commercial Computer Software - Restricted
 Rights clause in FAR 52.227-19.
  
 Gaussian, Inc.
 340 Quinnipiac St., Bldg. 40, Wallingford CT 06492
  
  
 ---------------------------------------------------------------
 Warning -- This program may not be used in any manner that
 competes with the business of Gaussian, Inc. or will provide
 assistance to any competitor of Gaussian, Inc.  The licensee
 of this program is prohibited from giving any competitor of
 Gaussian, Inc. access to this program.  By using this program,
 the user acknowledges that Gaussian, Inc. is engaged in the
 business of creating and licensing software in the field of
 computational chemistry and represents and warrants to the
 licensee that it is not a competitor of Gaussian, Inc. and that
 it will not use this program in any manner prohibited above.
 ---------------------------------------------------------------
  

 Cite this work as:
 Gaussian 16, Revision A.03,
 M. J. Frisch, G. W. Trucks, H. B. Schlegel, G. E. Scuseria, 
 M. A. Robb, J. R. Cheeseman, G. Scalmani, V. Barone, 
 G. A. Petersson, H. Nakatsuji, X. Li, M. Caricato, A. V. Marenich, 
 J. Bloino, B. G. Janesko, R. Gomperts, B. Mennucci, H. P. Hratchian, 
 J. V. Ortiz, A. F. Izmaylov, J. L. Sonnenberg, D. Williams-Young, 
 F. Ding, F. Lipparini, F. Egidi, J. Goings, B. Peng, A. Petrone, 
 T. Henderson, D. Ranasinghe, V. G. Zakrzewski, J. Gao, N. Rega, 
 G. Zheng, W. Liang, M. Hada, M. Ehara, K. Toyota, R. Fukuda, 
 J. Hasegawa, M. Ishida, T. Nakajima, Y. Honda, O. Kitao, H. Nakai, 
 T. Vreven, K. Throssell, J. A. Montgomery, Jr., J. E. Peralta, 
 F. Ogliaro, M. J. Bearpark, J. J. Heyd, E. N. Brothers, K. N. Kudin, 
 V. N. Staroverov, T. A. Keith, R. Kobayashi, J. Normand, 
 K. Raghavachari, A. P. Rendell, J. C. Burant, S. S. Iyengar, 
 J. Tomasi, M. Cossi, J. M. Millam, M. Klene, C. Adamo, R. Cammi, 
 J. W. Ochterski, R. L. Martin, K. Morokuma, O. Farkas, 
 J. B. Foresman, and D. J. Fox, Gaussian, Inc., Wallingford CT, 2016.
 
 ******************************************
 Gaussian 16:  ES64L-G16RevA.03 25-Dec-2016
                22-May-2022 
 ******************************************
 %chk=BH-0.9-UHF-G.chk
 ---------------------------------------
 #p UHF/aug-cc-pVQZ guess=mix stable=opt
 ---------------------------------------
 1/38=1,172=1/1;
 2/12=2,17=6,18=5,40=1/2;
 3/5=16,6=2,7=10,11=2,25=1,30=1,116=2/1,2,3;
 4/13=-1/1;
 5/5=2,38=5/2;
 6/7=2,8=2,9=2,10=2,28=1/1;
 8/6=1,10=90,11=11/1;
 9/8=-3,42=1,46=1/14;
 5/5=2,8=3,17=40,38=5/8(-2);
 6/7=2,8=2,9=2,10=2,28=1/1;
 99/5=1,9=1/99;
 Leave Link    1 at Sun May 22 18:34:13 2022, MaxMem=           0 cpu:               0.0 elap:               0.0
 (Enter /apps/software/g16/l101.exe)
 ----------------------
 BH UHF at 0.9 Angstrom
 ----------------------
 Symbolic Z-matrix:
 Charge =  0 Multiplicity = 1
 B                     0.        0.        0. 
 H                     0.9       0.        0. 
 
 ITRead=  0  0
 MicOpt= -1 -1
 NAtoms=      2 NQM=        2 NQMF=       0 NMMI=      0 NMMIF=      0
                NMic=       0 NMicF=      0.
                    Isotopes and Nuclear Properties:
 (Nuclear quadrupole moments (NQMom) in fm**2, nuclear magnetic moments (NMagM)
  in nuclear magnetons)

  Atom         1           2
 IAtWgt=          11           1
 AtmWgt=  11.0093053   1.0078250
 NucSpn=           3           1
 AtZEff=  -0.0000000  -0.0000000
 NQMom=    4.0590000   0.0000000
 NMagM=    2.6886370   2.7928460
 AtZNuc=   5.0000000   1.0000000
 Leave Link  101 at Sun May 22 18:34:13 2022, MaxMem=   104857600 cpu:               0.1 elap:               0.1
 (Enter /apps/software/g16/l202.exe)
                          Input orientation:                          
 ---------------------------------------------------------------------
 Center     Atomic      Atomic             Coordinates (Angstroms)
 Number     Number       Type             X           Y           Z
 ---------------------------------------------------------------------
      1          5           0        0.000000    0.000000    0.000000
      2          1           0        0.900000    0.000000    0.000000
 ---------------------------------------------------------------------
 Stoichiometry    BH
 Framework group  C*V[C*(HB)]
 Deg. of freedom     1
 Full point group                 C*V     NOp   4
 Largest Abelian subgroup         C2V     NOp   4
 Largest concise Abelian subgroup C1      NOp   1
                         Standard orientation:                         
 ---------------------------------------------------------------------
 Center     Atomic      Atomic             Coordinates (Angstroms)
 Number     Number       Type             X           Y           Z
 ---------------------------------------------------------------------
      1          5           0        0.000000    0.000000    0.150000
      2          1           0        0.000000    0.000000   -0.750000
 ---------------------------------------------------------------------
 Rotational constants (GHZ):           0.0000000         675.7528621         675.7528621
 Leave Link  202 at Sun May 22 18:34:13 2022, MaxMem=   104857600 cpu:               0.0 elap:               0.0
 (Enter /apps/software/g16/l301.exe)
 Standard basis: Aug-CC-pVQZ (5D, 7F)
 Ernie: Thresh=  0.10000D-02 Tol=  0.10000D-05 Strict=F.
 Ernie:  4 primitive shells out of 54 were deleted.
 There are    68 symmetry adapted cartesian basis functions of A1  symmetry.
 There are    18 symmetry adapted cartesian basis functions of A2  symmetry.
 There are    37 symmetry adapted cartesian basis functions of B1  symmetry.
 There are    37 symmetry adapted cartesian basis functions of B2  symmetry.
 There are    50 symmetry adapted basis functions of A1  symmetry.
 There are    16 symmetry adapted basis functions of A2  symmetry.
 There are    30 symmetry adapted basis functions of B1  symmetry.
 There are    30 symmetry adapted basis functions of B2  symmetry.
   126 basis functions,   180 primitive gaussians,   160 cartesian basis functions
     3 alpha electrons        3 beta electrons
       nuclear repulsion energy         2.9398733940 Hartrees.
 IExCor=    0 DFT=F Ex=HF Corr=None ExCW=0 ScaHFX=  1.000000
 ScaDFX=  1.000000  1.000000  1.000000  1.000000 ScalE2=  1.000000  1.000000
 IRadAn=      5 IRanWt=     -1 IRanGd=            0 ICorTp=0 IEmpDi=  4
 NAtoms=    2 NActive=    2 NUniq=    2 SFac= 1.00D+00 NAtFMM=   60 NAOKFM=F Big=F
 Integral buffers will be    131072 words long.
 Raffenetti 2 integral format.
 Two-electron integral symmetry is turned on.
 Leave Link  301 at Sun May 22 18:34:13 2022, MaxMem=   104857600 cpu:               0.1 elap:               0.1
 (Enter /apps/software/g16/l302.exe)
 NPDir=0 NMtPBC=     1 NCelOv=     1 NCel=       1 NClECP=     1 NCelD=      1
         NCelK=      1 NCelE2=     1 NClLst=     1 CellRange=     0.0.
 One-electron integrals computed using PRISM.
 One-electron integral symmetry used in STVInt
 NBasis=   126 RedAO= T EigKep=  4.25D-05  NBF=    50    16    30    30
 NBsUse=   126 1.00D-06 EigRej= -1.00D+00 NBFU=    50    16    30    30
 Leave Link  302 at Sun May 22 18:34:14 2022, MaxMem=   104857600 cpu:               0.1 elap:               0.1
 (Enter /apps/software/g16/l303.exe)
 DipDrv:  MaxL=1.
 Leave Link  303 at Sun May 22 18:34:14 2022, MaxMem=   104857600 cpu:               0.0 elap:               0.0
 (Enter /apps/software/g16/l401.exe)
 ExpMin= 1.88D-02 ExpMax= 2.39D+04 ExpMxC= 2.30D+02 IAcc=3 IRadAn=         5 AccDes= 0.00D+00
 Harris functional with IExCor=  205 and IRadAn=       5 diagonalized for initial guess.
 HarFok:  IExCor=  205 AccDes= 0.00D+00 IRadAn=         5 IDoV= 1 UseB2=F ITyADJ=14
 ICtDFT=  3500011 ScaDFX=  1.000000  1.000000  1.000000  1.000000
 FoFCou: FMM=F IPFlag=           0 FMFlag=      100000 FMFlg1=           0
         NFxFlg=           0 DoJE=T BraDBF=F KetDBF=T FulRan=T
         wScrn=  0.000000 ICntrl=       500 IOpCl=  0 I1Cent=   200000004 NGrid=           0
         NMat0=    1 NMatS0=      1 NMatT0=    0 NMatD0=    1 NMtDS0=    0 NMtDT0=    0
 Petite list used in FoFCou.
 Harris En= -25.0506984648314    
 JPrj=0 DoOrth=F DoCkMO=T.
 Mixing orbitals, IMix= 1 IMixAn=  0 NRI=1 NE=    3 Coef=  7.07106781D-01  7.07106781D-01
 Mixing orbitals, IMix= 1 IMixAn=  0 NRI=1 NE=    3 Coef= -7.07106781D-01  7.07106781D-01
 Initial guess orbital symmetries:
 Alpha Orbitals:
       Occupied  (SG) (SG) (?A)
       Virtual   (?A) (?A) (SG) (SG) (PI) (PI) (SG) (PI) (PI) (SG)
                 (DLTA) (DLTA) (SG) (PI) (PI) (SG) (PI) (PI) (SG)
                 (SG) (DLTA) (DLTA) (PI) (PI) (DLTA) (DLTA) (PHI)
                 (PHI) (SG) (SG) (PI) (PI) (PI) (PI) (SG) (DLTA)
                 (DLTA) (SG) (PI) (PI) (SG) (PI) (PI) (SG) (DLTA)
                 (DLTA) (PHI) (PHI) (?B) (?B) (DLTA) (DLTA) (SG)
                 (PI) (PI) (PHI) (PHI) (SG) (PI) (PI) (DLTA) (DLTA)
                 (SG) (PI) (PI) (SG) (PHI) (PHI) (DLTA) (DLTA)
                 (SG) (PI) (PI) (SG) (PI) (PI) (SG) (PI) (PI) (DLTA)
                 (DLTA) (SG) (DLTA) (DLTA) (PHI) (PHI) (PI) (PI)
                 (?B) (?B) (SG) (DLTA) (DLTA) (PHI) (PHI) (PI)
                 (PI) (SG) (PI) (PI) (DLTA) (DLTA) (SG) (SG) (PI)
                 (PI) (PHI) (PHI) (SG) (PI) (PI) (DLTA) (DLTA)
                 (SG) (DLTA) (DLTA) (PI) (PI) (SG) (PI) (PI) (SG)
                 (SG)
 Beta  Orbitals:
       Occupied  (SG) (SG) (?A)
       Virtual   (?A) (?A) (SG) (SG) (PI) (PI) (SG) (PI) (PI) (SG)
                 (DLTA) (DLTA) (SG) (PI) (PI) (SG) (PI) (PI) (SG)
                 (SG) (DLTA) (DLTA) (PI) (PI) (DLTA) (DLTA) (PHI)
                 (PHI) (SG) (SG) (PI) (PI) (PI) (PI) (SG) (DLTA)
                 (DLTA) (SG) (PI) (PI) (SG) (PI) (PI) (SG) (DLTA)
                 (DLTA) (PHI) (PHI) (?B) (?B) (DLTA) (DLTA) (SG)
                 (PI) (PI) (PHI) (PHI) (SG) (PI) (PI) (DLTA) (DLTA)
                 (SG) (PI) (PI) (SG) (PHI) (PHI) (DLTA) (DLTA)
                 (SG) (PI) (PI) (SG) (PI) (PI) (SG) (PI) (PI) (DLTA)
                 (DLTA) (SG) (DLTA) (DLTA) (PHI) (PHI) (PI) (PI)
                 (?B) (?B) (SG) (DLTA) (DLTA) (PHI) (PHI) (PI)
                 (PI) (SG) (PI) (PI) (DLTA) (DLTA) (SG) (SG) (PI)
                 (PI) (PHI) (PHI) (SG) (PI) (PI) (DLTA) (DLTA)
                 (SG) (DLTA) (DLTA) (PI) (PI) (SG) (PI) (PI) (SG)
                 (SG)
 Initial guess <Sx>= 0.0000 <Sy>= 0.0000 <Sz>= 0.0000 <S**2>= 1.0000 S= 0.6180
 Leave Link  401 at Sun May 22 18:34:14 2022, MaxMem=   104857600 cpu:               0.2 elap:               0.2
 (Enter /apps/software/g16/l502.exe)
 Keep R1 and R2 ints in memory in symmetry-blocked form, NReq=40143665.
 FoFCou: FMM=F IPFlag=           0 FMFlag=           0 FMFlg1=           0
         NFxFlg=           0 DoJE=F BraDBF=F KetDBF=F FulRan=T
         wScrn=  0.000000 ICntrl=       600 IOpCl=  0 I1Cent=           0 NGrid=           0
         NMat0=    1 NMatS0=   8001 NMatT0=    0 NMatD0=    1 NMtDS0=    0 NMtDT0=    0
 Petite list used in FoFCou.
 UHF open shell SCF:
 Using DIIS extrapolation, IDIIS=  1040.
 NGot=   104857600 LenX=    88563632 LenY=    88537591
 Requested convergence on RMS density matrix=1.00D-08 within 128 cycles.
 Requested convergence on MAX density matrix=1.00D-06.
 Requested convergence on             energy=1.00D-06.
 No special actions if energy rises.
 An orbital has undefined symmetry, so N**3 symmetry is turned off.

 Cycle   1  Pass 1  IDiag  1:
 Density matrix breaks symmetry, PCut= 1.00D-07
 Density matrix has no symmetry -- integrals replicated.
 E= -24.9984462111241    
 DIIS: error= 2.87D-02 at cycle   1 NSaved=   1.
 NSaved= 1 IEnMin= 1 EnMin= -24.9984462111241     IErMin= 1 ErrMin= 2.87D-02
 ErrMax= 2.87D-02  0.00D+00 EMaxC= 1.00D-01 BMatC= 2.16D-01 BMatP= 2.16D-01
 IDIUse=3 WtCom= 7.13D-01 WtEn= 2.87D-01
 Coeff-Com:  0.100D+01
 Coeff-En:   0.100D+01
 Coeff:      0.100D+01
 Gap=     0.472 Goal=   None    Shift=    0.000
 Gap=     0.472 Goal=   None    Shift=    0.000
 GapD=    0.472 DampG=2.000 DampE=0.500 DampFc=1.0000 IDamp=-1.
 RMSDP=2.01D-03 MaxDP=7.74D-02              OVMax= 1.49D-01

 Cycle   2  Pass 1  IDiag  1:
 Density matrix breaks symmetry, PCut= 1.00D-07
 Density matrix has no symmetry -- integrals replicated.
 E= -25.0521133361763     Delta-E=       -0.053667125052 Rises=F Damp=F
 DIIS: error= 1.06D-02 at cycle   2 NSaved=   2.
 NSaved= 2 IEnMin= 2 EnMin= -25.0521133361763     IErMin= 2 ErrMin= 1.06D-02
 ErrMax= 1.06D-02  0.00D+00 EMaxC= 1.00D-01 BMatC= 1.02D-02 BMatP= 2.16D-01
 IDIUse=3 WtCom= 8.94D-01 WtEn= 1.06D-01
 Coeff-Com: -0.659D-01 0.107D+01
 Coeff-En:   0.000D+00 0.100D+01
 Coeff:     -0.589D-01 0.106D+01
 Gap=     0.407 Goal=   None    Shift=    0.000
 Gap=     0.407 Goal=   None    Shift=    0.000
 RMSDP=5.40D-04 MaxDP=1.88D-02 DE=-5.37D-02 OVMax= 7.73D-02

 Cycle   3  Pass 1  IDiag  1:
 Density matrix breaks symmetry, PCut= 1.00D-07
 Density matrix has no symmetry -- integrals replicated.
 E= -25.0618862709372     Delta-E=       -0.009772934761 Rises=F Damp=F
 DIIS: error= 6.55D-03 at cycle   3 NSaved=   3.
 NSaved= 3 IEnMin= 3 EnMin= -25.0618862709372     IErMin= 3 ErrMin= 6.55D-03
 ErrMax= 6.55D-03  0.00D+00 EMaxC= 1.00D-01 BMatC= 2.45D-03 BMatP= 1.02D-02
 IDIUse=3 WtCom= 9.34D-01 WtEn= 6.55D-02
 Coeff-Com:  0.309D-01-0.650D+00 0.162D+01
 Coeff-En:   0.000D+00 0.000D+00 0.100D+01
 Coeff:      0.289D-01-0.608D+00 0.158D+01
 Gap=     0.404 Goal=   None    Shift=    0.000
 Gap=     0.404 Goal=   None    Shift=    0.000
 RMSDP=4.43D-04 MaxDP=1.47D-02 DE=-9.77D-03 OVMax= 6.91D-02

 Cycle   4  Pass 1  IDiag  1:
 Density matrix breaks symmetry, PCut= 1.00D-07
 Density matrix has no symmetry -- integrals replicated.
 E= -25.0665145868125     Delta-E=       -0.004628315875 Rises=F Damp=F
 DIIS: error= 3.13D-03 at cycle   4 NSaved=   4.
 NSaved= 4 IEnMin= 4 EnMin= -25.0665145868125     IErMin= 4 ErrMin= 3.13D-03
 ErrMax= 3.13D-03  0.00D+00 EMaxC= 1.00D-01 BMatC= 6.40D-04 BMatP= 2.45D-03
 IDIUse=3 WtCom= 9.69D-01 WtEn= 3.13D-02
 Coeff-Com: -0.113D-01 0.397D+00-0.149D+01 0.210D+01
 Coeff-En:   0.000D+00 0.000D+00 0.000D+00 0.100D+01
 Coeff:     -0.109D-01 0.384D+00-0.144D+01 0.207D+01
 Gap=     0.400 Goal=   None    Shift=    0.000
 Gap=     0.400 Goal=   None    Shift=    0.000
 RMSDP=3.42D-04 MaxDP=1.10D-02 DE=-4.63D-03 OVMax= 5.68D-02

 Cycle   5  Pass 1  IDiag  1:
 Density matrix breaks symmetry, PCut= 1.00D-07
 Density matrix has no symmetry -- integrals replicated.
 E= -25.0683185369272     Delta-E=       -0.001803950115 Rises=F Damp=F
 DIIS: error= 9.93D-04 at cycle   5 NSaved=   5.
 NSaved= 5 IEnMin= 5 EnMin= -25.0683185369272     IErMin= 5 ErrMin= 9.93D-04
 ErrMax= 9.93D-04  0.00D+00 EMaxC= 1.00D-01 BMatC= 1.26D-04 BMatP= 6.40D-04
 IDIUse=3 WtCom= 9.90D-01 WtEn= 9.93D-03
 Coeff-Com:  0.551D-02-0.153D+00 0.756D+00-0.182D+01 0.221D+01
 Coeff-En:   0.000D+00 0.000D+00 0.000D+00 0.000D+00 0.100D+01
 Coeff:      0.546D-02-0.152D+00 0.748D+00-0.180D+01 0.220D+01
 Gap=     0.395 Goal=   None    Shift=    0.000
 Gap=     0.395 Goal=   None    Shift=    0.000
 RMSDP=2.34D-04 MaxDP=7.66D-03 DE=-1.80D-03 OVMax= 3.83D-02

 Cycle   6  Pass 1  IDiag  1:
 Density matrix breaks symmetry, PCut= 1.00D-07
 Density matrix has no symmetry -- integrals replicated.
 E= -25.0687160226337     Delta-E=       -0.000397485706 Rises=F Damp=F
 DIIS: error= 1.23D-04 at cycle   6 NSaved=   6.
 NSaved= 6 IEnMin= 6 EnMin= -25.0687160226337     IErMin= 6 ErrMin= 1.23D-04
 ErrMax= 1.23D-04  0.00D+00 EMaxC= 1.00D-01 BMatC= 2.24D-06 BMatP= 1.26D-04
 IDIUse=3 WtCom= 9.99D-01 WtEn= 1.23D-03
 Coeff-Com: -0.148D-02 0.326D-01-0.161D+00 0.392D+00-0.594D+00 0.133D+01
 Coeff-En:   0.000D+00 0.000D+00 0.000D+00 0.000D+00 0.000D+00 0.100D+01
 Coeff:     -0.147D-02 0.326D-01-0.161D+00 0.392D+00-0.593D+00 0.133D+01
 Gap=     0.395 Goal=   None    Shift=    0.000
 Gap=     0.395 Goal=   None    Shift=    0.000
 RMSDP=3.17D-05 MaxDP=9.65D-04 DE=-3.97D-04 OVMax= 4.73D-03

 Cycle   7  Pass 1  IDiag  1:
 Density matrix breaks symmetry, PCut= 1.00D-07
 Density matrix has no symmetry -- integrals replicated.
 E= -25.0687221083164     Delta-E=       -0.000006085683 Rises=F Damp=F
 DIIS: error= 7.60D-05 at cycle   7 NSaved=   7.
 NSaved= 7 IEnMin= 7 EnMin= -25.0687221083164     IErMin= 7 ErrMin= 7.60D-05
 ErrMax= 7.60D-05  0.00D+00 EMaxC= 1.00D-01 BMatC= 2.24D-07 BMatP= 2.24D-06
 IDIUse=1 WtCom= 1.00D+00 WtEn= 0.00D+00
 Coeff-Com:  0.397D-03-0.939D-02 0.530D-01-0.144D+00 0.256D+00-0.804D+00
 Coeff-Com:  0.165D+01
 Coeff:      0.397D-03-0.939D-02 0.530D-01-0.144D+00 0.256D+00-0.804D+00
 Coeff:      0.165D+01
 Gap=     0.395 Goal=   None    Shift=    0.000
 Gap=     0.395 Goal=   None    Shift=    0.000
 RMSDP=5.08D-06 MaxDP=1.68D-04 DE=-6.09D-06 OVMax= 5.03D-04

 Cycle   8  Pass 1  IDiag  1:
 Density matrix breaks symmetry, PCut= 1.00D-07
 Density matrix has no symmetry -- integrals replicated.
 E= -25.0687223873717     Delta-E=       -0.000000279055 Rises=F Damp=F
 DIIS: error= 2.93D-05 at cycle   8 NSaved=   8.
 NSaved= 8 IEnMin= 8 EnMin= -25.0687223873717     IErMin= 8 ErrMin= 2.93D-05
 ErrMax= 2.93D-05  0.00D+00 EMaxC= 1.00D-01 BMatC= 2.94D-08 BMatP= 2.24D-07
 IDIUse=1 WtCom= 1.00D+00 WtEn= 0.00D+00
 Coeff-Com: -0.201D-04 0.114D-02-0.129D-01 0.413D-01-0.837D-01 0.336D+00
 Coeff-Com: -0.101D+01 0.173D+01
 Coeff:     -0.201D-04 0.114D-02-0.129D-01 0.413D-01-0.837D-01 0.336D+00
 Coeff:     -0.101D+01 0.173D+01
 Gap=     0.395 Goal=   None    Shift=    0.000
 Gap=     0.395 Goal=   None    Shift=    0.000
 RMSDP=1.09D-06 MaxDP=4.38D-05 DE=-2.79D-07 OVMax= 1.71D-04

 Cycle   9  Pass 1  IDiag  1:
 Density matrix breaks symmetry, PCut= 1.00D-07
 Density matrix has no symmetry -- integrals replicated.
 E= -25.0687224238411     Delta-E=       -0.000000036469 Rises=F Damp=F
 DIIS: error= 5.22D-06 at cycle   9 NSaved=   9.
 NSaved= 9 IEnMin= 9 EnMin= -25.0687224238411     IErMin= 9 ErrMin= 5.22D-06
 ErrMax= 5.22D-06  0.00D+00 EMaxC= 1.00D-01 BMatC= 1.57D-09 BMatP= 2.94D-08
 IDIUse=1 WtCom= 1.00D+00 WtEn= 0.00D+00
 Coeff-Com: -0.285D-04 0.318D-03 0.386D-03-0.289D-02 0.701D-02-0.437D-01
 Coeff-Com:  0.173D+00-0.557D+00 0.142D+01
 Coeff:     -0.285D-04 0.318D-03 0.386D-03-0.289D-02 0.701D-02-0.437D-01
 Coeff:      0.173D+00-0.557D+00 0.142D+01
 Gap=     0.395 Goal=   None    Shift=    0.000
 Gap=     0.395 Goal=   None    Shift=    0.000
 RMSDP=4.76D-07 MaxDP=1.95D-05 DE=-3.65D-08 OVMax= 5.00D-05

 Cycle  10  Pass 1  IDiag  1:
 Density matrix breaks symmetry, PCut= 1.00D-07
 Density matrix has no symmetry -- integrals replicated.
 E= -25.0687224258928     Delta-E=       -0.000000002052 Rises=F Damp=F
 DIIS: error= 4.50D-07 at cycle  10 NSaved=  10.
 NSaved=10 IEnMin=10 EnMin= -25.0687224258928     IErMin=10 ErrMin= 4.50D-07
 ErrMax= 4.50D-07  0.00D+00 EMaxC= 1.00D-01 BMatC= 4.07D-11 BMatP= 1.57D-09
 IDIUse=1 WtCom= 1.00D+00 WtEn= 0.00D+00
 Coeff-Com:  0.114D-04-0.160D-03 0.364D-03-0.564D-03 0.119D-02-0.163D-02
 Coeff-Com:  0.250D-02 0.458D-01-0.278D+00 0.123D+01
 Coeff:      0.114D-04-0.160D-03 0.364D-03-0.564D-03 0.119D-02-0.163D-02
 Coeff:      0.250D-02 0.458D-01-0.278D+00 0.123D+01
 Gap=     0.395 Goal=   None    Shift=    0.000
 Gap=     0.395 Goal=   None    Shift=    0.000
 RMSDP=9.87D-08 MaxDP=3.14D-06 DE=-2.05D-09 OVMax= 1.00D-05

 Cycle  11  Pass 1  IDiag  1:
 Density matrix breaks symmetry, PCut= 1.00D-07
 Density matrix has no symmetry -- integrals replicated.
 E= -25.0687224259354     Delta-E=       -0.000000000043 Rises=F Damp=F
 DIIS: error= 1.01D-07 at cycle  11 NSaved=  11.
 NSaved=11 IEnMin=11 EnMin= -25.0687224259354     IErMin=11 ErrMin= 1.01D-07
 ErrMax= 1.01D-07  0.00D+00 EMaxC= 1.00D-01 BMatC= 1.28D-12 BMatP= 4.07D-11
 IDIUse=1 WtCom= 1.00D+00 WtEn= 0.00D+00
 Coeff-Com: -0.260D-05 0.426D-04-0.134D-03 0.279D-03-0.571D-03 0.134D-02
 Coeff-Com: -0.444D-02 0.122D-02 0.341D-01-0.335D+00 0.130D+01
 Coeff:     -0.260D-05 0.426D-04-0.134D-03 0.279D-03-0.571D-03 0.134D-02
 Coeff:     -0.444D-02 0.122D-02 0.341D-01-0.335D+00 0.130D+01
 Gap=     0.395 Goal=   None    Shift=    0.000
 Gap=     0.395 Goal=   None    Shift=    0.000
 RMSDP=1.61D-08 MaxDP=5.86D-07 DE=-4.26D-11 OVMax= 1.82D-06

 Cycle  12  Pass 1  IDiag  1:
 Density matrix breaks symmetry, PCut= 1.00D-07
 Density matrix has no symmetry -- integrals replicated.
 E= -25.0687224259372     Delta-E=       -0.000000000002 Rises=F Damp=F
 DIIS: error= 2.15D-08 at cycle  12 NSaved=  12.
 NSaved=12 IEnMin=12 EnMin= -25.0687224259372     IErMin=12 ErrMin= 2.15D-08
 ErrMax= 2.15D-08  0.00D+00 EMaxC= 1.00D-01 BMatC= 6.76D-14 BMatP= 1.28D-12
 IDIUse=1 WtCom= 1.00D+00 WtEn= 0.00D+00
 Coeff-Com:  0.650D-06-0.131D-04 0.550D-04-0.132D-03 0.230D-03-0.557D-03
 Coeff-Com:  0.168D-02-0.278D-02 0.139D-02 0.616D-01-0.470D+00 0.141D+01
 Coeff:      0.650D-06-0.131D-04 0.550D-04-0.132D-03 0.230D-03-0.557D-03
 Coeff:      0.168D-02-0.278D-02 0.139D-02 0.616D-01-0.470D+00 0.141D+01
 Gap=     0.395 Goal=   None    Shift=    0.000
 Gap=     0.395 Goal=   None    Shift=    0.000
 RMSDP=4.86D-09 MaxDP=2.43D-07 DE=-1.87D-12 OVMax= 3.73D-07

 Density matrix breaks symmetry, PCut= 1.00D-07
 Density matrix has no symmetry -- integrals replicated.
 SCF Done:  E(UHF) =  -25.0687224259     A.U. after   12 cycles
            NFock= 12  Conv=0.49D-08     -V/T= 1.9794
 <Sx>= 0.0000 <Sy>= 0.0000 <Sz>= 0.0000 <S**2>= 0.5456 S= 0.3920
 <L.S>=  0.00000000000    
 KE= 2.559716003838D+01 PE=-6.413560980838D+01 EE= 1.052985395005D+01
 Annihilation of the first spin contaminant:
 S**2 before annihilation     0.5456,   after     0.0040
 Leave Link  502 at Sun May 22 18:34:18 2022, MaxMem=   104857600 cpu:               3.7 elap:               3.7
 (Enter /apps/software/g16/l601.exe)
 Copying SCF densities to generalized density rwf, IOpCl= 1 IROHF=0.
 SCF density gives NOpUse=  1 NOpAll=  4.
 Marking SCF density as not fully symmetric.

 **********************************************************************

            Population analysis using the SCF density.

 **********************************************************************

 Orbital symmetries:
 Alpha Orbitals:
       Occupied  (SG) (SG) (?A)
       Virtual   (?A) (?A) (?A) (?A) (?A) (?A) (?A) (?A) (?A) (?A)
                 (?A) (?A) (?A) (?A) (?A) (?A) (?A) (?A) (?A) (?A)
                 (?A) (?A) (?A) (?A) (?A) (?A) (?A) (?A) (?A) (?A)
                 (?A) (?A) (?B) (?B) (?B) (?B) (?B) (?C) (?C) (?C)
                 (?C) (?D) (?D) (?D) (?D) (?D) (?D) (?D) (?D) (?D)
                 (?D) (?D) (?D) (?D) (?D) (?D) (?D) (?E) (?E) (?E)
                 (?E) (?E) (SG) (PI) (PI) (SG) (?F) (?F) (?F) (?F)
                 (SG) (PI) (PI) (SG) (PI) (PI) (?G) (?G) (?G) (DLTA)
                 (DLTA) (?H) (?H) (?H) (?H) (?H) (?H) (?H) (?H)
                 (?H) (?H) (?H) (?H) (?H) (?H) (PI) (PI) (SG) (PI)
                 (PI) (DLTA) (DLTA) (SG) (SG) (PI) (PI) (PHI) (PHI)
                 (?I) (?I) (?I) (PI) (PI) (SG) (DLTA) (DLTA) (PI)
                 (PI) (SG) (PI) (PI) (SG) (SG)
 Beta  Orbitals:
       Occupied  (SG) (SG) (?A)
       Virtual   (?A) (?A) (?A) (?A) (?A) (?A) (?A) (?A) (?A) (?A)
                 (?A) (?A) (?A) (?A) (?A) (?A) (?A) (?A) (?A) (?A)
                 (?A) (?A) (?A) (?A) (?A) (?A) (?A) (?A) (?A) (?A)
                 (?A) (?A) (?B) (?B) (?B) (?B) (?B) (?C) (?C) (?C)
                 (?C) (?D) (?D) (?D) (?D) (?D) (?D) (?D) (?D) (?D)
                 (?D) (?D) (?D) (?D) (?D) (?D) (?D) (?E) (?E) (?E)
                 (?E) (?E) (SG) (PI) (PI) (SG) (?F) (?F) (?F) (?F)
                 (SG) (PI) (PI) (SG) (PI) (PI) (?G) (?G) (?G) (DLTA)
                 (DLTA) (?H) (?H) (?H) (?H) (?H) (?H) (?H) (?H)
                 (?H) (?H) (?H) (?H) (?H) (?H) (PI) (PI) (SG) (PI)
                 (PI) (DLTA) (DLTA) (SG) (SG) (PI) (PI) (PHI) (PHI)
                 (?I) (?I) (?I) (PI) (PI) (SG) (DLTA) (DLTA) (PI)
                 (PI) (SG) (PI) (PI) (SG) (SG)
 Unable to determine electronic state:  an orbital has unidentified symmetry.
 Alpha  occ. eigenvalues --   -7.63782  -0.73321  -0.36834
 Alpha virt. eigenvalues --    0.02683   0.02845   0.03420   0.04309   0.08215
 Alpha virt. eigenvalues --    0.08987   0.12226   0.13087   0.13409   0.14602
 Alpha virt. eigenvalues --    0.14665   0.14677   0.17627   0.27184   0.27210
 Alpha virt. eigenvalues --    0.28761   0.33282   0.33331   0.41725   0.43424
 Alpha virt. eigenvalues --    0.43439   0.44394   0.46381   0.46396   0.47064
 Alpha virt. eigenvalues --    0.47515   0.49981   0.50581   0.50647   0.58541
 Alpha virt. eigenvalues --    0.60774   0.61186   0.77942   0.78022   0.78358
 Alpha virt. eigenvalues --    0.82358   0.82367   1.01423   1.03676   1.04538
 Alpha virt. eigenvalues --    1.05464   1.20994   1.21427   1.37521   1.37584
 Alpha virt. eigenvalues --    1.37585   1.37972   1.37973   1.40819   1.40832
 Alpha virt. eigenvalues --    1.42874   1.42902   1.45063   1.45070   1.45761
 Alpha virt. eigenvalues --    1.46332   1.47152   1.62990   1.64378   1.65051
 Alpha virt. eigenvalues --    1.73528   1.73540   1.89143   1.91012   1.91568
 Alpha virt. eigenvalues --    1.99262   2.02557   2.02557   2.03291   2.03293
 Alpha virt. eigenvalues --    2.15258   2.22818   2.23452   3.00035   3.16341
 Alpha virt. eigenvalues --    3.16934   3.32344   3.33774   3.34355   3.43472
 Alpha virt. eigenvalues --    3.43477   3.93553   3.93553   3.95146   3.95183
 Alpha virt. eigenvalues --    3.95233   3.97769   3.97796   4.04524   4.05533
 Alpha virt. eigenvalues --    4.07024   4.07851   4.08151   4.11263   4.11271
 Alpha virt. eigenvalues --    4.37926   4.38905   4.59503   4.67890   4.68799
 Alpha virt. eigenvalues --    4.82140   4.82161   5.70104   5.86956   6.02844
 Alpha virt. eigenvalues --    6.03685   6.98842   6.98842   7.96890   7.97876
 Alpha virt. eigenvalues --    7.98007   7.99141   7.99532   8.81138   9.13072
 Alpha virt. eigenvalues --    9.13073   9.26083   9.26494  10.31760  10.45778
 Alpha virt. eigenvalues --   10.46330  12.20513  18.21965
  Beta  occ. eigenvalues --   -7.63782  -0.73321  -0.36834
  Beta virt. eigenvalues --    0.02683   0.02845   0.03420   0.04309   0.08215
  Beta virt. eigenvalues --    0.08987   0.12226   0.13087   0.13409   0.14602
  Beta virt. eigenvalues --    0.14665   0.14677   0.17627   0.27184   0.27210
  Beta virt. eigenvalues --    0.28761   0.33282   0.33331   0.41725   0.43424
  Beta virt. eigenvalues --    0.43439   0.44394   0.46381   0.46396   0.47064
  Beta virt. eigenvalues --    0.47515   0.49981   0.50581   0.50647   0.58541
  Beta virt. eigenvalues --    0.60774   0.61186   0.77942   0.78022   0.78358
  Beta virt. eigenvalues --    0.82358   0.82367   1.01423   1.03676   1.04538
  Beta virt. eigenvalues --    1.05464   1.20994   1.21427   1.37521   1.37584
  Beta virt. eigenvalues --    1.37585   1.37972   1.37973   1.40819   1.40832
  Beta virt. eigenvalues --    1.42874   1.42902   1.45063   1.45070   1.45761
  Beta virt. eigenvalues --    1.46332   1.47152   1.62990   1.64378   1.65051
  Beta virt. eigenvalues --    1.73528   1.73540   1.89143   1.91012   1.91568
  Beta virt. eigenvalues --    1.99262   2.02557   2.02557   2.03291   2.03293
  Beta virt. eigenvalues --    2.15258   2.22818   2.23452   3.00035   3.16341
  Beta virt. eigenvalues --    3.16934   3.32344   3.33774   3.34355   3.43472
  Beta virt. eigenvalues --    3.43477   3.93553   3.93553   3.95146   3.95183
  Beta virt. eigenvalues --    3.95233   3.97769   3.97796   4.04524   4.05533
  Beta virt. eigenvalues --    4.07024   4.07851   4.08151   4.11263   4.11271
  Beta virt. eigenvalues --    4.37926   4.38905   4.59503   4.67890   4.68799
  Beta virt. eigenvalues --    4.82140   4.82161   5.70104   5.86956   6.02844
  Beta virt. eigenvalues --    6.03685   6.98842   6.98842   7.96890   7.97876
  Beta virt. eigenvalues --    7.98007   7.99141   7.99532   8.81138   9.13072
  Beta virt. eigenvalues --    9.13073   9.26083   9.26494  10.31760  10.45778
  Beta virt. eigenvalues --   10.46330  12.20513  18.21965
          Condensed to atoms (all electrons):
               1          2
     1  B    4.825817   0.164331
     2  H    0.164331   0.845521
          Atomic-Atomic Spin Densities.
               1          2
     1  B    0.000000   0.000000
     2  H    0.000000   0.000000
 Mulliken charges and spin densities:
               1          2
     1  B    0.009852   0.000000
     2  H   -0.009852   0.000000
 Sum of Mulliken charges =  -0.00000   0.00000
 Mulliken charges and spin densities with hydrogens summed into heavy atoms:
               1          2
     1  B   -0.000000   0.000000
 Electronic spatial extent (au):  <R**2>=             19.1708
 Charge=             -0.0000 electrons
 Dipole moment (field-independent basis, Debye):
    X=              0.0000    Y=              0.0000    Z=             -1.7806  Tot=              1.7806
 Quadrupole moment (field-independent basis, Debye-Ang):
   XX=             -7.2886   YY=             -6.0654   ZZ=             -9.1893
   XY=              0.0000   XZ=              0.0000   YZ=              0.0000
 Traceless Quadrupole moment (field-independent basis, Debye-Ang):
   XX=              0.2259   YY=              1.4490   ZZ=             -1.6748
   XY=              0.0000   XZ=              0.0000   YZ=              0.0000
 Octapole moment (field-independent basis, Debye-Ang**2):
  XXX=              0.0000  YYY=              0.0000  ZZZ=             -5.5099  XYY=              0.0000
  XXY=              0.0000  XXZ=             -2.1019  XZZ=              0.0000  YZZ=              0.0000
  YYZ=             -1.6797  XYZ=              0.0000
 Hexadecapole moment (field-independent basis, Debye-Ang**3):
 XXXX=            -12.1824 YYYY=             -8.5704 ZZZZ=            -20.2819 XXXY=              0.0000
 XXXZ=              0.0000 YYYX=              0.0000 YYYZ=              0.0000 ZZZX=              0.0000
 ZZZY=              0.0000 XXYY=             -3.4586 XXZZ=             -5.5860 YYZZ=             -4.8592
 XXYZ=              0.0000 YYXZ=              0.0000 ZZXY=              0.0000
 N-N= 2.939873394000D+00 E-N=-6.413560991971D+01  KE= 2.559716003838D+01
 Symmetry A1   KE= 2.534827322190D+01
 Symmetry A2   KE= 5.302518024648D-30
 Symmetry B1   KE= 2.488868164836D-01
 Symmetry B2   KE= 6.800660446195D-30
 Symmetry A1   SP= 0.000000000000D+00
 Symmetry A2   SP= 0.000000000000D+00
 Symmetry B1   SP= 0.000000000000D+00
 Symmetry B2   SP= 0.000000000000D+00
                          Isotropic Fermi Contact Couplings
        Atom                 a.u.       MegaHertz       Gauss      10(-4) cm-1
     1  B(11)              0.00000       0.00000       0.00000       0.00000
     2  H(1)               0.00000       0.00000       0.00000       0.00000
 --------------------------------------------------------
       Center         ----  Spin Dipole Couplings  ----
                      3XX-RR        3YY-RR        3ZZ-RR
 --------------------------------------------------------
     1   Atom        0.000000      0.000000      0.000000
     2   Atom        0.000000      0.000000      0.000000
 --------------------------------------------------------
                        XY            XZ            YZ
 --------------------------------------------------------
     1   Atom        0.000000      0.517269      0.000000
     2   Atom        0.000000      0.001889      0.000000
 --------------------------------------------------------


 ---------------------------------------------------------------------------------
              Anisotropic Spin Dipole Couplings in Principal Axis System
 ---------------------------------------------------------------------------------

       Atom             a.u.   MegaHertz   Gauss  10(-4) cm-1        Axes

              Baa    -0.5173   -88.564   -31.602   -29.542  0.7071  0.0000 -0.7071
     1 B(11)  Bbb     0.0000     0.000     0.000     0.000 -0.0000  1.0000 -0.0000
              Bcc     0.5173    88.564    31.602    29.542  0.7071  0.0000  0.7071
 
              Baa    -0.0019    -1.008    -0.360    -0.336  0.7071  0.0000 -0.7071
     2 H(1)   Bbb     0.0000     0.000     0.000     0.000 -0.0000  1.0000 -0.0000
              Bcc     0.0019     1.008     0.360     0.336  0.7071  0.0000  0.7071
 

 ---------------------------------------------------------------------------------

 No NMR shielding tensors so no spin-rotation constants.
 Leave Link  601 at Sun May 22 18:34:18 2022, MaxMem=   104857600 cpu:               0.2 elap:               0.2
 (Enter /apps/software/g16/l801.exe)
 Range of M.O.s used for correlation:     1   126
 NBasis=   126 NAE=     3 NBE=     3 NFC=     0 NFV=     0
 NROrb=    126 NOA=     3 NOB=     3 NVA=   123 NVB=   123

 **** Warning!!: The largest alpha MO coefficient is  0.33092364D+02


 **** Warning!!: The largest beta MO coefficient is  0.33092364D+02

 Leave Link  801 at Sun May 22 18:34:18 2022, MaxMem=   104857600 cpu:               0.0 elap:               0.0
 (Enter /apps/software/g16/l914.exe)
 UHF ground state
 Doing stability rather than CIS.
 Keep R1 and R2 ints in memory in symmetry-blocked form, NReq=40144005.
 FoFCou: FMM=F IPFlag=           0 FMFlag=           0 FMFlg1=           0
         NFxFlg=           0 DoJE=F BraDBF=F KetDBF=F FulRan=T
         wScrn=  0.000000 ICntrl=       600 IOpCl=  0 I1Cent=           0 NGrid=           0
         NMat0=    1 NMatS0=   8001 NMatT0=    0 NMatD0=    1 NMtDS0=    0 NMtDT0=    0
 Petite list used in FoFCou.
 MDV=   104857600 DFT=F DoStab=T Mixed=F DoRPA=F DoScal=F NonHer=F
 Making orbital integer symmetry assigments:
 Orbital symmetries:
 Alpha Orbitals:
       Occupied  (SG) (SG) (?A)
       Virtual   (?A) (?A) (?A) (?A) (?A) (?A) (?A) (?A) (?A) (?A)
                 (?A) (?A) (?A) (?A) (?A) (?A) (?A) (?A) (?A) (?A)
                 (?A) (?A) (?A) (?A) (?A) (?A) (?A) (?A) (?A) (?A)
                 (?A) (?A) (?B) (?B) (?B) (?B) (?B) (?C) (?C) (?C)
                 (?C) (?D) (?D) (?D) (?D) (?D) (?D) (?D) (?D) (?D)
                 (?D) (?D) (?D) (?D) (?D) (?D) (?D) (?E) (?E) (?E)
                 (?E) (?E) (SG) (PI) (PI) (SG) (?F) (?F) (?F) (?F)
                 (SG) (PI) (PI) (SG) (PI) (PI) (?G) (?G) (?G) (DLTA)
                 (DLTA) (?H) (?H) (?H) (?H) (?H) (?H) (?H) (?H)
                 (?H) (?H) (?H) (?H) (?H) (?H) (PI) (PI) (SG) (PI)
                 (PI) (DLTA) (DLTA) (SG) (SG) (PI) (PI) (PHI) (PHI)
                 (?I) (?I) (?I) (PI) (PI) (SG) (DLTA) (DLTA) (PI)
                 (PI) (SG) (PI) (PI) (SG) (SG)
 Beta  Orbitals:
       Occupied  (SG) (SG) (?A)
       Virtual   (?A) (?A) (?A) (?A) (?A) (?A) (?A) (?A) (?A) (?A)
                 (?A) (?A) (?A) (?A) (?A) (?A) (?A) (?A) (?A) (?A)
                 (?A) (?A) (?A) (?A) (?A) (?A) (?A) (?A) (?A) (?A)
                 (?A) (?A) (?B) (?B) (?B) (?B) (?B) (?C) (?C) (?C)
                 (?C) (?D) (?D) (?D) (?D) (?D) (?D) (?D) (?D) (?D)
                 (?D) (?D) (?D) (?D) (?D) (?D) (?D) (?E) (?E) (?E)
                 (?E) (?E) (SG) (PI) (PI) (SG) (?F) (?F) (?F) (?F)
                 (SG) (PI) (PI) (SG) (PI) (PI) (?G) (?G) (?G) (DLTA)
                 (DLTA) (?H) (?H) (?H) (?H) (?H) (?H) (?H) (?H)
                 (?H) (?H) (?H) (?H) (?H) (?H) (PI) (PI) (SG) (PI)
                 (PI) (DLTA) (DLTA) (SG) (SG) (PI) (PI) (PHI) (PHI)
                 (?I) (?I) (?I) (PI) (PI) (SG) (DLTA) (DLTA) (PI)
                 (PI) (SG) (PI) (PI) (SG) (SG)
    12 initial guesses have been made.
 Convergence on wavefunction:    0.001000000000000
 Davidson Disk Diagonalization:  ConvIn= 1.00D-03 SkipCon=T Conv= 1.00D-03.
 Max sub-space:  1476 roots to seek:    12 dimension of matrix:          738
 Iteration     1 Dimension    12 NMult     0 NNew     12
 CISAX will form    12 AO SS matrices at one time.
 NMat=    12 NSing=    12 JSym2X= 2.
 New state      1 was old state      2
 Excitation Energies [eV] at current iteration:
 Root      1 :     0.698274361882378
 Root      2 :     3.085571484827465
 Root      3 :     3.504713427086548
 Root      4 :     4.469228116868682
 Root      5 :     6.261864455354304
 Root      6 :     7.186339983819773
 Root      7 :     7.459742295475399
 Root      8 :     7.835750331894750
 Root      9 :     8.058219026194276
 Root     10 :     8.177985360850380
 Root     11 :     8.218080538111982
 Root     12 :     8.734173041881689
 Iteration     2 Dimension    24 NMult    12 NNew     12
 CISAX will form    12 AO SS matrices at one time.
 NMat=    12 NSing=    12 JSym2X= 2.
 Root      1 not converged, maximum delta is    0.052240187021447
 Excitation Energies [eV] at current iteration:
 Root      1 :     0.021892411887223   Change is   -0.676381949995154
 Root      2 :     2.489534309661814   Change is   -0.596037175165650
 Root      3 :     2.771035944497871   Change is   -0.733677482588677
 Root      4 :     3.707497858995274   Change is   -0.761730257873408
 Root      5 :     5.960892432268277   Change is   -0.300972023086026
 Root      6 :     6.976525132174658   Change is   -0.209814851645115
 Root      7 :     7.257020934298079   Change is   -0.202721361177320
 Root      8 :     7.754998844168901   Change is   -0.080751487725849
 Root      9 :     7.883120720472027   Change is   -0.175098305722250
 Root     10 :     7.964804772519757   Change is   -0.253275765592226
 Root     11 :     8.005539609757260   Change is   -0.172445751093120
 Root     12 :     8.029177949424513   Change is   -0.704995092457176
 Iteration     3 Dimension    27 NMult    24 NNew      3
 CISAX will form     3 AO SS matrices at one time.
 NMat=     3 NSing=     3 JSym2X= 2.
 Root      1 not converged, maximum delta is    0.011384588092964
 Excitation Energies [eV] at current iteration:
 Root      1 :     0.003029779685916   Change is   -0.018862632201307
 Root      2 :     2.465328378796337   Change is   -0.024205930865477
 Root      3 :     2.727394094285513   Change is   -0.043641850212358
 Iteration     4 Dimension    30 NMult    27 NNew      3
 CISAX will form     3 AO SS matrices at one time.
 NMat=     3 NSing=     3 JSym2X= 2.
 Root      1 not converged, maximum delta is    0.005959582582927
 Excitation Energies [eV] at current iteration:
 Root      1 :     0.000216702059754   Change is   -0.002813077626162
 Root      2 :     2.464435153948238   Change is   -0.000893224848099
 Root      3 :     2.725438472522536   Change is   -0.001955621762977
 Iteration     5 Dimension    33 NMult    30 NNew      3
 CISAX will form     3 AO SS matrices at one time.
 NMat=     3 NSing=     3 JSym2X= 2.
 Root      1 not converged, maximum delta is    0.001335494479271
 Excitation Energies [eV] at current iteration:
 Root      1 :     0.000005346393539   Change is   -0.000211355666215
 Root      2 :     2.464353434154913   Change is   -0.000081719793325
 Root      3 :     2.725329251659931   Change is   -0.000109220862605
 Iteration     6 Dimension    36 NMult    33 NNew      3
 CISAX will form     3 AO SS matrices at one time.
 NMat=     3 NSing=     3 JSym2X= 2.
 Root      1 has converged.
 Excitation Energies [eV] at current iteration:
 Root      1 :     0.000000505410027   Change is   -0.000004840983512
 Root      2 :     2.464340942772136   Change is   -0.000012491382777
 Root      3 :     2.725322768851156   Change is   -0.000006482808774
 Convergence achieved on expansion vectors.
 ***********************************************************************
 Stability analysis using <AA,BB:AA,BB> singles matrix:
 ***********************************************************************
 1PDM for each excited state written to RWF  633
 Ground to excited state transition densities written to RWF  633

 Eigenvectors of the stability matrix:
 
 Excited state symmetry could not be determined.
 Eigenvector   1:  2.770-?Sym  Eigenvalue= 0.0000000  <S**2>=1.669
      3A ->  4A        0.41993
      3A ->  8A        0.48528
      3A -> 11A        0.12285
      3A -> 17A        0.12458
      3A -> 21A       -0.20044
      3B ->  4B       -0.41993
      3B ->  8B       -0.48528
      3B -> 11B       -0.12285
      3B -> 17B       -0.12458
      3B -> 21B        0.20044
 The wavefunction is stable under the perturbations considered.
 Leave Link  914 at Sun May 22 18:34:22 2022, MaxMem=   104857600 cpu:               4.2 elap:               4.2
 (Enter /apps/software/g16/l508.exe)
 The wavefunction is already stable.
 Leave Link  508 at Sun May 22 18:34:22 2022, MaxMem=   104857600 cpu:               0.0 elap:               0.0
 (Enter /apps/software/g16/l601.exe)
 Copying SCF densities to generalized density rwf, IOpCl= 1 IROHF=0.
 SCF density gives NOpUse=  1 NOpAll=  4.
 Marking SCF density as not fully symmetric.

 **********************************************************************

            Population analysis using the SCF density.

 **********************************************************************

 Orbital symmetries:
 Alpha Orbitals:
       Occupied  (SG) (SG) (?A)
       Virtual   (?A) (?A) (?A) (?A) (?A) (?A) (?A) (?A) (?A) (?A)
                 (?A) (?A) (?A) (?A) (?A) (?A) (?A) (?A) (?A) (?A)
                 (?A) (?A) (?A) (?A) (?A) (?A) (?A) (?A) (?A) (?A)
                 (?A) (?A) (?B) (?B) (?B) (?B) (?B) (?C) (?C) (?C)
                 (?C) (?D) (?D) (?D) (?D) (?D) (?D) (?D) (?D) (?D)
                 (?D) (?D) (?D) (?D) (?D) (?D) (?D) (?E) (?E) (?E)
                 (?E) (?E) (SG) (PI) (PI) (SG) (?F) (?F) (?F) (?F)
                 (SG) (PI) (PI) (SG) (PI) (PI) (?G) (?G) (?G) (DLTA)
                 (DLTA) (?H) (?H) (?H) (?H) (?H) (?H) (?H) (?H)
                 (?H) (?H) (?H) (?H) (?H) (?H) (PI) (PI) (SG) (PI)
                 (PI) (DLTA) (DLTA) (SG) (SG) (PI) (PI) (PHI) (PHI)
                 (?I) (?I) (?I) (PI) (PI) (SG) (DLTA) (DLTA) (PI)
                 (PI) (SG) (PI) (PI) (SG) (SG)
 Beta  Orbitals:
       Occupied  (SG) (SG) (?A)
       Virtual   (?A) (?A) (?A) (?A) (?A) (?A) (?A) (?A) (?A) (?A)
                 (?A) (?A) (?A) (?A) (?A) (?A) (?A) (?A) (?A) (?A)
                 (?A) (?A) (?A) (?A) (?A) (?A) (?A) (?A) (?A) (?A)
                 (?A) (?A) (?B) (?B) (?B) (?B) (?B) (?C) (?C) (?C)
                 (?C) (?D) (?D) (?D) (?D) (?D) (?D) (?D) (?D) (?D)
                 (?D) (?D) (?D) (?D) (?D) (?D) (?D) (?E) (?E) (?E)
                 (?E) (?E) (SG) (PI) (PI) (SG) (?F) (?F) (?F) (?F)
                 (SG) (PI) (PI) (SG) (PI) (PI) (?G) (?G) (?G) (DLTA)
                 (DLTA) (?H) (?H) (?H) (?H) (?H) (?H) (?H) (?H)
                 (?H) (?H) (?H) (?H) (?H) (?H) (PI) (PI) (SG) (PI)
                 (PI) (DLTA) (DLTA) (SG) (SG) (PI) (PI) (PHI) (PHI)
                 (?I) (?I) (?I) (PI) (PI) (SG) (DLTA) (DLTA) (PI)
                 (PI) (SG) (PI) (PI) (SG) (SG)
 Unable to determine electronic state:  an orbital has unidentified symmetry.
 Alpha  occ. eigenvalues --   -7.63782  -0.73321  -0.36834
 Alpha virt. eigenvalues --    0.02683   0.02845   0.03420   0.04309   0.08215
 Alpha virt. eigenvalues --    0.08987   0.12226   0.13087   0.13409   0.14602
 Alpha virt. eigenvalues --    0.14665   0.14677   0.17627   0.27184   0.27210
 Alpha virt. eigenvalues --    0.28761   0.33282   0.33331   0.41725   0.43424
 Alpha virt. eigenvalues --    0.43439   0.44394   0.46381   0.46396   0.47064
 Alpha virt. eigenvalues --    0.47515   0.49981   0.50581   0.50647   0.58541
 Alpha virt. eigenvalues --    0.60774   0.61186   0.77942   0.78022   0.78358
 Alpha virt. eigenvalues --    0.82358   0.82367   1.01423   1.03676   1.04538
 Alpha virt. eigenvalues --    1.05464   1.20994   1.21427   1.37521   1.37584
 Alpha virt. eigenvalues --    1.37585   1.37972   1.37973   1.40819   1.40832
 Alpha virt. eigenvalues --    1.42874   1.42902   1.45063   1.45070   1.45761
 Alpha virt. eigenvalues --    1.46332   1.47152   1.62990   1.64378   1.65051
 Alpha virt. eigenvalues --    1.73528   1.73540   1.89143   1.91012   1.91568
 Alpha virt. eigenvalues --    1.99262   2.02557   2.02557   2.03291   2.03293
 Alpha virt. eigenvalues --    2.15258   2.22818   2.23452   3.00035   3.16341
 Alpha virt. eigenvalues --    3.16934   3.32344   3.33774   3.34355   3.43472
 Alpha virt. eigenvalues --    3.43477   3.93553   3.93553   3.95146   3.95183
 Alpha virt. eigenvalues --    3.95233   3.97769   3.97796   4.04524   4.05533
 Alpha virt. eigenvalues --    4.07024   4.07851   4.08151   4.11263   4.11271
 Alpha virt. eigenvalues --    4.37926   4.38905   4.59503   4.67890   4.68799
 Alpha virt. eigenvalues --    4.82140   4.82161   5.70104   5.86956   6.02844
 Alpha virt. eigenvalues --    6.03685   6.98842   6.98842   7.96890   7.97876
 Alpha virt. eigenvalues --    7.98007   7.99141   7.99532   8.81138   9.13072
 Alpha virt. eigenvalues --    9.13073   9.26083   9.26494  10.31760  10.45778
 Alpha virt. eigenvalues --   10.46330  12.20513  18.21965
  Beta  occ. eigenvalues --   -7.63782  -0.73321  -0.36834
  Beta virt. eigenvalues --    0.02683   0.02845   0.03420   0.04309   0.08215
  Beta virt. eigenvalues --    0.08987   0.12226   0.13087   0.13409   0.14602
  Beta virt. eigenvalues --    0.14665   0.14677   0.17627   0.27184   0.27210
  Beta virt. eigenvalues --    0.28761   0.33282   0.33331   0.41725   0.43424
  Beta virt. eigenvalues --    0.43439   0.44394   0.46381   0.46396   0.47064
  Beta virt. eigenvalues --    0.47515   0.49981   0.50581   0.50647   0.58541
  Beta virt. eigenvalues --    0.60774   0.61186   0.77942   0.78022   0.78358
  Beta virt. eigenvalues --    0.82358   0.82367   1.01423   1.03676   1.04538
  Beta virt. eigenvalues --    1.05464   1.20994   1.21427   1.37521   1.37584
  Beta virt. eigenvalues --    1.37585   1.37972   1.37973   1.40819   1.40832
  Beta virt. eigenvalues --    1.42874   1.42902   1.45063   1.45070   1.45761
  Beta virt. eigenvalues --    1.46332   1.47152   1.62990   1.64378   1.65051
  Beta virt. eigenvalues --    1.73528   1.73540   1.89143   1.91012   1.91568
  Beta virt. eigenvalues --    1.99262   2.02557   2.02557   2.03291   2.03293
  Beta virt. eigenvalues --    2.15258   2.22818   2.23452   3.00035   3.16341
  Beta virt. eigenvalues --    3.16934   3.32344   3.33774   3.34355   3.43472
  Beta virt. eigenvalues --    3.43477   3.93553   3.93553   3.95146   3.95183
  Beta virt. eigenvalues --    3.95233   3.97769   3.97796   4.04524   4.05533
  Beta virt. eigenvalues --    4.07024   4.07851   4.08151   4.11263   4.11271
  Beta virt. eigenvalues --    4.37926   4.38905   4.59503   4.67890   4.68799
  Beta virt. eigenvalues --    4.82140   4.82161   5.70104   5.86956   6.02844
  Beta virt. eigenvalues --    6.03685   6.98842   6.98842   7.96890   7.97876
  Beta virt. eigenvalues --    7.98007   7.99141   7.99532   8.81138   9.13072
  Beta virt. eigenvalues --    9.13073   9.26083   9.26494  10.31760  10.45778
  Beta virt. eigenvalues --   10.46330  12.20513  18.21965
          Condensed to atoms (all electrons):
               1          2
     1  B    4.825817   0.164331
     2  H    0.164331   0.845521
          Atomic-Atomic Spin Densities.
               1          2
     1  B    0.000000   0.000000
     2  H    0.000000   0.000000
 Mulliken charges and spin densities:
               1          2
     1  B    0.009852   0.000000
     2  H   -0.009852   0.000000
 Sum of Mulliken charges =  -0.00000   0.00000
 Mulliken charges and spin densities with hydrogens summed into heavy atoms:
               1          2
     1  B   -0.000000   0.000000
 Electronic spatial extent (au):  <R**2>=             19.1708
 Charge=             -0.0000 electrons
 Dipole moment (field-independent basis, Debye):
    X=              0.0000    Y=              0.0000    Z=             -1.7806  Tot=              1.7806
 Quadrupole moment (field-independent basis, Debye-Ang):
   XX=             -7.2886   YY=             -6.0654   ZZ=             -9.1893
   XY=              0.0000   XZ=              0.0000   YZ=              0.0000
 Traceless Quadrupole moment (field-independent basis, Debye-Ang):
   XX=              0.2259   YY=              1.4490   ZZ=             -1.6748
   XY=              0.0000   XZ=              0.0000   YZ=              0.0000
 Octapole moment (field-independent basis, Debye-Ang**2):
  XXX=              0.0000  YYY=              0.0000  ZZZ=             -5.5099  XYY=              0.0000
  XXY=              0.0000  XXZ=             -2.1019  XZZ=              0.0000  YZZ=              0.0000
  YYZ=             -1.6797  XYZ=              0.0000
 Hexadecapole moment (field-independent basis, Debye-Ang**3):
 XXXX=            -12.1824 YYYY=             -8.5704 ZZZZ=            -20.2819 XXXY=              0.0000
 XXXZ=              0.0000 YYYX=              0.0000 YYYZ=              0.0000 ZZZX=              0.0000
 ZZZY=              0.0000 XXYY=             -3.4586 XXZZ=             -5.5860 YYZZ=             -4.8592
 XXYZ=              0.0000 YYXZ=              0.0000 ZZXY=              0.0000
 N-N= 2.939873394000D+00 E-N=-6.413560991971D+01  KE= 2.559716003838D+01
 Symmetry A1   KE= 2.534827322190D+01
 Symmetry A2   KE= 5.302518024648D-30
 Symmetry B1   KE= 2.488868164836D-01
 Symmetry B2   KE= 6.800660446195D-30
 Symmetry A1   SP= 0.000000000000D+00
 Symmetry A2   SP= 0.000000000000D+00
 Symmetry B1   SP= 0.000000000000D+00
 Symmetry B2   SP= 0.000000000000D+00
                          Isotropic Fermi Contact Couplings
        Atom                 a.u.       MegaHertz       Gauss      10(-4) cm-1
     1  B(11)              0.00000       0.00000       0.00000       0.00000
     2  H(1)               0.00000       0.00000       0.00000       0.00000
 --------------------------------------------------------
       Center         ----  Spin Dipole Couplings  ----
                      3XX-RR        3YY-RR        3ZZ-RR
 --------------------------------------------------------
     1   Atom        0.000000      0.000000      0.000000
     2   Atom        0.000000      0.000000      0.000000
 --------------------------------------------------------
                        XY            XZ            YZ
 --------------------------------------------------------
     1   Atom        0.000000      0.517269      0.000000
     2   Atom        0.000000      0.001889      0.000000
 --------------------------------------------------------


 ---------------------------------------------------------------------------------
              Anisotropic Spin Dipole Couplings in Principal Axis System
 ---------------------------------------------------------------------------------

       Atom             a.u.   MegaHertz   Gauss  10(-4) cm-1        Axes

              Baa    -0.5173   -88.564   -31.602   -29.542  0.7071  0.0000 -0.7071
     1 B(11)  Bbb     0.0000     0.000     0.000     0.000 -0.0000  1.0000 -0.0000
              Bcc     0.5173    88.564    31.602    29.542  0.7071  0.0000  0.7071
 
              Baa    -0.0019    -1.008    -0.360    -0.336  0.7071  0.0000 -0.7071
     2 H(1)   Bbb     0.0000     0.000     0.000     0.000 -0.0000  1.0000 -0.0000
              Bcc     0.0019     1.008     0.360     0.336  0.7071  0.0000  0.7071
 

 ---------------------------------------------------------------------------------

 No NMR shielding tensors so no spin-rotation constants.
 Leave Link  601 at Sun May 22 18:34:22 2022, MaxMem=   104857600 cpu:               0.2 elap:               0.2
 (Enter /apps/software/g16/l9999.exe)
 1\1\GINC-CNODE13\Stability\UHF\Aug-CC-pVQZ\B1H1\LCZ\22-May-2022\0\\#p 
 UHF/aug-cc-pVQZ guess=mix stable=opt\\BH UHF at 0.9 Angstrom\\0,1\B,0,
 0.,0.,0.\H,0,0.9,0.,0.\\Version=ES64L-G16RevA.03\HF=-25.0687224\S2=0.5
 456\S2-1=0.\S2A=0.003982\RMSD=4.859e-09\Dipole=0.7005459,0.,0.\Quadrup
 ole=-1.2452052,1.0772838,0.1679214,0.,0.,0.\PG=C*V [C*(H1B1)]\\@


 ... FOR AFTERWARDS A MAN FINDS PLEASURE IN HIS PAINS,
 WHEN HE HAS SUFFERED LONG AND WANDERED FAR.

                                    -- HOMER
 Job cpu time:       0 days  0 hours  0 minutes  9.1 seconds.
 Elapsed time:       0 days  0 hours  0 minutes  9.1 seconds.
 File lengths (MBytes):  RWF=     29 Int=      0 D2E=      0 Chk=      4 Scr=      1
 Normal termination of Gaussian 16 at Sun May 22 18:34:22 2022.

Sender: Unischeduler System <lcz@mgt01>
Subject: Job 134178: <#!/bin/bash
#BSUB -J intel
#BSUB -o BH-0.9-UHF-G.out
#BSUB -n 8
#BSUB -q cqueue
#BSUB -R span[hosts=1]
export g16root=/apps/software
source /apps/software/g16/bsd/g16.profile
export GAUSS_SCRDIR=/scratch
/apps/software/g16/g16 < BH-0.9-UHF-G.inp > BH-0.9-UHF-G.out> Done

Job <#!/bin/bash
#BSUB -J intel
#BSUB -o BH-0.9-UHF-G.out
#BSUB -n 8
#BSUB -q cqueue
#BSUB -R span[hosts=1]
export g16root=/apps/software
source /apps/software/g16/bsd/g16.profile
export GAUSS_SCRDIR=/scratch
/apps/software/g16/g16 < BH-0.9-UHF-G.inp > BH-0.9-UHF-G.out> was submitted from host <mgt01> by user <lcz>.
Job was executed on host(s) <8*cnode13>, in queue <cqueue>, as user <lcz>.
</apps/users/lcz> was used as the home directory.
</apps/users/lcz/exe13/UCCSD> was used as the working directory.
Started at 2022-05-22 18:34:13
Results reported at 2022-05-22 18:34:22

Your job looked like:

------------------------------------------------------------
# User input
#!/bin/bash
#BSUB -J intel
#BSUB -o BH-0.9-UHF-G.out
#BSUB -n 8
#BSUB -q cqueue
#BSUB -R span[hosts=1]
export g16root=/apps/software
source /apps/software/g16/bsd/g16.profile
export GAUSS_SCRDIR=/scratch
/apps/software/g16/g16 < BH-0.9-UHF-G.inp > BH-0.9-UHF-G.out
------------------------------------------------------------

Successfully completed.

Resource usage summary:

    CPU time   :            3.65 sec.
    Max Memory :               478 MB
    Max Processes  :               5


The output (if any) follows:

