 Entering Gaussian System, Link 0=/apps/software/g16/g16
 Initial command:
 /apps/software/g16/l1.exe "/scratch/Gau-283784.inp" -scrdir="/scratch/"
 Entering Link 1 = /apps/software/g16/l1.exe PID=    283785.
  
 Copyright (c) 1988,1990,1992,1993,1995,1998,2003,2009,2016,
            Gaussian, Inc.  All Rights Reserved.
  
 This is part of the Gaussian(R) 16 program.  It is based on
 the Gaussian(R) 09 system (copyright 2009, Gaussian, Inc.),
 the Gaussian(R) 03 system (copyright 2003, Gaussian, Inc.),
 the Gaussian(R) 98 system (copyright 1998, Gaussian, Inc.),
 the Gaussian(R) 94 system (copyright 1995, Gaussian, Inc.),
 the Gaussian 92(TM) system (copyright 1992, Gaussian, Inc.),
 the Gaussian 90(TM) system (copyright 1990, Gaussian, Inc.),
 the Gaussian 88(TM) system (copyright 1988, Gaussian, Inc.),
 the Gaussian 86(TM) system (copyright 1986, Carnegie Mellon
 University), and the Gaussian 82(TM) system (copyright 1983,
 Carnegie Mellon University). Gaussian is a federally registered
 trademark of Gaussian, Inc.
  
 This software contains proprietary and confidential information,
 including trade secrets, belonging to Gaussian, Inc.
  
 This software is provided under written license and may be
 used, copied, transmitted, or stored only in accord with that
 written license.
  
 The following legend is applicable only to US Government
 contracts under FAR:
  
                    RESTRICTED RIGHTS LEGEND
  
 Use, reproduction and disclosure by the US Government is
 subject to restrictions as set forth in subparagraphs (a)
 and (c) of the Commercial Computer Software - Restricted
 Rights clause in FAR 52.227-19.
  
 Gaussian, Inc.
 340 Quinnipiac St., Bldg. 40, Wallingford CT 06492
  
  
 ---------------------------------------------------------------
 Warning -- This program may not be used in any manner that
 competes with the business of Gaussian, Inc. or will provide
 assistance to any competitor of Gaussian, Inc.  The licensee
 of this program is prohibited from giving any competitor of
 Gaussian, Inc. access to this program.  By using this program,
 the user acknowledges that Gaussian, Inc. is engaged in the
 business of creating and licensing software in the field of
 computational chemistry and represents and warrants to the
 licensee that it is not a competitor of Gaussian, Inc. and that
 it will not use this program in any manner prohibited above.
 ---------------------------------------------------------------
  

 Cite this work as:
 Gaussian 16, Revision A.03,
 M. J. Frisch, G. W. Trucks, H. B. Schlegel, G. E. Scuseria, 
 M. A. Robb, J. R. Cheeseman, G. Scalmani, V. Barone, 
 G. A. Petersson, H. Nakatsuji, X. Li, M. Caricato, A. V. Marenich, 
 J. Bloino, B. G. Janesko, R. Gomperts, B. Mennucci, H. P. Hratchian, 
 J. V. Ortiz, A. F. Izmaylov, J. L. Sonnenberg, D. Williams-Young, 
 F. Ding, F. Lipparini, F. Egidi, J. Goings, B. Peng, A. Petrone, 
 T. Henderson, D. Ranasinghe, V. G. Zakrzewski, J. Gao, N. Rega, 
 G. Zheng, W. Liang, M. Hada, M. Ehara, K. Toyota, R. Fukuda, 
 J. Hasegawa, M. Ishida, T. Nakajima, Y. Honda, O. Kitao, H. Nakai, 
 T. Vreven, K. Throssell, J. A. Montgomery, Jr., J. E. Peralta, 
 F. Ogliaro, M. J. Bearpark, J. J. Heyd, E. N. Brothers, K. N. Kudin, 
 V. N. Staroverov, T. A. Keith, R. Kobayashi, J. Normand, 
 K. Raghavachari, A. P. Rendell, J. C. Burant, S. S. Iyengar, 
 J. Tomasi, M. Cossi, J. M. Millam, M. Klene, C. Adamo, R. Cammi, 
 J. W. Ochterski, R. L. Martin, K. Morokuma, O. Farkas, 
 J. B. Foresman, and D. J. Fox, Gaussian, Inc., Wallingford CT, 2016.
 
 ******************************************
 Gaussian 16:  ES64L-G16RevA.03 25-Dec-2016
                22-May-2022 
 ******************************************
 %chk=BH-1.1-UHF-G.chk
 ---------------------------------------
 #p UHF/aug-cc-pVQZ guess=mix stable=opt
 ---------------------------------------
 1/38=1,172=1/1;
 2/12=2,17=6,18=5,40=1/2;
 3/5=16,6=2,7=10,11=2,25=1,30=1,116=2/1,2,3;
 4/13=-1/1;
 5/5=2,38=5/2;
 6/7=2,8=2,9=2,10=2,28=1/1;
 8/6=1,10=90,11=11/1;
 9/8=-3,42=1,46=1/14;
 5/5=2,8=3,17=40,38=5/8(-2);
 6/7=2,8=2,9=2,10=2,28=1/1;
 99/5=1,9=1/99;
 Leave Link    1 at Sun May 22 18:34:22 2022, MaxMem=           0 cpu:               0.0 elap:               0.0
 (Enter /apps/software/g16/l101.exe)
 ----------------------
 BH UHF at 1.1 Angstrom
 ----------------------
 Symbolic Z-matrix:
 Charge =  0 Multiplicity = 1
 B                     0.        0.        0. 
 H                     1.1       0.        0. 
 
 ITRead=  0  0
 MicOpt= -1 -1
 NAtoms=      2 NQM=        2 NQMF=       0 NMMI=      0 NMMIF=      0
                NMic=       0 NMicF=      0.
                    Isotopes and Nuclear Properties:
 (Nuclear quadrupole moments (NQMom) in fm**2, nuclear magnetic moments (NMagM)
  in nuclear magnetons)

  Atom         1           2
 IAtWgt=          11           1
 AtmWgt=  11.0093053   1.0078250
 NucSpn=           3           1
 AtZEff=  -0.0000000  -0.0000000
 NQMom=    4.0590000   0.0000000
 NMagM=    2.6886370   2.7928460
 AtZNuc=   5.0000000   1.0000000
 Leave Link  101 at Sun May 22 18:34:22 2022, MaxMem=   104857600 cpu:               0.1 elap:               0.1
 (Enter /apps/software/g16/l202.exe)
                          Input orientation:                          
 ---------------------------------------------------------------------
 Center     Atomic      Atomic             Coordinates (Angstroms)
 Number     Number       Type             X           Y           Z
 ---------------------------------------------------------------------
      1          5           0        0.000000    0.000000    0.000000
      2          1           0        1.100000    0.000000    0.000000
 ---------------------------------------------------------------------
 Stoichiometry    BH
 Framework group  C*V[C*(HB)]
 Deg. of freedom     1
 Full point group                 C*V     NOp   4
 Largest Abelian subgroup         C2V     NOp   4
 Largest concise Abelian subgroup C1      NOp   1
                         Standard orientation:                         
 ---------------------------------------------------------------------
 Center     Atomic      Atomic             Coordinates (Angstroms)
 Number     Number       Type             X           Y           Z
 ---------------------------------------------------------------------
      1          5           0        0.000000    0.000000    0.183333
      2          1           0        0.000000    0.000000   -0.916667
 ---------------------------------------------------------------------
 Rotational constants (GHZ):           0.0000000         452.3634862         452.3634862
 Leave Link  202 at Sun May 22 18:34:22 2022, MaxMem=   104857600 cpu:               0.0 elap:               0.0
 (Enter /apps/software/g16/l301.exe)
 Standard basis: Aug-CC-pVQZ (5D, 7F)
 Ernie: Thresh=  0.10000D-02 Tol=  0.10000D-05 Strict=F.
 Ernie:  4 primitive shells out of 54 were deleted.
 There are    68 symmetry adapted cartesian basis functions of A1  symmetry.
 There are    18 symmetry adapted cartesian basis functions of A2  symmetry.
 There are    37 symmetry adapted cartesian basis functions of B1  symmetry.
 There are    37 symmetry adapted cartesian basis functions of B2  symmetry.
 There are    50 symmetry adapted basis functions of A1  symmetry.
 There are    16 symmetry adapted basis functions of A2  symmetry.
 There are    30 symmetry adapted basis functions of B1  symmetry.
 There are    30 symmetry adapted basis functions of B2  symmetry.
   126 basis functions,   180 primitive gaussians,   160 cartesian basis functions
     3 alpha electrons        3 beta electrons
       nuclear repulsion energy         2.4053509587 Hartrees.
 IExCor=    0 DFT=F Ex=HF Corr=None ExCW=0 ScaHFX=  1.000000
 ScaDFX=  1.000000  1.000000  1.000000  1.000000 ScalE2=  1.000000  1.000000
 IRadAn=      5 IRanWt=     -1 IRanGd=            0 ICorTp=0 IEmpDi=  4
 NAtoms=    2 NActive=    2 NUniq=    2 SFac= 1.00D+00 NAtFMM=   60 NAOKFM=F Big=F
 Integral buffers will be    131072 words long.
 Raffenetti 2 integral format.
 Two-electron integral symmetry is turned on.
 Leave Link  301 at Sun May 22 18:34:22 2022, MaxMem=   104857600 cpu:               0.1 elap:               0.1
 (Enter /apps/software/g16/l302.exe)
 NPDir=0 NMtPBC=     1 NCelOv=     1 NCel=       1 NClECP=     1 NCelD=      1
         NCelK=      1 NCelE2=     1 NClLst=     1 CellRange=     0.0.
 One-electron integrals computed using PRISM.
 One-electron integral symmetry used in STVInt
 NBasis=   126 RedAO= T EigKep=  8.26D-05  NBF=    50    16    30    30
 NBsUse=   126 1.00D-06 EigRej= -1.00D+00 NBFU=    50    16    30    30
 Leave Link  302 at Sun May 22 18:34:22 2022, MaxMem=   104857600 cpu:               0.1 elap:               0.1
 (Enter /apps/software/g16/l303.exe)
 DipDrv:  MaxL=1.
 Leave Link  303 at Sun May 22 18:34:22 2022, MaxMem=   104857600 cpu:               0.0 elap:               0.0
 (Enter /apps/software/g16/l401.exe)
 ExpMin= 1.88D-02 ExpMax= 2.39D+04 ExpMxC= 2.30D+02 IAcc=3 IRadAn=         5 AccDes= 0.00D+00
 Harris functional with IExCor=  205 and IRadAn=       5 diagonalized for initial guess.
 HarFok:  IExCor=  205 AccDes= 0.00D+00 IRadAn=         5 IDoV= 1 UseB2=F ITyADJ=14
 ICtDFT=  3500011 ScaDFX=  1.000000  1.000000  1.000000  1.000000
 FoFCou: FMM=F IPFlag=           0 FMFlag=      100000 FMFlg1=           0
         NFxFlg=           0 DoJE=T BraDBF=F KetDBF=T FulRan=T
         wScrn=  0.000000 ICntrl=       500 IOpCl=  0 I1Cent=   200000004 NGrid=           0
         NMat0=    1 NMatS0=      1 NMatT0=    0 NMatD0=    1 NMtDS0=    0 NMtDT0=    0
 Petite list used in FoFCou.
 Harris En= -25.1012145766297    
 JPrj=0 DoOrth=F DoCkMO=T.
 Mixing orbitals, IMix= 1 IMixAn=  0 NRI=1 NE=    3 Coef=  7.07106781D-01  7.07106781D-01
 Mixing orbitals, IMix= 1 IMixAn=  0 NRI=1 NE=    3 Coef= -7.07106781D-01  7.07106781D-01
 Initial guess orbital symmetries:
 Alpha Orbitals:
       Occupied  (SG) (SG) (?A)
       Virtual   (?A) (?A) (SG) (SG) (PI) (PI) (SG) (PI) (PI) (SG)
                 (DLTA) (DLTA) (SG) (PI) (PI) (SG) (PI) (PI) (SG)
                 (SG) (PI) (PI) (DLTA) (DLTA) (DLTA) (DLTA) (PHI)
                 (PHI) (SG) (SG) (PI) (PI) (SG) (PI) (PI) (DLTA)
                 (DLTA) (SG) (PI) (PI) (SG) (PI) (PI) (SG) (DLTA)
                 (DLTA) (PHI) (PHI) (?B) (?B) (SG) (DLTA) (DLTA)
                 (PI) (PI) (PHI) (PHI) (SG) (PI) (PI) (DLTA) (DLTA)
                 (SG) (PI) (PI) (SG) (PHI) (PHI) (DLTA) (DLTA)
                 (SG) (PI) (PI) (SG) (PI) (PI) (PI) (PI) (SG) (DLTA)
                 (DLTA) (SG) (PI) (PI) (PHI) (PHI) (DLTA) (DLTA)
                 (?B) (?B) (DLTA) (DLTA) (PHI) (PHI) (SG) (PI)
                 (PI) (PI) (PI) (SG) (DLTA) (DLTA) (SG) (SG) (PI)
                 (PI) (PHI) (PHI) (DLTA) (DLTA) (SG) (PI) (PI)
                 (SG) (DLTA) (DLTA) (PI) (PI) (PI) (PI) (SG) (SG)
                 (SG)
 Beta  Orbitals:
       Occupied  (SG) (SG) (?A)
       Virtual   (?A) (?A) (SG) (SG) (PI) (PI) (SG) (PI) (PI) (SG)
                 (DLTA) (DLTA) (SG) (PI) (PI) (SG) (PI) (PI) (SG)
                 (SG) (PI) (PI) (DLTA) (DLTA) (DLTA) (DLTA) (PHI)
                 (PHI) (SG) (SG) (PI) (PI) (SG) (PI) (PI) (DLTA)
                 (DLTA) (SG) (PI) (PI) (SG) (PI) (PI) (SG) (DLTA)
                 (DLTA) (PHI) (PHI) (?B) (?B) (SG) (DLTA) (DLTA)
                 (PI) (PI) (PHI) (PHI) (SG) (PI) (PI) (DLTA) (DLTA)
                 (SG) (PI) (PI) (SG) (PHI) (PHI) (DLTA) (DLTA)
                 (SG) (PI) (PI) (SG) (PI) (PI) (PI) (PI) (SG) (DLTA)
                 (DLTA) (SG) (PI) (PI) (PHI) (PHI) (DLTA) (DLTA)
                 (?B) (?B) (DLTA) (DLTA) (PHI) (PHI) (SG) (PI)
                 (PI) (PI) (PI) (SG) (DLTA) (DLTA) (SG) (SG) (PI)
                 (PI) (PHI) (PHI) (DLTA) (DLTA) (SG) (PI) (PI)
                 (SG) (DLTA) (DLTA) (PI) (PI) (PI) (PI) (SG) (SG)
                 (SG)
 Initial guess <Sx>= 0.0000 <Sy>= 0.0000 <Sz>= 0.0000 <S**2>= 1.0000 S= 0.6180
 Leave Link  401 at Sun May 22 18:34:22 2022, MaxMem=   104857600 cpu:               0.2 elap:               0.2
 (Enter /apps/software/g16/l502.exe)
 Keep R1 and R2 ints in memory in symmetry-blocked form, NReq=40143665.
 FoFCou: FMM=F IPFlag=           0 FMFlag=           0 FMFlg1=           0
         NFxFlg=           0 DoJE=F BraDBF=F KetDBF=F FulRan=T
         wScrn=  0.000000 ICntrl=       600 IOpCl=  0 I1Cent=           0 NGrid=           0
         NMat0=    1 NMatS0=   8001 NMatT0=    0 NMatD0=    1 NMtDS0=    0 NMtDT0=    0
 Petite list used in FoFCou.
 UHF open shell SCF:
 Using DIIS extrapolation, IDIIS=  1040.
 NGot=   104857600 LenX=    88563632 LenY=    88537591
 Requested convergence on RMS density matrix=1.00D-08 within 128 cycles.
 Requested convergence on MAX density matrix=1.00D-06.
 Requested convergence on             energy=1.00D-06.
 No special actions if energy rises.
 An orbital has undefined symmetry, so N**3 symmetry is turned off.

 Cycle   1  Pass 1  IDiag  1:
 Density matrix breaks symmetry, PCut= 1.00D-07
 Density matrix has no symmetry -- integrals replicated.
 E= -25.0662510121905    
 DIIS: error= 2.57D-02 at cycle   1 NSaved=   1.
 NSaved= 1 IEnMin= 1 EnMin= -25.0662510121905     IErMin= 1 ErrMin= 2.57D-02
 ErrMax= 2.57D-02  0.00D+00 EMaxC= 1.00D-01 BMatC= 1.86D-01 BMatP= 1.86D-01
 IDIUse=3 WtCom= 7.43D-01 WtEn= 2.57D-01
 Coeff-Com:  0.100D+01
 Coeff-En:   0.100D+01
 Coeff:      0.100D+01
 Gap=     0.454 Goal=   None    Shift=    0.000
 Gap=     0.454 Goal=   None    Shift=    0.000
 GapD=    0.454 DampG=2.000 DampE=0.500 DampFc=1.0000 IDamp=-1.
 RMSDP=1.24D-03 MaxDP=3.64D-02              OVMax= 1.47D-01

 Cycle   2  Pass 1  IDiag  1:
 Density matrix breaks symmetry, PCut= 1.00D-07
 Density matrix has no symmetry -- integrals replicated.
 E= -25.1136708205309     Delta-E=       -0.047419808340 Rises=F Damp=F
 DIIS: error= 1.10D-02 at cycle   2 NSaved=   2.
 NSaved= 2 IEnMin= 2 EnMin= -25.1136708205309     IErMin= 2 ErrMin= 1.10D-02
 ErrMax= 1.10D-02  0.00D+00 EMaxC= 1.00D-01 BMatC= 9.86D-03 BMatP= 1.86D-01
 IDIUse=3 WtCom= 8.90D-01 WtEn= 1.10D-01
 Coeff-Com: -0.909D-01 0.109D+01
 Coeff-En:   0.000D+00 0.100D+01
 Coeff:     -0.808D-01 0.108D+01
 Gap=     0.407 Goal=   None    Shift=    0.000
 Gap=     0.407 Goal=   None    Shift=    0.000
 RMSDP=5.56D-04 MaxDP=1.97D-02 DE=-4.74D-02 OVMax= 8.37D-02

 Cycle   3  Pass 1  IDiag  1:
 Density matrix breaks symmetry, PCut= 1.00D-07
 Density matrix has no symmetry -- integrals replicated.
 E= -25.1245555723574     Delta-E=       -0.010884751827 Rises=F Damp=F
 DIIS: error= 6.66D-03 at cycle   3 NSaved=   3.
 NSaved= 3 IEnMin= 3 EnMin= -25.1245555723574     IErMin= 3 ErrMin= 6.66D-03
 ErrMax= 6.66D-03  0.00D+00 EMaxC= 1.00D-01 BMatC= 2.53D-03 BMatP= 9.86D-03
 IDIUse=3 WtCom= 9.33D-01 WtEn= 6.66D-02
 Coeff-Com:  0.463D-01-0.752D+00 0.171D+01
 Coeff-En:   0.000D+00 0.000D+00 0.100D+01
 Coeff:      0.432D-01-0.701D+00 0.166D+01
 Gap=     0.405 Goal=   None    Shift=    0.000
 Gap=     0.405 Goal=   None    Shift=    0.000
 RMSDP=4.56D-04 MaxDP=1.39D-02 DE=-1.09D-02 OVMax= 7.66D-02

 Cycle   4  Pass 1  IDiag  1:
 Density matrix breaks symmetry, PCut= 1.00D-07
 Density matrix has no symmetry -- integrals replicated.
 E= -25.1297566698979     Delta-E=       -0.005201097541 Rises=F Damp=F
 DIIS: error= 3.00D-03 at cycle   4 NSaved=   4.
 NSaved= 4 IEnMin= 4 EnMin= -25.1297566698979     IErMin= 4 ErrMin= 3.00D-03
 ErrMax= 3.00D-03  0.00D+00 EMaxC= 1.00D-01 BMatC= 6.65D-04 BMatP= 2.53D-03
 IDIUse=3 WtCom= 9.70D-01 WtEn= 3.00D-02
 Coeff-Com: -0.297D-01 0.663D+00-0.198D+01 0.235D+01
 Coeff-En:   0.000D+00 0.000D+00 0.000D+00 0.100D+01
 Coeff:     -0.288D-01 0.643D+00-0.192D+01 0.231D+01
 Gap=     0.399 Goal=   None    Shift=    0.000
 Gap=     0.399 Goal=   None    Shift=    0.000
 RMSDP=3.61D-04 MaxDP=1.17D-02 DE=-5.20D-03 OVMax= 6.30D-02

 Cycle   5  Pass 1  IDiag  1:
 Density matrix breaks symmetry, PCut= 1.00D-07
 Density matrix has no symmetry -- integrals replicated.
 E= -25.1317293382289     Delta-E=       -0.001972668331 Rises=F Damp=F
 DIIS: error= 8.19D-04 at cycle   5 NSaved=   5.
 NSaved= 5 IEnMin= 5 EnMin= -25.1317293382289     IErMin= 5 ErrMin= 8.19D-04
 ErrMax= 8.19D-04  0.00D+00 EMaxC= 1.00D-01 BMatC= 1.06D-04 BMatP= 6.65D-04
 IDIUse=3 WtCom= 9.92D-01 WtEn= 8.19D-03
 Coeff-Com:  0.913D-02-0.210D+00 0.737D+00-0.148D+01 0.195D+01
 Coeff-En:   0.000D+00 0.000D+00 0.000D+00 0.000D+00 0.100D+01
 Coeff:      0.905D-02-0.208D+00 0.731D+00-0.147D+01 0.194D+01
 Gap=     0.397 Goal=   None    Shift=    0.000
 Gap=     0.397 Goal=   None    Shift=    0.000
 RMSDP=2.07D-04 MaxDP=6.55D-03 DE=-1.97D-03 OVMax= 3.50D-02

 Cycle   6  Pass 1  IDiag  1:
 Density matrix breaks symmetry, PCut= 1.00D-07
 Density matrix has no symmetry -- integrals replicated.
 E= -25.1320754215697     Delta-E=       -0.000346083341 Rises=F Damp=F
 DIIS: error= 2.40D-04 at cycle   6 NSaved=   6.
 NSaved= 6 IEnMin= 6 EnMin= -25.1320754215697     IErMin= 6 ErrMin= 2.40D-04
 ErrMax= 2.40D-04  0.00D+00 EMaxC= 1.00D-01 BMatC= 5.25D-06 BMatP= 1.06D-04
 IDIUse=3 WtCom= 9.98D-01 WtEn= 2.40D-03
 Coeff-Com: -0.525D-02 0.109D+00-0.372D+00 0.722D+00-0.109D+01 0.163D+01
 Coeff-En:   0.000D+00 0.000D+00 0.000D+00 0.000D+00 0.000D+00 0.100D+01
 Coeff:     -0.524D-02 0.109D+00-0.371D+00 0.721D+00-0.108D+01 0.163D+01
 Gap=     0.396 Goal=   None    Shift=    0.000
 Gap=     0.396 Goal=   None    Shift=    0.000
 RMSDP=4.23D-05 MaxDP=1.43D-03 DE=-3.46D-04 OVMax= 6.50D-03

 Cycle   7  Pass 1  IDiag  1:
 Density matrix breaks symmetry, PCut= 1.00D-07
 Density matrix has no symmetry -- integrals replicated.
 E= -25.1320886641765     Delta-E=       -0.000013242607 Rises=F Damp=F
 DIIS: error= 1.80D-04 at cycle   7 NSaved=   7.
 NSaved= 7 IEnMin= 7 EnMin= -25.1320886641765     IErMin= 7 ErrMin= 1.80D-04
 ErrMax= 1.80D-04  0.00D+00 EMaxC= 1.00D-01 BMatC= 9.66D-07 BMatP= 5.25D-06
 IDIUse=3 WtCom= 9.98D-01 WtEn= 1.80D-03
 Coeff-Com:  0.161D-02-0.310D-01 0.889D-01-0.156D+00 0.307D+00-0.921D+00
 Coeff-Com:  0.171D+01
 Coeff-En:   0.000D+00 0.000D+00 0.000D+00 0.000D+00 0.000D+00 0.000D+00
 Coeff-En:   0.100D+01
 Coeff:      0.161D-02-0.310D-01 0.887D-01-0.155D+00 0.306D+00-0.919D+00
 Coeff:      0.171D+01
 Gap=     0.396 Goal=   None    Shift=    0.000
 Gap=     0.396 Goal=   None    Shift=    0.000
 RMSDP=8.27D-06 MaxDP=2.84D-04 DE=-1.32D-05 OVMax= 1.01D-03

 Cycle   8  Pass 1  IDiag  1:
 Density matrix breaks symmetry, PCut= 1.00D-07
 Density matrix has no symmetry -- integrals replicated.
 E= -25.1320900721088     Delta-E=       -0.000001407932 Rises=F Damp=F
 DIIS: error= 4.84D-05 at cycle   8 NSaved=   8.
 NSaved= 8 IEnMin= 8 EnMin= -25.1320900721088     IErMin= 8 ErrMin= 4.84D-05
 ErrMax= 4.84D-05  0.00D+00 EMaxC= 1.00D-01 BMatC= 9.08D-08 BMatP= 9.66D-07
 IDIUse=1 WtCom= 1.00D+00 WtEn= 0.00D+00
 Coeff-Com:  0.375D-03-0.742D-02 0.292D-01-0.584D-01 0.650D-01 0.210D-01
 Coeff-Com: -0.493D+00 0.144D+01
 Coeff:      0.375D-03-0.742D-02 0.292D-01-0.584D-01 0.650D-01 0.210D-01
 Coeff:     -0.493D+00 0.144D+01
 Gap=     0.396 Goal=   None    Shift=    0.000
 Gap=     0.396 Goal=   None    Shift=    0.000
 RMSDP=2.52D-06 MaxDP=9.14D-05 DE=-1.41D-06 OVMax= 3.78D-04

 Cycle   9  Pass 1  IDiag  1:
 Density matrix breaks symmetry, PCut= 1.00D-07
 Density matrix has no symmetry -- integrals replicated.
 E= -25.1320902070612     Delta-E=       -0.000000134952 Rises=F Damp=F
 DIIS: error= 5.21D-06 at cycle   9 NSaved=   9.
 NSaved= 9 IEnMin= 9 EnMin= -25.1320902070612     IErMin= 9 ErrMin= 5.21D-06
 ErrMax= 5.21D-06  0.00D+00 EMaxC= 1.00D-01 BMatC= 3.59D-09 BMatP= 9.08D-08
 IDIUse=1 WtCom= 1.00D+00 WtEn= 0.00D+00
 Coeff-Com: -0.116D-03 0.232D-02-0.927D-02 0.192D-01-0.281D-01 0.295D-01
 Coeff-Com:  0.810D-01-0.496D+00 0.140D+01
 Coeff:     -0.116D-03 0.232D-02-0.927D-02 0.192D-01-0.281D-01 0.295D-01
 Coeff:      0.810D-01-0.496D+00 0.140D+01
 Gap=     0.396 Goal=   None    Shift=    0.000
 Gap=     0.396 Goal=   None    Shift=    0.000
 RMSDP=8.49D-07 MaxDP=2.79D-05 DE=-1.35D-07 OVMax= 9.37D-05

 Cycle  10  Pass 1  IDiag  1:
 Density matrix breaks symmetry, PCut= 1.00D-07
 Density matrix has no symmetry -- integrals replicated.
 E= -25.1320902122000     Delta-E=       -0.000000005139 Rises=F Damp=F
 DIIS: error= 8.00D-07 at cycle  10 NSaved=  10.
 NSaved=10 IEnMin=10 EnMin= -25.1320902122000     IErMin=10 ErrMin= 8.00D-07
 ErrMax= 8.00D-07  0.00D+00 EMaxC= 1.00D-01 BMatC= 8.30D-11 BMatP= 3.59D-09
 IDIUse=1 WtCom= 1.00D+00 WtEn= 0.00D+00
 Coeff-Com:  0.333D-04-0.656D-03 0.250D-02-0.505D-02 0.785D-02-0.982D-02
 Coeff-Com: -0.120D-01 0.112D+00-0.435D+00 0.134D+01
 Coeff:      0.333D-04-0.656D-03 0.250D-02-0.505D-02 0.785D-02-0.982D-02
 Coeff:     -0.120D-01 0.112D+00-0.435D+00 0.134D+01
 Gap=     0.396 Goal=   None    Shift=    0.000
 Gap=     0.396 Goal=   None    Shift=    0.000
 RMSDP=1.23D-07 MaxDP=4.98D-06 DE=-5.14D-09 OVMax= 9.15D-06

 Cycle  11  Pass 1  IDiag  1:
 Density matrix breaks symmetry, PCut= 1.00D-07
 Density matrix has no symmetry -- integrals replicated.
 E= -25.1320902122948     Delta-E=       -0.000000000095 Rises=F Damp=F
 DIIS: error= 1.46D-07 at cycle  11 NSaved=  11.
 NSaved=11 IEnMin=11 EnMin= -25.1320902122948     IErMin=11 ErrMin= 1.46D-07
 ErrMax= 1.46D-07  0.00D+00 EMaxC= 1.00D-01 BMatC= 3.12D-12 BMatP= 8.30D-11
 IDIUse=1 WtCom= 1.00D+00 WtEn= 0.00D+00
 Coeff-Com: -0.633D-05 0.129D-03-0.501D-03 0.102D-02-0.167D-02 0.217D-02
 Coeff-Com:  0.206D-02-0.236D-01 0.104D+00-0.458D+00 0.137D+01
 Coeff:     -0.633D-05 0.129D-03-0.501D-03 0.102D-02-0.167D-02 0.217D-02
 Coeff:      0.206D-02-0.236D-01 0.104D+00-0.458D+00 0.137D+01
 Gap=     0.396 Goal=   None    Shift=    0.000
 Gap=     0.396 Goal=   None    Shift=    0.000
 RMSDP=2.84D-08 MaxDP=1.19D-06 DE=-9.48D-11 OVMax= 2.93D-06

 Cycle  12  Pass 1  IDiag  1:
 Density matrix breaks symmetry, PCut= 1.00D-07
 Density matrix has no symmetry -- integrals replicated.
 E= -25.1320902122993     Delta-E=       -0.000000000005 Rises=F Damp=F
 DIIS: error= 3.31D-08 at cycle  12 NSaved=  12.
 NSaved=12 IEnMin=12 EnMin= -25.1320902122993     IErMin=12 ErrMin= 3.31D-08
 ErrMax= 3.31D-08  0.00D+00 EMaxC= 1.00D-01 BMatC= 1.15D-13 BMatP= 3.12D-12
 IDIUse=1 WtCom= 1.00D+00 WtEn= 0.00D+00
 Coeff-Com:  0.113D-05-0.261D-04 0.106D-03-0.229D-03 0.369D-03-0.452D-03
 Coeff-Com: -0.386D-03 0.401D-02-0.163D-01 0.854D-01-0.403D+00 0.133D+01
 Coeff:      0.113D-05-0.261D-04 0.106D-03-0.229D-03 0.369D-03-0.452D-03
 Coeff:     -0.386D-03 0.401D-02-0.163D-01 0.854D-01-0.403D+00 0.133D+01
 Gap=     0.396 Goal=   None    Shift=    0.000
 Gap=     0.396 Goal=   None    Shift=    0.000
 RMSDP=4.75D-09 MaxDP=1.30D-07 DE=-4.55D-12 OVMax= 5.96D-07

 Density matrix breaks symmetry, PCut= 1.00D-07
 Density matrix has no symmetry -- integrals replicated.
 SCF Done:  E(UHF) =  -25.1320902123     A.U. after   12 cycles
            NFock= 12  Conv=0.48D-08     -V/T= 1.9949
 <Sx>= 0.0000 <Sy>= 0.0000 <Sz>= 0.0000 <S**2>= 0.5079 S= 0.3706
 <L.S>=  0.00000000000    
 KE= 2.526158893284D+01 PE=-6.293071862105D+01 EE= 1.013168851719D+01
 Annihilation of the first spin contaminant:
 S**2 before annihilation     0.5079,   after     0.0047
 Leave Link  502 at Sun May 22 18:34:26 2022, MaxMem=   104857600 cpu:               3.8 elap:               3.8
 (Enter /apps/software/g16/l601.exe)
 Copying SCF densities to generalized density rwf, IOpCl= 1 IROHF=0.
 SCF density gives NOpUse=  1 NOpAll=  4.
 Marking SCF density as not fully symmetric.

 **********************************************************************

            Population analysis using the SCF density.

 **********************************************************************

 Orbital symmetries:
 Alpha Orbitals:
       Occupied  (SG) (SG) (?A)
       Virtual   (?A) (?A) (?A) (?A) (?A) (?A) (?A) (?A) (?A) (?A)
                 (?A) (?A) (?A) (?B) (?B) (?B) (?A) (?A) (?A) (?A)
                 (?A) (?A) (?A) (?A) (?A) (?A) (?A) (?A) (?A) (SG)
                 (PI) (PI) (?C) (PI) (PI) (?C) (?C) (SG) (?D) (?D)
                 (?D) (PI) (PI) (?E) (?E) (?E) (?E) (?E) (?E) (?E)
                 (?E) (?E) (?E) (?E) (?E) (?E) (?E) (?F) (?F) (?F)
                 (?F) (?F) (?G) (?G) (?G) (SG) (PHI) (PHI) (DLTA)
                 (DLTA) (SG) (PI) (PI) (SG) (PI) (PI) (?H) (?H)
                 (?H) (?H) (SG) (SG) (?I) (?I) (?I) (?I) (?J) (?J)
                 (?J) (?J) (?J) (?J) (?J) (?J) (?J) (PI) (PI) (PI)
                 (PI) (?K) (?K) (?K) (SG) (?L) (?L) (?L) (PHI)
                 (PHI) (DLTA) (DLTA) (SG) (PI) (PI) (SG) (DLTA)
                 (DLTA) (PI) (PI) (PI) (PI) (SG) (SG) (SG)
 Beta  Orbitals:
       Occupied  (SG) (SG) (?A)
       Virtual   (?A) (?A) (?A) (?A) (?A) (?A) (?A) (?A) (?A) (?A)
                 (?A) (?A) (?A) (?B) (?B) (?B) (?A) (?A) (?A) (?A)
                 (?A) (?A) (?A) (?A) (?A) (?A) (?A) (?A) (?A) (SG)
                 (PI) (PI) (?C) (PI) (PI) (?C) (?C) (SG) (?D) (?D)
                 (?D) (PI) (PI) (?E) (?E) (?E) (?E) (?E) (?E) (?E)
                 (?E) (?E) (?E) (?E) (?E) (?E) (?E) (?F) (?F) (?F)
                 (?F) (?F) (?G) (?G) (?G) (SG) (PHI) (PHI) (DLTA)
                 (DLTA) (SG) (PI) (PI) (SG) (PI) (PI) (?H) (?H)
                 (?H) (?H) (SG) (SG) (?I) (?I) (?I) (?I) (?J) (?J)
                 (?J) (?J) (?J) (?J) (?J) (?J) (?J) (PI) (PI) (PI)
                 (PI) (?K) (?K) (?K) (SG) (?L) (?L) (?L) (PHI)
                 (PHI) (DLTA) (DLTA) (SG) (PI) (PI) (SG) (DLTA)
                 (DLTA) (PI) (PI) (PI) (PI) (SG) (SG) (SG)
 Unable to determine electronic state:  an orbital has unidentified symmetry.
 Alpha  occ. eigenvalues --   -7.65888  -0.67467  -0.36933
 Alpha virt. eigenvalues --    0.02632   0.02940   0.03381   0.04406   0.08201
 Alpha virt. eigenvalues --    0.08878   0.11804   0.13266   0.13497   0.14665
 Alpha virt. eigenvalues --    0.14671   0.15015   0.18392   0.27126   0.27509
 Alpha virt. eigenvalues --    0.27710   0.32166   0.32269   0.41049   0.43382
 Alpha virt. eigenvalues --    0.44807   0.44814   0.46349   0.46353   0.47419
 Alpha virt. eigenvalues --    0.47814   0.50492   0.50501   0.51772   0.55225
 Alpha virt. eigenvalues --    0.60075   0.60418   0.76885   0.78013   0.78230
 Alpha virt. eigenvalues --    0.80630   0.80640   0.91656   1.05292   1.05492
 Alpha virt. eigenvalues --    1.09326   1.18267   1.18673   1.36712   1.37491
 Alpha virt. eigenvalues --    1.37491   1.37998   1.37998   1.39502   1.39520
 Alpha virt. eigenvalues --    1.44074   1.44087   1.45304   1.45306   1.46367
 Alpha virt. eigenvalues --    1.46951   1.47455   1.57904   1.60357   1.61012
 Alpha virt. eigenvalues --    1.66781   1.66797   1.84218   1.87082   1.87499
 Alpha virt. eigenvalues --    1.89608   1.94340   1.94340   2.03398   2.03400
 Alpha virt. eigenvalues --    2.20667   2.25953   2.26529   2.75894   3.13433
 Alpha virt. eigenvalues --    3.13847   3.22733   3.23193   3.23862   3.23883
 Alpha virt. eigenvalues --    3.29858   3.76940   3.93133   3.93133   3.94130
 Alpha virt. eigenvalues --    3.94130   4.01361   4.02371   4.03044   4.03052
 Alpha virt. eigenvalues --    4.07113   4.07151   4.10932   4.10932   4.15371
 Alpha virt. eigenvalues --    4.25891   4.26777   4.40695   4.41528   4.49235
 Alpha virt. eigenvalues --    4.49421   4.50751   5.21176   5.61241   5.61833
 Alpha virt. eigenvalues --    5.63689   6.79325   6.79325   7.44264   7.44265
 Alpha virt. eigenvalues --    7.86019   7.91596   7.91894   8.49570   8.94230
 Alpha virt. eigenvalues --    8.94230   9.27052   9.27301   9.40566   9.40962
 Alpha virt. eigenvalues --   10.10245  10.68271  17.12094
  Beta  occ. eigenvalues --   -7.65888  -0.67467  -0.36933
  Beta virt. eigenvalues --    0.02632   0.02940   0.03381   0.04406   0.08201
  Beta virt. eigenvalues --    0.08878   0.11804   0.13266   0.13497   0.14665
  Beta virt. eigenvalues --    0.14671   0.15015   0.18392   0.27126   0.27509
  Beta virt. eigenvalues --    0.27710   0.32166   0.32269   0.41049   0.43382
  Beta virt. eigenvalues --    0.44807   0.44814   0.46349   0.46353   0.47419
  Beta virt. eigenvalues --    0.47814   0.50492   0.50501   0.51772   0.55225
  Beta virt. eigenvalues --    0.60075   0.60418   0.76885   0.78013   0.78230
  Beta virt. eigenvalues --    0.80630   0.80640   0.91656   1.05292   1.05492
  Beta virt. eigenvalues --    1.09326   1.18267   1.18673   1.36712   1.37491
  Beta virt. eigenvalues --    1.37491   1.37998   1.37998   1.39502   1.39520
  Beta virt. eigenvalues --    1.44074   1.44087   1.45304   1.45306   1.46367
  Beta virt. eigenvalues --    1.46951   1.47455   1.57904   1.60357   1.61012
  Beta virt. eigenvalues --    1.66781   1.66797   1.84218   1.87082   1.87499
  Beta virt. eigenvalues --    1.89608   1.94340   1.94340   2.03398   2.03400
  Beta virt. eigenvalues --    2.20667   2.25953   2.26529   2.75894   3.13433
  Beta virt. eigenvalues --    3.13847   3.22733   3.23193   3.23862   3.23883
  Beta virt. eigenvalues --    3.29858   3.76940   3.93133   3.93133   3.94130
  Beta virt. eigenvalues --    3.94130   4.01361   4.02371   4.03044   4.03052
  Beta virt. eigenvalues --    4.07113   4.07151   4.10932   4.10932   4.15371
  Beta virt. eigenvalues --    4.25891   4.26777   4.40695   4.41528   4.49235
  Beta virt. eigenvalues --    4.49421   4.50751   5.21176   5.61241   5.61833
  Beta virt. eigenvalues --    5.63689   6.79325   6.79325   7.44264   7.44265
  Beta virt. eigenvalues --    7.86019   7.91596   7.91894   8.49570   8.94230
  Beta virt. eigenvalues --    8.94230   9.27052   9.27301   9.40566   9.40962
  Beta virt. eigenvalues --   10.10245  10.68271  17.12094
          Condensed to atoms (all electrons):
               1          2
     1  B    4.711624   0.198525
     2  H    0.198525   0.891325
          Atomic-Atomic Spin Densities.
               1          2
     1  B    0.000000   0.000000
     2  H    0.000000   0.000000
 Mulliken charges and spin densities:
               1          2
     1  B    0.089851   0.000000
     2  H   -0.089851   0.000000
 Sum of Mulliken charges =   0.00000   0.00000
 Mulliken charges and spin densities with hydrogens summed into heavy atoms:
               1          2
     1  B    0.000000   0.000000
 Electronic spatial extent (au):  <R**2>=             20.8438
 Charge=              0.0000 electrons
 Dipole moment (field-independent basis, Debye):
    X=             -0.0000    Y=              0.0000    Z=             -1.5030  Tot=              1.5030
 Quadrupole moment (field-independent basis, Debye-Ang):
   XX=             -6.2670   YY=             -7.3702   ZZ=             -9.5552
   XY=              0.0000   XZ=             -0.0000   YZ=              0.0000
 Traceless Quadrupole moment (field-independent basis, Debye-Ang):
   XX=              1.4638   YY=              0.3606   ZZ=             -1.8244
   XY=              0.0000   XZ=             -0.0000   YZ=              0.0000
 Octapole moment (field-independent basis, Debye-Ang**2):
  XXX=             -0.0000  YYY=              0.0000  ZZZ=             -5.0505  XYY=              0.0000
  XXY=              0.0000  XXZ=             -1.3938  XZZ=              0.0000  YZZ=              0.0000
  YYZ=             -1.8158  XYZ=              0.0000
 Hexadecapole moment (field-independent basis, Debye-Ang**3):
 XXXX=             -8.6578 YYYY=            -11.8628 ZZZZ=            -23.6503 XXXY=              0.0000
 XXXZ=              0.0000 YYYX=              0.0000 YYYZ=              0.0000 ZZZX=             -0.0000
 ZZZY=              0.0000 XXYY=             -3.4200 XXZZ=             -5.4844 YYZZ=             -6.1583
 XXYZ=              0.0000 YYXZ=             -0.0000 ZZXY=              0.0000
 N-N= 2.405350958727D+00 E-N=-6.293071859520D+01  KE= 2.526158893284D+01
 Symmetry A1   KE= 2.503227111588D+01
 Symmetry A2   KE= 7.973896374295D-30
 Symmetry B1   KE= 9.684454967358D-30
 Symmetry B2   KE= 2.293178169499D-01
 Symmetry A1   SP= 0.000000000000D+00
 Symmetry A2   SP= 0.000000000000D+00
 Symmetry B1   SP= 0.000000000000D+00
 Symmetry B2   SP= 0.000000000000D+00
                          Isotropic Fermi Contact Couplings
        Atom                 a.u.       MegaHertz       Gauss      10(-4) cm-1
     1  B(11)              0.00000       0.00000       0.00000       0.00000
     2  H(1)               0.00000       0.00000       0.00000       0.00000
 --------------------------------------------------------
       Center         ----  Spin Dipole Couplings  ----
                      3XX-RR        3YY-RR        3ZZ-RR
 --------------------------------------------------------
     1   Atom        0.000000      0.000000      0.000000
     2   Atom        0.000000      0.000000      0.000000
 --------------------------------------------------------
                        XY            XZ            YZ
 --------------------------------------------------------
     1   Atom       -0.000000      0.000000      0.462786
     2   Atom        0.000000      0.000000      0.000719
 --------------------------------------------------------


 ---------------------------------------------------------------------------------
              Anisotropic Spin Dipole Couplings in Principal Axis System
 ---------------------------------------------------------------------------------

       Atom             a.u.   MegaHertz   Gauss  10(-4) cm-1        Axes

              Baa    -0.4628   -79.236   -28.273   -26.430  0.0000  0.7071 -0.7071
     1 B(11)  Bbb    -0.0000    -0.000    -0.000    -0.000  1.0000 -0.0000  0.0000
              Bcc     0.4628    79.236    28.273    26.430 -0.0000  0.7071  0.7071
 
              Baa    -0.0007    -0.383    -0.137    -0.128 -0.0000  0.7071 -0.7071
     2 H(1)   Bbb     0.0000     0.000     0.000     0.000  1.0000  0.0000 -0.0000
              Bcc     0.0007     0.383     0.137     0.128  0.0000  0.7071  0.7071
 

 ---------------------------------------------------------------------------------

 No NMR shielding tensors so no spin-rotation constants.
 Leave Link  601 at Sun May 22 18:34:26 2022, MaxMem=   104857600 cpu:               0.2 elap:               0.2
 (Enter /apps/software/g16/l801.exe)
 Range of M.O.s used for correlation:     1   126
 NBasis=   126 NAE=     3 NBE=     3 NFC=     0 NFV=     0
 NROrb=    126 NOA=     3 NOB=     3 NVA=   123 NVB=   123

 **** Warning!!: The largest alpha MO coefficient is  0.28787598D+02


 **** Warning!!: The largest beta MO coefficient is  0.28787598D+02

 Leave Link  801 at Sun May 22 18:34:26 2022, MaxMem=   104857600 cpu:               0.0 elap:               0.0
 (Enter /apps/software/g16/l914.exe)
 UHF ground state
 Doing stability rather than CIS.
 Keep R1 and R2 ints in memory in symmetry-blocked form, NReq=40144005.
 FoFCou: FMM=F IPFlag=           0 FMFlag=           0 FMFlg1=           0
         NFxFlg=           0 DoJE=F BraDBF=F KetDBF=F FulRan=T
         wScrn=  0.000000 ICntrl=       600 IOpCl=  0 I1Cent=           0 NGrid=           0
         NMat0=    1 NMatS0=   8001 NMatT0=    0 NMatD0=    1 NMtDS0=    0 NMtDT0=    0
 Petite list used in FoFCou.
 MDV=   104857600 DFT=F DoStab=T Mixed=F DoRPA=F DoScal=F NonHer=F
 Making orbital integer symmetry assigments:
 Orbital symmetries:
 Alpha Orbitals:
       Occupied  (SG) (SG) (?A)
       Virtual   (?A) (?A) (?A) (?A) (?A) (?A) (?A) (?A) (?A) (?A)
                 (?A) (?A) (?A) (?B) (?B) (?B) (?A) (?A) (?A) (?A)
                 (?A) (?A) (?A) (?A) (?A) (?A) (?A) (?A) (?A) (SG)
                 (PI) (PI) (?C) (PI) (PI) (?C) (?C) (SG) (?D) (?D)
                 (?D) (PI) (PI) (?E) (?E) (?E) (?E) (?E) (?E) (?E)
                 (?E) (?E) (?E) (?E) (?E) (?E) (?E) (?F) (?F) (?F)
                 (?F) (?F) (?G) (?G) (?G) (SG) (PHI) (PHI) (DLTA)
                 (DLTA) (SG) (PI) (PI) (SG) (PI) (PI) (?H) (?H)
                 (?H) (?H) (SG) (SG) (?I) (?I) (?I) (?I) (?J) (?J)
                 (?J) (?J) (?J) (?J) (?J) (?J) (?J) (PI) (PI) (PI)
                 (PI) (?K) (?K) (?K) (SG) (?L) (?L) (?L) (PHI)
                 (PHI) (DLTA) (DLTA) (SG) (PI) (PI) (SG) (DLTA)
                 (DLTA) (PI) (PI) (PI) (PI) (SG) (SG) (SG)
 Beta  Orbitals:
       Occupied  (SG) (SG) (?A)
       Virtual   (?A) (?A) (?A) (?A) (?A) (?A) (?A) (?A) (?A) (?A)
                 (?A) (?A) (?A) (?B) (?B) (?B) (?A) (?A) (?A) (?A)
                 (?A) (?A) (?A) (?A) (?A) (?A) (?A) (?A) (?A) (SG)
                 (PI) (PI) (?C) (PI) (PI) (?C) (?C) (SG) (?D) (?D)
                 (?D) (PI) (PI) (?E) (?E) (?E) (?E) (?E) (?E) (?E)
                 (?E) (?E) (?E) (?E) (?E) (?E) (?E) (?F) (?F) (?F)
                 (?F) (?F) (?G) (?G) (?G) (SG) (PHI) (PHI) (DLTA)
                 (DLTA) (SG) (PI) (PI) (SG) (PI) (PI) (?H) (?H)
                 (?H) (?H) (SG) (SG) (?I) (?I) (?I) (?I) (?J) (?J)
                 (?J) (?J) (?J) (?J) (?J) (?J) (?J) (PI) (PI) (PI)
                 (PI) (?K) (?K) (?K) (SG) (?L) (?L) (?L) (PHI)
                 (PHI) (DLTA) (DLTA) (SG) (PI) (PI) (SG) (DLTA)
                 (DLTA) (PI) (PI) (PI) (PI) (SG) (SG) (SG)
    12 initial guesses have been made.
 Convergence on wavefunction:    0.001000000000000
 Davidson Disk Diagonalization:  ConvIn= 1.00D-03 SkipCon=T Conv= 1.00D-03.
 Max sub-space:  1476 roots to seek:    12 dimension of matrix:          738
 Iteration     1 Dimension    12 NMult     0 NNew     12
 CISAX will form    12 AO SS matrices at one time.
 NMat=    12 NSing=    12 JSym2X= 2.
 Excitation Energies [eV] at current iteration:
 Root      1 :     0.771841424544698
 Root      2 :     2.918185243280184
 Root      3 :     3.592084464446683
 Root      4 :     4.409488263935313
 Root      5 :     6.411299602990599
 Root      6 :     7.189567834213747
 Root      7 :     7.442838122311485
 Root      8 :     7.865651925316556
 Root      9 :     8.064998267786589
 Root     10 :     8.211960899737797
 Root     11 :     8.253995554064620
 Root     12 :     8.937202543133820
 Iteration     2 Dimension    24 NMult    12 NNew     12
 CISAX will form    12 AO SS matrices at one time.
 NMat=    12 NSing=    12 JSym2X= 2.
 Root      1 not converged, maximum delta is    0.046563396709629
 Excitation Energies [eV] at current iteration:
 Root      1 :     0.039406865649872   Change is   -0.732434558894826
 Root      2 :     2.314360781096724   Change is   -0.603824462183460
 Root      3 :     2.879942254464228   Change is   -0.712142209982455
 Root      4 :     3.705110173315683   Change is   -0.704378090619630
 Root      5 :     6.096093902693724   Change is   -0.315205700296875
 Root      6 :     6.969698629866270   Change is   -0.219869204347477
 Root      7 :     7.180842493435796   Change is   -0.261995628875690
 Root      8 :     7.783856389312366   Change is   -0.081795536004191
 Root      9 :     7.923645375129520   Change is   -0.141352892657068
 Root     10 :     8.004593859289216   Change is   -0.249401694775403
 Root     11 :     8.036600363020293   Change is   -0.175360536717503
 Root     12 :     8.092000704281318   Change is   -0.845201838852502
 Iteration     3 Dimension    27 NMult    24 NNew      3
 CISAX will form     3 AO SS matrices at one time.
 NMat=     3 NSing=     3 JSym2X= 2.
 Root      1 not converged, maximum delta is    0.017672415090521
 Excitation Energies [eV] at current iteration:
 Root      1 :     0.006518709242780   Change is   -0.032888156407092
 Root      2 :     2.289706433889457   Change is   -0.024654347207267
 Root      3 :     2.835157206543948   Change is   -0.044785047920280
 Iteration     4 Dimension    30 NMult    27 NNew      3
 CISAX will form     3 AO SS matrices at one time.
 NMat=     3 NSing=     3 JSym2X= 2.
 Root      1 not converged, maximum delta is    0.009318001770921
 Excitation Energies [eV] at current iteration:
 Root      1 :     0.000205168572237   Change is   -0.006313540670543
 Root      2 :     2.287098586452244   Change is   -0.002607847437213
 Root      3 :     2.833030352624808   Change is   -0.002126853919140
 Iteration     5 Dimension    33 NMult    30 NNew      3
 CISAX will form     3 AO SS matrices at one time.
 NMat=     3 NSing=     3 JSym2X= 2.
 Root      1 not converged, maximum delta is    0.001281403143647
 Excitation Energies [eV] at current iteration:
 Root      1 :     0.000004967750493   Change is   -0.000200200821744
 Root      2 :     2.286622985373604   Change is   -0.000475601078639
 Root      3 :     2.832883578500232   Change is   -0.000146774124576
 Iteration     6 Dimension    36 NMult    33 NNew      3
 CISAX will form     3 AO SS matrices at one time.
 NMat=     3 NSing=     3 JSym2X= 2.
 Root      1 has converged.
 Excitation Energies [eV] at current iteration:
 Root      1 :     0.000000940353987   Change is   -0.000004027396505
 Root      2 :     2.286603196391507   Change is   -0.000019788982098
 Root      3 :     2.832866414999713   Change is   -0.000017163500519
 Convergence achieved on expansion vectors.
 ***********************************************************************
 Stability analysis using <AA,BB:AA,BB> singles matrix:
 ***********************************************************************
 1PDM for each excited state written to RWF  633
 Ground to excited state transition densities written to RWF  633

 Eigenvectors of the stability matrix:
 
 Excited state symmetry could not be determined.
 Eigenvector   1:  2.791-?Sym  Eigenvalue= 0.0000000  <S**2>=1.698
      3A ->  4A       -0.42539
      3A ->  8A       -0.48199
      3A -> 21A        0.22340
      3B ->  4B        0.42539
      3B ->  8B        0.48199
      3B -> 21B       -0.22340
 The wavefunction is stable under the perturbations considered.
 Leave Link  914 at Sun May 22 18:34:30 2022, MaxMem=   104857600 cpu:               4.1 elap:               4.1
 (Enter /apps/software/g16/l508.exe)
 The wavefunction is already stable.
 Leave Link  508 at Sun May 22 18:34:30 2022, MaxMem=   104857600 cpu:               0.0 elap:               0.0
 (Enter /apps/software/g16/l601.exe)
 Copying SCF densities to generalized density rwf, IOpCl= 1 IROHF=0.
 SCF density gives NOpUse=  1 NOpAll=  4.
 Marking SCF density as not fully symmetric.

 **********************************************************************

            Population analysis using the SCF density.

 **********************************************************************

 Orbital symmetries:
 Alpha Orbitals:
       Occupied  (SG) (SG) (?A)
       Virtual   (?A) (?A) (?A) (?A) (?A) (?A) (?A) (?A) (?A) (?A)
                 (?A) (?A) (?A) (?B) (?B) (?B) (?A) (?A) (?A) (?A)
                 (?A) (?A) (?A) (?A) (?A) (?A) (?A) (?A) (?A) (SG)
                 (PI) (PI) (?C) (PI) (PI) (?C) (?C) (SG) (?D) (?D)
                 (?D) (PI) (PI) (?E) (?E) (?E) (?E) (?E) (?E) (?E)
                 (?E) (?E) (?E) (?E) (?E) (?E) (?E) (?F) (?F) (?F)
                 (?F) (?F) (?G) (?G) (?G) (SG) (PHI) (PHI) (DLTA)
                 (DLTA) (SG) (PI) (PI) (SG) (PI) (PI) (?H) (?H)
                 (?H) (?H) (SG) (SG) (?I) (?I) (?I) (?I) (?J) (?J)
                 (?J) (?J) (?J) (?J) (?J) (?J) (?J) (PI) (PI) (PI)
                 (PI) (?K) (?K) (?K) (SG) (?L) (?L) (?L) (PHI)
                 (PHI) (DLTA) (DLTA) (SG) (PI) (PI) (SG) (DLTA)
                 (DLTA) (PI) (PI) (PI) (PI) (SG) (SG) (SG)
 Beta  Orbitals:
       Occupied  (SG) (SG) (?A)
       Virtual   (?A) (?A) (?A) (?A) (?A) (?A) (?A) (?A) (?A) (?A)
                 (?A) (?A) (?A) (?B) (?B) (?B) (?A) (?A) (?A) (?A)
                 (?A) (?A) (?A) (?A) (?A) (?A) (?A) (?A) (?A) (SG)
                 (PI) (PI) (?C) (PI) (PI) (?C) (?C) (SG) (?D) (?D)
                 (?D) (PI) (PI) (?E) (?E) (?E) (?E) (?E) (?E) (?E)
                 (?E) (?E) (?E) (?E) (?E) (?E) (?E) (?F) (?F) (?F)
                 (?F) (?F) (?G) (?G) (?G) (SG) (PHI) (PHI) (DLTA)
                 (DLTA) (SG) (PI) (PI) (SG) (PI) (PI) (?H) (?H)
                 (?H) (?H) (SG) (SG) (?I) (?I) (?I) (?I) (?J) (?J)
                 (?J) (?J) (?J) (?J) (?J) (?J) (?J) (PI) (PI) (PI)
                 (PI) (?K) (?K) (?K) (SG) (?L) (?L) (?L) (PHI)
                 (PHI) (DLTA) (DLTA) (SG) (PI) (PI) (SG) (DLTA)
                 (DLTA) (PI) (PI) (PI) (PI) (SG) (SG) (SG)
 Unable to determine electronic state:  an orbital has unidentified symmetry.
 Alpha  occ. eigenvalues --   -7.65888  -0.67467  -0.36933
 Alpha virt. eigenvalues --    0.02632   0.02940   0.03381   0.04406   0.08201
 Alpha virt. eigenvalues --    0.08878   0.11804   0.13266   0.13497   0.14665
 Alpha virt. eigenvalues --    0.14671   0.15015   0.18392   0.27126   0.27509
 Alpha virt. eigenvalues --    0.27710   0.32166   0.32269   0.41049   0.43382
 Alpha virt. eigenvalues --    0.44807   0.44814   0.46349   0.46353   0.47419
 Alpha virt. eigenvalues --    0.47814   0.50492   0.50501   0.51772   0.55225
 Alpha virt. eigenvalues --    0.60075   0.60418   0.76885   0.78013   0.78230
 Alpha virt. eigenvalues --    0.80630   0.80640   0.91656   1.05292   1.05492
 Alpha virt. eigenvalues --    1.09326   1.18267   1.18673   1.36712   1.37491
 Alpha virt. eigenvalues --    1.37491   1.37998   1.37998   1.39502   1.39520
 Alpha virt. eigenvalues --    1.44074   1.44087   1.45304   1.45306   1.46367
 Alpha virt. eigenvalues --    1.46951   1.47455   1.57904   1.60357   1.61012
 Alpha virt. eigenvalues --    1.66781   1.66797   1.84218   1.87082   1.87499
 Alpha virt. eigenvalues --    1.89608   1.94340   1.94340   2.03398   2.03400
 Alpha virt. eigenvalues --    2.20667   2.25953   2.26529   2.75894   3.13433
 Alpha virt. eigenvalues --    3.13847   3.22733   3.23193   3.23862   3.23883
 Alpha virt. eigenvalues --    3.29858   3.76940   3.93133   3.93133   3.94130
 Alpha virt. eigenvalues --    3.94130   4.01361   4.02371   4.03044   4.03052
 Alpha virt. eigenvalues --    4.07113   4.07151   4.10932   4.10932   4.15371
 Alpha virt. eigenvalues --    4.25891   4.26777   4.40695   4.41528   4.49235
 Alpha virt. eigenvalues --    4.49421   4.50751   5.21176   5.61241   5.61833
 Alpha virt. eigenvalues --    5.63689   6.79325   6.79325   7.44264   7.44265
 Alpha virt. eigenvalues --    7.86019   7.91596   7.91894   8.49570   8.94230
 Alpha virt. eigenvalues --    8.94230   9.27052   9.27301   9.40566   9.40962
 Alpha virt. eigenvalues --   10.10245  10.68271  17.12094
  Beta  occ. eigenvalues --   -7.65888  -0.67467  -0.36933
  Beta virt. eigenvalues --    0.02632   0.02940   0.03381   0.04406   0.08201
  Beta virt. eigenvalues --    0.08878   0.11804   0.13266   0.13497   0.14665
  Beta virt. eigenvalues --    0.14671   0.15015   0.18392   0.27126   0.27509
  Beta virt. eigenvalues --    0.27710   0.32166   0.32269   0.41049   0.43382
  Beta virt. eigenvalues --    0.44807   0.44814   0.46349   0.46353   0.47419
  Beta virt. eigenvalues --    0.47814   0.50492   0.50501   0.51772   0.55225
  Beta virt. eigenvalues --    0.60075   0.60418   0.76885   0.78013   0.78230
  Beta virt. eigenvalues --    0.80630   0.80640   0.91656   1.05292   1.05492
  Beta virt. eigenvalues --    1.09326   1.18267   1.18673   1.36712   1.37491
  Beta virt. eigenvalues --    1.37491   1.37998   1.37998   1.39502   1.39520
  Beta virt. eigenvalues --    1.44074   1.44087   1.45304   1.45306   1.46367
  Beta virt. eigenvalues --    1.46951   1.47455   1.57904   1.60357   1.61012
  Beta virt. eigenvalues --    1.66781   1.66797   1.84218   1.87082   1.87499
  Beta virt. eigenvalues --    1.89608   1.94340   1.94340   2.03398   2.03400
  Beta virt. eigenvalues --    2.20667   2.25953   2.26529   2.75894   3.13433
  Beta virt. eigenvalues --    3.13847   3.22733   3.23193   3.23862   3.23883
  Beta virt. eigenvalues --    3.29858   3.76940   3.93133   3.93133   3.94130
  Beta virt. eigenvalues --    3.94130   4.01361   4.02371   4.03044   4.03052
  Beta virt. eigenvalues --    4.07113   4.07151   4.10932   4.10932   4.15371
  Beta virt. eigenvalues --    4.25891   4.26777   4.40695   4.41528   4.49235
  Beta virt. eigenvalues --    4.49421   4.50751   5.21176   5.61241   5.61833
  Beta virt. eigenvalues --    5.63689   6.79325   6.79325   7.44264   7.44265
  Beta virt. eigenvalues --    7.86019   7.91596   7.91894   8.49570   8.94230
  Beta virt. eigenvalues --    8.94230   9.27052   9.27301   9.40566   9.40962
  Beta virt. eigenvalues --   10.10245  10.68271  17.12094
          Condensed to atoms (all electrons):
               1          2
     1  B    4.711624   0.198525
     2  H    0.198525   0.891325
          Atomic-Atomic Spin Densities.
               1          2
     1  B    0.000000   0.000000
     2  H    0.000000   0.000000
 Mulliken charges and spin densities:
               1          2
     1  B    0.089851   0.000000
     2  H   -0.089851   0.000000
 Sum of Mulliken charges =   0.00000   0.00000
 Mulliken charges and spin densities with hydrogens summed into heavy atoms:
               1          2
     1  B    0.000000   0.000000
 Electronic spatial extent (au):  <R**2>=             20.8438
 Charge=              0.0000 electrons
 Dipole moment (field-independent basis, Debye):
    X=             -0.0000    Y=              0.0000    Z=             -1.5030  Tot=              1.5030
 Quadrupole moment (field-independent basis, Debye-Ang):
   XX=             -6.2670   YY=             -7.3702   ZZ=             -9.5552
   XY=              0.0000   XZ=             -0.0000   YZ=              0.0000
 Traceless Quadrupole moment (field-independent basis, Debye-Ang):
   XX=              1.4638   YY=              0.3606   ZZ=             -1.8244
   XY=              0.0000   XZ=             -0.0000   YZ=              0.0000
 Octapole moment (field-independent basis, Debye-Ang**2):
  XXX=             -0.0000  YYY=              0.0000  ZZZ=             -5.0505  XYY=              0.0000
  XXY=              0.0000  XXZ=             -1.3938  XZZ=              0.0000  YZZ=              0.0000
  YYZ=             -1.8158  XYZ=              0.0000
 Hexadecapole moment (field-independent basis, Debye-Ang**3):
 XXXX=             -8.6578 YYYY=            -11.8628 ZZZZ=            -23.6503 XXXY=              0.0000
 XXXZ=              0.0000 YYYX=              0.0000 YYYZ=              0.0000 ZZZX=             -0.0000
 ZZZY=              0.0000 XXYY=             -3.4200 XXZZ=             -5.4844 YYZZ=             -6.1583
 XXYZ=              0.0000 YYXZ=             -0.0000 ZZXY=              0.0000
 N-N= 2.405350958727D+00 E-N=-6.293071859520D+01  KE= 2.526158893284D+01
 Symmetry A1   KE= 2.503227111588D+01
 Symmetry A2   KE= 7.973896374295D-30
 Symmetry B1   KE= 9.684454967358D-30
 Symmetry B2   KE= 2.293178169499D-01
 Symmetry A1   SP= 0.000000000000D+00
 Symmetry A2   SP= 0.000000000000D+00
 Symmetry B1   SP= 0.000000000000D+00
 Symmetry B2   SP= 0.000000000000D+00
                          Isotropic Fermi Contact Couplings
        Atom                 a.u.       MegaHertz       Gauss      10(-4) cm-1
     1  B(11)              0.00000       0.00000       0.00000       0.00000
     2  H(1)               0.00000       0.00000       0.00000       0.00000
 --------------------------------------------------------
       Center         ----  Spin Dipole Couplings  ----
                      3XX-RR        3YY-RR        3ZZ-RR
 --------------------------------------------------------
     1   Atom        0.000000      0.000000      0.000000
     2   Atom        0.000000      0.000000      0.000000
 --------------------------------------------------------
                        XY            XZ            YZ
 --------------------------------------------------------
     1   Atom       -0.000000      0.000000      0.462786
     2   Atom        0.000000      0.000000      0.000719
 --------------------------------------------------------


 ---------------------------------------------------------------------------------
              Anisotropic Spin Dipole Couplings in Principal Axis System
 ---------------------------------------------------------------------------------

       Atom             a.u.   MegaHertz   Gauss  10(-4) cm-1        Axes

              Baa    -0.4628   -79.236   -28.273   -26.430  0.0000  0.7071 -0.7071
     1 B(11)  Bbb    -0.0000    -0.000    -0.000    -0.000  1.0000 -0.0000  0.0000
              Bcc     0.4628    79.236    28.273    26.430 -0.0000  0.7071  0.7071
 
              Baa    -0.0007    -0.383    -0.137    -0.128 -0.0000  0.7071 -0.7071
     2 H(1)   Bbb     0.0000     0.000     0.000     0.000  1.0000  0.0000 -0.0000
              Bcc     0.0007     0.383     0.137     0.128  0.0000  0.7071  0.7071
 

 ---------------------------------------------------------------------------------

 No NMR shielding tensors so no spin-rotation constants.
 Leave Link  601 at Sun May 22 18:34:31 2022, MaxMem=   104857600 cpu:               0.2 elap:               0.2
 (Enter /apps/software/g16/l9999.exe)
 1\1\GINC-CNODE08\Stability\UHF\Aug-CC-pVQZ\B1H1\LCZ\22-May-2022\0\\#p 
 UHF/aug-cc-pVQZ guess=mix stable=opt\\BH UHF at 1.1 Angstrom\\0,1\B,0,
 0.,0.,0.\H,0,1.1,0.,0.\\Version=ES64L-G16RevA.03\HF=-25.1320902\S2=0.5
 07895\S2-1=0.\S2A=0.004743\RMSD=4.750e-09\Dipole=0.5913423,0.,0.\Quadr
 upole=-1.3563932,0.2681018,1.0882914,0.,0.,0.\PG=C*V [C*(H1B1)]\\@


 LEARN FROM YESTERDAY,
 LIVE FOR TODAY,
 LOOK TO TOMORROW,
 REST THIS AFTERNOON.

           -- SNOOPY
 Job cpu time:       0 days  0 hours  0 minutes  9.1 seconds.
 Elapsed time:       0 days  0 hours  0 minutes  9.0 seconds.
 File lengths (MBytes):  RWF=     29 Int=      0 D2E=      0 Chk=      4 Scr=      1
 Normal termination of Gaussian 16 at Sun May 22 18:34:31 2022.

Sender: Unischeduler System <lcz@mgt01>
Subject: Job 134180: <#!/bin/bash
#BSUB -J intel
#BSUB -o BH-1.1-UHF-G.out
#BSUB -n 8
#BSUB -q cqueue
#BSUB -R span[hosts=1]
export g16root=/apps/software
source /apps/software/g16/bsd/g16.profile
export GAUSS_SCRDIR=/scratch
/apps/software/g16/g16 < BH-1.1-UHF-G.inp > BH-1.1-UHF-G.out> Done

Job <#!/bin/bash
#BSUB -J intel
#BSUB -o BH-1.1-UHF-G.out
#BSUB -n 8
#BSUB -q cqueue
#BSUB -R span[hosts=1]
export g16root=/apps/software
source /apps/software/g16/bsd/g16.profile
export GAUSS_SCRDIR=/scratch
/apps/software/g16/g16 < BH-1.1-UHF-G.inp > BH-1.1-UHF-G.out> was submitted from host <mgt01> by user <lcz>.
Job was executed on host(s) <8*cnode08>, in queue <cqueue>, as user <lcz>.
</apps/users/lcz> was used as the home directory.
</apps/users/lcz/exe13/UCCSD> was used as the working directory.
Started at 2022-05-22 18:34:21
Results reported at 2022-05-22 18:34:31

Your job looked like:

------------------------------------------------------------
# User input
#!/bin/bash
#BSUB -J intel
#BSUB -o BH-1.1-UHF-G.out
#BSUB -n 8
#BSUB -q cqueue
#BSUB -R span[hosts=1]
export g16root=/apps/software
source /apps/software/g16/bsd/g16.profile
export GAUSS_SCRDIR=/scratch
/apps/software/g16/g16 < BH-1.1-UHF-G.inp > BH-1.1-UHF-G.out
------------------------------------------------------------

Successfully completed.

Resource usage summary:

    CPU time   :            1.59 sec.
    Max Memory :               452 MB
    Max Processes  :               5


The output (if any) follows:

