
                                        *****************
                                        * O   R   C   A *
                                        *****************

                                            #,                                       
                                            ###                                      
                                            ####                                     
                                            #####                                    
                                            ######                                   
                                           ########,                                 
                                     ,,################,,,,,                         
                               ,,#################################,,                 
                          ,,##########################################,,             
                       ,#########################################, ''#####,          
                    ,#############################################,,   '####,        
                  ,##################################################,,,,####,       
                ,###########''''           ''''###############################       
              ,#####''   ,,,,##########,,,,          '''####'''          '####       
            ,##' ,,,,###########################,,,                        '##       
           ' ,,###''''                  '''############,,,                           
         ,,##''                                '''############,,,,        ,,,,,,###''
      ,#''                                            '''#######################'''  
     '                                                          ''''####''''         
             ,#######,   #######,   ,#######,      ##                                
            ,#'     '#,  ##    ##  ,#'     '#,    #''#        ######   ,####,        
            ##       ##  ##   ,#'  ##            #'  '#       #        #'  '#        
            ##       ##  #######   ##           ,######,      #####,   #    #        
            '#,     ,#'  ##    ##  '#,     ,#' ,#      #,         ##   #,  ,#        
             '#######'   ##     ##  '#######'  #'      '#     #####' # '####'        



                  #######################################################
                  #                        -***-                        #
                  #          Department of theory and spectroscopy      #
                  #    Directorship and core code : Frank Neese         #
                  #        Max Planck Institute fuer Kohlenforschung    #
                  #                Kaiser Wilhelm Platz 1               #
                  #                 D-45470 Muelheim/Ruhr               #
                  #                      Germany                        #
                  #                                                     #
                  #                  All rights reserved                #
                  #                        -***-                        #
                  #######################################################


                         Program Version 5.0.0 -  RELEASE  -
                                (SVN: $Rev: 19529$)
                ($Date: 2021-06-28 11:36:33 +0200 (Mo, 28 Jun 2021) $)


 With contributions from (in alphabetic order):
   Daniel Aravena         : Magnetic Suceptibility
   Michael Atanasov       : Ab Initio Ligand Field Theory (pilot matlab implementation)
   Alexander A. Auer      : GIAO ZORA, VPT2 properties, NMR spectrum
   Ute Becker             : Parallelization
   Giovanni Bistoni       : ED, misc. LED, open-shell LED, HFLD
   Martin Brehm           : Molecular dynamics
   Dmytro Bykov           : SCF Hessian
   Vijay G. Chilkuri      : MRCI spin determinant printing, contributions to CSF-ICE
   Dipayan Datta          : RHF DLPNO-CCSD density
   Achintya Kumar Dutta   : EOM-CC, STEOM-CC
   Dmitry Ganyushin       : Spin-Orbit,Spin-Spin,Magnetic field MRCI
   Miquel Garcia          : C-PCM Hessian, Gaussian charge scheme
   Yang Guo               : DLPNO-NEVPT2, F12-NEVPT2, CIM, IAO-localization
   Andreas Hansen         : Spin unrestricted coupled pair/coupled cluster methods
   Benjamin Helmich-Paris : MC-RPA, TRAH-SCF, COSX integrals
   Lee Huntington         : MR-EOM, pCC
   Robert Izsak           : Overlap fitted RIJCOSX, COSX-SCS-MP3, EOM
   Marcus Kettner         : VPT2
   Christian Kollmar      : KDIIS, OOCD, Brueckner-CCSD(T), CCSD density, CASPT2, CASPT2-K
   Simone Kossmann        : Meta GGA functionals, TD-DFT gradient, OOMP2, MP2 Hessian
   Martin Krupicka        : Initial AUTO-CI
   Lucas Lang             : DCDCAS
   Marvin Lechner         : AUTO-CI (C++ implementation), FIC-MRCC
   Dagmar Lenk            : GEPOL surface, SMD
   Dimitrios Liakos       : Extrapolation schemes; Compound Job, initial MDCI parallelization
   Dimitrios Manganas     : Further ROCIS development; embedding schemes
   Dimitrios Pantazis     : SARC Basis sets
   Anastasios Papadopoulos: AUTO-CI, single reference methods and gradients
   Taras Petrenko         : DFT Hessian,TD-DFT gradient, ASA, ECA, R-Raman, ABS, FL, XAS/XES, NRVS
   Peter Pinski           : DLPNO-MP2, DLPNO-MP2 Gradient
   Christoph Reimann      : Effective Core Potentials
   Marius Retegan         : Local ZFS, SOC
   Christoph Riplinger    : Optimizer, TS searches, QM/MM, DLPNO-CCSD(T), (RO)-DLPNO pert. Triples
   Tobias Risthaus        : Range-separated hybrids, TD-DFT gradient, RPA, STAB
   Michael Roemelt        : Original ROCIS implementation
   Masaaki Saitow         : Open-shell DLPNO-CCSD energy and density
   Barbara Sandhoefer     : DKH picture change effects
   Avijit Sen             : IP-ROCIS
   Kantharuban Sivalingam : CASSCF convergence, NEVPT2, FIC-MRCI
   Bernardo de Souza      : ESD, SOC TD-DFT
   Georgi Stoychev        : AutoAux, RI-MP2 NMR
   Willem Van den Heuvel  : Paramagnetic NMR
   Boris Wezisla          : Elementary symmetry handling
   Frank Wennmohs         : Technical directorship


 We gratefully acknowledge several colleagues who have allowed us to
 interface, adapt or use parts of their codes:
   Stefan Grimme, W. Hujo, H. Kruse, P. Pracht,  : VdW corrections, initial TS optimization,
                  C. Bannwarth, S. Ehlert          DFT functionals, gCP, sTDA/sTD-DF
   Ed Valeev, F. Pavosevic, A. Kumar             : LibInt (2-el integral package), F12 methods
   Garnet Chan, S. Sharma, J. Yang, R. Olivares  : DMRG
   Ulf Ekstrom                                   : XCFun DFT Library
   Mihaly Kallay                                 : mrcc  (arbitrary order and MRCC methods)
   Jiri Pittner, Ondrej Demel                    : Mk-CCSD
   Frank Weinhold                                : gennbo (NPA and NBO analysis)
   Christopher J. Cramer and Donald G. Truhlar   : smd solvation model
   Lars Goerigk                                  : TD-DFT with DH, B97 family of functionals
   V. Asgeirsson, H. Jonsson                     : NEB implementation
   FAccTs GmbH                                   : IRC, NEB, NEB-TS, DLPNO-Multilevel, CI-OPT
                                                   MM, QMMM, 2- and 3-layer-ONIOM, Crystal-QMMM,
                                                   LR-CPCM, SF, NACMEs, symmetry and pop. for TD-DFT,
                                                   nearIR, NL-DFT gradient (VV10), updates on ESD,
                                                   ML-optimized integration grids
   S Lehtola, MJT Oliveira, MAL Marques          : LibXC Library
   Liviu Ungur et al                             : ANISO software


 Your calculation uses the libint2 library for the computation of 2-el integrals
 For citations please refer to: http://libint.valeyev.net

 Your ORCA version has been built with support for libXC version: 5.1.0
 For citations please refer to: https://tddft.org/programs/libxc/

 This ORCA versions uses:
   CBLAS   interface :  Fast vector & matrix operations
   LAPACKE interface :  Fast linear algebra routines
   SCALAPACK package :  Parallel linear algebra routines
   Shared memory     :  Shared parallel matrices
   BLAS/LAPACK       :  OpenBLAS 0.3.15  USE64BITINT DYNAMIC_ARCH NO_AFFINITY SkylakeX SINGLE_THREADED
        Core in use  :  SkylakeX
   Copyright (c) 2011-2014, The OpenBLAS Project


================================================================================

----- Orbital basis set information -----
Your calculation utilizes the basis: aug-cc-pVQZ 
    H, B-Ne : Obtained from the ccRepo (grant-hill.group.shef.ac.uk/ccrepo) Feb. 2017
              R. A. Kendall, T. H. Dunning, Jr., R. J. Harrison, J. Chem. Phys. 96, 6796 (1992)
         He : Obtained from the ccRepo (grant-hill.group.shef.ac.uk/ccrepo) Feb. 2017
              D. E. Woon, T. H. Dunning, Jr., J. Chem. Phys. 100, 2975 (1994)
  Li-Be, Na : Obtained from the ccRepo (grant-hill.group.shef.ac.uk/ccrepo) Feb. 2017
              B. P. Prascher, D. E. Woon, K. A. Peterson, T. H. Dunning, Jr., A. K. Wilson, Theor. Chem. Acc. 128, 69 (2011)
         Mg : Obtained from the Peterson Research Group Website (tyr0.chem.wsu.edu/~kipeters) Feb. 2017
              B. P. Prascher, D. E. Woon, K. A. Peterson, T. H. Dunning, Jr., A. K. Wilson, Theor. Chem. Acc. 128, 69 (2011)
      Al-Ar : Obtained from the ccRepo (grant-hill.group.shef.ac.uk/ccrepo) Feb. 2017
              D. E. Woon, T. H. Dunning, Jr., J. Chem. Phys. 98, 1358 (1993)
      Sc-Zn : Obtained from the ccRepo (grant-hill.group.shef.ac.uk/ccrepo) Feb. 2017
              N. B. Balabanov, K. A. Peterson, J. Chem. Phys. 123, 064107 (2005)
              N. B. Balabanov, K. A. Peterson, J. Chem. Phys. 125, 074110 (2006)
      Ga-Kr : Obtained from the ccRepo (grant-hill.group.shef.ac.uk/ccrepo) Feb. 2017
              A. K. Wilson, D. E. Woon, K. A. Peterson, T. H. Dunning, Jr., J. Chem. Phys. 110, 7667 (1999)

================================================================================
                                        WARNINGS
                       Please study these warnings very carefully!
================================================================================


WARNING: Post HF methods need fully converged wavefunctions
  ===> : Setting SCFConvForced true
         You can overwrite this default with %scf ConvForced false 


WARNING: MDCI localization with Augmented Hessian Foster-Boys
  ===> : Switching off randomization!

INFO   : the flag for use of the SHARK integral package has been found!

================================================================================
                                       INPUT FILE
================================================================================
NAME = /scratch/BH-1.1-UCCSD-O_224/BH-1.1-UCCSD-O.inp
|  1> ! UHF CCSD aug-cc-pVQZ VeryTightSCF MOread
|  2> 
|  3> %moinp "BH-1.1-UHF-O.gbw"
|  4> 
|  5> *xyz 0 1
|  6>  B	0.0	0.0	0.0
|  7>  H	1.1	0.0	0.0
|  8> **                         ****END OF INPUT****
================================================================================

                       ****************************
                       * Single Point Calculation *
                       ****************************

---------------------------------
CARTESIAN COORDINATES (ANGSTROEM)
---------------------------------
  B      0.000000    0.000000    0.000000
  H      1.100000    0.000000    0.000000

----------------------------
CARTESIAN COORDINATES (A.U.)
----------------------------
  NO LB      ZA    FRAG     MASS         X           Y           Z
   0 B     5.0000    0    10.810    0.000000    0.000000    0.000000
   1 H     1.0000    0     1.008    2.078699    0.000000    0.000000

--------------------------------
INTERNAL COORDINATES (ANGSTROEM)
--------------------------------
 B      0   0   0     0.000000000000     0.00000000     0.00000000
 H      1   0   0     1.100000000000     0.00000000     0.00000000

---------------------------
INTERNAL COORDINATES (A.U.)
---------------------------
 B      0   0   0     0.000000000000     0.00000000     0.00000000
 H      1   0   0     2.078698747313     0.00000000     0.00000000

---------------------
BASIS SET INFORMATION
---------------------
There are 2 groups of distinct atoms

 Group   1 Type B   : 22s7p4d3f2g contracted to 6s5p4d3f2g pattern {991111/31111/1111/111/11}
 Group   2 Type H   : 7s4p3d2f contracted to 5s4p3d2f pattern {31111/1111/111/11}

Atom   0B    basis set group =>   1
Atom   1H    basis set group =>   2
------------------------------------------------------------------------------
                           ORCA GTO INTEGRAL CALCULATION
------------------------------------------------------------------------------
------------------------------------------------------------------------------
                   ___                                                        
                  /   \      - P O W E R E D   B Y -                         
                 /     \                                                     
                 |  |  |   _    _      __       _____    __    __             
                 |  |  |  | |  | |    /  \     |  _  \  |  |  /  |          
                  \  \/   | |  | |   /    \    | | | |  |  | /  /          
                 / \  \   | |__| |  /  /\  \   | |_| |  |  |/  /          
                |  |  |   |  __  | /  /__\  \  |    /   |      \           
                |  |  |   | |  | | |   __   |  |    \   |  |\   \          
                \     /   | |  | | |  |  |  |  | |\  \  |  | \   \       
                 \___/    |_|  |_| |__|  |__|  |_| \__\ |__|  \__/        
                                                                              
                      - O R C A' S   B I G   F R I E N D -                    
                                      &                                       
                       - I N T E G R A L  F E E D E R -                       
                                                                              
 v1 FN, 2020, v2 2021                                                         
------------------------------------------------------------------------------


Reading SHARK input file /scratch/BH-1.1-UCCSD-O_224/BH-1.1-UCCSD-O.SHARKINP.tmp ... ok
----------------------
SHARK INTEGRAL PACKAGE
----------------------

Number of atoms                             ...      2
Number of basis functions                   ...    126
Number of shells                            ...     34
Maximum angular momentum                    ...      4
Integral batch strategy                     ... SHARK/LIBINT Hybrid
RI-J (if used) integral strategy            ... SPLIT-RIJ (Revised 2003 algorithm where possible)
Printlevel                                  ...      1
Contraction scheme used                     ... SEGMENTED contraction
Coulomb Range Separation                    ... NOT USED
Exchange Range Separation                   ... NOT USED
Finite Nucleus Model                        ... NOT USED
Auxiliary Coulomb fitting basis             ... NOT available
Auxiliary J/K fitting basis                 ... NOT available
Auxiliary Correlation fitting basis         ... NOT available
Auxiliary 'external' fitting basis          ... NOT available
Integral threshold                          ...     1.000000e-12
Primitive cut-off                           ...     1.000000e-14
Primitive pair pre-selection threshold      ...     1.000000e-14

Calculating pre-screening integrals         ... done (  0.1 sec) Dimension = 34
Organizing shell pair data                  ... done (  0.0 sec)
Shell pair information
Total number of shell pairs                 ...       595
Shell pairs after pre-screening             ...       595
Total number of primitive shell pairs       ...      1563
Primitive shell pairs kept                  ...      1536
          la=0 lb=0:     66 shell pairs
          la=1 lb=0:     99 shell pairs
          la=1 lb=1:     45 shell pairs
          la=2 lb=0:     77 shell pairs
          la=2 lb=1:     63 shell pairs
          la=2 lb=2:     28 shell pairs
          la=3 lb=0:     55 shell pairs
          la=3 lb=1:     45 shell pairs
          la=3 lb=2:     35 shell pairs
          la=3 lb=3:     15 shell pairs
          la=4 lb=0:     22 shell pairs
          la=4 lb=1:     18 shell pairs
          la=4 lb=2:     14 shell pairs
          la=4 lb=3:     10 shell pairs
          la=4 lb=4:      3 shell pairs

Calculating one electron integrals          ... done (  0.0 sec)
Calculating Nuclear repulsion               ... done (  0.0 sec) ENN=      2.405350946818 Eh

SHARK setup successfully completed in   0.1 seconds

Maximum memory used throughout the entire GTOINT-calculation: 33.3 MB
-------------------------------------------------------------------------------
                                 ORCA SCF
-------------------------------------------------------------------------------

------------
SCF SETTINGS
------------
Hamiltonian:
 Ab initio Hamiltonian  Method          .... Hartree-Fock(GTOs)


General Settings:
 Integral files         IntName         .... /scratch/BH-1.1-UCCSD-O_224/BH-1.1-UCCSD-O
 Hartree-Fock type      HFTyp           .... UHF
 Total Charge           Charge          ....    0
 Multiplicity           Mult            ....    1
 Number of Electrons    NEL             ....    6
 Basis Dimension        Dim             ....  126
 Nuclear Repulsion      ENuc            ....      2.4053509468 Eh

Convergence Acceleration:
 DIIS                   CNVDIIS         .... on
   Start iteration      DIISMaxIt       ....    12
   Startup error        DIISStart       ....  0.200000
   # of expansion vecs  DIISMaxEq       ....     5
   Bias factor          DIISBfac        ....   1.050
   Max. coefficient     DIISMaxC        ....  10.000
 Trust-Rad. Augm. Hess. CNVTRAH         .... auto
   Auto Start mean grad. ratio tolernc. ....  1.125000
   Auto Start start iteration           ....     1
   Auto Start num. interpolation iter.  ....    10
   Max. Number of Micro iterations      ....    16
   Max. Number of Macro iterations      .... Maxiter - #DIIS iter
   Number of Davidson start vectors     ....     2
   Converg. threshold I  (grad. norm)   ....   2.000e-06
   Converg. threshold II (energy diff.) ....   1.000e-09
   Grad. Scal. Fac. for Micro threshold ....   0.100
   Minimum threshold for Micro iter.    ....   0.010
   NR start threshold (gradient norm)   ....   0.001
   Initial trust radius                 ....   0.400
   Minimum AH scaling param. (alpha)    ....   1.000
   Maximum AH scaling param. (alpha)    .... 1000.000
   Orbital update algorithm             .... Taylor
   White noise on init. David. guess    .... on
   Maximum white noise                  ....   0.010
   Quad. conv. algorithm                .... NR
 SOSCF                  CNVSOSCF        .... off
 Level Shifting         CNVShift        .... on
   Level shift para.    LevelShift      ....    0.2500
   Turn off err/grad.   ShiftErr        ....    0.0010
 Zerner damping         CNVZerner       .... off
 Static damping         CNVDamp         .... on
   Fraction old density DampFac         ....    0.7000
   Max. Damping (<1)    DampMax         ....    0.9800
   Min. Damping (>=0)   DampMin         ....    0.0000
   Turn off err/grad.   DampErr         ....    0.1000
 Fernandez-Rico         CNVRico         .... off

SCF Procedure:
 Maximum # iterations   MaxIter         ....   125
 SCF integral mode      SCFMode         .... Direct
   Integral package                     .... SHARK and LIBINT hybrid scheme
 Reset frequency        DirectResetFreq ....    20
 Integral Threshold     Thresh          ....  1.000e-12 Eh
 Primitive CutOff       TCut            ....  1.000e-14 Eh

Convergence Tolerance:
 Convergence Check Mode ConvCheckMode   .... Total+1el-Energy
 Convergence forced     ConvForced      .... 1
 Energy Change          TolE            ....  1.000e-09 Eh
 1-El. energy change                    ....  1.000e-06 Eh
 DIIS Error             TolErr          ....  1.000e-08


Diagonalization of the overlap matrix:
Smallest eigenvalue                        ... 8.246e-05
Time for diagonalization                   ...    0.001 sec
Threshold for overlap eigenvalues          ... 1.000e-08
Number of eigenvalues below threshold      ... 0
Time for construction of square roots      ...    0.000 sec
Total time needed                          ...    0.002 sec

---------------------
INITIAL GUESS: MOREAD
---------------------
Guess MOs are being read from file: BH-1.1-UHF-O.gbw
Input Geometry matches current geometry (good)
Input basis set matches current basis set (good)
MOs were renormalized
MOs were reorthogonalized (Cholesky)
                      ------------------
                      INITIAL GUESS DONE (   0.0 sec)
                      ------------------
--------------
SCF ITERATIONS
--------------
ITER       Energy         Delta-E        Max-DP      RMS-DP      [F,P]     Damp
               ***  Starting incremental Fock matrix formation  ***
  0    -25.1320904117   0.000000000000 0.00000000  0.00000000  0.0000000 0.7000
                 **** Energy Check signals convergence ****

               *****************************************************
               *                     SUCCESS                       *
               *           SCF CONVERGED AFTER   1 CYCLES          *
               *****************************************************


----------------
TOTAL SCF ENERGY
----------------

Total Energy       :          -25.13209041 Eh            -683.87895 eV

Components:
Nuclear Repulsion  :            2.40535095 Eh              65.45293 eV
Electronic Energy  :          -27.53744136 Eh            -749.33187 eV
One Electron Energy:          -37.66912370 Eh           -1025.02897 eV
Two Electron Energy:           10.13168235 Eh             275.69709 eV

Virial components:
Potential Energy   :          -50.39370927 Eh           -1371.28254 eV
Kinetic Energy     :           25.26161885 Eh             687.40360 eV
Virial Ratio       :            1.99487252


---------------
SCF CONVERGENCE
---------------

  Last Energy change         ...   -1.6378e-12  Tolerance :   1.0000e-09
  Last MAX-Density change    ...    4.2400e-09  Tolerance :   1.0000e-08
  Last RMS-Density change    ...    1.1281e-10  Tolerance :   1.0000e-09
  Last DIIS Error            ...    7.2565e-09  Tolerance :   1.0000e-08

             **** THE GBW FILE WAS UPDATED (/scratch/BH-1.1-UCCSD-O_224/BH-1.1-UCCSD-O.gbw) ****
             **** DENSITY /scratch/BH-1.1-UCCSD-O_224/BH-1.1-UCCSD-O.scfp WAS UPDATED ****
             **** ENERGY FILE WAS UPDATED (/scratch/BH-1.1-UCCSD-O_224/BH-1.1-UCCSD-O.en.tmp) ****
----------------------
UHF SPIN CONTAMINATION
----------------------

Expectation value of <S**2>     :     0.507896
Ideal value S*(S+1) for S=0.0   :     0.000000
Deviation                       :     0.507896

             **** THE GBW FILE WAS UPDATED (/scratch/BH-1.1-UCCSD-O_224/BH-1.1-UCCSD-O.gbw) ****
             **** DENSITY /scratch/BH-1.1-UCCSD-O_224/BH-1.1-UCCSD-O.scfp WAS UPDATED ****
----------------
ORBITAL ENERGIES
----------------
                 SPIN UP ORBITALS
  NO   OCC          E(Eh)            E(eV) 
   0   1.0000      -7.658880      -208.4087 
   1   1.0000      -0.674670       -18.3587 
   2   1.0000      -0.369329       -10.0500 
   3   0.0000       0.026316         0.7161 
   4   0.0000       0.029400         0.8000 
   5   0.0000       0.033812         0.9201 
   6   0.0000       0.044058         1.1989 
   7   0.0000       0.082006         2.2315 
   8   0.0000       0.088783         2.4159 
   9   0.0000       0.118043         3.2121 
  10   0.0000       0.132664         3.6100 
  11   0.0000       0.134968         3.6727 
  12   0.0000       0.146654         3.9906 
  13   0.0000       0.146711         3.9922 
  14   0.0000       0.150147         4.0857 
  15   0.0000       0.183925         5.0048 
  16   0.0000       0.271258         7.3813 
  17   0.0000       0.275091         7.4856 
  18   0.0000       0.277100         7.5403 
  19   0.0000       0.321663         8.7529 
  20   0.0000       0.322690         8.7808 
  21   0.0000       0.410489        11.1700 
  22   0.0000       0.433823        11.8049 
  23   0.0000       0.448070        12.1926 
  24   0.0000       0.448143        12.1946 
  25   0.0000       0.463494        12.6123 
  26   0.0000       0.463530        12.6133 
  27   0.0000       0.474194        12.9035 
  28   0.0000       0.478140        13.0109 
  29   0.0000       0.504922        13.7396 
  30   0.0000       0.505010        13.7420 
  31   0.0000       0.517722        14.0879 
  32   0.0000       0.552251        15.0275 
  33   0.0000       0.600752        16.3473 
  34   0.0000       0.604178        16.4405 
  35   0.0000       0.768855        20.9216 
  36   0.0000       0.780125        21.2283 
  37   0.0000       0.782298        21.2874 
  38   0.0000       0.806304        21.9407 
  39   0.0000       0.806398        21.9432 
  40   0.0000       0.916565        24.9410 
  41   0.0000       1.052924        28.6515 
  42   0.0000       1.054919        28.7058 
  43   0.0000       1.093259        29.7491 
  44   0.0000       1.182674        32.1822 
  45   0.0000       1.186732        32.2926 
  46   0.0000       1.367118        37.2012 
  47   0.0000       1.374906        37.4131 
  48   0.0000       1.374906        37.4131 
  49   0.0000       1.379979        37.5511 
  50   0.0000       1.379980        37.5512 
  51   0.0000       1.395019        37.9604 
  52   0.0000       1.395205        37.9655 
  53   0.0000       1.440745        39.2047 
  54   0.0000       1.440874        39.2082 
  55   0.0000       1.453036        39.5391 
  56   0.0000       1.453056        39.5397 
  57   0.0000       1.463666        39.8284 
  58   0.0000       1.469511        39.9874 
  59   0.0000       1.474550        40.1245 
  60   0.0000       1.579037        42.9678 
  61   0.0000       1.603568        43.6353 
  62   0.0000       1.610124        43.8137 
  63   0.0000       1.667809        45.3834 
  64   0.0000       1.667975        45.3879 
  65   0.0000       1.842175        50.1281 
  66   0.0000       1.870822        50.9077 
  67   0.0000       1.874993        51.0211 
  68   0.0000       1.896080        51.5950 
  69   0.0000       1.943398        52.8826 
  70   0.0000       1.943401        52.8826 
  71   0.0000       2.033976        55.3473 
  72   0.0000       2.033999        55.3479 
  73   0.0000       2.206674        60.0466 
  74   0.0000       2.259532        61.4850 
  75   0.0000       2.265287        61.6416 
  76   0.0000       2.758940        75.0746 
  77   0.0000       3.134325        85.2893 
  78   0.0000       3.138470        85.4021 
  79   0.0000       3.227330        87.8201 
  80   0.0000       3.231929        87.9453 
  81   0.0000       3.238617        88.1273 
  82   0.0000       3.238828        88.1330 
  83   0.0000       3.298580        89.7589 
  84   0.0000       3.769393       102.5704 
  85   0.0000       3.931328       106.9769 
  86   0.0000       3.931328       106.9769 
  87   0.0000       3.941301       107.2482 
  88   0.0000       3.941303       107.2483 
  89   0.0000       4.013610       109.2159 
  90   0.0000       4.023705       109.4906 
  91   0.0000       4.030441       109.6739 
  92   0.0000       4.030525       109.6762 
  93   0.0000       4.071129       110.7811 
  94   0.0000       4.071513       110.7915 
  95   0.0000       4.109322       111.8203 
  96   0.0000       4.109323       111.8204 
  97   0.0000       4.153707       113.0281 
  98   0.0000       4.258906       115.8907 
  99   0.0000       4.267768       116.1319 
 100   0.0000       4.406953       119.9193 
 101   0.0000       4.415279       120.1458 
 102   0.0000       4.492354       122.2432 
 103   0.0000       4.494209       122.2936 
 104   0.0000       4.507513       122.6557 
 105   0.0000       5.211763       141.8193 
 106   0.0000       5.612406       152.7213 
 107   0.0000       5.618329       152.8825 
 108   0.0000       5.636888       153.3875 
 109   0.0000       6.793245       184.8536 
 110   0.0000       6.793245       184.8536 
 111   0.0000       7.442642       202.5246 
 112   0.0000       7.442649       202.5248 
 113   0.0000       7.860188       213.8866 
 114   0.0000       7.915959       215.4042 
 115   0.0000       7.918939       215.4853 
 116   0.0000       8.495694       231.1796 
 117   0.0000       8.942301       243.3324 
 118   0.0000       8.942304       243.3325 
 119   0.0000       9.270515       252.2635 
 120   0.0000       9.273014       252.3315 
 121   0.0000       9.405660       255.9410 
 122   0.0000       9.409618       256.0487 
 123   0.0000      10.102451       274.9017 
 124   0.0000      10.682675       290.6904 
 125   0.0000      17.119998       465.8588 

                 SPIN DOWN ORBITALS
  NO   OCC          E(Eh)            E(eV) 
   0   1.0000      -7.658880      -208.4087 
   1   1.0000      -0.674670       -18.3587 
   2   1.0000      -0.369329       -10.0500 
   3   0.0000       0.026316         0.7161 
   4   0.0000       0.029400         0.8000 
   5   0.0000       0.033812         0.9201 
   6   0.0000       0.044058         1.1989 
   7   0.0000       0.082006         2.2315 
   8   0.0000       0.088783         2.4159 
   9   0.0000       0.118043         3.2121 
  10   0.0000       0.132664         3.6100 
  11   0.0000       0.134968         3.6727 
  12   0.0000       0.146654         3.9906 
  13   0.0000       0.146711         3.9922 
  14   0.0000       0.150147         4.0857 
  15   0.0000       0.183925         5.0048 
  16   0.0000       0.271258         7.3813 
  17   0.0000       0.275091         7.4856 
  18   0.0000       0.277100         7.5403 
  19   0.0000       0.321663         8.7529 
  20   0.0000       0.322690         8.7808 
  21   0.0000       0.410489        11.1700 
  22   0.0000       0.433823        11.8049 
  23   0.0000       0.448070        12.1926 
  24   0.0000       0.448143        12.1946 
  25   0.0000       0.463494        12.6123 
  26   0.0000       0.463530        12.6133 
  27   0.0000       0.474194        12.9035 
  28   0.0000       0.478140        13.0109 
  29   0.0000       0.504922        13.7396 
  30   0.0000       0.505010        13.7420 
  31   0.0000       0.517722        14.0879 
  32   0.0000       0.552251        15.0275 
  33   0.0000       0.600752        16.3473 
  34   0.0000       0.604178        16.4405 
  35   0.0000       0.768855        20.9216 
  36   0.0000       0.780125        21.2283 
  37   0.0000       0.782298        21.2874 
  38   0.0000       0.806304        21.9407 
  39   0.0000       0.806398        21.9432 
  40   0.0000       0.916565        24.9410 
  41   0.0000       1.052924        28.6515 
  42   0.0000       1.054919        28.7058 
  43   0.0000       1.093259        29.7491 
  44   0.0000       1.182674        32.1822 
  45   0.0000       1.186732        32.2926 
  46   0.0000       1.367118        37.2012 
  47   0.0000       1.374906        37.4131 
  48   0.0000       1.374906        37.4131 
  49   0.0000       1.379979        37.5511 
  50   0.0000       1.379980        37.5512 
  51   0.0000       1.395019        37.9604 
  52   0.0000       1.395205        37.9655 
  53   0.0000       1.440745        39.2047 
  54   0.0000       1.440874        39.2082 
  55   0.0000       1.453036        39.5391 
  56   0.0000       1.453056        39.5397 
  57   0.0000       1.463666        39.8284 
  58   0.0000       1.469511        39.9874 
  59   0.0000       1.474550        40.1245 
  60   0.0000       1.579037        42.9678 
  61   0.0000       1.603568        43.6353 
  62   0.0000       1.610124        43.8137 
  63   0.0000       1.667809        45.3834 
  64   0.0000       1.667975        45.3879 
  65   0.0000       1.842175        50.1281 
  66   0.0000       1.870822        50.9077 
  67   0.0000       1.874993        51.0211 
  68   0.0000       1.896080        51.5950 
  69   0.0000       1.943398        52.8826 
  70   0.0000       1.943401        52.8826 
  71   0.0000       2.033976        55.3473 
  72   0.0000       2.033999        55.3479 
  73   0.0000       2.206674        60.0466 
  74   0.0000       2.259532        61.4850 
  75   0.0000       2.265287        61.6416 
  76   0.0000       2.758940        75.0746 
  77   0.0000       3.134325        85.2893 
  78   0.0000       3.138470        85.4021 
  79   0.0000       3.227330        87.8201 
  80   0.0000       3.231929        87.9453 
  81   0.0000       3.238617        88.1273 
  82   0.0000       3.238828        88.1330 
  83   0.0000       3.298580        89.7589 
  84   0.0000       3.769393       102.5704 
  85   0.0000       3.931328       106.9769 
  86   0.0000       3.931328       106.9769 
  87   0.0000       3.941301       107.2482 
  88   0.0000       3.941303       107.2483 
  89   0.0000       4.013610       109.2159 
  90   0.0000       4.023705       109.4906 
  91   0.0000       4.030441       109.6739 
  92   0.0000       4.030525       109.6762 
  93   0.0000       4.071129       110.7811 
  94   0.0000       4.071513       110.7915 
  95   0.0000       4.109322       111.8203 
  96   0.0000       4.109323       111.8204 
  97   0.0000       4.153707       113.0281 
  98   0.0000       4.258906       115.8907 
  99   0.0000       4.267768       116.1319 
 100   0.0000       4.406953       119.9193 
 101   0.0000       4.415279       120.1458 
 102   0.0000       4.492354       122.2432 
 103   0.0000       4.494209       122.2936 
 104   0.0000       4.507513       122.6557 
 105   0.0000       5.211763       141.8193 
 106   0.0000       5.612406       152.7213 
 107   0.0000       5.618329       152.8825 
 108   0.0000       5.636888       153.3875 
 109   0.0000       6.793245       184.8536 
 110   0.0000       6.793245       184.8536 
 111   0.0000       7.442642       202.5246 
 112   0.0000       7.442649       202.5248 
 113   0.0000       7.860188       213.8866 
 114   0.0000       7.915959       215.4042 
 115   0.0000       7.918939       215.4853 
 116   0.0000       8.495694       231.1796 
 117   0.0000       8.942301       243.3324 
 118   0.0000       8.942304       243.3325 
 119   0.0000       9.270515       252.2635 
 120   0.0000       9.273014       252.3315 
 121   0.0000       9.405660       255.9410 
 122   0.0000       9.409618       256.0487 
 123   0.0000      10.102451       274.9017 
 124   0.0000      10.682675       290.6904 
 125   0.0000      17.119998       465.8588 

                    ********************************
                    * MULLIKEN POPULATION ANALYSIS *
                    ********************************

--------------------------------------------
MULLIKEN ATOMIC CHARGES AND SPIN POPULATIONS
--------------------------------------------
   0 B :    0.089795   -0.000000
   1 H :   -0.089795    0.000000
Sum of atomic charges         :    0.0000000
Sum of atomic spin populations:    0.0000000

-----------------------------------------------------
MULLIKEN REDUCED ORBITAL CHARGES AND SPIN POPULATIONS
-----------------------------------------------------
CHARGE
  0 B s       :     3.593512  s :     3.593512
      pz      :     0.074179  p :     1.277301
      px      :     0.986362
      py      :     0.216760
      dz2     :     0.007370  d :     0.037228
      dxz     :     0.000784
      dyz     :     0.000357
      dx2y2   :     0.026427
      dxy     :     0.002290
      f0      :     0.000007  f :     0.001878
      f+1     :     0.000642
      f-1     :     0.000005
      f+2     :     0.000021
      f-2     :     0.000010
      f+3     :     0.001121
      f-3     :     0.000073
      g0      :     0.000037  g :     0.000286
      g+1     :     0.000001
      g-1     :     0.000000
      g+2     :     0.000084
      g-2     :     0.000001
      g+3     :     0.000001
      g-3     :     0.000000
      g+4     :     0.000157
      g-4     :     0.000006
  1 H s       :     1.082583  s :     1.082583
      pz      :     0.000972  p :     0.007601
      px      :     0.003787
      py      :     0.002841
      dz2     :    -0.000144  d :    -0.000621
      dxz     :     0.000016
      dyz     :     0.000004
      dx2y2   :    -0.000544
      dxy     :     0.000046
      f0      :     0.000011  f :     0.000233
      f+1     :     0.000042
      f-1     :     0.000006
      f+2     :     0.000021
      f-2     :     0.000001
      f+3     :     0.000063
      f-3     :     0.000088

SPIN
  0 B s       :    -0.000000  s :    -0.000000
      pz      :     0.000000  p :     0.000000
      px      :     0.000000
      py      :     0.000000
      dz2     :     0.000000  d :     0.000000
      dxz     :    -0.000000
      dyz     :     0.000000
      dx2y2   :     0.000000
      dxy     :    -0.000000
      f0      :     0.000000  f :     0.000000
      f+1     :     0.000000
      f-1     :     0.000000
      f+2     :     0.000000
      f-2     :     0.000000
      f+3     :     0.000000
      f-3     :     0.000000
      g0      :     0.000000  g :     0.000000
      g+1     :     0.000000
      g-1     :     0.000000
      g+2     :     0.000000
      g-2     :     0.000000
      g+3     :     0.000000
      g-3     :     0.000000
      g+4     :     0.000000
      g-4     :     0.000000
  1 H s       :    -0.000000  s :    -0.000000
      pz      :    -0.000000  p :     0.000000
      px      :     0.000000
      py      :    -0.000000
      dz2     :    -0.000000  d :    -0.000000
      dxz     :    -0.000000
      dyz     :     0.000000
      dx2y2   :    -0.000000
      dxy     :    -0.000000
      f0      :    -0.000000  f :    -0.000000
      f+1     :    -0.000000
      f-1     :    -0.000000
      f+2     :    -0.000000
      f-2     :    -0.000000
      f+3     :    -0.000000
      f-3     :    -0.000000


                     *******************************
                     * LOEWDIN POPULATION ANALYSIS *
                     *******************************

-------------------------------------------
LOEWDIN ATOMIC CHARGES AND SPIN POPULATIONS
-------------------------------------------
   0 B :    0.568224   -0.000000
   1 H :   -0.568224    0.000000

----------------------------------------------------
LOEWDIN REDUCED ORBITAL CHARGES AND SPIN POPULATIONS
----------------------------------------------------
CHARGE
  0 B s       :     3.031007  s :     3.031007
      pz      :     0.053256  p :     1.314325
      px      :     1.105448
      py      :     0.155620
      dz2     :     0.014746  d :     0.070469
      dxz     :     0.001947
      dyz     :     0.000299
      dx2y2   :     0.047790
      dxy     :     0.005688
      f0      :     0.000017  f :     0.012501
      f+1     :     0.004624
      f-1     :     0.000009
      f+2     :     0.000034
      f-2     :     0.000018
      f+3     :     0.007661
      f-3     :     0.000138
      g0      :     0.000481  g :     0.003474
      g+1     :     0.000008
      g-1     :     0.000000
      g+2     :     0.001069
      g-2     :     0.000005
      g+3     :     0.000006
      g-3     :     0.000000
      g+4     :     0.001869
      g-4     :     0.000035
  1 H s       :     1.050273  s :     1.050273
      pz      :     0.010827  p :     0.353520
      px      :     0.311053
      py      :     0.031639
      dz2     :     0.024015  d :     0.122601
      dxz     :     0.007516
      dyz     :     0.000037
      dx2y2   :     0.069070
      dxy     :     0.021963
      f0      :     0.000892  f :     0.041830
      f+1     :     0.012314
      f-1     :     0.000439
      f+2     :     0.001509
      f-2     :     0.000018
      f+3     :     0.020079
      f-3     :     0.006579

SPIN
  0 B s       :    -0.000000  s :    -0.000000
      pz      :     0.000000  p :     0.000000
      px      :     0.000000
      py      :     0.000000
      dz2     :    -0.000000  d :    -0.000000
      dxz     :    -0.000000
      dyz     :     0.000000
      dx2y2   :    -0.000000
      dxy     :     0.000000
      f0      :     0.000000  f :     0.000000
      f+1     :     0.000000
      f-1     :     0.000000
      f+2     :     0.000000
      f-2     :     0.000000
      f+3     :     0.000000
      f-3     :     0.000000
      g0      :    -0.000000  g :     0.000000
      g+1     :    -0.000000
      g-1     :     0.000000
      g+2     :     0.000000
      g-2     :    -0.000000
      g+3     :    -0.000000
      g-3     :    -0.000000
      g+4     :     0.000000
      g-4     :     0.000000
  1 H s       :    -0.000000  s :    -0.000000
      pz      :    -0.000000  p :     0.000000
      px      :     0.000000
      py      :    -0.000000
      dz2     :     0.000000  d :     0.000000
      dxz     :     0.000000
      dyz     :     0.000000
      dx2y2   :     0.000000
      dxy     :     0.000000
      f0      :    -0.000000  f :     0.000000
      f+1     :     0.000000
      f-1     :    -0.000000
      f+2     :    -0.000000
      f-2     :     0.000000
      f+3     :     0.000000
      f-3     :    -0.000000


                      *****************************
                      * MAYER POPULATION ANALYSIS *
                      *****************************

  NA   - Mulliken gross atomic population
  ZA   - Total nuclear charge
  QA   - Mulliken gross atomic charge
  VA   - Mayer's total valence
  BVA  - Mayer's bonded valence
  FA   - Mayer's free valence

  ATOM       NA         ZA         QA         VA         BVA        FA
  0 B      4.9102     5.0000     0.0898     1.8957     0.8815     1.0142
  1 H      1.0898     1.0000    -0.0898     0.8865     0.8815     0.0049

  Mayer bond orders larger than 0.100000
B(  0-B ,  1-H ) :   0.8815 

-------
TIMINGS
-------

Total SCF time: 0 days 0 hours 0 min 2 sec 

Total time                  ....       2.066 sec
Sum of individual times     ....       1.570 sec  ( 76.0%)

Fock matrix formation       ....       1.555 sec  ( 75.3%)
Diagonalization             ....       0.006 sec  (  0.3%)
Density matrix formation    ....       0.000 sec  (  0.0%)
Population analysis         ....       0.003 sec  (  0.1%)
Initial guess               ....       0.005 sec  (  0.2%)
Orbital Transformation      ....       0.000 sec  (  0.0%)
Orbital Orthonormalization  ....       0.002 sec  (  0.1%)
DIIS solution               ....       0.001 sec  (  0.0%)

Maximum memory used throughout the entire SCF-calculation: 257.5 MB


------------------------------------------------------------------------------- 
                              ORCA-MATRIX DRIVEN CI                            
------------------------------------------------------------------------------- 

--------------------------------
AUTOMATIC CHOICE OF INCORE LEVEL
--------------------------------

Memory available                           ...    256.00 MB
Memory needed for S+T                      ...      1.04 MB
Memory needed for J+K                      ...      2.08 MB
Memory needed for DIIS                     ...     14.54 MB
Memory needed for 3-ext                    ...     28.39 MB
Memory needed for 4-ext                    ...    880.23 MB
Memory needed for triples                  ...      0.00 MB
 -> Final InCoreLevel    ... 4

Wavefunction type
-----------------
Correlation treatment                      ...      CCSD     
Single excitations                         ... ON
Orbital optimization                       ... OFF
Calculation of Z vector                    ... OFF
Calculation of Brueckner orbitals          ... OFF
Perturbative triple excitations            ... OFF
Calculation of F12 correction              ... OFF
Frozen core treatment                      ... chemical core (2 el)
Reference Wavefunction                     ... UHF
  Alpha-MOs occ    :     1 ...    2 (  2 MO's/  2 electrons)
  Beta-MOs occ     :     1 ...    2 (  2 MO's/  2 electrons)
  Alpha-MOs virt   :     3 ...  125 (123 MO's              )
  Beta-MOs virt    :     3 ...  125 (123 MO's              )
Number of AO's                             ...    126
Number of electrons                        ...      6
Number of correlated electrons             ...      4

Algorithmic settings
--------------------
Integral transformation                    ... AO direct full transformation
K(C) Formation                             ... FULL-MO TRAFO
Maximum number of iterations               ...        50
Convergence tolerance (max. residuum)      ... 1.000e-06
Level shift for amplitude update           ... 2.000e-01
Maximum number of DIIS vectors             ...         7
DIIS turned on at iteration                ...         0
Damping before turning on DIIS             ...     0.500
Damping after turning on DIIS              ...     0.000
Pair specific amplitude update             ... OFF
Natural orbital iterations                 ... OFF
Perturbative natural orbital generation    ... OFF
Printlevel                                 ... 2

Memory handling:
----------------
Maximum memory for working arrays          ...    256 MB
Data storage in matrix containers          ... UNCOMPRESSED
Data type for integral storage             ... DOUBLE
In-Core Storage of quantities:
   Amplitudes+Sigma Vector      ... YES
   J+K operators                ... YES
   DIIS vectors                 ... YES
   3-external integrals         ... YES
   4-external integrals         ... NO


Initializing the integral package          ... done
Warning: reference  - re-canonicalizations have been set to INT 1 VIRT 1

--------------------------
UNRESTRICTED FOCK OPERATOR
--------------------------

Restoring SHARK [2] ... ok
Recanonicalizing the internal orbitals
Recanonicalizing the virtual orbitals
Time needed for Fock operator              ...            1.388 sec
Reference energy                           ...    -25.132090412
Warning: for UHF the TrafoType has to be JK
Warning: for UHF the K(C)-option but must be AOX

-------------------------------
PARTIAL EXCHANGE TRANSFORMATION
-------------------------------

Transformation type                        ... two-operators
Generation of integrals (i,mue|j,nue)      ... ON
Generation of integrals (mue,kappa|nue,tau)... ON
Generation of integrals (i,mue|a,nue)      ... ON
Dimension of the basis                     ...  126
Number of internal alpha-MOs               ...    2 (   1-   2)
Number of internal beta-MOs                ...    2 (   1-   2)
Number of external alpha-MOs               ...  123 (   3- 125)
Number of external beta-MOs                ...  123 (   3- 125)
Pair cutoff                                ... 0.000e+00 Eh
Number of AO pairs in the trafo            ... 8001
Total Number of distinct AO pairs          ... 8001
Memory devoted for trafo                   ...  256.0 MB 
Max. Number of MO pairs treated together   ... 2113      
Number Format for Storage                  ... Double (8 Byte)
Integral package used                      ... LIBINT

Starting integral evaluation:
    ... done with AO integral generation
Closing buffer AOK[aa] ( 0.00 GB; CompressionRatio= 0.73)
Closing buffer AOK[bb] ( 0.00 GB; CompressionRatio= 0.73)
Closing buffer AOK[ab] ( 0.00 GB; CompressionRatio= 0.73)
Closing buffer AOK[ba] ( 0.00 GB; CompressionRatio= 0.73)
Collecting buffer AOK 
Closing buffer IAAO1[aa] ( 0.01 GB; CompressionRatio= 0.99)
Closing buffer IAAO1[bb] ( 0.01 GB; CompressionRatio= 0.99)
Closing buffer IAAO1[ab] ( 0.01 GB; CompressionRatio= 0.99)
Closing buffer IAAO1[ba] ( 0.01 GB; CompressionRatio= 0.99)
Closing buffer IAAO2[aa] ( 0.01 GB; CompressionRatio= 0.99)
Closing buffer IAAO2[bb] ( 0.01 GB; CompressionRatio= 0.99)
Closing buffer IAAO2[ab] ( 0.01 GB; CompressionRatio= 0.99)
Closing buffer IAAO2[ba] ( 0.01 GB; CompressionRatio= 0.99)
Collecting buffer IAAO 
Closing buffer PRQS    ( 0.95 GB; CompressionRatio= 1.00)
Collecting buffer PRQS 
Number of alpha/alpha MO pairs in trafo    ...    3
Number of beta /beta  MO pairs in trafo    ...    3
Number of alpha/ beta MO pairs in trafo    ...    4
------------------------
SORTING OF (i,mue|j,nue)
------------------------

SORTING OF ALPHA/ALPHA PAIRS
IBATCH = 1 of  1
Closing buffer KAO[aa] ( 0.00 GB; CompressionRatio= 1.00)
Collecting buffer KAO 
SORTING OF BETA /BETA  PAIRS
IBATCH = 1 of  1
Closing buffer KAO[bb] ( 0.00 GB; CompressionRatio= 1.00)
Collecting buffer KAO 
SORTING OF ALPHA/BETA  PAIRS
IBATCH = 1 of  1
Closing buffer KAO[ab] ( 0.00 GB; CompressionRatio= 0.999905526689)
Collecting buffer KAO[ab] 
------------------------
SORTING OF (i,mue|a,nue)
------------------------

Number of alpha/alpha (i,a) pairs in trafo  ...  246
Number of beta /beta  (i,a) pairs in trafo  ...  246
Number of alpha/ beta (i,a) pairs in trafo  ...  246
Number of beta /alpha (i,a) pairs in trafo  ...  246
Setting up the alpha/alpha list             ... done
Setting up the beta /beta  list             ... done
Setting up the alpha/beta  list             ... done
Setting up the beta /alpha list             ... done
    ... Now sorting (i,mue|a,nue)integrals
    ... Integrals (i,b|a,c) will be made on the fly
SORTING OF ALPHA/ALPHA PAIRS
IBATCH = 1 of  1
Closing buffer IPAQ[aa]  0.03 GB; CompressionRatio= 1.00)
SORTING OF BETA /BETA  PAIRS
IBATCH = 1 of  1
Closing buffer IPAQ[bb]( 0.03 GB; CompressionRatio= 1.00)
SORTING OF ALPHA/BETA  PAIRS (NMatSort_ab=246)
IBATCH = 1 of  1
Closing buffer IPAQ[ab]( 0.03 GB; CompressionRatio= 1.00)
SORTING OF BETA/ALPHA  PAIRS
IBATCH = 1 of  1
Closing buffer IPAQ[ba]( 0.03 GB; CompressionRatio= 1.00)
N(AO-Batches) Done                         ...    687820 
N(AO-Batches) Skipped                      ...         0 
N(IJ)-pairs Skipped                        ...         0 
TOTAL TIME for half transformation         ...    13.608 sec
AO-integral generation                     ...     4.046 sec
Half transformation                        ...     1.760 sec
K-integral sorting                         ...     0.402 sec

------------------------------
PARTIAL COULOMB TRANSFORMATION
------------------------------

Transformation type                        ... two-operators
Dimension of the basis                     ...  126
Number of internal alpha-MOs               ...    2 (1-2)
Number of internal beta-MOs                ...    2 (1-2)
Pair cutoff                                ... 0.000e+00 Eh
Number of AO pairs included in the trafo   ... 8001
Total Number of distinct AO pairs          ... 8001
Memory devoted for trafo                   ...  256.0 MB 
Max. Number of MO pairs treated together   ... 4193      
Max. Number of MOs treated per batch       ...   33      
Number Format for Storage                  ... Double (8 Byte)
AO-integral source                         ... DIRECT
Integral package used                      ... LIBINT

Starting integral evaluation:
<ss|**>:        39270 b        0 skpd     0.071 s (  0.002 ms/b)
<sp|**>:        58905 b        0 skpd     0.103 s (  0.002 ms/b)
<sd|**>:        45815 b        0 skpd     0.138 s (  0.003 ms/b)
<sf|**>:        32725 b        0 skpd     0.182 s (  0.006 ms/b)
<sg|**>:        13090 b        0 skpd     0.128 s (  0.010 ms/b)
<pp|**>:        26775 b        0 skpd     0.080 s (  0.003 ms/b)
<pd|**>:        37485 b        0 skpd     0.205 s (  0.005 ms/b)
<pf|**>:        26775 b        0 skpd     0.228 s (  0.009 ms/b)
<pg|**>:        10710 b        0 skpd     0.144 s (  0.013 ms/b)
<dd|**>:        16660 b        0 skpd     0.154 s (  0.009 ms/b)
<df|**>:        20825 b        0 skpd     0.329 s (  0.016 ms/b)
<dg|**>:         8330 b        0 skpd     0.194 s (  0.023 ms/b)
<ff|**>:         8925 b        0 skpd     0.242 s (  0.027 ms/b)
<fg|**>:         5950 b        0 skpd     0.236 s (  0.040 ms/b)
<gg|**>:         1785 b        0 skpd     0.111 s (  0.062 ms/b)
Closing buffer AOJ[aa] ( 0.00 GB; CompressionRatio= 0.67)
Closing buffer AOJ[bb] ( 0.00 GB; CompressionRatio= 0.67)
Collecting buffer AOJ 
    ... done with AO integral generation
Number of Alpha-MO pairs included          ...    3
Number of Beta-MO pairs included           ...    3
    ... Now sorting integrals
SORTING ALPHA/ALPHA PAIRS
IBATCH = 1 of  1
Closing buffer JAO[aa] ( 0.00 GB; CompressionRatio= 1.00)
SORTING BETA/BETA PAIRS
IBATCH = 1 of  1
Closing buffer JAO[bb] ( 0.00 GB; CompressionRatio= 1.00)
Collecting buffer JAO 
TOTAL TIME for half transformation         ...     2.554 sec
AO-integral generation                     ...     2.138 sec
Half transformation                        ...     0.408 sec
J-integral sorting                         ...     0.006 sec

-------------------------- SECOND HALF TRANSFORMATION -------------------------
Formation of (ij|kl),(ij|ka), (ij|ab)      ... ok (     0.005 sec)
Formation of (ik|jl),(ik|ja), (ia|jb)      ... ok (     0.005 sec)


-----------------------
SPIN UNRESTRICTED GUESS
-----------------------

Spin-components of the MP2 energy:
EMP2(aa)=     -0.002509461
EMP2(bb)=     -0.002509461
EMP2(ab)=     -0.059527211

Initial guess performed in     0.001 sec
E(0)                                       ...    -25.132090412
E(MP2)                                     ...     -0.064546133
Initial E(tot)                             ...    -25.196636545
<T|T>                                      ...      0.025550346
Number of pairs included                   ... 6

------------------------------------------------
                  UHF COUPLED CLUSTER ITERATIONS
------------------------------------------------

Number of amplitudes to be optimized       ...        75890

Iter       E(tot)           E(Corr)          Delta-E          Residual     Time      <S|S>**1/2
  0    -25.196636545     -0.064546133     -0.000000000      0.009767080    1.38      0.000000089
                           *** Turning on DIIS ***
  1    -25.206298847     -0.074208436     -0.009662302      0.007416405    2.49      0.016589350
  2    -25.212513441     -0.080423030     -0.006214594      0.006254850    2.51      0.038324285
  3    -25.215259700     -0.083169288     -0.002746259      0.005891638    2.59      0.064892382
  4    -25.217151634     -0.085061222     -0.001891934      0.005218978    2.44      0.098662080
  5    -25.219315265     -0.087224853     -0.002163631      0.004082257    2.49      0.150035821
  6    -25.222167524     -0.090077113     -0.002852260      0.002438598    2.41      0.227937787
  7    -25.223779089     -0.091688677     -0.001611564      0.001306729    2.35      0.277972426
  8    -25.224679681     -0.092589270     -0.000900593      0.000630293    2.42      0.304871642
  9    -25.224896989     -0.092806577     -0.000217308      0.000279873    2.40      0.313442520
 10    -25.225102976     -0.093012564     -0.000205987      0.000226078    2.38      0.319088960
 11    -25.225089772     -0.092999361      0.000013203      0.000089565    2.47      0.319744544
 12    -25.225096589     -0.093006177     -0.000006817      0.000037008    2.41      0.320209666
 13    -25.225094783     -0.093004371      0.000001806      0.000016224    2.41      0.320170650
 14    -25.225098149     -0.093007737     -0.000003366      0.000008192    2.43      0.320195058
 15    -25.225099974     -0.093009562     -0.000001825      0.000004468    2.46      0.320227188
 16    -25.225101227     -0.093010815     -0.000001253      0.000003195    2.39      0.320263560
 17    -25.225102195     -0.093011783     -0.000000968      0.000002393    2.43      0.320292571
 18    -25.225103822     -0.093013411     -0.000001628      0.000001085    2.48      0.320340529
 19    -25.225104952     -0.093014540     -0.000001129      0.000000512    2.39      0.320371266
               --- The Coupled-Cluster iterations have converged ---

----------------------
COUPLED CLUSTER ENERGY
----------------------

E(0)                                       ...    -25.132090412
E(CORR)                                    ...     -0.093014540
E(TOT)                                     ...    -25.225104952
Singles norm <S|S>**1/2                    ...      0.320371266 ( 0.160185633, 0.160185633)  
T1 diagnostic                              ...      0.160185633                              

------------------
LARGEST AMPLITUDES
------------------
   2a->  8a  -1a-> -1a       0.220424
   2b->  8b  -1b-> -1b       0.220424
   2a->  5a  -1a-> -1a       0.127813
   2b->  5b  -1b-> -1b       0.127813
   2a->  4a  -1a-> -1a       0.105480
   2b->  4b  -1b-> -1b       0.105480
   2a-> 19a  -1a-> -1a       0.096199
   2b-> 19b  -1b-> -1b       0.096199
   2a->  8a   2b->  8b       0.077919
   2a->  7a   2b->  7b       0.072115
   2a->  9a  -1a-> -1a       0.071657
   2b->  9b  -1b-> -1b       0.071657
   2a-> 11a  -1a-> -1a       0.059914
   2b-> 11b  -1b-> -1b       0.059914
   2a->  7a   2b->  3b       0.059674
   2a->  3a   2b->  7b       0.059674



        !!!!!!!!!!!!!!!!!!!!!!!!!!!!!!!!!!!!!!!!!!!!!!!!!!!!!!!!!!!!!!!!!!!!!!!!!! 
        !  Warning: Densities are linearized densities                           !
        !!!!!!!!!!!!!!!!!!!!!!!!!!!!!!!!!!!!!!!!!!!!!!!!!!!!!!!!!!!!!!!!!!!!!!!!!! 

NORM  =      1.324326845 sqrt=     1.150794006
W(HF) =      0.755100604
------------------------------------------------------------------------------
                           ORCA POPULATION ANALYSIS
------------------------------------------------------------------------------
Input electron density              ... /scratch/BH-1.1-UCCSD-O_224/BH-1.1-UCCSD-O.mdcip
Input spin density                  ... /scratch/BH-1.1-UCCSD-O_224/BH-1.1-UCCSD-O.mdcir
BaseName (.gbw .S,...)              ... /scratch/BH-1.1-UCCSD-O_224/BH-1.1-UCCSD-O

                    ********************************
                    * MULLIKEN POPULATION ANALYSIS *
                    ********************************

------------------------------------------
MULLIKEN ATOMIC CHARGES AND SPIN DENSITIES
------------------------------------------
   0 B :    0.069339    0.000000
   1 H :   -0.069339   -0.000000
Sum of atomic charges       :   -0.0000000
Sum of atomic spin densities:    0.0000000

---------------------------------------------------
MULLIKEN REDUCED ORBITAL CHARGES AND SPIN DENSITIES
---------------------------------------------------
CHARGE
  0 B s       :     3.754598  s :     3.754598
      pz      :     0.042360  p :     1.113225
      px      :     1.088132
      py      :    -0.017267
      dz2     :     0.011238  d :     0.059523
      dxz     :     0.008173
      dyz     :     0.000200
      dx2y2   :     0.032579
      dxy     :     0.007333
      f0      :     0.000242  f :     0.002787
      f+1     :     0.000575
      f-1     :     0.000056
      f+2     :     0.000384
      f-2     :     0.000126
      f+3     :     0.000854
      f-3     :     0.000549
      g0      :     0.000050  g :     0.000529
      g+1     :     0.000051
      g-1     :     0.000006
      g+2     :     0.000097
      g-2     :     0.000021
      g+3     :     0.000042
      g-3     :     0.000026
      g+4     :     0.000166
      g-4     :     0.000070
  1 H s       :     1.050040  s :     1.050040
      pz      :     0.004458  p :     0.017468
      px      :     0.009052
      py      :     0.003958
      dz2     :    -0.000132  d :     0.001231
      dxz     :     0.000911
      dyz     :     0.000088
      dx2y2   :    -0.000519
      dxy     :     0.000884
      f0      :     0.000103  f :     0.000600
      f+1     :     0.000037
      f-1     :     0.000021
      f+2     :     0.000164
      f-2     :     0.000009
      f+3     :     0.000071
      f-3     :     0.000195

SPIN
  0 B s       :     0.000000  s :     0.000000
      pz      :    -0.000000  p :     0.000000
      px      :     0.000000
      py      :    -0.000000
      dz2     :     0.000000  d :     0.000000
      dxz     :     0.000000
      dyz     :     0.000000
      dx2y2   :     0.000000
      dxy     :     0.000000
      f0      :    -0.000000  f :    -0.000000
      f+1     :    -0.000000
      f-1     :    -0.000000
      f+2     :    -0.000000
      f-2     :    -0.000000
      f+3     :     0.000000
      f-3     :    -0.000000
      g0      :    -0.000000  g :    -0.000000
      g+1     :    -0.000000
      g-1     :    -0.000000
      g+2     :    -0.000000
      g-2     :    -0.000000
      g+3     :    -0.000000
      g-3     :    -0.000000
      g+4     :     0.000000
      g-4     :    -0.000000
  1 H s       :    -0.000000  s :    -0.000000
      pz      :    -0.000000  p :    -0.000000
      px      :    -0.000000
      py      :    -0.000000
      dz2     :     0.000000  d :     0.000000
      dxz     :    -0.000000
      dyz     :    -0.000000
      dx2y2   :     0.000000
      dxy     :     0.000000
      f0      :     0.000000  f :     0.000000
      f+1     :     0.000000
      f-1     :     0.000000
      f+2     :     0.000000
      f-2     :     0.000000
      f+3     :     0.000000
      f-3     :     0.000000


                     *******************************
                     * LOEWDIN POPULATION ANALYSIS *
                     *******************************

-----------------------------------------
LOEWDIN ATOMIC CHARGES AND SPIN DENSITIES
-----------------------------------------
   0 B :    0.550992    0.000000
   1 H :   -0.550992   -0.000000

--------------------------------------------------
LOEWDIN REDUCED ORBITAL CHARGES AND SPIN DENSITIES
--------------------------------------------------
CHARGE
  0 B s       :     3.101379  s :     3.101379
      pz      :     0.032317  p :     1.234475
      px      :     1.212920
      py      :    -0.010762
      dz2     :     0.019098  d :     0.092980
      dxz     :     0.009732
      dyz     :     0.000162
      dx2y2   :     0.056390
      dxy     :     0.007598
      f0      :     0.000377  f :     0.015732
      f+1     :     0.005158
      f-1     :     0.000078
      f+2     :     0.000609
      f-2     :     0.000137
      f+3     :     0.008498
      f-3     :     0.000875
      g0      :     0.000576  g :     0.004443
      g+1     :     0.000101
      g-1     :     0.000006
      g+2     :     0.001264
      g-2     :     0.000031
      g+3     :     0.000082
      g-3     :     0.000030
      g+4     :     0.002211
      g-4     :     0.000140
  1 H s       :     1.043246  s :     1.043246
      pz      :     0.005902  p :     0.362943
      px      :     0.358777
      py      :    -0.001736
      dz2     :     0.025829  d :     0.108503
      dxz     :     0.005447
      dyz     :     0.000090
      dx2y2   :     0.077782
      dxy     :    -0.000646
      f0      :     0.000875  f :     0.036300
      f+1     :     0.012625
      f-1     :     0.000023
      f+2     :     0.001444
      f-2     :     0.000030
      f+3     :     0.021082
      f-3     :     0.000221

SPIN
  0 B s       :     0.000000  s :     0.000000
      pz      :    -0.000000  p :    -0.000000
      px      :     0.000000
      py      :    -0.000000
      dz2     :    -0.000000  d :     0.000000
      dxz     :     0.000000
      dyz     :     0.000000
      dx2y2   :    -0.000000
      dxy     :     0.000000
      f0      :    -0.000000  f :    -0.000000
      f+1     :    -0.000000
      f-1     :    -0.000000
      f+2     :    -0.000000
      f-2     :    -0.000000
      f+3     :    -0.000000
      f-3     :    -0.000000
      g0      :    -0.000000  g :    -0.000000
      g+1     :     0.000000
      g-1     :    -0.000000
      g+2     :    -0.000000
      g-2     :    -0.000000
      g+3     :     0.000000
      g-3     :    -0.000000
      g+4     :    -0.000000
      g-4     :     0.000000
  1 H s       :    -0.000000  s :    -0.000000
      pz      :    -0.000000  p :    -0.000000
      px      :     0.000000
      py      :    -0.000000
      dz2     :     0.000000  d :     0.000000
      dxz     :    -0.000000
      dyz     :    -0.000000
      dx2y2   :     0.000000
      dxy     :    -0.000000
      f0      :    -0.000000  f :    -0.000000
      f+1     :     0.000000
      f-1     :    -0.000000
      f+2     :    -0.000000
      f-2     :     0.000000
      f+3     :     0.000000
      f-3     :    -0.000000


                      *****************************
                      * MAYER POPULATION ANALYSIS *
                      *****************************

  NA   - Mulliken gross atomic population
  ZA   - Total nuclear charge
  QA   - Mulliken gross atomic charge
  VA   - Mayer's total valence
  BVA  - Mayer's bonded valence
  FA   - Mayer's free valence

  ATOM       NA         ZA         QA         VA         BVA        FA
  0 B      4.9307     5.0000     0.0693     1.1105     0.8354     0.2750
  1 H      1.0693     1.0000    -0.0693     0.9193     0.8354     0.0839

  Mayer bond orders larger than 0.100000
B(  0-B ,  1-H ) :   0.8354 



------------------------------------------------------------------------------- 
                                     TIMINGS                                   
------------------------------------------------------------------------------- 


Total execution time                   ...       71.005 sec

Fock Matrix Formation                  ...        1.388 sec (  2.0%)
Initial Guess                          ...        0.001 sec (  0.0%)
DIIS Solver                            ...        0.117 sec (  0.2%)
State Vector Update                    ...        0.006 sec (  0.0%)
Sigma-vector construction              ...       47.595 sec ( 67.0%)
  <0|H|D>                              ...        0.010 sec (  0.0% of sigma)
  <D|H|D>(0-ext Fock)                  ...        0.011 sec (  0.0% of sigma)
  <D|H|D>(0-ext)                       ...        0.010 sec (  0.0% of sigma)
  <D|H|D>(2-ext Fock)                  ...        0.020 sec (  0.0% of sigma)
  <D|H|D>(2-ext)                       ...        0.149 sec (  0.3% of sigma)
  <D|H|D>(4-ext)                       ...       13.441 sec ( 28.2% of sigma)
  <S|H|D>(1-ext)                       ...        0.005 sec (  0.0% of sigma)
  <D|H|S>(1-ext)                       ...        0.026 sec (  0.1% of sigma)
  Fock-dressing                        ...       31.452 sec ( 66.1% of sigma)
  (ik|jl)-dressing                     ...        0.014 sec (  0.0% of sigma)
  (ij|ab),(ia|jb)-dressing             ...        1.898 sec (  4.0% of sigma)
  Pair energies                        ...        0.007 sec (  0.0% of sigma)


Maximum memory used throughout the entire MDCI-calculation: 386.3 MB

-------------------------   --------------------
FINAL SINGLE POINT ENERGY       -25.225104951751
-------------------------   --------------------


                            ***************************************
                            *     ORCA property calculations      *
                            ***************************************

                                    ---------------------
                                    Active property flags
                                    ---------------------
   (+) Dipole Moment


------------------------------------------------------------------------------
                       ORCA ELECTRIC PROPERTIES CALCULATION
------------------------------------------------------------------------------

Dipole Moment Calculation                       ... on
Quadrupole Moment Calculation                   ... off
Polarizability Calculation                      ... off
GBWName                                         ... /scratch/BH-1.1-UCCSD-O_224/BH-1.1-UCCSD-O.gbw
Electron density file                           ... /scratch/BH-1.1-UCCSD-O_224/BH-1.1-UCCSD-O.scfp
The origin for moment calculation is the CENTER OF MASS  = ( 0.177300,  0.000000  0.000000)

-------------
DIPOLE MOMENT
-------------
                                X             Y             Z
Electronic contribution:     -0.42356       0.00000      -0.00000
Nuclear contribution   :      1.01490       0.00000       0.00000
                        -----------------------------------------
Total Dipole Moment    :      0.59134       0.00000      -0.00000
                        -----------------------------------------
Magnitude (a.u.)       :      0.59134
Magnitude (Debye)      :      1.50307



--------------------
Rotational spectrum 
--------------------
 
Rotational constants in cm-1:     0.000000    15.110168    15.110168 
Rotational constants in MHz :     0.000000 452991.437720 452991.437720 

 Dipole components along the rotational axes: 
x,y,z [a.u.] :     0.591342     0.000000    -0.000000 
x,y,z [Debye]:     1.503071     0.000000    -0.000000 

 

                           *** MDCI DENSITY ***

------------------------------------------------------------------------------
                       ORCA ELECTRIC PROPERTIES CALCULATION
------------------------------------------------------------------------------

Dipole Moment Calculation                       ... on
Quadrupole Moment Calculation                   ... off
Polarizability Calculation                      ... off
GBWName                                         ... /scratch/BH-1.1-UCCSD-O_224/BH-1.1-UCCSD-O.gbw
Electron density file                           ... /scratch/BH-1.1-UCCSD-O_224/BH-1.1-UCCSD-O.mdcip
The origin for moment calculation is the CENTER OF MASS  = ( 0.177300,  0.000000  0.000000)

-------------
DIPOLE MOMENT
-------------
                                X             Y             Z
Electronic contribution:     -0.26088       0.00000      -0.00000
Nuclear contribution   :      1.01490       0.00000       0.00000
                        -----------------------------------------
Total Dipole Moment    :      0.75402       0.00000      -0.00000
                        -----------------------------------------
Magnitude (a.u.)       :      0.75402
Magnitude (Debye)      :      1.91658



--------------------
Rotational spectrum 
--------------------
 
Rotational constants in cm-1:     0.000000    15.110168    15.110168 
Rotational constants in MHz :     0.000000 452991.437720 452991.437720 

 Dipole components along the rotational axes: 
x,y,z [a.u.] :     0.754024     0.000000    -0.000000 
x,y,z [Debye]:     1.916577     0.000000    -0.000000 

 

Timings for individual modules:

Sum of individual times         ...       73.453 sec (=   1.224 min)
GTO integral calculation        ...        0.128 sec (=   0.002 min)   0.2 %
SCF iterations                  ...        2.080 sec (=   0.035 min)   2.8 %
MDCI module                     ...       71.244 sec (=   1.187 min)  97.0 %
                             ****ORCA TERMINATED NORMALLY****
TOTAL RUN TIME: 0 days 0 hours 1 minutes 13 seconds 580 msec

Sender: Unischeduler System <lcz@mgt01>
Subject: Job 134301: <#!/bin/bash
#BSUB -J intel
#BSUB -o BH-1.1-UCCSD-O.out
#BSUB -n 1
#BSUB -q cqueue
export LD_LIBRARY_PATH=/apps/software/openmpi-4.1.1/lib:/apps/software/orca_5_0_0:$LD_LIBRARY_PATH
export PATH=/apps/software/openmpi-4.1.1/bin:/apps/software/orca_5_0_0:$PATH
mkdir /scratch/BH-1.1-UCCSD-O_224
scp $USER@mgt01:/apps/users/lcz/exe13/UCCSD/BH-1.1-UCCSD-O.inp /scratch/BH-1.1-UCCSD-O_224
scp $USER@mgt01:/apps/users/lcz/exe13/UCCSD/BH-1.1-UHF-O.gbw /scratch/BH-1.1-UCCSD-O_224
/apps/software/orca_5_0_0/orca /scratch/BH-1.1-UCCSD-O_224/BH-1.1-UCCSD-O.inp >& BH-1.1-UCCSD-O.out
scp /scratch/BH-1.1-UCCSD-O_224/*.gbw $USER@mgt01:/apps/users/lcz/exe13/UCCSD
scp /scratch/BH-1.1-UCCSD-O_224/*.xyz $USER@mgt01:/apps/users/lcz/exe13/UCCSD
scp /scratch/BH-1.1-UCCSD-O_224/*.trj $USER@mgt01:/apps/users/lcz/exe13/UCCSD> Exited

Job <#!/bin/bash
#BSUB -J intel
#BSUB -o BH-1.1-UCCSD-O.out
#BSUB -n 1
#BSUB -q cqueue
export LD_LIBRARY_PATH=/apps/software/openmpi-4.1.1/lib:/apps/software/orca_5_0_0:$LD_LIBRARY_PATH
export PATH=/apps/software/openmpi-4.1.1/bin:/apps/software/orca_5_0_0:$PATH
mkdir /scratch/BH-1.1-UCCSD-O_224
scp $USER@mgt01:/apps/users/lcz/exe13/UCCSD/BH-1.1-UCCSD-O.inp /scratch/BH-1.1-UCCSD-O_224
scp $USER@mgt01:/apps/users/lcz/exe13/UCCSD/BH-1.1-UHF-O.gbw /scratch/BH-1.1-UCCSD-O_224
/apps/software/orca_5_0_0/orca /scratch/BH-1.1-UCCSD-O_224/BH-1.1-UCCSD-O.inp >& BH-1.1-UCCSD-O.out
scp /scratch/BH-1.1-UCCSD-O_224/*.gbw $USER@mgt01:/apps/users/lcz/exe13/UCCSD
scp /scratch/BH-1.1-UCCSD-O_224/*.xyz $USER@mgt01:/apps/users/lcz/exe13/UCCSD
scp /scratch/BH-1.1-UCCSD-O_224/*.trj $USER@mgt01:/apps/users/lcz/exe13/UCCSD> was submitted from host <mgt01> by user <lcz>.
Job was executed on host(s) <1*cnode01>, in queue <cqueue>, as user <lcz>.
</apps/users/lcz> was used as the home directory.
</apps/users/lcz/exe13/UCCSD> was used as the working directory.
Started at 2022-05-22 20:32:28
Results reported at 2022-05-22 20:33:43

Your job looked like:

------------------------------------------------------------
# User input
#!/bin/bash
#BSUB -J intel
#BSUB -o BH-1.1-UCCSD-O.out
#BSUB -n 1
#BSUB -q cqueue
export LD_LIBRARY_PATH=/apps/software/openmpi-4.1.1/lib:/apps/software/orca_5_0_0:$LD_LIBRARY_PATH
export PATH=/apps/software/openmpi-4.1.1/bin:/apps/software/orca_5_0_0:$PATH
mkdir /scratch/BH-1.1-UCCSD-O_224
scp $USER@mgt01:/apps/users/lcz/exe13/UCCSD/BH-1.1-UCCSD-O.inp /scratch/BH-1.1-UCCSD-O_224
scp $USER@mgt01:/apps/users/lcz/exe13/UCCSD/BH-1.1-UHF-O.gbw /scratch/BH-1.1-UCCSD-O_224
/apps/software/orca_5_0_0/orca /scratch/BH-1.1-UCCSD-O_224/BH-1.1-UCCSD-O.inp >& BH-1.1-UCCSD-O.out
scp /scratch/BH-1.1-UCCSD-O_224/*.gbw $USER@mgt01:/apps/users/lcz/exe13/UCCSD
scp /scratch/BH-1.1-UCCSD-O_224/*.xyz $USER@mgt01:/apps/users/lcz/exe13/UCCSD
scp /scratch/BH-1.1-UCCSD-O_224/*.trj $USER@mgt01:/apps/users/lcz/exe13/UCCSD
------------------------------------------------------------

Exited with exit code 1.

Resource usage summary:

    CPU time   :           51.38 sec.
    Max Memory :               506 MB
    Max Processes  :               5


The output (if any) follows:

/scratch/BH-1.1-UCCSD-O_224/*.xyz: No such file or directory
/scratch/BH-1.1-UCCSD-O_224/*.trj: No such file or directory
