 Entering Gaussian System, Link 0=/apps/software/g16/g16
 Initial command:
 /apps/software/g16/l1.exe "/scratch/Gau-404481.inp" -scrdir="/scratch/"
 Entering Link 1 = /apps/software/g16/l1.exe PID=    404482.
  
 Copyright (c) 1988,1990,1992,1993,1995,1998,2003,2009,2016,
            Gaussian, Inc.  All Rights Reserved.
  
 This is part of the Gaussian(R) 16 program.  It is based on
 the Gaussian(R) 09 system (copyright 2009, Gaussian, Inc.),
 the Gaussian(R) 03 system (copyright 2003, Gaussian, Inc.),
 the Gaussian(R) 98 system (copyright 1998, Gaussian, Inc.),
 the Gaussian(R) 94 system (copyright 1995, Gaussian, Inc.),
 the Gaussian 92(TM) system (copyright 1992, Gaussian, Inc.),
 the Gaussian 90(TM) system (copyright 1990, Gaussian, Inc.),
 the Gaussian 88(TM) system (copyright 1988, Gaussian, Inc.),
 the Gaussian 86(TM) system (copyright 1986, Carnegie Mellon
 University), and the Gaussian 82(TM) system (copyright 1983,
 Carnegie Mellon University). Gaussian is a federally registered
 trademark of Gaussian, Inc.
  
 This software contains proprietary and confidential information,
 including trade secrets, belonging to Gaussian, Inc.
  
 This software is provided under written license and may be
 used, copied, transmitted, or stored only in accord with that
 written license.
  
 The following legend is applicable only to US Government
 contracts under FAR:
  
                    RESTRICTED RIGHTS LEGEND
  
 Use, reproduction and disclosure by the US Government is
 subject to restrictions as set forth in subparagraphs (a)
 and (c) of the Commercial Computer Software - Restricted
 Rights clause in FAR 52.227-19.
  
 Gaussian, Inc.
 340 Quinnipiac St., Bldg. 40, Wallingford CT 06492
  
  
 ---------------------------------------------------------------
 Warning -- This program may not be used in any manner that
 competes with the business of Gaussian, Inc. or will provide
 assistance to any competitor of Gaussian, Inc.  The licensee
 of this program is prohibited from giving any competitor of
 Gaussian, Inc. access to this program.  By using this program,
 the user acknowledges that Gaussian, Inc. is engaged in the
 business of creating and licensing software in the field of
 computational chemistry and represents and warrants to the
 licensee that it is not a competitor of Gaussian, Inc. and that
 it will not use this program in any manner prohibited above.
 ---------------------------------------------------------------
  

 Cite this work as:
 Gaussian 16, Revision A.03,
 M. J. Frisch, G. W. Trucks, H. B. Schlegel, G. E. Scuseria, 
 M. A. Robb, J. R. Cheeseman, G. Scalmani, V. Barone, 
 G. A. Petersson, H. Nakatsuji, X. Li, M. Caricato, A. V. Marenich, 
 J. Bloino, B. G. Janesko, R. Gomperts, B. Mennucci, H. P. Hratchian, 
 J. V. Ortiz, A. F. Izmaylov, J. L. Sonnenberg, D. Williams-Young, 
 F. Ding, F. Lipparini, F. Egidi, J. Goings, B. Peng, A. Petrone, 
 T. Henderson, D. Ranasinghe, V. G. Zakrzewski, J. Gao, N. Rega, 
 G. Zheng, W. Liang, M. Hada, M. Ehara, K. Toyota, R. Fukuda, 
 J. Hasegawa, M. Ishida, T. Nakajima, Y. Honda, O. Kitao, H. Nakai, 
 T. Vreven, K. Throssell, J. A. Montgomery, Jr., J. E. Peralta, 
 F. Ogliaro, M. J. Bearpark, J. J. Heyd, E. N. Brothers, K. N. Kudin, 
 V. N. Staroverov, T. A. Keith, R. Kobayashi, J. Normand, 
 K. Raghavachari, A. P. Rendell, J. C. Burant, S. S. Iyengar, 
 J. Tomasi, M. Cossi, J. M. Millam, M. Klene, C. Adamo, R. Cammi, 
 J. W. Ochterski, R. L. Martin, K. Morokuma, O. Farkas, 
 J. B. Foresman, and D. J. Fox, Gaussian, Inc., Wallingford CT, 2016.
 
 ******************************************
 Gaussian 16:  ES64L-G16RevA.03 25-Dec-2016
                22-May-2022 
 ******************************************
 %oldchk=BH-1.2-UHF-G.chk
 %chk=BH-1.2-UCCSD-G.chk
 Copying data from "BH-1.2-UHF-G.chk" to current chk file "BH-1.2-UCCSD-G.chk"
 IOpt=  2 FromEx=T IUOpen= 4 IOptOp= 5 NList=   0 IFRang= 0 IUIn= 4 IUOut= 2.
 -------------------------------------
 #p UHF/aug-cc-pVQZ guess=read CCSD=FC
 -------------------------------------
 1/38=1,172=1/1;
 2/12=2,17=6,18=5,40=1/2;
 3/5=16,6=2,7=10,11=2,25=1,30=1,116=2/1,2,3;
 4/5=1/1;
 5/5=2,38=6/2;
 8/6=4,9=120000,10=1/1,4;
 9/5=7/13;
 6/7=2,8=2,9=2,10=2/1;
 99/5=1,9=1/99;
 Leave Link    1 at Sun May 22 18:38:09 2022, MaxMem=   104857600 cpu:               0.0 elap:               0.0
 (Enter /apps/software/g16/l101.exe)
 ------------------------
 BH UCCSD at 1.2 Angstrom
 ------------------------
 Symbolic Z-matrix:
 Charge =  0 Multiplicity = 1
 B                     0.        0.        0. 
 H                     1.2       0.        0. 
 
 ITRead=  0  0
 MicOpt= -1 -1
 NAtoms=      2 NQM=        2 NQMF=       0 NMMI=      0 NMMIF=      0
                NMic=       0 NMicF=      0.
                    Isotopes and Nuclear Properties:
 (Nuclear quadrupole moments (NQMom) in fm**2, nuclear magnetic moments (NMagM)
  in nuclear magnetons)

  Atom         1           2
 IAtWgt=          11           1
 AtmWgt=  11.0093053   1.0078250
 NucSpn=           3           1
 AtZEff=  -0.0000000  -0.0000000
 NQMom=    4.0590000   0.0000000
 NMagM=    2.6886370   2.7928460
 AtZNuc=   5.0000000   1.0000000
 Leave Link  101 at Sun May 22 18:38:10 2022, MaxMem=   104857600 cpu:               0.1 elap:               0.1
 (Enter /apps/software/g16/l202.exe)
                          Input orientation:                          
 ---------------------------------------------------------------------
 Center     Atomic      Atomic             Coordinates (Angstroms)
 Number     Number       Type             X           Y           Z
 ---------------------------------------------------------------------
      1          5           0        0.000000    0.000000    0.000000
      2          1           0        1.200000    0.000000    0.000000
 ---------------------------------------------------------------------
 Stoichiometry    BH
 Framework group  C*V[C*(HB)]
 Deg. of freedom     1
 Full point group                 C*V     NOp   4
 Largest Abelian subgroup         C2V     NOp   4
 Largest concise Abelian subgroup C1      NOp   1
                         Standard orientation:                         
 ---------------------------------------------------------------------
 Center     Atomic      Atomic             Coordinates (Angstroms)
 Number     Number       Type             X           Y           Z
 ---------------------------------------------------------------------
      1          5           0        0.000000    0.000000    0.200000
      2          1           0        0.000000    0.000000   -1.000000
 ---------------------------------------------------------------------
 Rotational constants (GHZ):           0.0000000         380.1109849         380.1109849
 Leave Link  202 at Sun May 22 18:38:10 2022, MaxMem=   104857600 cpu:               0.0 elap:               0.0
 (Enter /apps/software/g16/l301.exe)
 Standard basis: Aug-CC-pVQZ (5D, 7F)
 Ernie: Thresh=  0.10000D-02 Tol=  0.10000D-05 Strict=F.
 Ernie:  4 primitive shells out of 54 were deleted.
 There are    68 symmetry adapted cartesian basis functions of A1  symmetry.
 There are    18 symmetry adapted cartesian basis functions of A2  symmetry.
 There are    37 symmetry adapted cartesian basis functions of B1  symmetry.
 There are    37 symmetry adapted cartesian basis functions of B2  symmetry.
 There are    50 symmetry adapted basis functions of A1  symmetry.
 There are    16 symmetry adapted basis functions of A2  symmetry.
 There are    30 symmetry adapted basis functions of B1  symmetry.
 There are    30 symmetry adapted basis functions of B2  symmetry.
   126 basis functions,   180 primitive gaussians,   160 cartesian basis functions
     3 alpha electrons        3 beta electrons
       nuclear repulsion energy         2.2049050455 Hartrees.
 IExCor=    0 DFT=F Ex=HF Corr=None ExCW=0 ScaHFX=  1.000000
 ScaDFX=  1.000000  1.000000  1.000000  1.000000 ScalE2=  1.000000  1.000000
 IRadAn=      5 IRanWt=     -1 IRanGd=            0 ICorTp=0 IEmpDi=  4
 NAtoms=    2 NActive=    2 NUniq=    2 SFac= 1.00D+00 NAtFMM=   60 NAOKFM=F Big=F
 Integral buffers will be    131072 words long.
 Raffenetti 2 integral format.
 Two-electron integral symmetry is turned on.
 Leave Link  301 at Sun May 22 18:38:10 2022, MaxMem=   104857600 cpu:               0.1 elap:               0.1
 (Enter /apps/software/g16/l302.exe)
 NPDir=0 NMtPBC=     1 NCelOv=     1 NCel=       1 NClECP=     1 NCelD=      1
         NCelK=      1 NCelE2=     1 NClLst=     1 CellRange=     0.0.
 One-electron integrals computed using PRISM.
 One-electron integral symmetry used in STVInt
 NBasis=   126 RedAO= T EigKep=  1.08D-04  NBF=    50    16    30    30
 NBsUse=   126 1.00D-06 EigRej= -1.00D+00 NBFU=    50    16    30    30
 Leave Link  302 at Sun May 22 18:38:10 2022, MaxMem=   104857600 cpu:               0.1 elap:               0.1
 (Enter /apps/software/g16/l303.exe)
 DipDrv:  MaxL=1.
 Leave Link  303 at Sun May 22 18:38:10 2022, MaxMem=   104857600 cpu:               0.0 elap:               0.0
 (Enter /apps/software/g16/l401.exe)
 Initial guess from the checkpoint file:  "BH-1.2-UCCSD-G.chk"
 B after Tr=     0.000000    0.000000    0.000000
         Rot=    1.000000    0.000000    0.000000    0.000000 Ang=   0.00 deg.
 Guess basis will be translated and rotated to current coordinates.
 JPrj=2 DoOrth=T DoCkMO=T.
 Initial guess orbital symmetries:
 Alpha Orbitals:
       Occupied  (SG) (SG) (?A)
       Virtual   (?A) (?A) (?A) (?A) (?A) (?A) (?A) (?A) (?A) (?A)
                 (?A) (?A) (?A) (?B) (?B) (?B) (?A) (?A) (?A) (?A)
                 (?A) (?A) (?A) (?A) (?A) (?A) (?A) (?A) (?A) (SG)
                 (PI) (PI) (?C) (PI) (PI) (?C) (?C) (SG) (?D) (?D)
                 (?D) (PI) (PI) (?E) (?F) (?F) (?F) (?F) (?E) (?E)
                 (?E) (?E) (?E) (?E) (?E) (?E) (?E) (?G) (?G) (?G)
                 (?G) (?G) (SG) (?H) (?H) (?H) (?H) (SG) (DLTA)
                 (DLTA) (?I) (?I) (?I) (SG) (?J) (?J) (?J) (?J)
                 (PI) (PI) (SG) (SG) (?F) (?F) (?F) (?F) (?K) (?K)
                 (?K) (?K) (?K) (?K) (?K) (?K) (?K) (PI) (PI) (?J)
                 (?J) (?J) (?J) (SG) (SG) (PI) (PI) (SG) (PHI)
                 (PHI) (DLTA) (DLTA) (SG) (PI) (PI) (SG) (DLTA)
                 (DLTA) (PI) (PI) (PI) (PI) (SG) (SG) (SG)
 Beta  Orbitals:
       Occupied  (SG) (SG) (?A)
       Virtual   (?A) (?A) (?A) (?A) (?A) (?A) (?A) (?A) (?A) (?A)
                 (?A) (?A) (?A) (?B) (?B) (?B) (?A) (?A) (?A) (?A)
                 (?A) (?A) (?A) (?A) (?A) (?A) (?A) (?A) (?A) (SG)
                 (PI) (PI) (?C) (PI) (PI) (?C) (?C) (SG) (?D) (?D)
                 (?D) (PI) (PI) (?E) (?F) (?F) (?F) (?F) (?E) (?E)
                 (?E) (?E) (?E) (?E) (?E) (?E) (?E) (?G) (?G) (?G)
                 (?G) (?G) (SG) (?H) (?H) (?H) (?H) (SG) (DLTA)
                 (DLTA) (?I) (?I) (?I) (SG) (?J) (?J) (?J) (?J)
                 (PI) (PI) (SG) (SG) (?F) (?F) (?F) (?F) (?K) (?K)
                 (?K) (?K) (?K) (?K) (?K) (?K) (?K) (PI) (PI) (?J)
                 (?J) (?J) (?J) (SG) (SG) (PI) (PI) (SG) (PHI)
                 (PHI) (DLTA) (DLTA) (SG) (PI) (PI) (SG) (DLTA)
                 (DLTA) (PI) (PI) (PI) (PI) (SG) (SG) (SG)
 Initial guess <Sx>= 0.0000 <Sy>= 0.0000 <Sz>= 0.0000 <S**2>= 0.4855 S= 0.3576
 Leave Link  401 at Sun May 22 18:38:10 2022, MaxMem=   104857600 cpu:               0.1 elap:               0.1
 (Enter /apps/software/g16/l502.exe)
 Keep R1 and R2 ints in memory in symmetry-blocked form, NReq=40143665.
 FoFCou: FMM=F IPFlag=           0 FMFlag=           0 FMFlg1=           0
         NFxFlg=           0 DoJE=F BraDBF=F KetDBF=F FulRan=T
         wScrn=  0.000000 ICntrl=       600 IOpCl=  0 I1Cent=           0 NGrid=           0
         NMat0=    1 NMatS0=   8001 NMatT0=    0 NMatD0=    1 NMtDS0=    0 NMtDT0=    0
 Petite list used in FoFCou.
 UHF open shell SCF:
 Using DIIS extrapolation, IDIIS=  1040.
 NGot=   104857600 LenX=    88563632 LenY=    88537591
 Requested convergence on RMS density matrix=1.00D-08 within 128 cycles.
 Requested convergence on MAX density matrix=1.00D-06.
 Requested convergence on             energy=1.00D-06.
 No special actions if energy rises.
 An orbital has undefined symmetry, so N**3 symmetry is turned off.

 Cycle   1  Pass 1  IDiag  1:
 Density matrix breaks symmetry, PCut= 1.00D-07
 Density matrix has no symmetry -- integrals replicated.
 E= -25.1380158209311    
 DIIS: error= 5.22D-09 at cycle   1 NSaved=   1.
 NSaved= 1 IEnMin= 1 EnMin= -25.1380158209311     IErMin= 1 ErrMin= 5.22D-09
 ErrMax= 5.22D-09  0.00D+00 EMaxC= 1.00D-01 BMatC= 2.82D-15 BMatP= 2.82D-15
 IDIUse=1 WtCom= 1.00D+00 WtEn= 0.00D+00
 Coeff-Com:  0.100D+01
 Coeff:      0.100D+01
 Gap=     0.396 Goal=   None    Shift=    0.000
 Gap=     0.396 Goal=   None    Shift=    0.000
 RMSDP=3.18D-10 MaxDP=7.43D-09              OVMax= 2.72D-08

 Density matrix breaks symmetry, PCut= 1.00D-07
 Density matrix has no symmetry -- integrals replicated.
 SCF Done:  E(UHF) =  -25.1380158209     A.U. after    1 cycles
            NFock=  1  Conv=0.32D-09     -V/T= 1.9996
 <Sx>= 0.0000 <Sy>= 0.0000 <Sz>= 0.0000 <S**2>= 0.4855 S= 0.3576
 <L.S>=  0.00000000000    
 KE= 2.514726130071D+01 PE=-6.245271782048D+01 EE= 9.962535653343D+00
 Annihilation of the first spin contaminant:
 S**2 before annihilation     0.4855,   after     0.0050
 Leave Link  502 at Sun May 22 18:38:14 2022, MaxMem=   104857600 cpu:               3.6 elap:               3.6
 (Enter /apps/software/g16/l801.exe)
 Windowed orbitals will be sorted by symmetry type.
 ExpMin= 1.88D-02 ExpMax= 2.39D+04 ExpMxC= 2.30D+02 IAcc=3 IRadAn=         5 AccDes= 0.00D+00
 HarFok:  IExCor=  205 AccDes= 0.00D+00 IRadAn=         5 IDoV=-2 UseB2=F ITyADJ=14
 ICtDFT= 12500011 ScaDFX=  1.000000  1.000000  1.000000  1.000000
 DSYEVD-2 returned Info=        3401 IAlg= 4 N=    80 NDim=    80 NE2=     1309686 trying  DSYEV.
 Largest valence mixing into a core orbital is  3.27D-04
 Largest core mixing into a valence orbital is  5.59D-05
 Largest valence mixing into a core orbital is  3.27D-04
 Largest core mixing into a valence orbital is  5.59D-05
 Range of M.O.s used for correlation:     2   126
 NBasis=   126 NAE=     3 NBE=     3 NFC=     1 NFV=     0
 NROrb=    125 NOA=     2 NOB=     2 NVA=   123 NVB=   123

 **** Warning!!: The largest alpha MO coefficient is  0.24613471D+02


 **** Warning!!: The largest beta MO coefficient is  0.24613471D+02

 Leave Link  801 at Sun May 22 18:38:14 2022, MaxMem=   104857600 cpu:               0.1 elap:               0.1
 (Enter /apps/software/g16/l804.exe)
 Open-shell transformation, MDV=   104857600 ITran=4 ISComp=1.
 Unit  1 TFree=        991730 TCopy=        422292.
 Semi-Direct transformation.
 ModeAB=           2 MOrb=             2 LenV=     104170786
 LASXX=      1914004 LTotXX=     1914004 LenRXX=     1914004
 LTotAB=     1960875 MaxLAS=     3220000 LenRXY=     3220000
 NonZer=     3828008 LenScr=     6455808 LnRSAI=           0
 LnScr1=           0 LExtra=           0 Total=     11589812
 MaxDsk=          -1 SrtSym=           F ITran=            4
 DoSDTr:  NPSUse=  1
 JobTyp=1 Pass  1:  I=   1 to   2.
 (rs|ai) integrals will be sorted in core.
 Complete sort for first half transformation.
 First half transformation complete.
 Complete sort for second half transformation.
 Second half transformation complete.
 ModeAB=           2 MOrb=             2 LenV=     104170786
 LASXX=      1914004 LTotXX=     1914004 LenRXX=     3220000
 LTotAB=     1898874 MaxLAS=     3220000 LenRXY=     1898874
 NonZer=     3828008 LenScr=     6455808 LnRSAI=           0
 LnScr1=           0 LExtra=           0 Total=     11574682
 MaxDsk=          -1 SrtSym=           F ITran=            4
 DoSDTr:  NPSUse=  1
 JobTyp=2 Pass  1:  I=   1 to   2.
 (rs|ai) integrals will be sorted in core.
 Complete sort for first half transformation.
 First half transformation complete.
 Complete sort for second half transformation.
 Second half transformation complete.
 SymMOI:  orbitals are not symmetric.
 Spin components of T(2) and E(2):
     alpha-alpha T2 =       0.1093198934D-02 E2=     -0.2512546163D-02
     alpha-beta  T2 =       0.2474361785D-01 E2=     -0.6010059661D-01
     beta-beta   T2 =       0.1093198934D-02 E2=     -0.2512546163D-02
 ANorm=    0.1013375555D+01
 E2 =    -0.6512568894D-01 EUMP2 =    -0.25203141509870D+02
 (S**2,0)=  0.48549D+00           (S**2,1)=  0.46410D+00
 E(PUHF)=      -0.25147426369D+02        E(PMP2)=      -0.25212345855D+02
 Leave Link  804 at Sun May 22 18:38:24 2022, MaxMem=   104857600 cpu:              10.4 elap:              10.4
 (Enter /apps/software/g16/l913.exe)
 CIDS:  MDV=   104857600.
 Frozen-core window:  NFC=   1 NFV=   0.
 IFCWin=0 IBDFC=1 NFBD=     0     0 NFCmp=     0     0 NFFFC=     0     0
 Using original routines for 1st iteration.
 Using DD4UQ or CC4UQ for 2nd and later iterations.
 Keep R2 and R3 ints in memory in symmetry-blocked form, NReq=40147367.
 FoFCou: FMM=F IPFlag=           0 FMFlag=           0 FMFlg1=           0
         NFxFlg=           0 DoJE=F BraDBF=F KetDBF=F FulRan=T
         wScrn=  0.000000 ICntrl=       600 IOpCl=  0 I1Cent=           0 NGrid=           0
         NMat0=    1 NMatS0=   8001 NMatT0=    0 NMatD0=    1 NMtDS0=    0 NMtDT0=    0
 Petite list used in FoFCou.
 CIDS: In Core Option IDoMem=           1.
 Coupled Cluster theory with single and double substitutions
 ===========================================================
 Iterations=  50 Convergence= 0.100D-06
 Produce multiple copies of IABC intergrals
 Iteration Nr.   1
 **********************
 DD1Dir will call FoFMem   1 times, MxPair=        10
 NAB=     4 NAA=     1 NBB=     1.
 E(PMP3)=      -0.25224035991D+02
 MP4(R+Q)=  0.11868709D-02
 Maximum subspace dimension=  5
 A-vector RMS=  3.2740679D-03 Max=  1.2734804D-02 conv= 1.00D-05.
 RLE energy=       -0.0784026313
 E3=       -0.12202493D-01        EUMP3=      -0.25215344003D+02
 E4(DQ)=   -0.33952684D-02        UMP4(DQ)=   -0.25218739271D+02
 E4(SDQ)=  -0.41065541D-02        UMP4(SDQ)=  -0.25219450557D+02
 VARIATIONAL ENERGIES WITH THE FIRST-ORDER WAVEFUNCTION:
 DE(Corr)= -0.76154276E-01 E(Corr)=     -25.214170097    
 NORM(A)=   0.10234501D+01
 Iteration Nr.   2
 **********************
 DD1Dir will call FoFMem   1 times, MxPair=        10
 NAB=     4 NAA=     1 NBB=     1.
 A-vector RMS=  2.7123517D-03 Max=  1.3150352D-02 conv= 1.00D-05.
 RLE energy=       -0.0851565585
 DE(Corr)= -0.81533084E-01 E(CORR)=     -25.219548905     Delta=-5.38D-03
 NORM(A)=   0.10348526D+01
 Iteration Nr.   3
 **********************
 DD1Dir will call FoFMem   1 times, MxPair=        10
 NAB=     4 NAA=     1 NBB=     1.
 A-vector RMS=  2.4264239D-03 Max=  1.2440192D-02 conv= 1.00D-05.
 RLE energy=       -0.0891981715
 DE(Corr)= -0.85210371E-01 E(CORR)=     -25.223226192     Delta=-3.68D-03
 NORM(A)=   0.10608483D+01
 Iteration Nr.   4
 **********************
 DD1Dir will call FoFMem   1 times, MxPair=        10
 NAB=     4 NAA=     1 NBB=     1.
 A-vector RMS=  1.7540844D-03 Max=  8.8476102D-03 conv= 1.00D-05.
 RLE energy=       -0.0926387307
 DE(Corr)= -0.89266175E-01 E(CORR)=     -25.227281996     Delta=-4.06D-03
 NORM(A)=   0.11038643D+01
 Iteration Nr.   5
 **********************
 DD1Dir will call FoFMem   1 times, MxPair=        10
 NAB=     4 NAA=     1 NBB=     1.
 A-vector RMS=  1.0077766D-03 Max=  4.8316857D-03 conv= 1.00D-05.
 RLE energy=       -0.0938113648
 DE(Corr)= -0.92472361E-01 E(CORR)=     -25.230488182     Delta=-3.21D-03
 NORM(A)=   0.11340149D+01
 Iteration Nr.   6
 **********************
 DD1Dir will call FoFMem   1 times, MxPair=        10
 NAB=     4 NAA=     1 NBB=     1.
 A-vector RMS=  3.8361010D-04 Max=  1.7732775D-03 conv= 1.00D-05.
 RLE energy=       -0.0944761345
 DE(Corr)= -0.93873810E-01 E(CORR)=     -25.231889631     Delta=-1.40D-03
 NORM(A)=   0.11457109D+01
 Iteration Nr.   7
 **********************
 DD1Dir will call FoFMem   1 times, MxPair=        10
 NAB=     4 NAA=     1 NBB=     1.
 A-vector RMS=  1.3743864D-04 Max=  1.0056017D-03 conv= 1.00D-05.
 RLE energy=       -0.0944837368
 DE(Corr)= -0.94424775E-01 E(CORR)=     -25.232440596     Delta=-5.51D-04
 NORM(A)=   0.11469558D+01
 Iteration Nr.   8
 **********************
 DD1Dir will call FoFMem   1 times, MxPair=        10
 NAB=     4 NAA=     1 NBB=     1.
 A-vector RMS=  4.6869258D-05 Max=  4.2798951D-04 conv= 1.00D-05.
 RLE energy=       -0.0945033828
 DE(Corr)= -0.94464678E-01 E(CORR)=     -25.232480499     Delta=-3.99D-05
 NORM(A)=   0.11477017D+01
 Iteration Nr.   9
 **********************
 DD1Dir will call FoFMem   1 times, MxPair=        10
 NAB=     4 NAA=     1 NBB=     1.
 A-vector RMS=  1.8997938D-05 Max=  1.9349867D-04 conv= 1.00D-05.
 RLE energy=       -0.0944999244
 DE(Corr)= -0.94495577E-01 E(CORR)=     -25.232511398     Delta=-3.09D-05
 NORM(A)=   0.11479812D+01
 Iteration Nr.  10
 **********************
 DD1Dir will call FoFMem   1 times, MxPair=        10
 NAB=     4 NAA=     1 NBB=     1.
 A-vector RMS=  7.4741139D-06 Max=  6.9467642D-05 conv= 1.00D-05.
 RLE energy=       -0.0944899282
 DE(Corr)= -0.94498951E-01 E(CORR)=     -25.232514772     Delta=-3.37D-06
 NORM(A)=   0.11479141D+01
 Iteration Nr.  11
 **********************
 DD1Dir will call FoFMem   1 times, MxPair=        10
 NAB=     4 NAA=     1 NBB=     1.
 A-vector RMS=  4.7112105D-06 Max=  3.1300294D-05 conv= 1.00D-05.
 RLE energy=       -0.0944846423
 DE(Corr)= -0.94491483E-01 E(CORR)=     -25.232507304     Delta= 7.47D-06
 NORM(A)=   0.11478309D+01
 Iteration Nr.  12
 **********************
 DD1Dir will call FoFMem   1 times, MxPair=        10
 NAB=     4 NAA=     1 NBB=     1.
 A-vector RMS=  3.2112240D-06 Max=  1.5239145D-05 conv= 1.00D-05.
 RLE energy=       -0.0944810035
 DE(Corr)= -0.94485388E-01 E(CORR)=     -25.232501208     Delta= 6.10D-06
 NORM(A)=   0.11477620D+01
 Iteration Nr.  13
 **********************
 DD1Dir will call FoFMem   1 times, MxPair=        10
 NAB=     4 NAA=     1 NBB=     1.
 A-vector RMS=  2.1074638D-06 Max=  1.0364622D-05 conv= 1.00D-05.
 RLE energy=       -0.0944794599
 DE(Corr)= -0.94481692E-01 E(CORR)=     -25.232497513     Delta= 3.70D-06
 NORM(A)=   0.11477180D+01
 Iteration Nr.  14
 **********************
 DD1Dir will call FoFMem   1 times, MxPair=        10
 NAB=     4 NAA=     1 NBB=     1.
 A-vector RMS=  1.1274486D-06 Max=  5.2151293D-06 conv= 1.00D-05.
 RLE energy=       -0.0944784150
 DE(Corr)= -0.94479716E-01 E(CORR)=     -25.232495537     Delta= 1.98D-06
 NORM(A)=   0.11476891D+01
 Iteration Nr.  15
 **********************
 DD1Dir will call FoFMem   1 times, MxPair=        10
 NAB=     4 NAA=     1 NBB=     1.
 A-vector RMS=  4.8460200D-07 Max=  2.1731121D-06 conv= 1.00D-05.
 RLE energy=       -0.0944781105
 DE(Corr)= -0.94478524E-01 E(CORR)=     -25.232494345     Delta= 1.19D-06
 NORM(A)=   0.11476781D+01
 Iteration Nr.  16
 **********************
 DD1Dir will call FoFMem   1 times, MxPair=        10
 NAB=     4 NAA=     1 NBB=     1.
 A-vector RMS=  1.7254148D-07 Max=  6.5441074D-07 conv= 1.00D-05.
 RLE energy=       -0.0944780133
 DE(Corr)= -0.94478136E-01 E(CORR)=     -25.232493956     Delta= 3.89D-07
 NORM(A)=   0.11476749D+01
 Iteration Nr.  17
 **********************
 DD1Dir will call FoFMem   1 times, MxPair=        10
 NAB=     4 NAA=     1 NBB=     1.
 A-vector RMS=  7.2895377D-08 Max=  2.3798936D-07 conv= 1.00D-05.
 RLE energy=       -0.0944779536
 DE(Corr)= -0.94478020E-01 E(CORR)=     -25.232493841     Delta= 1.16D-07
 NORM(A)=   0.11476736D+01
 Iteration Nr.  18
 **********************
 DD1Dir will call FoFMem   1 times, MxPair=        10
 NAB=     4 NAA=     1 NBB=     1.
 A-vector RMS=  3.5648116D-08 Max=  1.0452991D-07 conv= 1.00D-05.
 RLE energy=       -0.0944779247
 DE(Corr)= -0.94477956E-01 E(CORR)=     -25.232493777     Delta= 6.34D-08
 NORM(A)=   0.11476731D+01
 CI/CC converged in   18 iterations to DelEn= 6.34D-08 Conv= 1.00D-07 ErrA1= 3.56D-08 Conv= 1.00D-05
 Wavefunction amplitudes converged. E(Corr)=     -25.232493777    
 Dominant configurations:
 ***********************
 Spin Case        I    J    A    B          Value
    AA            3         5            0.120951D+00
    AA            3         6           -0.114002D+00
    AA            3         9            0.214082D+00
    BB            3         5            0.120951D+00
    BB            3         6           -0.114002D+00
    BB            3         9            0.214082D+00
 Largest amplitude= 2.14D-01

 S**2, projected HF & approx projected MPn energies after annihilation of
 unwanted spin states (see manual for definitions):

 spins       (S**2,0) (S**2,1)    PUHF        PMP2        PMP3        PMP4
 annihilated
 s+1        -0.00250 -0.00052  -25.147426  -25.212346  -25.224036
 s+1,s+2     0.00000  0.00000  -25.147105  -25.212035  -25.223743

 Discarding MO integrals.
 Leave Link  913 at Sun May 22 18:38:33 2022, MaxMem=   104857600 cpu:               8.7 elap:               8.7
 (Enter /apps/software/g16/l601.exe)
 Copying SCF densities to generalized density rwf, IOpCl= 1 IROHF=0.
 SCF density gives NOpUse=  1 NOpAll=  4.
 Marking SCF density as not fully symmetric.

 **********************************************************************

            Population analysis using the SCF density.

 **********************************************************************

 Orbital symmetries:
 Alpha Orbitals:
       Occupied  (SG) (SG) (?A)
       Virtual   (?A) (?A) (?A) (?A) (?A) (?A) (?A) (?A) (?A) (?A)
                 (?A) (?A) (?A) (?B) (?B) (?B) (?A) (?A) (?A) (?A)
                 (?A) (?A) (?A) (?A) (?A) (?A) (?A) (?A) (?A) (SG)
                 (PI) (PI) (?C) (PI) (PI) (?C) (?C) (SG) (?D) (?D)
                 (?D) (PI) (PI) (?E) (?F) (?F) (?F) (?F) (?E) (?E)
                 (?E) (?E) (?E) (?E) (?E) (?E) (?E) (?G) (?G) (?G)
                 (?G) (?G) (SG) (?H) (?H) (?H) (?H) (SG) (DLTA)
                 (DLTA) (?I) (?I) (?I) (SG) (?J) (?J) (?J) (?J)
                 (PI) (PI) (SG) (SG) (?F) (?F) (?F) (?F) (?K) (?K)
                 (?K) (?K) (?K) (?K) (?K) (?K) (?K) (PI) (PI) (?J)
                 (?J) (?J) (?J) (SG) (SG) (PI) (PI) (SG) (PHI)
                 (PHI) (DLTA) (DLTA) (SG) (PI) (PI) (SG) (DLTA)
                 (DLTA) (PI) (PI) (PI) (PI) (SG) (SG) (SG)
 Beta  Orbitals:
       Occupied  (SG) (SG) (?A)
       Virtual   (?A) (?A) (?A) (?A) (?A) (?A) (?A) (?A) (?A) (?A)
                 (?A) (?A) (?A) (?B) (?B) (?B) (?A) (?A) (?A) (?A)
                 (?A) (?A) (?A) (?A) (?A) (?A) (?A) (?A) (?A) (SG)
                 (PI) (PI) (?C) (PI) (PI) (?C) (?C) (SG) (?D) (?D)
                 (?D) (PI) (PI) (?E) (?F) (?F) (?F) (?F) (?E) (?E)
                 (?E) (?E) (?E) (?E) (?E) (?E) (?E) (?G) (?G) (?G)
                 (?G) (?G) (SG) (?H) (?H) (?H) (?H) (SG) (DLTA)
                 (DLTA) (?I) (?I) (?I) (SG) (?J) (?J) (?J) (?J)
                 (PI) (PI) (SG) (SG) (?F) (?F) (?F) (?F) (?K) (?K)
                 (?K) (?K) (?K) (?K) (?K) (?K) (?K) (PI) (PI) (?J)
                 (?J) (?J) (?J) (SG) (SG) (PI) (PI) (SG) (PHI)
                 (PHI) (DLTA) (DLTA) (SG) (PI) (PI) (SG) (DLTA)
                 (DLTA) (PI) (PI) (PI) (PI) (SG) (SG) (SG)
 Unable to determine electronic state:  an orbital has unidentified symmetry.
 Alpha  occ. eigenvalues --   -7.67159  -0.64852  -0.37008
 Alpha virt. eigenvalues --    0.02588   0.02959   0.03367   0.04456   0.08138
 Alpha virt. eigenvalues --    0.08760   0.11561   0.13383   0.13577   0.14653
 Alpha virt. eigenvalues --    0.14659   0.15083   0.18789   0.26572   0.27464
 Alpha virt. eigenvalues --    0.27613   0.31752   0.31884   0.40364   0.42077
 Alpha virt. eigenvalues --    0.45323   0.45325   0.46322   0.46324   0.47594
 Alpha virt. eigenvalues --    0.47964   0.50404   0.50421   0.52718   0.54313
 Alpha virt. eigenvalues --    0.59398   0.59712   0.76226   0.78176   0.78383
 Alpha virt. eigenvalues --    0.80552   0.80559   0.87038   1.04189   1.04199
 Alpha virt. eigenvalues --    1.11768   1.19069   1.19448   1.36184   1.37391
 Alpha virt. eigenvalues --    1.37391   1.37651   1.37651   1.39115   1.39133
 Alpha virt. eigenvalues --    1.43969   1.44004   1.45117   1.45292   1.46138
 Alpha virt. eigenvalues --    1.46192   1.46499   1.56105   1.58785   1.59420
 Alpha virt. eigenvalues --    1.64228   1.64245   1.76628   1.86008   1.86368
 Alpha virt. eigenvalues --    1.90754   1.90755   1.91411   2.05175   2.05177
 Alpha virt. eigenvalues --    2.23995   2.24467   2.25834   2.61895   3.11674
 Alpha virt. eigenvalues --    3.11684   3.12458   3.12809   3.22175   3.22613
 Alpha virt. eigenvalues --    3.32097   3.59244   3.92864   3.92864   3.93966
 Alpha virt. eigenvalues --    3.93966   3.97644   3.98562   4.01597   4.01597
 Alpha virt. eigenvalues --    4.09400   4.09452   4.10671   4.10683   4.14486
 Alpha virt. eigenvalues --    4.18534   4.19417   4.33423   4.34178   4.35654
 Alpha virt. eigenvalues --    4.35689   4.50882   5.05368   5.38860   5.39524
 Alpha virt. eigenvalues --    5.59634   6.73515   6.73515   7.25314   7.25315
 Alpha virt. eigenvalues --    7.74096   7.81086   7.81367   8.34956   8.83511
 Alpha virt. eigenvalues --    8.83511   9.00245   9.00537   9.27710   9.27909
 Alpha virt. eigenvalues --    9.72704  10.49111  16.40911
  Beta  occ. eigenvalues --   -7.67159  -0.64852  -0.37008
  Beta virt. eigenvalues --    0.02588   0.02959   0.03367   0.04456   0.08138
  Beta virt. eigenvalues --    0.08760   0.11561   0.13383   0.13577   0.14653
  Beta virt. eigenvalues --    0.14659   0.15083   0.18789   0.26572   0.27464
  Beta virt. eigenvalues --    0.27613   0.31752   0.31884   0.40364   0.42077
  Beta virt. eigenvalues --    0.45323   0.45325   0.46322   0.46324   0.47594
  Beta virt. eigenvalues --    0.47964   0.50404   0.50421   0.52718   0.54313
  Beta virt. eigenvalues --    0.59398   0.59712   0.76226   0.78176   0.78383
  Beta virt. eigenvalues --    0.80552   0.80559   0.87038   1.04189   1.04199
  Beta virt. eigenvalues --    1.11768   1.19069   1.19448   1.36184   1.37391
  Beta virt. eigenvalues --    1.37391   1.37651   1.37651   1.39115   1.39133
  Beta virt. eigenvalues --    1.43969   1.44004   1.45117   1.45292   1.46138
  Beta virt. eigenvalues --    1.46192   1.46499   1.56105   1.58785   1.59420
  Beta virt. eigenvalues --    1.64228   1.64245   1.76628   1.86008   1.86368
  Beta virt. eigenvalues --    1.90754   1.90755   1.91411   2.05175   2.05177
  Beta virt. eigenvalues --    2.23995   2.24467   2.25834   2.61895   3.11674
  Beta virt. eigenvalues --    3.11684   3.12458   3.12809   3.22175   3.22613
  Beta virt. eigenvalues --    3.32097   3.59244   3.92864   3.92864   3.93966
  Beta virt. eigenvalues --    3.93966   3.97644   3.98562   4.01597   4.01597
  Beta virt. eigenvalues --    4.09400   4.09452   4.10671   4.10683   4.14486
  Beta virt. eigenvalues --    4.18534   4.19417   4.33423   4.34178   4.35654
  Beta virt. eigenvalues --    4.35689   4.50882   5.05368   5.38860   5.39524
  Beta virt. eigenvalues --    5.59634   6.73515   6.73515   7.25314   7.25315
  Beta virt. eigenvalues --    7.74096   7.81086   7.81367   8.34956   8.83511
  Beta virt. eigenvalues --    8.83511   9.00245   9.00537   9.27710   9.27909
  Beta virt. eigenvalues --    9.72704  10.49111  16.40911
          Condensed to atoms (all electrons):
               1          2
     1  B    4.677114   0.204588
     2  H    0.204588   0.913709
          Atomic-Atomic Spin Densities.
               1          2
     1  B    0.000000   0.000000
     2  H    0.000000   0.000000
 Mulliken charges and spin densities:
               1          2
     1  B    0.118297   0.000000
     2  H   -0.118297   0.000000
 Sum of Mulliken charges =  -0.00000   0.00000
 Mulliken charges and spin densities with hydrogens summed into heavy atoms:
               1          2
     1  B   -0.000000   0.000000
 Electronic spatial extent (au):  <R**2>=             21.7752
 Charge=             -0.0000 electrons
 Dipole moment (field-independent basis, Debye):
    X=              0.0000    Y=             -0.0000    Z=             -1.3050  Tot=              1.3050
 Quadrupole moment (field-independent basis, Debye-Ang):
   XX=             -7.4080   YY=             -6.3745   ZZ=             -9.7420
   XY=              0.0000   XZ=              0.0000   YZ=              0.0000
 Traceless Quadrupole moment (field-independent basis, Debye-Ang):
   XX=              0.4335   YY=              1.4670   ZZ=             -1.9005
   XY=              0.0000   XZ=              0.0000   YZ=              0.0000
 Octapole moment (field-independent basis, Debye-Ang**2):
  XXX=              0.0000  YYY=              0.0000  ZZZ=             -4.6470  XYY=              0.0000
  XXY=              0.0000  XXZ=             -1.6073  XZZ=              0.0000  YZZ=             -0.0000
  YYZ=             -1.1932  XYZ=              0.0000
 Hexadecapole moment (field-independent basis, Debye-Ang**3):
 XXXX=            -11.7044 YYYY=             -8.7363 ZZZZ=            -25.6306 XXXY=              0.0000
 XXXZ=              0.0000 YYYX=              0.0000 YYYZ=              0.0000 ZZZX=              0.0000
 ZZZY=             -0.0000 XXYY=             -3.4067 XXZZ=             -6.4995 YYZZ=             -5.8608
 XXYZ=              0.0000 YYXZ=              0.0000 ZZXY=              0.0000
 N-N= 2.204905045500D+00 E-N=-6.245271779947D+01  KE= 2.514726130071D+01
 Leave Link  601 at Sun May 22 18:38:33 2022, MaxMem=   104857600 cpu:               0.1 elap:               0.1
 (Enter /apps/software/g16/l9999.exe)
 1\1\GINC-CNODE13\SP\UCCSD-FC\Aug-CC-pVQZ\B1H1\LCZ\22-May-2022\0\\#p UH
 F/aug-cc-pVQZ guess=read CCSD=FC\\BH UCCSD at 1.2 Angstrom\\0,1\B,0,0.
 ,0.,0.\H,0,1.2,0.,0.\\Version=ES64L-G16RevA.03\HF=-25.1380158\MP2=-25.
 2031415\MP3=-25.215344\MP4D=-25.2199261\MP4DQ=-25.2187393\PUHF=-25.147
 4264\PMP2-0=-25.2123459\PMP3-0=-25.224036\MP4SDQ=-25.2194506\CCSD=-25.
 2324938\S2=0.48549\S2-1=0.464105\S2A=0.004999\RMSD=3.181e-10\PG=C*V [C
 *(H1B1)]\\@


 You never know when you're making a memory.
                        -- Rickie Lee Jones
 Job cpu time:       0 days  0 hours  0 minutes 23.4 seconds.
 Elapsed time:       0 days  0 hours  0 minutes 23.4 seconds.
 File lengths (MBytes):  RWF=    377 Int=      0 D2E=      0 Chk=     67 Scr=      1
 Normal termination of Gaussian 16 at Sun May 22 18:38:33 2022.

Sender: Unischeduler System <lcz@mgt01>
Subject: Job 134210: <#!/bin/bash
#BSUB -J intel
#BSUB -o BH-1.2-UCCSD-G.out
#BSUB -n 8
#BSUB -q cqueue
#BSUB -R span[hosts=1]
export g16root=/apps/software
source /apps/software/g16/bsd/g16.profile
export GAUSS_SCRDIR=/scratch
/apps/software/g16/g16 < BH-1.2-UCCSD-G.inp > BH-1.2-UCCSD-G.out> Done

Job <#!/bin/bash
#BSUB -J intel
#BSUB -o BH-1.2-UCCSD-G.out
#BSUB -n 8
#BSUB -q cqueue
#BSUB -R span[hosts=1]
export g16root=/apps/software
source /apps/software/g16/bsd/g16.profile
export GAUSS_SCRDIR=/scratch
/apps/software/g16/g16 < BH-1.2-UCCSD-G.inp > BH-1.2-UCCSD-G.out> was submitted from host <mgt01> by user <lcz>.
Job was executed on host(s) <8*cnode13>, in queue <cqueue>, as user <lcz>.
</apps/users/lcz> was used as the home directory.
</apps/users/lcz/exe13/UCCSD> was used as the working directory.
Started at 2022-05-22 18:38:09
Results reported at 2022-05-22 18:38:33

Your job looked like:

------------------------------------------------------------
# User input
#!/bin/bash
#BSUB -J intel
#BSUB -o BH-1.2-UCCSD-G.out
#BSUB -n 8
#BSUB -q cqueue
#BSUB -R span[hosts=1]
export g16root=/apps/software
source /apps/software/g16/bsd/g16.profile
export GAUSS_SCRDIR=/scratch
/apps/software/g16/g16 < BH-1.2-UCCSD-G.inp > BH-1.2-UCCSD-G.out
------------------------------------------------------------

Successfully completed.

Resource usage summary:

    CPU time   :           19.06 sec.
    Max Memory :               499 MB
    Max Processes  :               5


The output (if any) follows:

