
                                        *****************
                                        * O   R   C   A *
                                        *****************

                                            #,                                       
                                            ###                                      
                                            ####                                     
                                            #####                                    
                                            ######                                   
                                           ########,                                 
                                     ,,################,,,,,                         
                               ,,#################################,,                 
                          ,,##########################################,,             
                       ,#########################################, ''#####,          
                    ,#############################################,,   '####,        
                  ,##################################################,,,,####,       
                ,###########''''           ''''###############################       
              ,#####''   ,,,,##########,,,,          '''####'''          '####       
            ,##' ,,,,###########################,,,                        '##       
           ' ,,###''''                  '''############,,,                           
         ,,##''                                '''############,,,,        ,,,,,,###''
      ,#''                                            '''#######################'''  
     '                                                          ''''####''''         
             ,#######,   #######,   ,#######,      ##                                
            ,#'     '#,  ##    ##  ,#'     '#,    #''#        ######   ,####,        
            ##       ##  ##   ,#'  ##            #'  '#       #        #'  '#        
            ##       ##  #######   ##           ,######,      #####,   #    #        
            '#,     ,#'  ##    ##  '#,     ,#' ,#      #,         ##   #,  ,#        
             '#######'   ##     ##  '#######'  #'      '#     #####' # '####'        



                  #######################################################
                  #                        -***-                        #
                  #          Department of theory and spectroscopy      #
                  #    Directorship and core code : Frank Neese         #
                  #        Max Planck Institute fuer Kohlenforschung    #
                  #                Kaiser Wilhelm Platz 1               #
                  #                 D-45470 Muelheim/Ruhr               #
                  #                      Germany                        #
                  #                                                     #
                  #                  All rights reserved                #
                  #                        -***-                        #
                  #######################################################


                         Program Version 5.0.0 -  RELEASE  -
                                (SVN: $Rev: 19529$)
                ($Date: 2021-06-28 11:36:33 +0200 (Mo, 28 Jun 2021) $)


 With contributions from (in alphabetic order):
   Daniel Aravena         : Magnetic Suceptibility
   Michael Atanasov       : Ab Initio Ligand Field Theory (pilot matlab implementation)
   Alexander A. Auer      : GIAO ZORA, VPT2 properties, NMR spectrum
   Ute Becker             : Parallelization
   Giovanni Bistoni       : ED, misc. LED, open-shell LED, HFLD
   Martin Brehm           : Molecular dynamics
   Dmytro Bykov           : SCF Hessian
   Vijay G. Chilkuri      : MRCI spin determinant printing, contributions to CSF-ICE
   Dipayan Datta          : RHF DLPNO-CCSD density
   Achintya Kumar Dutta   : EOM-CC, STEOM-CC
   Dmitry Ganyushin       : Spin-Orbit,Spin-Spin,Magnetic field MRCI
   Miquel Garcia          : C-PCM Hessian, Gaussian charge scheme
   Yang Guo               : DLPNO-NEVPT2, F12-NEVPT2, CIM, IAO-localization
   Andreas Hansen         : Spin unrestricted coupled pair/coupled cluster methods
   Benjamin Helmich-Paris : MC-RPA, TRAH-SCF, COSX integrals
   Lee Huntington         : MR-EOM, pCC
   Robert Izsak           : Overlap fitted RIJCOSX, COSX-SCS-MP3, EOM
   Marcus Kettner         : VPT2
   Christian Kollmar      : KDIIS, OOCD, Brueckner-CCSD(T), CCSD density, CASPT2, CASPT2-K
   Simone Kossmann        : Meta GGA functionals, TD-DFT gradient, OOMP2, MP2 Hessian
   Martin Krupicka        : Initial AUTO-CI
   Lucas Lang             : DCDCAS
   Marvin Lechner         : AUTO-CI (C++ implementation), FIC-MRCC
   Dagmar Lenk            : GEPOL surface, SMD
   Dimitrios Liakos       : Extrapolation schemes; Compound Job, initial MDCI parallelization
   Dimitrios Manganas     : Further ROCIS development; embedding schemes
   Dimitrios Pantazis     : SARC Basis sets
   Anastasios Papadopoulos: AUTO-CI, single reference methods and gradients
   Taras Petrenko         : DFT Hessian,TD-DFT gradient, ASA, ECA, R-Raman, ABS, FL, XAS/XES, NRVS
   Peter Pinski           : DLPNO-MP2, DLPNO-MP2 Gradient
   Christoph Reimann      : Effective Core Potentials
   Marius Retegan         : Local ZFS, SOC
   Christoph Riplinger    : Optimizer, TS searches, QM/MM, DLPNO-CCSD(T), (RO)-DLPNO pert. Triples
   Tobias Risthaus        : Range-separated hybrids, TD-DFT gradient, RPA, STAB
   Michael Roemelt        : Original ROCIS implementation
   Masaaki Saitow         : Open-shell DLPNO-CCSD energy and density
   Barbara Sandhoefer     : DKH picture change effects
   Avijit Sen             : IP-ROCIS
   Kantharuban Sivalingam : CASSCF convergence, NEVPT2, FIC-MRCI
   Bernardo de Souza      : ESD, SOC TD-DFT
   Georgi Stoychev        : AutoAux, RI-MP2 NMR
   Willem Van den Heuvel  : Paramagnetic NMR
   Boris Wezisla          : Elementary symmetry handling
   Frank Wennmohs         : Technical directorship


 We gratefully acknowledge several colleagues who have allowed us to
 interface, adapt or use parts of their codes:
   Stefan Grimme, W. Hujo, H. Kruse, P. Pracht,  : VdW corrections, initial TS optimization,
                  C. Bannwarth, S. Ehlert          DFT functionals, gCP, sTDA/sTD-DF
   Ed Valeev, F. Pavosevic, A. Kumar             : LibInt (2-el integral package), F12 methods
   Garnet Chan, S. Sharma, J. Yang, R. Olivares  : DMRG
   Ulf Ekstrom                                   : XCFun DFT Library
   Mihaly Kallay                                 : mrcc  (arbitrary order and MRCC methods)
   Jiri Pittner, Ondrej Demel                    : Mk-CCSD
   Frank Weinhold                                : gennbo (NPA and NBO analysis)
   Christopher J. Cramer and Donald G. Truhlar   : smd solvation model
   Lars Goerigk                                  : TD-DFT with DH, B97 family of functionals
   V. Asgeirsson, H. Jonsson                     : NEB implementation
   FAccTs GmbH                                   : IRC, NEB, NEB-TS, DLPNO-Multilevel, CI-OPT
                                                   MM, QMMM, 2- and 3-layer-ONIOM, Crystal-QMMM,
                                                   LR-CPCM, SF, NACMEs, symmetry and pop. for TD-DFT,
                                                   nearIR, NL-DFT gradient (VV10), updates on ESD,
                                                   ML-optimized integration grids
   S Lehtola, MJT Oliveira, MAL Marques          : LibXC Library
   Liviu Ungur et al                             : ANISO software


 Your calculation uses the libint2 library for the computation of 2-el integrals
 For citations please refer to: http://libint.valeyev.net

 Your ORCA version has been built with support for libXC version: 5.1.0
 For citations please refer to: https://tddft.org/programs/libxc/

 This ORCA versions uses:
   CBLAS   interface :  Fast vector & matrix operations
   LAPACKE interface :  Fast linear algebra routines
   SCALAPACK package :  Parallel linear algebra routines
   Shared memory     :  Shared parallel matrices
   BLAS/LAPACK       :  OpenBLAS 0.3.15  USE64BITINT DYNAMIC_ARCH NO_AFFINITY SkylakeX SINGLE_THREADED
        Core in use  :  SkylakeX
   Copyright (c) 2011-2014, The OpenBLAS Project


================================================================================

----- Orbital basis set information -----
Your calculation utilizes the basis: aug-cc-pVQZ 
    H, B-Ne : Obtained from the ccRepo (grant-hill.group.shef.ac.uk/ccrepo) Feb. 2017
              R. A. Kendall, T. H. Dunning, Jr., R. J. Harrison, J. Chem. Phys. 96, 6796 (1992)
         He : Obtained from the ccRepo (grant-hill.group.shef.ac.uk/ccrepo) Feb. 2017
              D. E. Woon, T. H. Dunning, Jr., J. Chem. Phys. 100, 2975 (1994)
  Li-Be, Na : Obtained from the ccRepo (grant-hill.group.shef.ac.uk/ccrepo) Feb. 2017
              B. P. Prascher, D. E. Woon, K. A. Peterson, T. H. Dunning, Jr., A. K. Wilson, Theor. Chem. Acc. 128, 69 (2011)
         Mg : Obtained from the Peterson Research Group Website (tyr0.chem.wsu.edu/~kipeters) Feb. 2017
              B. P. Prascher, D. E. Woon, K. A. Peterson, T. H. Dunning, Jr., A. K. Wilson, Theor. Chem. Acc. 128, 69 (2011)
      Al-Ar : Obtained from the ccRepo (grant-hill.group.shef.ac.uk/ccrepo) Feb. 2017
              D. E. Woon, T. H. Dunning, Jr., J. Chem. Phys. 98, 1358 (1993)
      Sc-Zn : Obtained from the ccRepo (grant-hill.group.shef.ac.uk/ccrepo) Feb. 2017
              N. B. Balabanov, K. A. Peterson, J. Chem. Phys. 123, 064107 (2005)
              N. B. Balabanov, K. A. Peterson, J. Chem. Phys. 125, 074110 (2006)
      Ga-Kr : Obtained from the ccRepo (grant-hill.group.shef.ac.uk/ccrepo) Feb. 2017
              A. K. Wilson, D. E. Woon, K. A. Peterson, T. H. Dunning, Jr., J. Chem. Phys. 110, 7667 (1999)

================================================================================
                                        WARNINGS
                       Please study these warnings very carefully!
================================================================================


INFO   : the flag for use of the SHARK integral package has been found!

================================================================================
                                       INPUT FILE
================================================================================
NAME = /scratch/BH-1.8-UHF-O_686/BH-1.8-UHF-O.inp
|  1> ! UHF aug-cc-pVQZ pal8 VeryTightSCF
|  2> 
|  3> %scf
|  4> 	STABPerform	True
|  5> 	STABRestartUHFifUnstable	True
|  6> end
|  7> 
|  8> *xyz 0 1
|  9>  B	0.0	0.0	0.0
| 10>  H	1.8	0.0	0.0
| 11> **                         ****END OF INPUT****
================================================================================

                       ****************************
                       * Single Point Calculation *
                       ****************************

---------------------------------
CARTESIAN COORDINATES (ANGSTROEM)
---------------------------------
  B      0.000000    0.000000    0.000000
  H      1.800000    0.000000    0.000000

----------------------------
CARTESIAN COORDINATES (A.U.)
----------------------------
  NO LB      ZA    FRAG     MASS         X           Y           Z
   0 B     5.0000    0    10.810    0.000000    0.000000    0.000000
   1 H     1.0000    0     1.008    3.401507    0.000000    0.000000

--------------------------------
INTERNAL COORDINATES (ANGSTROEM)
--------------------------------
 B      0   0   0     0.000000000000     0.00000000     0.00000000
 H      1   0   0     1.800000000000     0.00000000     0.00000000

---------------------------
INTERNAL COORDINATES (A.U.)
---------------------------
 B      0   0   0     0.000000000000     0.00000000     0.00000000
 H      1   0   0     3.401507041058     0.00000000     0.00000000

---------------------
BASIS SET INFORMATION
---------------------
There are 2 groups of distinct atoms

 Group   1 Type B   : 22s7p4d3f2g contracted to 6s5p4d3f2g pattern {991111/31111/1111/111/11}
 Group   2 Type H   : 7s4p3d2f contracted to 5s4p3d2f pattern {31111/1111/111/11}

Atom   0B    basis set group =>   1
Atom   1H    basis set group =>   2
--------------------------------------------------------------------------
WARNING: There was an error initializing an OpenFabrics device.

  Local host:   cnode01
  Local device: mlx5_0
--------------------------------------------------------------------------


           ************************************************************
           *        Program running with 8 parallel MPI-processes     *
           *              working on a common directory               *
           ************************************************************
------------------------------------------------------------------------------
                           ORCA GTO INTEGRAL CALCULATION
------------------------------------------------------------------------------
------------------------------------------------------------------------------
                   ___                                                        
                  /   \      - P O W E R E D   B Y -                         
                 /     \                                                     
                 |  |  |   _    _      __       _____    __    __             
                 |  |  |  | |  | |    /  \     |  _  \  |  |  /  |          
                  \  \/   | |  | |   /    \    | | | |  |  | /  /          
                 / \  \   | |__| |  /  /\  \   | |_| |  |  |/  /          
                |  |  |   |  __  | /  /__\  \  |    /   |      \           
                |  |  |   | |  | | |   __   |  |    \   |  |\   \          
                \     /   | |  | | |  |  |  |  | |\  \  |  | \   \       
                 \___/    |_|  |_| |__|  |__|  |_| \__\ |__|  \__/        
                                                                              
                      - O R C A' S   B I G   F R I E N D -                    
                                      &                                       
                       - I N T E G R A L  F E E D E R -                       
                                                                              
 v1 FN, 2020, v2 2021                                                         
------------------------------------------------------------------------------


Reading SHARK input file /scratch/BH-1.8-UHF-O_686/BH-1.8-UHF-O.SHARKINP.tmp ... ok
----------------------
SHARK INTEGRAL PACKAGE
----------------------

Number of atoms                             ...      2
Number of basis functions                   ...    126
Number of shells                            ...     34
Maximum angular momentum                    ...      4
Integral batch strategy                     ... SHARK/LIBINT Hybrid
RI-J (if used) integral strategy            ... SPLIT-RIJ (Revised 2003 algorithm where possible)
Printlevel                                  ...      1
Contraction scheme used                     ... SEGMENTED contraction
Coulomb Range Separation                    ... NOT USED
Exchange Range Separation                   ... NOT USED
Finite Nucleus Model                        ... NOT USED
Auxiliary Coulomb fitting basis             ... NOT available
Auxiliary J/K fitting basis                 ... NOT available
Auxiliary Correlation fitting basis         ... NOT available
Auxiliary 'external' fitting basis          ... NOT available
Integral threshold                          ...     1.000000e-12
Primitive cut-off                           ...     1.000000e-14
Primitive pair pre-selection threshold      ...     1.000000e-14

Calculating pre-screening integrals         ... done (  0.1 sec) Dimension = 34
Organizing shell pair data                  ... done (  0.0 sec)
Shell pair information
Total number of shell pairs                 ...       595
Shell pairs after pre-screening             ...       595
Total number of primitive shell pairs       ...      1563
Primitive shell pairs kept                  ...      1526
          la=0 lb=0:     66 shell pairs
          la=1 lb=0:     99 shell pairs
          la=1 lb=1:     45 shell pairs
          la=2 lb=0:     77 shell pairs
          la=2 lb=1:     63 shell pairs
          la=2 lb=2:     28 shell pairs
          la=3 lb=0:     55 shell pairs
          la=3 lb=1:     45 shell pairs
          la=3 lb=2:     35 shell pairs
          la=3 lb=3:     15 shell pairs
          la=4 lb=0:     22 shell pairs
          la=4 lb=1:     18 shell pairs
          la=4 lb=2:     14 shell pairs
          la=4 lb=3:     10 shell pairs
          la=4 lb=4:      3 shell pairs

Calculating one electron integrals          ... done (  0.0 sec)
Calculating Nuclear repulsion               ... done (  0.0 sec) ENN=      1.469936689722 Eh

SHARK setup successfully completed in   0.1 seconds

Maximum memory used throughout the entire GTOINT-calculation: 28.9 MB
[cnode01:363979] 7 more processes have sent help message help-mpi-btl-openib.txt / error in device init
[cnode01:363979] Set MCA parameter "orte_base_help_aggregate" to 0 to see all help / error messages
--------------------------------------------------------------------------
WARNING: There was an error initializing an OpenFabrics device.

  Local host:   cnode01
  Local device: mlx5_0
--------------------------------------------------------------------------


           ************************************************************
           *        Program running with 8 parallel MPI-processes     *
           *              working on a common directory               *
           ************************************************************
-------------------------------------------------------------------------------
                                 ORCA SCF
-------------------------------------------------------------------------------

------------
SCF SETTINGS
------------
Hamiltonian:
 Ab initio Hamiltonian  Method          .... Hartree-Fock(GTOs)


General Settings:
 Integral files         IntName         .... /scratch/BH-1.8-UHF-O_686/BH-1.8-UHF-O
 Hartree-Fock type      HFTyp           .... UHF
 Total Charge           Charge          ....    0
 Multiplicity           Mult            ....    1
 Number of Electrons    NEL             ....    6
 Basis Dimension        Dim             ....  126
 Nuclear Repulsion      ENuc            ....      1.4699366897 Eh

Convergence Acceleration:
 DIIS                   CNVDIIS         .... on
   Start iteration      DIISMaxIt       ....    12
   Startup error        DIISStart       ....  0.200000
   # of expansion vecs  DIISMaxEq       ....     5
   Bias factor          DIISBfac        ....   1.050
   Max. coefficient     DIISMaxC        ....  10.000
 Trust-Rad. Augm. Hess. CNVTRAH         .... auto
   Auto Start mean grad. ratio tolernc. ....  1.125000
   Auto Start start iteration           ....    20
   Auto Start num. interpolation iter.  ....    10
   Max. Number of Micro iterations      ....    16
   Max. Number of Macro iterations      .... Maxiter - #DIIS iter
   Number of Davidson start vectors     ....     2
   Converg. threshold I  (grad. norm)   ....   2.000e-06
   Converg. threshold II (energy diff.) ....   1.000e-09
   Grad. Scal. Fac. for Micro threshold ....   0.100
   Minimum threshold for Micro iter.    ....   0.010
   NR start threshold (gradient norm)   ....   0.001
   Initial trust radius                 ....   0.400
   Minimum AH scaling param. (alpha)    ....   1.000
   Maximum AH scaling param. (alpha)    .... 1000.000
   Orbital update algorithm             .... Taylor
   White noise on init. David. guess    .... on
   Maximum white noise                  ....   0.010
   Quad. conv. algorithm                .... NR
 SOSCF                  CNVSOSCF        .... off
 Level Shifting         CNVShift        .... on
   Level shift para.    LevelShift      ....    0.2500
   Turn off err/grad.   ShiftErr        ....    0.0010
 Zerner damping         CNVZerner       .... off
 Static damping         CNVDamp         .... on
   Fraction old density DampFac         ....    0.7000
   Max. Damping (<1)    DampMax         ....    0.9800
   Min. Damping (>=0)   DampMin         ....    0.0000
   Turn off err/grad.   DampErr         ....    0.1000
 Fernandez-Rico         CNVRico         .... off

SCF Procedure:
 Maximum # iterations   MaxIter         ....   125
 SCF integral mode      SCFMode         .... Direct
   Integral package                     .... SHARK and LIBINT hybrid scheme
 Reset frequency        DirectResetFreq ....    20
 Integral Threshold     Thresh          ....  1.000e-12 Eh
 Primitive CutOff       TCut            ....  1.000e-14 Eh

Convergence Tolerance:
 Convergence Check Mode ConvCheckMode   .... Total+1el-Energy
 Convergence forced     ConvForced      .... 0
 Energy Change          TolE            ....  1.000e-09 Eh
 1-El. energy change                    ....  1.000e-06 Eh
 DIIS Error             TolErr          ....  1.000e-08


Diagonalization of the overlap matrix:
Smallest eigenvalue                        ... 3.749e-04
Time for diagonalization                   ...    0.002 sec
Threshold for overlap eigenvalues          ... 1.000e-08
Number of eigenvalues below threshold      ... 0
Time for construction of square roots      ...    0.002 sec
Total time needed                          ...    0.005 sec

Time for model grid setup =    0.007 sec

------------------------------
INITIAL GUESS: MODEL POTENTIAL
------------------------------
Loading Hartree-Fock densities                     ... done
Calculating cut-offs                               ... done
Initializing the effective Hamiltonian             ... done
Setting up the integral package (SHARK)            ... done
Starting the Coulomb interaction                   ... done (   0.0 sec)
Reading the grid                                   ... done
Mapping shells                                     ... done
Starting the XC term evaluation                    ... done (   0.0 sec)
Transforming the Hamiltonian                       ... done (   0.0 sec)
Diagonalizing the Hamiltonian                      ... done (   0.0 sec)
Back transforming the eigenvectors                 ... done (   0.0 sec)
Now organizing SCF variables                       ... done
                      ------------------
                      INITIAL GUESS DONE (   0.0 sec)
                      ------------------
--------------
SCF ITERATIONS
--------------
ITER       Energy         Delta-E        Max-DP      RMS-DP      [F,P]     Damp
               ***  Starting incremental Fock matrix formation  ***
  0    -25.0634178279   0.000000000000 0.02006151  0.00026876  0.1071905 0.7000
  1    -25.0663252999  -0.002907472009 0.01432712  0.00020413  0.0775700 0.7000
                               ***Turning on DIIS***
  2    -25.0685424978  -0.002217197934 0.03363898  0.00049821  0.0555924 0.0000
  3    -25.0722108371  -0.003668339335 0.00219426  0.00005699  0.0083200 0.0000
  4    -25.0764402075  -0.004229370349 0.00111808  0.00003266  0.0026865 0.0000
  5    -25.0748562942   0.001583913299 0.00054138  0.00001658  0.0010737 0.0000
  6    -25.0744388220   0.000417472178 0.00032400  0.00001023  0.0003688 0.0000
  7    -25.0743809991   0.000057822911 0.00005466  0.00000137  0.0000367 0.0000
  8    -25.0743791479   0.000001851182 0.00001245  0.00000031  0.0000076 0.0000
  9    -25.0743796535  -0.000000505543 0.00000165  0.00000003  0.0000010 0.0000
 10    -25.0743799020  -0.000000248528 0.00000013  0.00000000  0.0000001 0.0000
                            ***DIIS convergence achieved***

               *****************************************************
               *                     SUCCESS                       *
               *           SCF CONVERGED AFTER  11 CYCLES          *
               *****************************************************


------------------------------------------------------------------------------
                          SCF STABILITY ANALYSIS                              
------------------------------------------------------------------------------


                       ****Iteration    0****

   Memory handling for direct AO based CIS:
   Memory per vector needed      ...     1 MB
   Memory needed                 ...     4 MB
   Memory available              ...  1024 MB
   Number of vectors per batch   ...  1024
   Number of batches             ...     1
   Time for densities:     0.001
   Using LibInt in JK Direct
   Time for J+K (Direct):     1.828
   Time for Sigma-Completion:     0.001
   Lowest Energy          :     0.124556963331
   Maximum Energy change  :     0.170633619941 (vector 2)
   Maximum residual norm  :     0.022800108444

                       ****Iteration    1****
   Time for densities:     0.000
   Using LibInt in JK Direct
[cnode01:364039] 7 more processes have sent help message help-mpi-btl-openib.txt / error in device init
[cnode01:364039] Set MCA parameter "orte_base_help_aggregate" to 0 to see all help / error messages
   Time for J+K (Direct):     0.911
   Time for Sigma-Completion:     0.006
   Lowest Energy          :    -0.002933135561
   Maximum Energy change  :     0.127490098892 (vector 1)
   Maximum residual norm  :     0.006495826721

                       ****Iteration    2****
   Time for densities:     0.000
   Using LibInt in JK Direct
   Time for J+K (Direct):     0.937
   Time for Sigma-Completion:     0.001
   Lowest Energy          :    -0.025361697061
   Maximum Energy change  :     0.022428561500 (vector 1)
   Maximum residual norm  :     0.001888927105

                       ****Iteration    3****
   Time for densities:     0.000
   Using LibInt in JK Direct
   Time for J+K (Direct):     0.908
   Time for Sigma-Completion:     0.001
   Lowest Energy          :    -0.030425761156
   Maximum Energy change  :     0.005064064095 (vector 0)
   Maximum residual norm  :     0.000104119483

                       ****Iteration    4****
   Time for densities:     0.000
   Using LibInt in JK Direct
   Time for J+K (Direct):     0.914
   Time for Sigma-Completion:     0.006
   Lowest Energy          :    -0.030527097779
   Maximum Energy change  :     0.000101336623 (vector 0)
   Maximum residual norm  :     0.000001836888

      *** CONVERGENCE OF RESIDUAL NORM REACHED ***

----------------------------- 
SCF STABILITY ANALYSIS RESULT 
----------------------------- 

UHF/UKS->UHF/UKS - singlet - internal

   Root    Eigenvalue (au) 
     0      -0.030527 
     1      -0.030527 
     2       0.118830 

Stability Analysis indicates an UNSTABLE HF/KS wave function with SEVERAL negative eigenvalues.

Since this is UHF/UKS, we will restart the SCF using a new guess based on the eigenvector 
associated with the lowest eigenvalue. Because there is no guarantee that the restart     
will result in a stable solution, the user should check the stability of the resulting    
wave function in a separate calculation using the MOREAD guess feature.

Obtain new guess               ... done 

Total time for performing the stability analysis:     5.527sec

--------------------------
SCF ITERATIONS (restarted)
--------------------------
ITER       Energy         Delta-E        Max-DP      RMS-DP      [F,P]     Damp
               ***  Starting incremental Fock matrix formation  ***
  0    -25.0766838030   0.000000000000 0.00144145  0.00002193  0.0118567 0.7000
  1    -25.0767764998  -0.000092696790 0.00136986  0.00002128  0.0094124 0.7000
                               ***Turning on DIIS***
  2    -25.0768571783  -0.000080678529 0.00372053  0.00005912  0.0072915 0.0000
  3    -25.0772541868  -0.000397008459 0.00117742  0.00002215  0.0021469 0.0000
  4    -25.0770305956   0.000223591134 0.00039865  0.00001090  0.0010205 0.0000
  5    -25.0770600897  -0.000029494077 0.00033292  0.00001033  0.0004999 0.0000
  6    -25.0770957449  -0.000035655185 0.00019775  0.00000454  0.0001730 0.0000
  7    -25.0771300153  -0.000034270440 0.00012519  0.00000260  0.0000840 0.0000
  8    -25.0771474322  -0.000017416894 0.00004810  0.00000100  0.0000256 0.0000
  9    -25.0771547967  -0.000007364442 0.00001269  0.00000024  0.0000050 0.0000
 10    -25.0771556601  -0.000000863491 0.00000745  0.00000014  0.0000014 0.0000
 11    -25.0771558188  -0.000000158689 0.00000615  0.00000012  0.0000010 0.0000
 12    -25.0771559247  -0.000000105882 0.00000739  0.00000016  0.0000008 0.0000
 13    -25.0771560435  -0.000000118748 0.00001029  0.00000022  0.0000005 0.0000
 14    -25.0771560662  -0.000000022781 0.00000466  0.00000010  0.0000002 0.0000
 15    -25.0771560234   0.000000042839 0.00000042  0.00000001  0.0000000 0.0000
                            ***DIIS convergence achieved***

               *****************************************************
               *                     SUCCESS                       *
               *           SCF CONVERGED AFTER  16 CYCLES          *
               *****************************************************


----------------
TOTAL SCF ENERGY
----------------

Total Energy       :          -25.07715601 Eh            -682.38411 eV

Components:
Nuclear Repulsion  :            1.46993669 Eh              39.99901 eV
Electronic Energy  :          -26.54709270 Eh            -722.38312 eV
One Electron Energy:          -35.76022363 Eh            -973.08516 eV
Two Electron Energy:            9.21313092 Eh             250.70204 eV

Virial components:
Potential Energy   :          -49.91475141 Eh           -1358.24944 eV
Kinetic Energy     :           24.83759539 Eh             675.86533 eV
Virial Ratio       :            2.00964508


---------------
SCF CONVERGENCE
---------------

  Last Energy change         ...    8.5554e-09  Tolerance :   1.0000e-09
  Last MAX-Density change    ...    1.8181e-08  Tolerance :   1.0000e-08
  Last RMS-Density change    ...    5.0162e-10  Tolerance :   1.0000e-09
  Last DIIS Error            ...    1.8423e-08  Tolerance :   1.0000e-08

             **** THE GBW FILE WAS UPDATED (/scratch/BH-1.8-UHF-O_686/BH-1.8-UHF-O.gbw) ****
             **** DENSITY /scratch/BH-1.8-UHF-O_686/BH-1.8-UHF-O.scfp WAS UPDATED ****
             **** ENERGY FILE WAS UPDATED (/scratch/BH-1.8-UHF-O_686/BH-1.8-UHF-O.en.tmp) ****

     --------------------------------------------------------------------
                                      WARNING
     A stability analysis of the first UHF/UKS SCF solution was performed
     and an instability detected. The result was used as a guess for
     a second SCF, which has converged. There is no guarantee that the
     current solution is stable - it is up to you to rerun the stability
     analysis using the now stored solution as a guess and verify.
     --------------------------------------------------------------------

----------------------
UHF SPIN CONTAMINATION
----------------------

Expectation value of <S**2>     :     0.331609
Ideal value S*(S+1) for S=0.0   :     0.000000
Deviation                       :     0.331609

             **** THE GBW FILE WAS UPDATED (/scratch/BH-1.8-UHF-O_686/BH-1.8-UHF-O.gbw) ****
             **** DENSITY /scratch/BH-1.8-UHF-O_686/BH-1.8-UHF-O.scfp WAS UPDATED ****
----------------
ORBITAL ENERGIES
----------------
                 SPIN UP ORBITALS
  NO   OCC          E(Eh)            E(eV) 
   0   1.0000      -7.747943      -210.8323 
   1   1.0000      -0.562212       -15.2986 
   2   1.0000      -0.356825        -9.7097 
   3   0.0000       0.018573         0.5054 
   4   0.0000       0.022924         0.6238 
   5   0.0000       0.032032         0.8716 
   6   0.0000       0.050257         1.3676 
   7   0.0000       0.071539         1.9467 
   8   0.0000       0.074391         2.0243 
   9   0.0000       0.099922         2.7190 
  10   0.0000       0.121844         3.3155 
  11   0.0000       0.139410         3.7936 
  12   0.0000       0.140583         3.8254 
  13   0.0000       0.144157         3.9227 
  14   0.0000       0.144220         3.9244 
  15   0.0000       0.204280         5.5587 
  16   0.0000       0.234066         6.3692 
  17   0.0000       0.272153         7.4057 
  18   0.0000       0.272816         7.4237 
  19   0.0000       0.299363         8.1461 
  20   0.0000       0.301681         8.2092 
  21   0.0000       0.332777         9.0553 
  22   0.0000       0.377638        10.2761 
  23   0.0000       0.457978        12.4622 
  24   0.0000       0.457979        12.4622 
  25   0.0000       0.462618        12.5885 
  26   0.0000       0.462630        12.5888 
  27   0.0000       0.480712        13.0808 
  28   0.0000       0.482697        13.1349 
  29   0.0000       0.493213        13.4210 
  30   0.0000       0.493620        13.4321 
  31   0.0000       0.514920        14.0117 
  32   0.0000       0.550543        14.9810 
  33   0.0000       0.552419        15.0321 
  34   0.0000       0.584738        15.9115 
  35   0.0000       0.671639        18.2762 
  36   0.0000       0.785686        21.3796 
  37   0.0000       0.785693        21.3798 
  38   0.0000       0.798637        21.7320 
  39   0.0000       0.799366        21.7519 
  40   0.0000       0.805482        21.9183 
  41   0.0000       0.968451        26.3529 
  42   0.0000       0.969382        26.3782 
  43   0.0000       1.129443        30.7337 
  44   0.0000       1.170114        31.8404 
  45   0.0000       1.172016        31.8922 
  46   0.0000       1.285946        34.9924 
  47   0.0000       1.345488        36.6126 
  48   0.0000       1.345488        36.6126 
  49   0.0000       1.359058        36.9818 
  50   0.0000       1.361780        37.0559 
  51   0.0000       1.362343        37.0712 
  52   0.0000       1.362352        37.0715 
  53   0.0000       1.383491        37.6467 
  54   0.0000       1.383590        37.6494 
  55   0.0000       1.399158        38.0730 
  56   0.0000       1.421891        38.6916 
  57   0.0000       1.421919        38.6924 
  58   0.0000       1.433744        39.0142 
  59   0.0000       1.433749        39.0143 
  60   0.0000       1.489595        40.5339 
  61   0.0000       1.497994        40.7625 
  62   0.0000       1.502673        40.8898 
  63   0.0000       1.528160        41.5834 
  64   0.0000       1.528177        41.5838 
  65   0.0000       1.602228        43.5988 
  66   0.0000       1.746386        47.5216 
  67   0.0000       1.746386        47.5216 
  68   0.0000       1.815919        49.4137 
  69   0.0000       1.819108        49.5005 
  70   0.0000       1.954437        53.1829 
  71   0.0000       2.028046        55.1859 
  72   0.0000       2.104174        57.2575 
  73   0.0000       2.105793        57.3015 
  74   0.0000       2.130465        57.9729 
  75   0.0000       2.130485        57.9734 
  76   0.0000       2.232329        60.7448 
  77   0.0000       2.603811        70.8533 
  78   0.0000       2.603812        70.8533 
  79   0.0000       2.814389        76.5834 
  80   0.0000       2.815813        76.6222 
  81   0.0000       3.170891        86.2843 
  82   0.0000       3.177703        86.4697 
  83   0.0000       3.179542        86.5197 
  84   0.0000       3.345839        91.0449 
  85   0.0000       3.740573       101.7862 
  86   0.0000       3.745460       101.9191 
  87   0.0000       3.901075       106.1536 
  88   0.0000       3.901075       106.1536 
  89   0.0000       3.931029       106.9687 
  90   0.0000       3.931034       106.9689 
  91   0.0000       3.934499       107.0632 
  92   0.0000       3.934502       107.0632 
  93   0.0000       3.994396       108.6930 
  94   0.0000       3.998305       108.7994 
  95   0.0000       4.000818       108.8678 
  96   0.0000       4.002556       108.9151 
  97   0.0000       4.044413       110.0541 
  98   0.0000       4.064257       110.5941 
  99   0.0000       4.064260       110.5941 
 100   0.0000       4.097303       111.4933 
 101   0.0000       4.123831       112.2151 
 102   0.0000       4.124075       112.2218 
 103   0.0000       4.234643       115.2305 
 104   0.0000       4.240142       115.3801 
 105   0.0000       4.442246       120.8797 
 106   0.0000       4.447390       121.0196 
 107   0.0000       4.606159       125.3400 
 108   0.0000       4.988395       135.7411 
 109   0.0000       6.648618       180.9181 
 110   0.0000       6.648618       180.9181 
 111   0.0000       6.765926       184.1102 
 112   0.0000       6.765927       184.1102 
 113   0.0000       6.850638       186.4153 
 114   0.0000       6.851293       186.4332 
 115   0.0000       7.123106       193.8296 
 116   0.0000       7.824057       212.9034 
 117   0.0000       8.316694       226.3087 
 118   0.0000       8.317027       226.3178 
 119   0.0000       8.529311       232.0944 
 120   0.0000       8.529311       232.0944 
 121   0.0000       8.830483       240.2897 
 122   0.0000       8.874534       241.4883 
 123   0.0000       8.874996       241.5009 
 124   0.0000       9.460581       257.4355 
 125   0.0000      13.705413       372.9433 

                 SPIN DOWN ORBITALS
  NO   OCC          E(Eh)            E(eV) 
   0   1.0000      -7.747943      -210.8323 
   1   1.0000      -0.562212       -15.2986 
   2   1.0000      -0.356825        -9.7097 
   3   0.0000       0.018573         0.5054 
   4   0.0000       0.022924         0.6238 
   5   0.0000       0.032032         0.8716 
   6   0.0000       0.050257         1.3676 
   7   0.0000       0.071539         1.9467 
   8   0.0000       0.074391         2.0243 
   9   0.0000       0.099922         2.7190 
  10   0.0000       0.121844         3.3155 
  11   0.0000       0.139410         3.7936 
  12   0.0000       0.140583         3.8254 
  13   0.0000       0.144157         3.9227 
  14   0.0000       0.144220         3.9244 
  15   0.0000       0.204280         5.5587 
  16   0.0000       0.234066         6.3692 
  17   0.0000       0.272153         7.4057 
  18   0.0000       0.272816         7.4237 
  19   0.0000       0.299363         8.1461 
  20   0.0000       0.301681         8.2092 
  21   0.0000       0.332777         9.0553 
  22   0.0000       0.377638        10.2761 
  23   0.0000       0.457978        12.4622 
  24   0.0000       0.457979        12.4622 
  25   0.0000       0.462618        12.5885 
  26   0.0000       0.462630        12.5888 
  27   0.0000       0.480712        13.0808 
  28   0.0000       0.482697        13.1349 
  29   0.0000       0.493213        13.4210 
  30   0.0000       0.493620        13.4321 
  31   0.0000       0.514920        14.0117 
  32   0.0000       0.550543        14.9810 
  33   0.0000       0.552419        15.0321 
  34   0.0000       0.584738        15.9115 
  35   0.0000       0.671639        18.2762 
  36   0.0000       0.785686        21.3796 
  37   0.0000       0.785693        21.3798 
  38   0.0000       0.798637        21.7320 
  39   0.0000       0.799366        21.7519 
  40   0.0000       0.805482        21.9183 
  41   0.0000       0.968451        26.3529 
  42   0.0000       0.969382        26.3782 
  43   0.0000       1.129443        30.7337 
  44   0.0000       1.170114        31.8404 
  45   0.0000       1.172016        31.8922 
  46   0.0000       1.285946        34.9924 
  47   0.0000       1.345488        36.6126 
  48   0.0000       1.345488        36.6126 
  49   0.0000       1.359058        36.9818 
  50   0.0000       1.361780        37.0559 
  51   0.0000       1.362343        37.0712 
  52   0.0000       1.362352        37.0715 
  53   0.0000       1.383491        37.6467 
  54   0.0000       1.383590        37.6494 
  55   0.0000       1.399158        38.0730 
  56   0.0000       1.421891        38.6916 
  57   0.0000       1.421919        38.6924 
  58   0.0000       1.433744        39.0142 
  59   0.0000       1.433749        39.0143 
  60   0.0000       1.489595        40.5339 
  61   0.0000       1.497994        40.7625 
  62   0.0000       1.502673        40.8898 
  63   0.0000       1.528160        41.5834 
  64   0.0000       1.528177        41.5838 
  65   0.0000       1.602228        43.5988 
  66   0.0000       1.746386        47.5216 
  67   0.0000       1.746386        47.5216 
  68   0.0000       1.815919        49.4137 
  69   0.0000       1.819108        49.5005 
  70   0.0000       1.954437        53.1829 
  71   0.0000       2.028046        55.1859 
  72   0.0000       2.104174        57.2575 
  73   0.0000       2.105793        57.3015 
  74   0.0000       2.130465        57.9729 
  75   0.0000       2.130485        57.9734 
  76   0.0000       2.232329        60.7448 
  77   0.0000       2.603811        70.8533 
  78   0.0000       2.603812        70.8533 
  79   0.0000       2.814389        76.5834 
  80   0.0000       2.815813        76.6222 
  81   0.0000       3.170891        86.2843 
  82   0.0000       3.177703        86.4697 
  83   0.0000       3.179542        86.5197 
  84   0.0000       3.345839        91.0449 
  85   0.0000       3.740573       101.7862 
  86   0.0000       3.745460       101.9191 
  87   0.0000       3.901075       106.1536 
  88   0.0000       3.901075       106.1536 
  89   0.0000       3.931029       106.9687 
  90   0.0000       3.931034       106.9689 
  91   0.0000       3.934499       107.0632 
  92   0.0000       3.934502       107.0632 
  93   0.0000       3.994396       108.6930 
  94   0.0000       3.998305       108.7994 
  95   0.0000       4.000818       108.8678 
  96   0.0000       4.002556       108.9151 
  97   0.0000       4.044413       110.0541 
  98   0.0000       4.064257       110.5941 
  99   0.0000       4.064260       110.5941 
 100   0.0000       4.097303       111.4933 
 101   0.0000       4.123831       112.2151 
 102   0.0000       4.124075       112.2218 
 103   0.0000       4.234643       115.2305 
 104   0.0000       4.240142       115.3801 
 105   0.0000       4.442246       120.8797 
 106   0.0000       4.447390       121.0196 
 107   0.0000       4.606159       125.3400 
 108   0.0000       4.988395       135.7411 
 109   0.0000       6.648618       180.9181 
 110   0.0000       6.648618       180.9181 
 111   0.0000       6.765926       184.1102 
 112   0.0000       6.765927       184.1102 
 113   0.0000       6.850638       186.4153 
 114   0.0000       6.851293       186.4332 
 115   0.0000       7.123106       193.8296 
 116   0.0000       7.824057       212.9034 
 117   0.0000       8.316694       226.3087 
 118   0.0000       8.317027       226.3178 
 119   0.0000       8.529311       232.0944 
 120   0.0000       8.529311       232.0944 
 121   0.0000       8.830483       240.2897 
 122   0.0000       8.874534       241.4883 
 123   0.0000       8.874996       241.5009 
 124   0.0000       9.460581       257.4355 
 125   0.0000      13.705413       372.9433 

                    ********************************
                    * MULLIKEN POPULATION ANALYSIS *
                    ********************************

--------------------------------------------
MULLIKEN ATOMIC CHARGES AND SPIN POPULATIONS
--------------------------------------------
   0 B :    0.161254   -0.000000
   1 H :   -0.161254    0.000000
Sum of atomic charges         :   -0.0000000
Sum of atomic spin populations:   -0.0000000

-----------------------------------------------------
MULLIKEN REDUCED ORBITAL CHARGES AND SPIN POPULATIONS
-----------------------------------------------------
CHARGE
  0 B s       :     3.754734  s :     3.754734
      pz      :     0.167797  p :     1.040352
      px      :     0.861400
      py      :     0.011155
      dz2     :     0.011517  d :     0.041190
      dxz     :     0.001815
      dyz     :     0.000043
      dx2y2   :     0.027693
      dxy     :     0.000121
      f0      :     0.000025  f :     0.002319
      f+1     :     0.000840
      f-1     :     0.000001
      f+2     :     0.000036
      f-2     :     0.000001
      f+3     :     0.001414
      f-3     :     0.000004
      g0      :     0.000024  g :     0.000151
      g+1     :     0.000003
      g-1     :     0.000000
      g+2     :     0.000050
      g-2     :     0.000000
      g+3     :     0.000002
      g-3     :     0.000000
      g+4     :     0.000072
      g-4     :     0.000000
  1 H s       :     1.136203  s :     1.136203
      pz      :     0.001172  p :     0.022477
      px      :     0.021227
      py      :     0.000078
      dz2     :     0.000602  d :     0.002305
      dxz     :    -0.000037
      dyz     :     0.000000
      dx2y2   :     0.001742
      dxy     :    -0.000002
      f0      :    -0.000009  f :     0.000270
      f+1     :     0.000115
      f-1     :    -0.000000
      f+2     :    -0.000016
      f-2     :     0.000000
      f+3     :     0.000183
      f-3     :    -0.000002

SPIN
  0 B s       :    -0.000000  s :    -0.000000
      pz      :     0.000000  p :     0.000000
      px      :     0.000000
      py      :     0.000000
      dz2     :    -0.000000  d :    -0.000000
      dxz     :     0.000000
      dyz     :     0.000000
      dx2y2   :    -0.000000
      dxy     :     0.000000
      f0      :     0.000000  f :    -0.000000
      f+1     :    -0.000000
      f-1     :    -0.000000
      f+2     :     0.000000
      f-2     :     0.000000
      f+3     :    -0.000000
      f-3     :     0.000000
      g0      :    -0.000000  g :    -0.000000
      g+1     :     0.000000
      g-1     :     0.000000
      g+2     :    -0.000000
      g-2     :     0.000000
      g+3     :     0.000000
      g-3     :     0.000000
      g+4     :    -0.000000
      g-4     :    -0.000000
  1 H s       :     0.000000  s :     0.000000
      pz      :    -0.000000  p :     0.000000
      px      :     0.000000
      py      :    -0.000000
      dz2     :    -0.000000  d :    -0.000000
      dxz     :    -0.000000
      dyz     :    -0.000000
      dx2y2   :    -0.000000
      dxy     :    -0.000000
      f0      :    -0.000000  f :    -0.000000
      f+1     :     0.000000
      f-1     :    -0.000000
      f+2     :    -0.000000
      f-2     :     0.000000
      f+3     :    -0.000000
      f-3     :    -0.000000


                     *******************************
                     * LOEWDIN POPULATION ANALYSIS *
                     *******************************

-------------------------------------------
LOEWDIN ATOMIC CHARGES AND SPIN POPULATIONS
-------------------------------------------
   0 B :    0.301220    0.000000
   1 H :   -0.301220   -0.000000

----------------------------------------------------
LOEWDIN REDUCED ORBITAL CHARGES AND SPIN POPULATIONS
----------------------------------------------------
CHARGE
  0 B s       :     3.408538  s :     3.408538
      pz      :     0.151123  p :     1.173085
      px      :     1.011916
      py      :     0.010046
      dz2     :     0.023151  d :     0.089734
      dxz     :     0.003897
      dyz     :     0.000042
      dx2y2   :     0.062385
      dxy     :     0.000259
      f0      :     0.000035  f :     0.021974
      f+1     :     0.008179
      f-1     :     0.000000
      f+2     :     0.000061
      f-2     :     0.000001
      f+3     :     0.013691
      f-3     :     0.000006
      g0      :     0.000763  g :     0.005448
      g+1     :     0.000003
      g-1     :     0.000000
      g+2     :     0.001698
      g-2     :     0.000000
      g+3     :     0.000003
      g-3     :     0.000000
      g+4     :     0.002981
      g-4     :     0.000000
  1 H s       :     0.988646  s :     0.988646
      pz      :     0.006909  p :     0.215522
      px      :     0.208154
      py      :     0.000459
      dz2     :     0.018788  d :     0.082824
      dxz     :     0.006428
      dyz     :     0.000001
      dx2y2   :     0.057179
      dxy     :     0.000427
      f0      :     0.000874  f :     0.014229
      f+1     :     0.004341
      f-1     :     0.000010
      f+2     :     0.001454
      f-2     :     0.000000
      f+3     :     0.007405
      f-3     :     0.000145

SPIN
  0 B s       :    -0.000000  s :    -0.000000
      pz      :     0.000000  p :     0.000000
      px      :     0.000000
      py      :     0.000000
      dz2     :    -0.000000  d :    -0.000000
      dxz     :     0.000000
      dyz     :     0.000000
      dx2y2   :    -0.000000
      dxy     :     0.000000
      f0      :    -0.000000  f :    -0.000000
      f+1     :    -0.000000
      f-1     :    -0.000000
      f+2     :    -0.000000
      f-2     :     0.000000
      f+3     :    -0.000000
      f-3     :    -0.000000
      g0      :    -0.000000  g :    -0.000000
      g+1     :     0.000000
      g-1     :     0.000000
      g+2     :    -0.000000
      g-2     :    -0.000000
      g+3     :     0.000000
      g-3     :     0.000000
      g+4     :    -0.000000
      g-4     :    -0.000000
  1 H s       :    -0.000000  s :    -0.000000
      pz      :     0.000000  p :     0.000000
      px      :     0.000000
      py      :     0.000000
      dz2     :    -0.000000  d :     0.000000
      dxz     :     0.000000
      dyz     :     0.000000
      dx2y2   :    -0.000000
      dxy     :     0.000000
      f0      :     0.000000  f :     0.000000
      f+1     :     0.000000
      f-1     :     0.000000
      f+2     :     0.000000
      f-2     :     0.000000
      f+3     :     0.000000
      f-3     :     0.000000


                      *****************************
                      * MAYER POPULATION ANALYSIS *
                      *****************************

  NA   - Mulliken gross atomic population
  ZA   - Total nuclear charge
  QA   - Mulliken gross atomic charge
  VA   - Mayer's total valence
  BVA  - Mayer's bonded valence
  FA   - Mayer's free valence

  ATOM       NA         ZA         QA         VA         BVA        FA
  0 B      4.8387     5.0000     0.1613     1.5675     0.9758     0.5918
  1 H      1.1613     1.0000    -0.1613     0.9796     0.9758     0.0038

  Mayer bond orders larger than 0.100000
B(  0-B ,  1-H ) :   0.9758 

-------
TIMINGS
-------

Total SCF time: 0 days 0 hours 0 min 11 sec 

Total time                  ....      11.838 sec
Sum of individual times     ....      11.645 sec  ( 98.4%)

Fock matrix formation       ....       5.832 sec  ( 49.3%)
Diagonalization             ....       0.154 sec  (  1.3%)
Density matrix formation    ....       0.006 sec  (  0.1%)
Population analysis         ....       0.006 sec  (  0.1%)
Initial guess               ....       0.009 sec  (  0.1%)
Orbital Transformation      ....       0.000 sec  (  0.0%)
Orbital Orthonormalization  ....       0.000 sec  (  0.0%)
DIIS solution               ....       0.103 sec  (  0.9%)
SCF Stability Analysis      ....       5.527 sec  ( 46.7%)

Maximum memory used throughout the entire SCF-calculation: 228.7 MB

-------------------------   --------------------
FINAL SINGLE POINT ENERGY       -25.077156014851
-------------------------   --------------------


                            ***************************************
                            *     ORCA property calculations      *
                            ***************************************

                                    ---------------------
                                    Active property flags
                                    ---------------------
   (+) Dipole Moment


------------------------------------------------------------------------------
                       ORCA ELECTRIC PROPERTIES CALCULATION
------------------------------------------------------------------------------

Dipole Moment Calculation                       ... on
Quadrupole Moment Calculation                   ... off
Polarizability Calculation                      ... off
GBWName                                         ... /scratch/BH-1.8-UHF-O_686/BH-1.8-UHF-O.gbw
Electron density file                           ... /scratch/BH-1.8-UHF-O_686/BH-1.8-UHF-O.scfp
The origin for moment calculation is the CENTER OF MASS  = ( 0.290127,  0.000000  0.000000)

-------------
DIPOLE MOMENT
-------------
                                X             Y             Z
Electronic contribution:     -1.88359       0.00000       0.00000
Nuclear contribution   :      1.66075       0.00000       0.00000
                        -----------------------------------------
Total Dipole Moment    :     -0.22284       0.00000       0.00000
                        -----------------------------------------
Magnitude (a.u.)       :      0.22284
Magnitude (Debye)      :      0.56641



--------------------
Rotational spectrum 
--------------------
 
Rotational constants in cm-1:     0.000000     5.642995     5.642995 
Rotational constants in MHz :     0.000000 169172.728284 169172.728284 

 Dipole components along the rotational axes: 
x,y,z [a.u.] :    -0.222840     0.000000     0.000000 
x,y,z [Debye]:    -0.566414     0.000000     0.000000 

 
--------------------------------------------------------------------------
WARNING: There was an error initializing an OpenFabrics device.

  Local host:   cnode01
  Local device: mlx5_0
--------------------------------------------------------------------------
[cnode01:364194] 7 more processes have sent help message help-mpi-btl-openib.txt / error in device init
[cnode01:364194] Set MCA parameter "orte_base_help_aggregate" to 0 to see all help / error messages

Timings for individual modules:

Sum of individual times         ...       12.740 sec (=   0.212 min)
GTO integral calculation        ...        0.517 sec (=   0.009 min)   4.1 %
SCF iterations                  ...       12.223 sec (=   0.204 min)  95.9 %
                             ****ORCA TERMINATED NORMALLY****
TOTAL RUN TIME: 0 days 0 hours 0 minutes 13 seconds 177 msec

Sender: Unischeduler System <lcz@mgt01>
Subject: Job 134278: <#!/bin/bash
#BSUB -J intel
#BSUB -o BH-1.8-UHF-O.out
#BSUB -n 8
#BSUB -q cqueue
export LD_LIBRARY_PATH=/apps/software/openmpi-4.1.1/lib:/apps/software/orca_5_0_0:$LD_LIBRARY_PATH
export PATH=/apps/software/openmpi-4.1.1/bin:/apps/software/orca_5_0_0:$PATH
mkdir /scratch/BH-1.8-UHF-O_686
scp $USER@mgt01:/apps/users/lcz/exe13/UCCSD/BH-1.8-UHF-O.inp /scratch/BH-1.8-UHF-O_686
/apps/software/orca_5_0_0/orca /scratch/BH-1.8-UHF-O_686/BH-1.8-UHF-O.inp >& BH-1.8-UHF-O.out
scp /scratch/BH-1.8-UHF-O_686/*.gbw $USER@mgt01:/apps/users/lcz/exe13/UCCSD
scp /scratch/BH-1.8-UHF-O_686/*.xyz $USER@mgt01:/apps/users/lcz/exe13/UCCSD
scp /scratch/BH-1.8-UHF-O_686/*.trj $USER@mgt01:/apps/users/lcz/exe13/UCCSD> Exited

Job <#!/bin/bash
#BSUB -J intel
#BSUB -o BH-1.8-UHF-O.out
#BSUB -n 8
#BSUB -q cqueue
export LD_LIBRARY_PATH=/apps/software/openmpi-4.1.1/lib:/apps/software/orca_5_0_0:$LD_LIBRARY_PATH
export PATH=/apps/software/openmpi-4.1.1/bin:/apps/software/orca_5_0_0:$PATH
mkdir /scratch/BH-1.8-UHF-O_686
scp $USER@mgt01:/apps/users/lcz/exe13/UCCSD/BH-1.8-UHF-O.inp /scratch/BH-1.8-UHF-O_686
/apps/software/orca_5_0_0/orca /scratch/BH-1.8-UHF-O_686/BH-1.8-UHF-O.inp >& BH-1.8-UHF-O.out
scp /scratch/BH-1.8-UHF-O_686/*.gbw $USER@mgt01:/apps/users/lcz/exe13/UCCSD
scp /scratch/BH-1.8-UHF-O_686/*.xyz $USER@mgt01:/apps/users/lcz/exe13/UCCSD
scp /scratch/BH-1.8-UHF-O_686/*.trj $USER@mgt01:/apps/users/lcz/exe13/UCCSD> was submitted from host <mgt01> by user <lcz>.
Job was executed on host(s) <8*cnode01>, in queue <cqueue>, as user <lcz>.
</apps/users/lcz> was used as the home directory.
</apps/users/lcz/exe13/UCCSD> was used as the working directory.
Started at 2022-05-22 20:30:29
Results reported at 2022-05-22 20:30:43

Your job looked like:

------------------------------------------------------------
# User input
#!/bin/bash
#BSUB -J intel
#BSUB -o BH-1.8-UHF-O.out
#BSUB -n 8
#BSUB -q cqueue
export LD_LIBRARY_PATH=/apps/software/openmpi-4.1.1/lib:/apps/software/orca_5_0_0:$LD_LIBRARY_PATH
export PATH=/apps/software/openmpi-4.1.1/bin:/apps/software/orca_5_0_0:$PATH
mkdir /scratch/BH-1.8-UHF-O_686
scp $USER@mgt01:/apps/users/lcz/exe13/UCCSD/BH-1.8-UHF-O.inp /scratch/BH-1.8-UHF-O_686
/apps/software/orca_5_0_0/orca /scratch/BH-1.8-UHF-O_686/BH-1.8-UHF-O.inp >& BH-1.8-UHF-O.out
scp /scratch/BH-1.8-UHF-O_686/*.gbw $USER@mgt01:/apps/users/lcz/exe13/UCCSD
scp /scratch/BH-1.8-UHF-O_686/*.xyz $USER@mgt01:/apps/users/lcz/exe13/UCCSD
scp /scratch/BH-1.8-UHF-O_686/*.trj $USER@mgt01:/apps/users/lcz/exe13/UCCSD
------------------------------------------------------------

Exited with exit code 1.

Resource usage summary:

    CPU time   :           88.64 sec.
    Max Memory :              1020 MB
    Max Processes  :              13


The output (if any) follows:

/scratch/BH-1.8-UHF-O_686/*.xyz: No such file or directory
/scratch/BH-1.8-UHF-O_686/*.trj: No such file or directory
