 Entering Gaussian System, Link 0=/apps/software/g16/g16
 Initial command:
 /apps/software/g16/l1.exe "/scratch/Gau-283800.inp" -scrdir="/scratch/"
 Entering Link 1 = /apps/software/g16/l1.exe PID=    283802.
  
 Copyright (c) 1988,1990,1992,1993,1995,1998,2003,2009,2016,
            Gaussian, Inc.  All Rights Reserved.
  
 This is part of the Gaussian(R) 16 program.  It is based on
 the Gaussian(R) 09 system (copyright 2009, Gaussian, Inc.),
 the Gaussian(R) 03 system (copyright 2003, Gaussian, Inc.),
 the Gaussian(R) 98 system (copyright 1998, Gaussian, Inc.),
 the Gaussian(R) 94 system (copyright 1995, Gaussian, Inc.),
 the Gaussian 92(TM) system (copyright 1992, Gaussian, Inc.),
 the Gaussian 90(TM) system (copyright 1990, Gaussian, Inc.),
 the Gaussian 88(TM) system (copyright 1988, Gaussian, Inc.),
 the Gaussian 86(TM) system (copyright 1986, Carnegie Mellon
 University), and the Gaussian 82(TM) system (copyright 1983,
 Carnegie Mellon University). Gaussian is a federally registered
 trademark of Gaussian, Inc.
  
 This software contains proprietary and confidential information,
 including trade secrets, belonging to Gaussian, Inc.
  
 This software is provided under written license and may be
 used, copied, transmitted, or stored only in accord with that
 written license.
  
 The following legend is applicable only to US Government
 contracts under FAR:
  
                    RESTRICTED RIGHTS LEGEND
  
 Use, reproduction and disclosure by the US Government is
 subject to restrictions as set forth in subparagraphs (a)
 and (c) of the Commercial Computer Software - Restricted
 Rights clause in FAR 52.227-19.
  
 Gaussian, Inc.
 340 Quinnipiac St., Bldg. 40, Wallingford CT 06492
  
  
 ---------------------------------------------------------------
 Warning -- This program may not be used in any manner that
 competes with the business of Gaussian, Inc. or will provide
 assistance to any competitor of Gaussian, Inc.  The licensee
 of this program is prohibited from giving any competitor of
 Gaussian, Inc. access to this program.  By using this program,
 the user acknowledges that Gaussian, Inc. is engaged in the
 business of creating and licensing software in the field of
 computational chemistry and represents and warrants to the
 licensee that it is not a competitor of Gaussian, Inc. and that
 it will not use this program in any manner prohibited above.
 ---------------------------------------------------------------
  

 Cite this work as:
 Gaussian 16, Revision A.03,
 M. J. Frisch, G. W. Trucks, H. B. Schlegel, G. E. Scuseria, 
 M. A. Robb, J. R. Cheeseman, G. Scalmani, V. Barone, 
 G. A. Petersson, H. Nakatsuji, X. Li, M. Caricato, A. V. Marenich, 
 J. Bloino, B. G. Janesko, R. Gomperts, B. Mennucci, H. P. Hratchian, 
 J. V. Ortiz, A. F. Izmaylov, J. L. Sonnenberg, D. Williams-Young, 
 F. Ding, F. Lipparini, F. Egidi, J. Goings, B. Peng, A. Petrone, 
 T. Henderson, D. Ranasinghe, V. G. Zakrzewski, J. Gao, N. Rega, 
 G. Zheng, W. Liang, M. Hada, M. Ehara, K. Toyota, R. Fukuda, 
 J. Hasegawa, M. Ishida, T. Nakajima, Y. Honda, O. Kitao, H. Nakai, 
 T. Vreven, K. Throssell, J. A. Montgomery, Jr., J. E. Peralta, 
 F. Ogliaro, M. J. Bearpark, J. J. Heyd, E. N. Brothers, K. N. Kudin, 
 V. N. Staroverov, T. A. Keith, R. Kobayashi, J. Normand, 
 K. Raghavachari, A. P. Rendell, J. C. Burant, S. S. Iyengar, 
 J. Tomasi, M. Cossi, J. M. Millam, M. Klene, C. Adamo, R. Cammi, 
 J. W. Ochterski, R. L. Martin, K. Morokuma, O. Farkas, 
 J. B. Foresman, and D. J. Fox, Gaussian, Inc., Wallingford CT, 2016.
 
 ******************************************
 Gaussian 16:  ES64L-G16RevA.03 25-Dec-2016
                22-May-2022 
 ******************************************
 %chk=BH-1.2-UHF-G.chk
 ---------------------------------------
 #p UHF/aug-cc-pVQZ guess=mix stable=opt
 ---------------------------------------
 1/38=1,172=1/1;
 2/12=2,17=6,18=5,40=1/2;
 3/5=16,6=2,7=10,11=2,25=1,30=1,116=2/1,2,3;
 4/13=-1/1;
 5/5=2,38=5/2;
 6/7=2,8=2,9=2,10=2,28=1/1;
 8/6=1,10=90,11=11/1;
 9/8=-3,42=1,46=1/14;
 5/5=2,8=3,17=40,38=5/8(-2);
 6/7=2,8=2,9=2,10=2,28=1/1;
 99/5=1,9=1/99;
 Leave Link    1 at Sun May 22 18:34:24 2022, MaxMem=           0 cpu:               0.0 elap:               0.0
 (Enter /apps/software/g16/l101.exe)
 ----------------------
 BH UHF at 1.2 Angstrom
 ----------------------
 Symbolic Z-matrix:
 Charge =  0 Multiplicity = 1
 B                     0.        0.        0. 
 H                     1.2       0.        0. 
 
 ITRead=  0  0
 MicOpt= -1 -1
 NAtoms=      2 NQM=        2 NQMF=       0 NMMI=      0 NMMIF=      0
                NMic=       0 NMicF=      0.
                    Isotopes and Nuclear Properties:
 (Nuclear quadrupole moments (NQMom) in fm**2, nuclear magnetic moments (NMagM)
  in nuclear magnetons)

  Atom         1           2
 IAtWgt=          11           1
 AtmWgt=  11.0093053   1.0078250
 NucSpn=           3           1
 AtZEff=  -0.0000000  -0.0000000
 NQMom=    4.0590000   0.0000000
 NMagM=    2.6886370   2.7928460
 AtZNuc=   5.0000000   1.0000000
 Leave Link  101 at Sun May 22 18:34:24 2022, MaxMem=   104857600 cpu:               0.1 elap:               0.1
 (Enter /apps/software/g16/l202.exe)
                          Input orientation:                          
 ---------------------------------------------------------------------
 Center     Atomic      Atomic             Coordinates (Angstroms)
 Number     Number       Type             X           Y           Z
 ---------------------------------------------------------------------
      1          5           0        0.000000    0.000000    0.000000
      2          1           0        1.200000    0.000000    0.000000
 ---------------------------------------------------------------------
 Stoichiometry    BH
 Framework group  C*V[C*(HB)]
 Deg. of freedom     1
 Full point group                 C*V     NOp   4
 Largest Abelian subgroup         C2V     NOp   4
 Largest concise Abelian subgroup C1      NOp   1
                         Standard orientation:                         
 ---------------------------------------------------------------------
 Center     Atomic      Atomic             Coordinates (Angstroms)
 Number     Number       Type             X           Y           Z
 ---------------------------------------------------------------------
      1          5           0        0.000000    0.000000    0.200000
      2          1           0        0.000000    0.000000   -1.000000
 ---------------------------------------------------------------------
 Rotational constants (GHZ):           0.0000000         380.1109849         380.1109849
 Leave Link  202 at Sun May 22 18:34:24 2022, MaxMem=   104857600 cpu:               0.0 elap:               0.0
 (Enter /apps/software/g16/l301.exe)
 Standard basis: Aug-CC-pVQZ (5D, 7F)
 Ernie: Thresh=  0.10000D-02 Tol=  0.10000D-05 Strict=F.
 Ernie:  4 primitive shells out of 54 were deleted.
 There are    68 symmetry adapted cartesian basis functions of A1  symmetry.
 There are    18 symmetry adapted cartesian basis functions of A2  symmetry.
 There are    37 symmetry adapted cartesian basis functions of B1  symmetry.
 There are    37 symmetry adapted cartesian basis functions of B2  symmetry.
 There are    50 symmetry adapted basis functions of A1  symmetry.
 There are    16 symmetry adapted basis functions of A2  symmetry.
 There are    30 symmetry adapted basis functions of B1  symmetry.
 There are    30 symmetry adapted basis functions of B2  symmetry.
   126 basis functions,   180 primitive gaussians,   160 cartesian basis functions
     3 alpha electrons        3 beta electrons
       nuclear repulsion energy         2.2049050455 Hartrees.
 IExCor=    0 DFT=F Ex=HF Corr=None ExCW=0 ScaHFX=  1.000000
 ScaDFX=  1.000000  1.000000  1.000000  1.000000 ScalE2=  1.000000  1.000000
 IRadAn=      5 IRanWt=     -1 IRanGd=            0 ICorTp=0 IEmpDi=  4
 NAtoms=    2 NActive=    2 NUniq=    2 SFac= 1.00D+00 NAtFMM=   60 NAOKFM=F Big=F
 Integral buffers will be    131072 words long.
 Raffenetti 2 integral format.
 Two-electron integral symmetry is turned on.
 Leave Link  301 at Sun May 22 18:34:24 2022, MaxMem=   104857600 cpu:               0.1 elap:               0.1
 (Enter /apps/software/g16/l302.exe)
 NPDir=0 NMtPBC=     1 NCelOv=     1 NCel=       1 NClECP=     1 NCelD=      1
         NCelK=      1 NCelE2=     1 NClLst=     1 CellRange=     0.0.
 One-electron integrals computed using PRISM.
 One-electron integral symmetry used in STVInt
 NBasis=   126 RedAO= T EigKep=  1.08D-04  NBF=    50    16    30    30
 NBsUse=   126 1.00D-06 EigRej= -1.00D+00 NBFU=    50    16    30    30
 Leave Link  302 at Sun May 22 18:34:24 2022, MaxMem=   104857600 cpu:               0.1 elap:               0.1
 (Enter /apps/software/g16/l303.exe)
 DipDrv:  MaxL=1.
 Leave Link  303 at Sun May 22 18:34:24 2022, MaxMem=   104857600 cpu:               0.0 elap:               0.0
 (Enter /apps/software/g16/l401.exe)
 ExpMin= 1.88D-02 ExpMax= 2.39D+04 ExpMxC= 2.30D+02 IAcc=3 IRadAn=         5 AccDes= 0.00D+00
 Harris functional with IExCor=  205 and IRadAn=       5 diagonalized for initial guess.
 HarFok:  IExCor=  205 AccDes= 0.00D+00 IRadAn=         5 IDoV= 1 UseB2=F ITyADJ=14
 ICtDFT=  3500011 ScaDFX=  1.000000  1.000000  1.000000  1.000000
 FoFCou: FMM=F IPFlag=           0 FMFlag=      100000 FMFlg1=           0
         NFxFlg=           0 DoJE=T BraDBF=F KetDBF=T FulRan=T
         wScrn=  0.000000 ICntrl=       500 IOpCl=  0 I1Cent=   200000004 NGrid=           0
         NMat0=    1 NMatS0=      1 NMatT0=    0 NMatD0=    1 NMtDS0=    0 NMtDT0=    0
 Petite list used in FoFCou.
 Harris En= -25.1048668374777    
 JPrj=0 DoOrth=F DoCkMO=T.
 Mixing orbitals, IMix= 1 IMixAn=  0 NRI=1 NE=    3 Coef=  7.07106781D-01  7.07106781D-01
 Mixing orbitals, IMix= 1 IMixAn=  0 NRI=1 NE=    3 Coef= -7.07106781D-01  7.07106781D-01
 Initial guess orbital symmetries:
 Alpha Orbitals:
       Occupied  (SG) (SG) (?A)
       Virtual   (?A) (?A) (SG) (SG) (PI) (PI) (SG) (PI) (PI) (SG)
                 (DLTA) (DLTA) (SG) (PI) (PI) (SG) (PI) (PI) (SG)
                 (SG) (PI) (PI) (DLTA) (DLTA) (DLTA) (DLTA) (PHI)
                 (PHI) (SG) (SG) (PI) (PI) (SG) (PI) (PI) (SG)
                 (DLTA) (DLTA) (PI) (PI) (SG) (PI) (PI) (SG) (DLTA)
                 (DLTA) (PHI) (PHI) (?B) (?B) (SG) (PI) (PI) (DLTA)
                 (DLTA) (PHI) (PHI) (SG) (PI) (PI) (DLTA) (DLTA)
                 (SG) (PI) (PI) (SG) (PHI) (PHI) (DLTA) (DLTA)
                 (PI) (PI) (SG) (SG) (PI) (PI) (DLTA) (DLTA) (PI)
                 (PI) (SG) (SG) (PI) (PI) (PHI) (PHI) (DLTA) (DLTA)
                 (?B) (?B) (DLTA) (DLTA) (PHI) (PHI) (SG) (PI)
                 (PI) (PI) (PI) (DLTA) (DLTA) (SG) (SG) (PI) (PI)
                 (SG) (PHI) (PHI) (DLTA) (DLTA) (SG) (PI) (PI)
                 (SG) (DLTA) (DLTA) (PI) (PI) (PI) (PI) (SG) (SG)
                 (SG)
 Beta  Orbitals:
       Occupied  (SG) (SG) (?A)
       Virtual   (?A) (?A) (SG) (SG) (PI) (PI) (SG) (PI) (PI) (SG)
                 (DLTA) (DLTA) (SG) (PI) (PI) (SG) (PI) (PI) (SG)
                 (SG) (PI) (PI) (DLTA) (DLTA) (DLTA) (DLTA) (PHI)
                 (PHI) (SG) (SG) (PI) (PI) (SG) (PI) (PI) (SG)
                 (DLTA) (DLTA) (PI) (PI) (SG) (PI) (PI) (SG) (DLTA)
                 (DLTA) (PHI) (PHI) (?B) (?B) (SG) (PI) (PI) (DLTA)
                 (DLTA) (PHI) (PHI) (SG) (PI) (PI) (DLTA) (DLTA)
                 (SG) (PI) (PI) (SG) (PHI) (PHI) (DLTA) (DLTA)
                 (PI) (PI) (SG) (SG) (PI) (PI) (DLTA) (DLTA) (PI)
                 (PI) (SG) (SG) (PI) (PI) (PHI) (PHI) (DLTA) (DLTA)
                 (?B) (?B) (DLTA) (DLTA) (PHI) (PHI) (SG) (PI)
                 (PI) (PI) (PI) (DLTA) (DLTA) (SG) (SG) (PI) (PI)
                 (SG) (PHI) (PHI) (DLTA) (DLTA) (SG) (PI) (PI)
                 (SG) (DLTA) (DLTA) (PI) (PI) (PI) (PI) (SG) (SG)
                 (SG)
 Initial guess <Sx>= 0.0000 <Sy>= 0.0000 <Sz>= 0.0000 <S**2>= 1.0000 S= 0.6180
 Leave Link  401 at Sun May 22 18:34:24 2022, MaxMem=   104857600 cpu:               0.2 elap:               0.2
 (Enter /apps/software/g16/l502.exe)
 Keep R1 and R2 ints in memory in symmetry-blocked form, NReq=40143665.
 FoFCou: FMM=F IPFlag=           0 FMFlag=           0 FMFlg1=           0
         NFxFlg=           0 DoJE=F BraDBF=F KetDBF=F FulRan=T
         wScrn=  0.000000 ICntrl=       600 IOpCl=  0 I1Cent=           0 NGrid=           0
         NMat0=    1 NMatS0=   8001 NMatT0=    0 NMatD0=    1 NMtDS0=    0 NMtDT0=    0
 Petite list used in FoFCou.
 UHF open shell SCF:
 Using DIIS extrapolation, IDIIS=  1040.
 NGot=   104857600 LenX=    88563632 LenY=    88537591
 Requested convergence on RMS density matrix=1.00D-08 within 128 cycles.
 Requested convergence on MAX density matrix=1.00D-06.
 Requested convergence on             energy=1.00D-06.
 No special actions if energy rises.
 An orbital has undefined symmetry, so N**3 symmetry is turned off.

 Cycle   1  Pass 1  IDiag  1:
 Density matrix breaks symmetry, PCut= 1.00D-07
 Density matrix has no symmetry -- integrals replicated.
 E= -25.0718081482982    
 DIIS: error= 2.20D-02 at cycle   1 NSaved=   1.
 NSaved= 1 IEnMin= 1 EnMin= -25.0718081482982     IErMin= 1 ErrMin= 2.20D-02
 ErrMax= 2.20D-02  0.00D+00 EMaxC= 1.00D-01 BMatC= 1.80D-01 BMatP= 1.80D-01
 IDIUse=3 WtCom= 7.80D-01 WtEn= 2.20D-01
 Coeff-Com:  0.100D+01
 Coeff-En:   0.100D+01
 Coeff:      0.100D+01
 Gap=     0.445 Goal=   None    Shift=    0.000
 Gap=     0.445 Goal=   None    Shift=    0.000
 GapD=    0.445 DampG=2.000 DampE=0.500 DampFc=1.0000 IDamp=-1.
 RMSDP=1.05D-03 MaxDP=3.67D-02              OVMax= 1.48D-01

 Cycle   2  Pass 1  IDiag  1:
 Density matrix breaks symmetry, PCut= 1.00D-07
 Density matrix has no symmetry -- integrals replicated.
 E= -25.1184381275124     Delta-E=       -0.046629979214 Rises=F Damp=F
 DIIS: error= 1.11D-02 at cycle   2 NSaved=   2.
 NSaved= 2 IEnMin= 2 EnMin= -25.1184381275124     IErMin= 2 ErrMin= 1.11D-02
 ErrMax= 1.11D-02  0.00D+00 EMaxC= 1.00D-01 BMatC= 9.99D-03 BMatP= 1.80D-01
 IDIUse=3 WtCom= 8.89D-01 WtEn= 1.11D-01
 Coeff-Com: -0.990D-01 0.110D+01
 Coeff-En:   0.000D+00 0.100D+01
 Coeff:     -0.880D-01 0.109D+01
 Gap=     0.407 Goal=   None    Shift=    0.000
 Gap=     0.407 Goal=   None    Shift=    0.000
 RMSDP=5.51D-04 MaxDP=2.05D-02 DE=-4.66D-02 OVMax= 8.72D-02

 Cycle   3  Pass 1  IDiag  1:
 Density matrix breaks symmetry, PCut= 1.00D-07
 Density matrix has no symmetry -- integrals replicated.
 E= -25.1300387673908     Delta-E=       -0.011600639878 Rises=F Damp=F
 DIIS: error= 6.68D-03 at cycle   3 NSaved=   3.
 NSaved= 3 IEnMin= 3 EnMin= -25.1300387673908     IErMin= 3 ErrMin= 6.68D-03
 ErrMax= 6.68D-03  0.00D+00 EMaxC= 1.00D-01 BMatC= 2.61D-03 BMatP= 9.99D-03
 IDIUse=3 WtCom= 9.33D-01 WtEn= 6.68D-02
 Coeff-Com:  0.503D-01-0.777D+00 0.173D+01
 Coeff-En:   0.000D+00 0.000D+00 0.100D+01
 Coeff:      0.470D-01-0.725D+00 0.168D+01
 Gap=     0.406 Goal=   None    Shift=    0.000
 Gap=     0.406 Goal=   None    Shift=    0.000
 RMSDP=4.62D-04 MaxDP=1.40D-02 DE=-1.16D-02 OVMax= 8.01D-02

 Cycle   4  Pass 1  IDiag  1:
 Density matrix breaks symmetry, PCut= 1.00D-07
 Density matrix has no symmetry -- integrals replicated.
 E= -25.1355613527441     Delta-E=       -0.005522585353 Rises=F Damp=F
 DIIS: error= 2.95D-03 at cycle   4 NSaved=   4.
 NSaved= 4 IEnMin= 4 EnMin= -25.1355613527441     IErMin= 4 ErrMin= 2.95D-03
 ErrMax= 2.95D-03  0.00D+00 EMaxC= 1.00D-01 BMatC= 6.92D-04 BMatP= 2.61D-03
 IDIUse=3 WtCom= 9.71D-01 WtEn= 2.95D-02
 Coeff-Com: -0.364D-01 0.757D+00-0.214D+01 0.242D+01
 Coeff-En:   0.000D+00 0.000D+00 0.000D+00 0.100D+01
 Coeff:     -0.353D-01 0.734D+00-0.208D+01 0.238D+01
 Gap=     0.399 Goal=   None    Shift=    0.000
 Gap=     0.399 Goal=   None    Shift=    0.000
 RMSDP=3.66D-04 MaxDP=1.20D-02 DE=-5.52D-03 OVMax= 6.52D-02

 Cycle   5  Pass 1  IDiag  1:
 Density matrix breaks symmetry, PCut= 1.00D-07
 Density matrix has no symmetry -- integrals replicated.
 E= -25.1376357157492     Delta-E=       -0.002074363005 Rises=F Damp=F
 DIIS: error= 8.31D-04 at cycle   5 NSaved=   5.
 NSaved= 5 IEnMin= 5 EnMin= -25.1376357157492     IErMin= 5 ErrMin= 8.31D-04
 ErrMax= 8.31D-04  0.00D+00 EMaxC= 1.00D-01 BMatC= 1.06D-04 BMatP= 6.92D-04
 IDIUse=3 WtCom= 9.92D-01 WtEn= 8.31D-03
 Coeff-Com:  0.839D-02-0.201D+00 0.657D+00-0.132D+01 0.185D+01
 Coeff-En:   0.000D+00 0.000D+00 0.000D+00 0.000D+00 0.100D+01
 Coeff:      0.832D-02-0.199D+00 0.651D+00-0.130D+01 0.184D+01
 Gap=     0.397 Goal=   None    Shift=    0.000
 Gap=     0.397 Goal=   None    Shift=    0.000
 RMSDP=2.01D-04 MaxDP=6.34D-03 DE=-2.07D-03 OVMax= 3.45D-02

 Cycle   6  Pass 1  IDiag  1:
 Density matrix breaks symmetry, PCut= 1.00D-07
 Density matrix has no symmetry -- integrals replicated.
 E= -25.1379906768374     Delta-E=       -0.000354961088 Rises=F Damp=F
 DIIS: error= 3.10D-04 at cycle   6 NSaved=   6.
 NSaved= 6 IEnMin= 6 EnMin= -25.1379906768374     IErMin= 6 ErrMin= 3.10D-04
 ErrMax= 3.10D-04  0.00D+00 EMaxC= 1.00D-01 BMatC= 8.44D-06 BMatP= 1.06D-04
 IDIUse=3 WtCom= 9.97D-01 WtEn= 3.10D-03
 Coeff-Com: -0.330D-02 0.740D-01-0.239D+00 0.492D+00-0.899D+00 0.158D+01
 Coeff-En:   0.000D+00 0.000D+00 0.000D+00 0.000D+00 0.000D+00 0.100D+01
 Coeff:     -0.329D-02 0.738D-01-0.239D+00 0.491D+00-0.897D+00 0.157D+01
 Gap=     0.396 Goal=   None    Shift=    0.000
 Gap=     0.396 Goal=   None    Shift=    0.000
 RMSDP=4.78D-05 MaxDP=1.68D-03 DE=-3.55D-04 OVMax= 7.38D-03

 Cycle   7  Pass 1  IDiag  1:
 Density matrix breaks symmetry, PCut= 1.00D-07
 Density matrix has no symmetry -- integrals replicated.
 E= -25.1380119183393     Delta-E=       -0.000021241502 Rises=F Damp=F
 DIIS: error= 2.47D-04 at cycle   7 NSaved=   7.
 NSaved= 7 IEnMin= 7 EnMin= -25.1380119183393     IErMin= 7 ErrMin= 2.47D-04
 ErrMax= 2.47D-04  0.00D+00 EMaxC= 1.00D-01 BMatC= 1.95D-06 BMatP= 8.44D-06
 IDIUse=3 WtCom= 9.98D-01 WtEn= 2.47D-03
 Coeff-Com: -0.280D-03 0.766D-02-0.436D-01 0.907D-01-0.419D-02-0.808D+00
 Coeff-Com:  0.176D+01
 Coeff-En:   0.000D+00 0.000D+00 0.000D+00 0.000D+00 0.000D+00 0.000D+00
 Coeff-En:   0.100D+01
 Coeff:     -0.280D-03 0.764D-02-0.435D-01 0.904D-01-0.418D-02-0.806D+00
 Coeff:      0.176D+01
 Gap=     0.396 Goal=   None    Shift=    0.000
 Gap=     0.396 Goal=   None    Shift=    0.000
 RMSDP=1.83D-05 MaxDP=6.81D-04 DE=-2.12D-05 OVMax= 2.48D-03

 Cycle   8  Pass 1  IDiag  1:
 Density matrix breaks symmetry, PCut= 1.00D-07
 Density matrix has no symmetry -- integrals replicated.
 E= -25.1380155758510     Delta-E=       -0.000003657512 Rises=F Damp=F
 DIIS: error= 6.77D-05 at cycle   8 NSaved=   8.
 NSaved= 8 IEnMin= 8 EnMin= -25.1380155758510     IErMin= 8 ErrMin= 6.77D-05
 ErrMax= 6.77D-05  0.00D+00 EMaxC= 1.00D-01 BMatC= 1.64D-07 BMatP= 1.95D-06
 IDIUse=1 WtCom= 1.00D+00 WtEn= 0.00D+00
 Coeff-Com:  0.780D-03-0.150D-01 0.519D-01-0.959D-01 0.112D+00 0.123D+00
 Coeff-Com: -0.713D+00 0.154D+01
 Coeff:      0.780D-03-0.150D-01 0.519D-01-0.959D-01 0.112D+00 0.123D+00
 Coeff:     -0.713D+00 0.154D+01
 Gap=     0.396 Goal=   None    Shift=    0.000
 Gap=     0.396 Goal=   None    Shift=    0.000
 RMSDP=3.02D-06 MaxDP=8.68D-05 DE=-3.66D-06 OVMax= 5.44D-04

 Cycle   9  Pass 1  IDiag  1:
 Density matrix breaks symmetry, PCut= 1.00D-07
 Density matrix has no symmetry -- integrals replicated.
 E= -25.1380158127852     Delta-E=       -0.000000236934 Rises=F Damp=F
 DIIS: error= 5.18D-06 at cycle   9 NSaved=   9.
 NSaved= 9 IEnMin= 9 EnMin= -25.1380158127852     IErMin= 9 ErrMin= 5.18D-06
 ErrMax= 5.18D-06  0.00D+00 EMaxC= 1.00D-01 BMatC= 5.11D-09 BMatP= 1.64D-07
 IDIUse=1 WtCom= 1.00D+00 WtEn= 0.00D+00
 Coeff-Com: -0.193D-03 0.367D-02-0.130D-01 0.246D-01-0.339D-01-0.214D-01
 Coeff-Com:  0.191D+00-0.566D+00 0.141D+01
 Coeff:     -0.193D-03 0.367D-02-0.130D-01 0.246D-01-0.339D-01-0.214D-01
 Coeff:      0.191D+00-0.566D+00 0.141D+01
 Gap=     0.396 Goal=   None    Shift=    0.000
 Gap=     0.396 Goal=   None    Shift=    0.000
 RMSDP=1.03D-06 MaxDP=3.54D-05 DE=-2.37D-07 OVMax= 1.22D-04

 Cycle  10  Pass 1  IDiag  1:
 Density matrix breaks symmetry, PCut= 1.00D-07
 Density matrix has no symmetry -- integrals replicated.
 E= -25.1380158207628     Delta-E=       -0.000000007978 Rises=F Damp=F
 DIIS: error= 9.31D-07 at cycle  10 NSaved=  10.
 NSaved=10 IEnMin=10 EnMin= -25.1380158207628     IErMin=10 ErrMin= 9.31D-07
 ErrMax= 9.31D-07  0.00D+00 EMaxC= 1.00D-01 BMatC= 1.35D-10 BMatP= 5.11D-09
 IDIUse=1 WtCom= 1.00D+00 WtEn= 0.00D+00
 Coeff-Com:  0.509D-04-0.951D-03 0.328D-02-0.618D-02 0.897D-02 0.487D-02
 Coeff-Com: -0.470D-01 0.148D+00-0.486D+00 0.137D+01
 Coeff:      0.509D-04-0.951D-03 0.328D-02-0.618D-02 0.897D-02 0.487D-02
 Coeff:     -0.470D-01 0.148D+00-0.486D+00 0.137D+01
 Gap=     0.396 Goal=   None    Shift=    0.000
 Gap=     0.396 Goal=   None    Shift=    0.000
 RMSDP=1.63D-07 MaxDP=7.12D-06 DE=-7.98D-09 OVMax= 1.28D-05

 Cycle  11  Pass 1  IDiag  1:
 Density matrix breaks symmetry, PCut= 1.00D-07
 Density matrix has no symmetry -- integrals replicated.
 E= -25.1380158209242     Delta-E=       -0.000000000161 Rises=F Damp=F
 DIIS: error= 1.60D-07 at cycle  11 NSaved=  11.
 NSaved=11 IEnMin=11 EnMin= -25.1380158209242     IErMin=11 ErrMin= 1.60D-07
 ErrMax= 1.60D-07  0.00D+00 EMaxC= 1.00D-01 BMatC= 4.60D-12 BMatP= 1.35D-10
 IDIUse=1 WtCom= 1.00D+00 WtEn= 0.00D+00
 Coeff-Com: -0.103D-04 0.183D-03-0.616D-03 0.113D-02-0.171D-02-0.146D-02
 Coeff-Com:  0.104D-01-0.330D-01 0.123D+00-0.479D+00 0.138D+01
 Coeff:     -0.103D-04 0.183D-03-0.616D-03 0.113D-02-0.171D-02-0.146D-02
 Coeff:      0.104D-01-0.330D-01 0.123D+00-0.479D+00 0.138D+01
 Gap=     0.396 Goal=   None    Shift=    0.000
 Gap=     0.396 Goal=   None    Shift=    0.000
 RMSDP=3.28D-08 MaxDP=1.10D-06 DE=-1.61D-10 OVMax= 3.97D-06

 Cycle  12  Pass 1  IDiag  1:
 Density matrix breaks symmetry, PCut= 1.00D-07
 Density matrix has no symmetry -- integrals replicated.
 E= -25.1380158209310     Delta-E=       -0.000000000007 Rises=F Damp=F
 DIIS: error= 3.44D-08 at cycle  12 NSaved=  12.
 NSaved=12 IEnMin=12 EnMin= -25.1380158209310     IErMin=12 ErrMin= 3.44D-08
 ErrMax= 3.44D-08  0.00D+00 EMaxC= 1.00D-01 BMatC= 1.27D-13 BMatP= 4.60D-12
 IDIUse=1 WtCom= 1.00D+00 WtEn= 0.00D+00
 Coeff-Com:  0.154D-05-0.293D-04 0.101D-03-0.200D-03 0.313D-03 0.253D-03
 Coeff-Com: -0.181D-02 0.535D-02-0.190D-01 0.853D-01-0.376D+00 0.131D+01
 Coeff:      0.154D-05-0.293D-04 0.101D-03-0.200D-03 0.313D-03 0.253D-03
 Coeff:     -0.181D-02 0.535D-02-0.190D-01 0.853D-01-0.376D+00 0.131D+01
 Gap=     0.396 Goal=   None    Shift=    0.000
 Gap=     0.396 Goal=   None    Shift=    0.000
 RMSDP=4.28D-09 MaxDP=1.04D-07 DE=-6.86D-12 OVMax= 5.68D-07

 Density matrix breaks symmetry, PCut= 1.00D-07
 Density matrix has no symmetry -- integrals replicated.
 SCF Done:  E(UHF) =  -25.1380158209     A.U. after   12 cycles
            NFock= 12  Conv=0.43D-08     -V/T= 1.9996
 <Sx>= 0.0000 <Sy>= 0.0000 <Sz>= 0.0000 <S**2>= 0.4855 S= 0.3576
 <L.S>=  0.00000000000    
 KE= 2.514726132771D+01 PE=-6.245271785386D+01 EE= 9.962535659720D+00
 Annihilation of the first spin contaminant:
 S**2 before annihilation     0.4855,   after     0.0050
 Leave Link  502 at Sun May 22 18:34:28 2022, MaxMem=   104857600 cpu:               3.8 elap:               3.8
 (Enter /apps/software/g16/l601.exe)
 Copying SCF densities to generalized density rwf, IOpCl= 1 IROHF=0.
 SCF density gives NOpUse=  1 NOpAll=  4.
 Marking SCF density as not fully symmetric.

 **********************************************************************

            Population analysis using the SCF density.

 **********************************************************************

 Orbital symmetries:
 Alpha Orbitals:
       Occupied  (SG) (SG) (?A)
       Virtual   (?A) (?A) (?A) (?A) (?A) (?A) (?A) (?A) (?A) (?A)
                 (?A) (?A) (?A) (?B) (?B) (?B) (?A) (?A) (?A) (?A)
                 (?A) (?A) (?A) (?A) (?A) (?A) (?A) (?A) (?A) (SG)
                 (PI) (PI) (?C) (PI) (PI) (?C) (?C) (SG) (?D) (?D)
                 (?D) (PI) (PI) (?E) (?F) (?F) (?F) (?F) (?E) (?E)
                 (?E) (?E) (?E) (?E) (?E) (?E) (?E) (?G) (?G) (?G)
                 (?G) (?G) (SG) (?H) (?H) (?H) (?H) (SG) (DLTA)
                 (DLTA) (?I) (?I) (?I) (SG) (?J) (?J) (?J) (?J)
                 (PI) (PI) (SG) (SG) (?F) (?F) (?F) (?F) (?K) (?K)
                 (?K) (?K) (?K) (?K) (?K) (?K) (?K) (PI) (PI) (?J)
                 (?J) (?J) (?J) (SG) (SG) (PI) (PI) (SG) (PHI)
                 (PHI) (DLTA) (DLTA) (SG) (PI) (PI) (SG) (DLTA)
                 (DLTA) (PI) (PI) (PI) (PI) (SG) (SG) (SG)
 Beta  Orbitals:
       Occupied  (SG) (SG) (?A)
       Virtual   (?A) (?A) (?A) (?A) (?A) (?A) (?A) (?A) (?A) (?A)
                 (?A) (?A) (?A) (?B) (?B) (?B) (?A) (?A) (?A) (?A)
                 (?A) (?A) (?A) (?A) (?A) (?A) (?A) (?A) (?A) (SG)
                 (PI) (PI) (?C) (PI) (PI) (?C) (?C) (SG) (?D) (?D)
                 (?D) (PI) (PI) (?E) (?F) (?F) (?F) (?F) (?E) (?E)
                 (?E) (?E) (?E) (?E) (?E) (?E) (?E) (?G) (?G) (?G)
                 (?G) (?G) (SG) (?H) (?H) (?H) (?H) (SG) (DLTA)
                 (DLTA) (?I) (?I) (?I) (SG) (?J) (?J) (?J) (?J)
                 (PI) (PI) (SG) (SG) (?F) (?F) (?F) (?F) (?K) (?K)
                 (?K) (?K) (?K) (?K) (?K) (?K) (?K) (PI) (PI) (?J)
                 (?J) (?J) (?J) (SG) (SG) (PI) (PI) (SG) (PHI)
                 (PHI) (DLTA) (DLTA) (SG) (PI) (PI) (SG) (DLTA)
                 (DLTA) (PI) (PI) (PI) (PI) (SG) (SG) (SG)
 Unable to determine electronic state:  an orbital has unidentified symmetry.
 Alpha  occ. eigenvalues --   -7.67159  -0.64852  -0.37008
 Alpha virt. eigenvalues --    0.02588   0.02959   0.03367   0.04456   0.08138
 Alpha virt. eigenvalues --    0.08760   0.11561   0.13383   0.13577   0.14653
 Alpha virt. eigenvalues --    0.14659   0.15083   0.18789   0.26572   0.27464
 Alpha virt. eigenvalues --    0.27613   0.31752   0.31884   0.40364   0.42077
 Alpha virt. eigenvalues --    0.45323   0.45325   0.46322   0.46324   0.47594
 Alpha virt. eigenvalues --    0.47964   0.50404   0.50421   0.52718   0.54313
 Alpha virt. eigenvalues --    0.59398   0.59712   0.76226   0.78176   0.78383
 Alpha virt. eigenvalues --    0.80552   0.80559   0.87038   1.04189   1.04199
 Alpha virt. eigenvalues --    1.11768   1.19069   1.19448   1.36184   1.37391
 Alpha virt. eigenvalues --    1.37391   1.37651   1.37651   1.39115   1.39133
 Alpha virt. eigenvalues --    1.43969   1.44004   1.45117   1.45292   1.46138
 Alpha virt. eigenvalues --    1.46192   1.46499   1.56105   1.58785   1.59420
 Alpha virt. eigenvalues --    1.64228   1.64245   1.76628   1.86008   1.86368
 Alpha virt. eigenvalues --    1.90754   1.90755   1.91411   2.05175   2.05177
 Alpha virt. eigenvalues --    2.23995   2.24467   2.25834   2.61895   3.11674
 Alpha virt. eigenvalues --    3.11684   3.12458   3.12809   3.22175   3.22613
 Alpha virt. eigenvalues --    3.32097   3.59244   3.92864   3.92864   3.93966
 Alpha virt. eigenvalues --    3.93966   3.97644   3.98562   4.01597   4.01597
 Alpha virt. eigenvalues --    4.09400   4.09452   4.10671   4.10683   4.14486
 Alpha virt. eigenvalues --    4.18534   4.19417   4.33423   4.34178   4.35654
 Alpha virt. eigenvalues --    4.35689   4.50882   5.05368   5.38860   5.39524
 Alpha virt. eigenvalues --    5.59634   6.73515   6.73515   7.25314   7.25315
 Alpha virt. eigenvalues --    7.74096   7.81086   7.81367   8.34956   8.83511
 Alpha virt. eigenvalues --    8.83511   9.00245   9.00537   9.27710   9.27909
 Alpha virt. eigenvalues --    9.72704  10.49111  16.40911
  Beta  occ. eigenvalues --   -7.67159  -0.64852  -0.37008
  Beta virt. eigenvalues --    0.02588   0.02959   0.03367   0.04456   0.08138
  Beta virt. eigenvalues --    0.08760   0.11561   0.13383   0.13577   0.14653
  Beta virt. eigenvalues --    0.14659   0.15083   0.18789   0.26572   0.27464
  Beta virt. eigenvalues --    0.27613   0.31752   0.31884   0.40364   0.42077
  Beta virt. eigenvalues --    0.45323   0.45325   0.46322   0.46324   0.47594
  Beta virt. eigenvalues --    0.47964   0.50404   0.50421   0.52718   0.54313
  Beta virt. eigenvalues --    0.59398   0.59712   0.76226   0.78176   0.78383
  Beta virt. eigenvalues --    0.80552   0.80559   0.87038   1.04189   1.04199
  Beta virt. eigenvalues --    1.11768   1.19069   1.19448   1.36184   1.37391
  Beta virt. eigenvalues --    1.37391   1.37651   1.37651   1.39115   1.39133
  Beta virt. eigenvalues --    1.43969   1.44004   1.45117   1.45292   1.46138
  Beta virt. eigenvalues --    1.46192   1.46499   1.56105   1.58785   1.59420
  Beta virt. eigenvalues --    1.64228   1.64245   1.76628   1.86008   1.86368
  Beta virt. eigenvalues --    1.90754   1.90755   1.91411   2.05175   2.05177
  Beta virt. eigenvalues --    2.23995   2.24467   2.25834   2.61895   3.11674
  Beta virt. eigenvalues --    3.11684   3.12458   3.12809   3.22175   3.22613
  Beta virt. eigenvalues --    3.32097   3.59244   3.92864   3.92864   3.93966
  Beta virt. eigenvalues --    3.93966   3.97644   3.98562   4.01597   4.01597
  Beta virt. eigenvalues --    4.09400   4.09452   4.10671   4.10683   4.14486
  Beta virt. eigenvalues --    4.18534   4.19417   4.33423   4.34178   4.35654
  Beta virt. eigenvalues --    4.35689   4.50882   5.05368   5.38860   5.39524
  Beta virt. eigenvalues --    5.59634   6.73515   6.73515   7.25314   7.25315
  Beta virt. eigenvalues --    7.74096   7.81086   7.81367   8.34956   8.83511
  Beta virt. eigenvalues --    8.83511   9.00245   9.00537   9.27710   9.27909
  Beta virt. eigenvalues --    9.72704  10.49111  16.40911
          Condensed to atoms (all electrons):
               1          2
     1  B    4.677114   0.204588
     2  H    0.204588   0.913709
          Atomic-Atomic Spin Densities.
               1          2
     1  B    0.000000   0.000000
     2  H    0.000000   0.000000
 Mulliken charges and spin densities:
               1          2
     1  B    0.118297   0.000000
     2  H   -0.118297   0.000000
 Sum of Mulliken charges =  -0.00000   0.00000
 Mulliken charges and spin densities with hydrogens summed into heavy atoms:
               1          2
     1  B   -0.000000   0.000000
 Electronic spatial extent (au):  <R**2>=             21.7752
 Charge=             -0.0000 electrons
 Dipole moment (field-independent basis, Debye):
    X=              0.0000    Y=              0.0000    Z=             -1.3050  Tot=              1.3050
 Quadrupole moment (field-independent basis, Debye-Ang):
   XX=             -7.4080   YY=             -6.3745   ZZ=             -9.7420
   XY=              0.0000   XZ=              0.0000   YZ=             -0.0000
 Traceless Quadrupole moment (field-independent basis, Debye-Ang):
   XX=              0.4335   YY=              1.4670   ZZ=             -1.9005
   XY=              0.0000   XZ=              0.0000   YZ=             -0.0000
 Octapole moment (field-independent basis, Debye-Ang**2):
  XXX=              0.0000  YYY=              0.0000  ZZZ=             -4.6470  XYY=              0.0000
  XXY=             -0.0000  XXZ=             -1.6073  XZZ=              0.0000  YZZ=             -0.0000
  YYZ=             -1.1932  XYZ=              0.0000
 Hexadecapole moment (field-independent basis, Debye-Ang**3):
 XXXX=            -11.7044 YYYY=             -8.7363 ZZZZ=            -25.6306 XXXY=              0.0000
 XXXZ=              0.0000 YYYX=              0.0000 YYYZ=             -0.0000 ZZZX=              0.0000
 ZZZY=             -0.0000 XXYY=             -3.4067 XXZZ=             -6.4995 YYZZ=             -5.8608
 XXYZ=             -0.0000 YYXZ=              0.0000 ZZXY=              0.0000
 N-N= 2.204905045500D+00 E-N=-6.245271784749D+01  KE= 2.514726132771D+01
 Symmetry A1   KE= 2.492849576072D+01
 Symmetry A2   KE= 2.389241264373D-30
 Symmetry B1   KE= 2.187655669909D-01
 Symmetry B2   KE= 1.959710118824D-29
 Symmetry A1   SP= 0.000000000000D+00
 Symmetry A2   SP= 0.000000000000D+00
 Symmetry B1   SP= 0.000000000000D+00
 Symmetry B2   SP= 0.000000000000D+00
                          Isotropic Fermi Contact Couplings
        Atom                 a.u.       MegaHertz       Gauss      10(-4) cm-1
     1  B(11)              0.00000       0.00000       0.00000       0.00000
     2  H(1)               0.00000       0.00000       0.00000       0.00000
 --------------------------------------------------------
       Center         ----  Spin Dipole Couplings  ----
                      3XX-RR        3YY-RR        3ZZ-RR
 --------------------------------------------------------
     1   Atom        0.000000      0.000000      0.000000
     2   Atom        0.000000      0.000000      0.000000
 --------------------------------------------------------
                        XY            XZ            YZ
 --------------------------------------------------------
     1   Atom       -0.000000      0.436672      0.000000
     2   Atom       -0.000000      0.000015      0.000000
 --------------------------------------------------------


 ---------------------------------------------------------------------------------
              Anisotropic Spin Dipole Couplings in Principal Axis System
 ---------------------------------------------------------------------------------

       Atom             a.u.   MegaHertz   Gauss  10(-4) cm-1        Axes

              Baa    -0.4367   -74.765   -26.678   -24.939  0.7071  0.0000 -0.7071
     1 B(11)  Bbb    -0.0000    -0.000    -0.000    -0.000 -0.0000  1.0000  0.0000
              Bcc     0.4367    74.765    26.678    24.939  0.7071 -0.0000  0.7071
 
              Baa    -0.0000    -0.008    -0.003    -0.003  0.7071  0.0000 -0.7071
     2 H(1)   Bbb    -0.0000    -0.000    -0.000    -0.000 -0.0000  1.0000  0.0000
              Bcc     0.0000     0.008     0.003     0.003  0.7071 -0.0000  0.7071
 

 ---------------------------------------------------------------------------------

 No NMR shielding tensors so no spin-rotation constants.
 Leave Link  601 at Sun May 22 18:34:28 2022, MaxMem=   104857600 cpu:               0.2 elap:               0.2
 (Enter /apps/software/g16/l801.exe)
 Range of M.O.s used for correlation:     1   126
 NBasis=   126 NAE=     3 NBE=     3 NFC=     0 NFV=     0
 NROrb=    126 NOA=     3 NOB=     3 NVA=   123 NVB=   123

 **** Warning!!: The largest alpha MO coefficient is  0.24613471D+02


 **** Warning!!: The largest beta MO coefficient is  0.24613471D+02

 Leave Link  801 at Sun May 22 18:34:28 2022, MaxMem=   104857600 cpu:               0.0 elap:               0.0
 (Enter /apps/software/g16/l914.exe)
 UHF ground state
 Doing stability rather than CIS.
 Keep R1 and R2 ints in memory in symmetry-blocked form, NReq=40144005.
 FoFCou: FMM=F IPFlag=           0 FMFlag=           0 FMFlg1=           0
         NFxFlg=           0 DoJE=F BraDBF=F KetDBF=F FulRan=T
         wScrn=  0.000000 ICntrl=       600 IOpCl=  0 I1Cent=           0 NGrid=           0
         NMat0=    1 NMatS0=   8001 NMatT0=    0 NMatD0=    1 NMtDS0=    0 NMtDT0=    0
 Petite list used in FoFCou.
 MDV=   104857600 DFT=F DoStab=T Mixed=F DoRPA=F DoScal=F NonHer=F
 Making orbital integer symmetry assigments:
 Orbital symmetries:
 Alpha Orbitals:
       Occupied  (SG) (SG) (?A)
       Virtual   (?A) (?A) (?A) (?A) (?A) (?A) (?A) (?A) (?A) (?A)
                 (?A) (?A) (?A) (?B) (?B) (?B) (?A) (?A) (?A) (?A)
                 (?A) (?A) (?A) (?A) (?A) (?A) (?A) (?A) (?A) (SG)
                 (PI) (PI) (?C) (PI) (PI) (?C) (?C) (SG) (?D) (?D)
                 (?D) (PI) (PI) (?E) (?F) (?F) (?F) (?F) (?E) (?E)
                 (?E) (?E) (?E) (?E) (?E) (?E) (?E) (?G) (?G) (?G)
                 (?G) (?G) (SG) (?H) (?H) (?H) (?H) (SG) (DLTA)
                 (DLTA) (?I) (?I) (?I) (SG) (?J) (?J) (?J) (?J)
                 (PI) (PI) (SG) (SG) (?F) (?F) (?F) (?F) (?K) (?K)
                 (?K) (?K) (?K) (?K) (?K) (?K) (?K) (PI) (PI) (?J)
                 (?J) (?J) (?J) (SG) (SG) (PI) (PI) (SG) (PHI)
                 (PHI) (DLTA) (DLTA) (SG) (PI) (PI) (SG) (DLTA)
                 (DLTA) (PI) (PI) (PI) (PI) (SG) (SG) (SG)
 Beta  Orbitals:
       Occupied  (SG) (SG) (?A)
       Virtual   (?A) (?A) (?A) (?A) (?A) (?A) (?A) (?A) (?A) (?A)
                 (?A) (?A) (?A) (?B) (?B) (?B) (?A) (?A) (?A) (?A)
                 (?A) (?A) (?A) (?A) (?A) (?A) (?A) (?A) (?A) (SG)
                 (PI) (PI) (?C) (PI) (PI) (?C) (?C) (SG) (?D) (?D)
                 (?D) (PI) (PI) (?E) (?F) (?F) (?F) (?F) (?E) (?E)
                 (?E) (?E) (?E) (?E) (?E) (?E) (?E) (?G) (?G) (?G)
                 (?G) (?G) (SG) (?H) (?H) (?H) (?H) (SG) (DLTA)
                 (DLTA) (?I) (?I) (?I) (SG) (?J) (?J) (?J) (?J)
                 (PI) (PI) (SG) (SG) (?F) (?F) (?F) (?F) (?K) (?K)
                 (?K) (?K) (?K) (?K) (?K) (?K) (?K) (PI) (PI) (?J)
                 (?J) (?J) (?J) (SG) (SG) (PI) (PI) (SG) (PHI)
                 (PHI) (DLTA) (DLTA) (SG) (PI) (PI) (SG) (DLTA)
                 (DLTA) (PI) (PI) (PI) (PI) (SG) (SG) (SG)
    12 initial guesses have been made.
 Convergence on wavefunction:    0.001000000000000
 Davidson Disk Diagonalization:  ConvIn= 1.00D-03 SkipCon=T Conv= 1.00D-03.
 Max sub-space:  1476 roots to seek:    12 dimension of matrix:          738
 Iteration     1 Dimension    12 NMult     0 NNew     12
 CISAX will form    12 AO SS matrices at one time.
 NMat=    12 NSing=    12 JSym2X= 2.
 Excitation Energies [eV] at current iteration:
 Root      1 :     0.841915377947775
 Root      2 :     2.840771456943492
 Root      3 :     3.628906619197119
 Root      4 :     4.370316055614428
 Root      5 :     6.496518388094140
 Root      6 :     7.226044284127599
 Root      7 :     7.325034541349182
 Root      8 :     7.886724788176352
 Root      9 :     8.075540319994198
 Root     10 :     8.233116841240820
 Root     11 :     8.275258361659697
 Root     12 :     9.285240637265685
 Iteration     2 Dimension    24 NMult    12 NNew     12
 CISAX will form    12 AO SS matrices at one time.
 NMat=    12 NSing=    12 JSym2X= 2.
 Root      1 not converged, maximum delta is    0.047541057378188
 Excitation Energies [eV] at current iteration:
 Root      1 :     0.056482887915673   Change is   -0.785432490032102
 Root      2 :     2.218168011231829   Change is   -0.622603445711663
 Root      3 :     2.934141012434874   Change is   -0.694765606762245
 Root      4 :     3.700966445865567   Change is   -0.669349609748861
 Root      5 :     6.176718743123966   Change is   -0.319799644970173
 Root      6 :     6.933029749483445   Change is   -0.392004791865736
 Root      7 :     6.967708705334051   Change is   -0.258335578793548
 Root      8 :     7.797638587065955   Change is   -0.089086201110396
 Root      9 :     7.937613035467902   Change is   -0.137927284526297
 Root     10 :     8.029076814892516   Change is   -0.246181546767180
 Root     11 :     8.056937683319321   Change is   -0.176179157921499
 Root     12 :     8.154799626681859   Change is   -1.130441010583827
 Iteration     3 Dimension    27 NMult    24 NNew      3
 CISAX will form     3 AO SS matrices at one time.
 NMat=     3 NSing=     3 JSym2X= 2.
 Root      1 not converged, maximum delta is    0.025735221055473
 Excitation Energies [eV] at current iteration:
 Root      1 :     0.008716083650941   Change is   -0.047766804264733
 Root      2 :     2.190581495996327   Change is   -0.027586515235502
 Root      3 :     2.890052117904165   Change is   -0.044088894530709
 Iteration     4 Dimension    30 NMult    27 NNew      3
 CISAX will form     3 AO SS matrices at one time.
 NMat=     3 NSing=     3 JSym2X= 2.
 Root      1 not converged, maximum delta is    0.010174341774727
 Excitation Energies [eV] at current iteration:
 Root      1 :     0.000183516649178   Change is   -0.008532567001763
 Root      2 :     2.185422451204431   Change is   -0.005159044791896
 Root      3 :     2.887924273174422   Change is   -0.002127844729744
 Iteration     5 Dimension    33 NMult    30 NNew      3
 CISAX will form     3 AO SS matrices at one time.
 NMat=     3 NSing=     3 JSym2X= 2.
 Root      1 not converged, maximum delta is    0.001166407388806
 Excitation Energies [eV] at current iteration:
 Root      1 :     0.000003745125866   Change is   -0.000179771523312
 Root      2 :     2.184776265793542   Change is   -0.000646185410889
 Root      3 :     2.887838753169265   Change is   -0.000085520005157
 Iteration     6 Dimension    36 NMult    33 NNew      3
 CISAX will form     3 AO SS matrices at one time.
 NMat=     3 NSing=     3 JSym2X= 2.
 Root      1 has converged.
 Excitation Energies [eV] at current iteration:
 Root      1 :     0.000001477322245   Change is   -0.000002267803620
 Root      2 :     2.184761841582319   Change is   -0.000014424211223
 Root      3 :     2.887832469605028   Change is   -0.000006283564237
 Convergence achieved on expansion vectors.
 ***********************************************************************
 Stability analysis using <AA,BB:AA,BB> singles matrix:
 ***********************************************************************
 1PDM for each excited state written to RWF  633
 Ground to excited state transition densities written to RWF  633

 Eigenvectors of the stability matrix:
 
 Excited state symmetry could not be determined.
 Eigenvector   1:  2.803-?Sym  Eigenvalue= 0.0000001  <S**2>=1.714
      3A ->  4A        0.42867
      3A ->  8A        0.47691
      3A -> 21A       -0.22874
      3B ->  4B       -0.42867
      3B ->  8B       -0.47691
      3B -> 21B        0.22874
 The wavefunction is stable under the perturbations considered.
 Leave Link  914 at Sun May 22 18:34:32 2022, MaxMem=   104857600 cpu:               4.2 elap:               4.2
 (Enter /apps/software/g16/l508.exe)
 The wavefunction is already stable.
 Leave Link  508 at Sun May 22 18:34:32 2022, MaxMem=   104857600 cpu:               0.0 elap:               0.0
 (Enter /apps/software/g16/l601.exe)
 Copying SCF densities to generalized density rwf, IOpCl= 1 IROHF=0.
 SCF density gives NOpUse=  1 NOpAll=  4.
 Marking SCF density as not fully symmetric.

 **********************************************************************

            Population analysis using the SCF density.

 **********************************************************************

 Orbital symmetries:
 Alpha Orbitals:
       Occupied  (SG) (SG) (?A)
       Virtual   (?A) (?A) (?A) (?A) (?A) (?A) (?A) (?A) (?A) (?A)
                 (?A) (?A) (?A) (?B) (?B) (?B) (?A) (?A) (?A) (?A)
                 (?A) (?A) (?A) (?A) (?A) (?A) (?A) (?A) (?A) (SG)
                 (PI) (PI) (?C) (PI) (PI) (?C) (?C) (SG) (?D) (?D)
                 (?D) (PI) (PI) (?E) (?F) (?F) (?F) (?F) (?E) (?E)
                 (?E) (?E) (?E) (?E) (?E) (?E) (?E) (?G) (?G) (?G)
                 (?G) (?G) (SG) (?H) (?H) (?H) (?H) (SG) (DLTA)
                 (DLTA) (?I) (?I) (?I) (SG) (?J) (?J) (?J) (?J)
                 (PI) (PI) (SG) (SG) (?F) (?F) (?F) (?F) (?K) (?K)
                 (?K) (?K) (?K) (?K) (?K) (?K) (?K) (PI) (PI) (?J)
                 (?J) (?J) (?J) (SG) (SG) (PI) (PI) (SG) (PHI)
                 (PHI) (DLTA) (DLTA) (SG) (PI) (PI) (SG) (DLTA)
                 (DLTA) (PI) (PI) (PI) (PI) (SG) (SG) (SG)
 Beta  Orbitals:
       Occupied  (SG) (SG) (?A)
       Virtual   (?A) (?A) (?A) (?A) (?A) (?A) (?A) (?A) (?A) (?A)
                 (?A) (?A) (?A) (?B) (?B) (?B) (?A) (?A) (?A) (?A)
                 (?A) (?A) (?A) (?A) (?A) (?A) (?A) (?A) (?A) (SG)
                 (PI) (PI) (?C) (PI) (PI) (?C) (?C) (SG) (?D) (?D)
                 (?D) (PI) (PI) (?E) (?F) (?F) (?F) (?F) (?E) (?E)
                 (?E) (?E) (?E) (?E) (?E) (?E) (?E) (?G) (?G) (?G)
                 (?G) (?G) (SG) (?H) (?H) (?H) (?H) (SG) (DLTA)
                 (DLTA) (?I) (?I) (?I) (SG) (?J) (?J) (?J) (?J)
                 (PI) (PI) (SG) (SG) (?F) (?F) (?F) (?F) (?K) (?K)
                 (?K) (?K) (?K) (?K) (?K) (?K) (?K) (PI) (PI) (?J)
                 (?J) (?J) (?J) (SG) (SG) (PI) (PI) (SG) (PHI)
                 (PHI) (DLTA) (DLTA) (SG) (PI) (PI) (SG) (DLTA)
                 (DLTA) (PI) (PI) (PI) (PI) (SG) (SG) (SG)
 Unable to determine electronic state:  an orbital has unidentified symmetry.
 Alpha  occ. eigenvalues --   -7.67159  -0.64852  -0.37008
 Alpha virt. eigenvalues --    0.02588   0.02959   0.03367   0.04456   0.08138
 Alpha virt. eigenvalues --    0.08760   0.11561   0.13383   0.13577   0.14653
 Alpha virt. eigenvalues --    0.14659   0.15083   0.18789   0.26572   0.27464
 Alpha virt. eigenvalues --    0.27613   0.31752   0.31884   0.40364   0.42077
 Alpha virt. eigenvalues --    0.45323   0.45325   0.46322   0.46324   0.47594
 Alpha virt. eigenvalues --    0.47964   0.50404   0.50421   0.52718   0.54313
 Alpha virt. eigenvalues --    0.59398   0.59712   0.76226   0.78176   0.78383
 Alpha virt. eigenvalues --    0.80552   0.80559   0.87038   1.04189   1.04199
 Alpha virt. eigenvalues --    1.11768   1.19069   1.19448   1.36184   1.37391
 Alpha virt. eigenvalues --    1.37391   1.37651   1.37651   1.39115   1.39133
 Alpha virt. eigenvalues --    1.43969   1.44004   1.45117   1.45292   1.46138
 Alpha virt. eigenvalues --    1.46192   1.46499   1.56105   1.58785   1.59420
 Alpha virt. eigenvalues --    1.64228   1.64245   1.76628   1.86008   1.86368
 Alpha virt. eigenvalues --    1.90754   1.90755   1.91411   2.05175   2.05177
 Alpha virt. eigenvalues --    2.23995   2.24467   2.25834   2.61895   3.11674
 Alpha virt. eigenvalues --    3.11684   3.12458   3.12809   3.22175   3.22613
 Alpha virt. eigenvalues --    3.32097   3.59244   3.92864   3.92864   3.93966
 Alpha virt. eigenvalues --    3.93966   3.97644   3.98562   4.01597   4.01597
 Alpha virt. eigenvalues --    4.09400   4.09452   4.10671   4.10683   4.14486
 Alpha virt. eigenvalues --    4.18534   4.19417   4.33423   4.34178   4.35654
 Alpha virt. eigenvalues --    4.35689   4.50882   5.05368   5.38860   5.39524
 Alpha virt. eigenvalues --    5.59634   6.73515   6.73515   7.25314   7.25315
 Alpha virt. eigenvalues --    7.74096   7.81086   7.81367   8.34956   8.83511
 Alpha virt. eigenvalues --    8.83511   9.00245   9.00537   9.27710   9.27909
 Alpha virt. eigenvalues --    9.72704  10.49111  16.40911
  Beta  occ. eigenvalues --   -7.67159  -0.64852  -0.37008
  Beta virt. eigenvalues --    0.02588   0.02959   0.03367   0.04456   0.08138
  Beta virt. eigenvalues --    0.08760   0.11561   0.13383   0.13577   0.14653
  Beta virt. eigenvalues --    0.14659   0.15083   0.18789   0.26572   0.27464
  Beta virt. eigenvalues --    0.27613   0.31752   0.31884   0.40364   0.42077
  Beta virt. eigenvalues --    0.45323   0.45325   0.46322   0.46324   0.47594
  Beta virt. eigenvalues --    0.47964   0.50404   0.50421   0.52718   0.54313
  Beta virt. eigenvalues --    0.59398   0.59712   0.76226   0.78176   0.78383
  Beta virt. eigenvalues --    0.80552   0.80559   0.87038   1.04189   1.04199
  Beta virt. eigenvalues --    1.11768   1.19069   1.19448   1.36184   1.37391
  Beta virt. eigenvalues --    1.37391   1.37651   1.37651   1.39115   1.39133
  Beta virt. eigenvalues --    1.43969   1.44004   1.45117   1.45292   1.46138
  Beta virt. eigenvalues --    1.46192   1.46499   1.56105   1.58785   1.59420
  Beta virt. eigenvalues --    1.64228   1.64245   1.76628   1.86008   1.86368
  Beta virt. eigenvalues --    1.90754   1.90755   1.91411   2.05175   2.05177
  Beta virt. eigenvalues --    2.23995   2.24467   2.25834   2.61895   3.11674
  Beta virt. eigenvalues --    3.11684   3.12458   3.12809   3.22175   3.22613
  Beta virt. eigenvalues --    3.32097   3.59244   3.92864   3.92864   3.93966
  Beta virt. eigenvalues --    3.93966   3.97644   3.98562   4.01597   4.01597
  Beta virt. eigenvalues --    4.09400   4.09452   4.10671   4.10683   4.14486
  Beta virt. eigenvalues --    4.18534   4.19417   4.33423   4.34178   4.35654
  Beta virt. eigenvalues --    4.35689   4.50882   5.05368   5.38860   5.39524
  Beta virt. eigenvalues --    5.59634   6.73515   6.73515   7.25314   7.25315
  Beta virt. eigenvalues --    7.74096   7.81086   7.81367   8.34956   8.83511
  Beta virt. eigenvalues --    8.83511   9.00245   9.00537   9.27710   9.27909
  Beta virt. eigenvalues --    9.72704  10.49111  16.40911
          Condensed to atoms (all electrons):
               1          2
     1  B    4.677114   0.204588
     2  H    0.204588   0.913709
          Atomic-Atomic Spin Densities.
               1          2
     1  B    0.000000   0.000000
     2  H    0.000000   0.000000
 Mulliken charges and spin densities:
               1          2
     1  B    0.118297   0.000000
     2  H   -0.118297   0.000000
 Sum of Mulliken charges =  -0.00000   0.00000
 Mulliken charges and spin densities with hydrogens summed into heavy atoms:
               1          2
     1  B   -0.000000   0.000000
 Electronic spatial extent (au):  <R**2>=             21.7752
 Charge=             -0.0000 electrons
 Dipole moment (field-independent basis, Debye):
    X=              0.0000    Y=              0.0000    Z=             -1.3050  Tot=              1.3050
 Quadrupole moment (field-independent basis, Debye-Ang):
   XX=             -7.4080   YY=             -6.3745   ZZ=             -9.7420
   XY=              0.0000   XZ=              0.0000   YZ=             -0.0000
 Traceless Quadrupole moment (field-independent basis, Debye-Ang):
   XX=              0.4335   YY=              1.4670   ZZ=             -1.9005
   XY=              0.0000   XZ=              0.0000   YZ=             -0.0000
 Octapole moment (field-independent basis, Debye-Ang**2):
  XXX=              0.0000  YYY=              0.0000  ZZZ=             -4.6470  XYY=              0.0000
  XXY=             -0.0000  XXZ=             -1.6073  XZZ=              0.0000  YZZ=             -0.0000
  YYZ=             -1.1932  XYZ=              0.0000
 Hexadecapole moment (field-independent basis, Debye-Ang**3):
 XXXX=            -11.7044 YYYY=             -8.7363 ZZZZ=            -25.6306 XXXY=              0.0000
 XXXZ=              0.0000 YYYX=              0.0000 YYYZ=             -0.0000 ZZZX=              0.0000
 ZZZY=             -0.0000 XXYY=             -3.4067 XXZZ=             -6.4995 YYZZ=             -5.8608
 XXYZ=             -0.0000 YYXZ=              0.0000 ZZXY=              0.0000
 N-N= 2.204905045500D+00 E-N=-6.245271784749D+01  KE= 2.514726132771D+01
 Symmetry A1   KE= 2.492849576072D+01
 Symmetry A2   KE= 2.389241264373D-30
 Symmetry B1   KE= 2.187655669909D-01
 Symmetry B2   KE= 1.959710118824D-29
 Symmetry A1   SP= 0.000000000000D+00
 Symmetry A2   SP= 0.000000000000D+00
 Symmetry B1   SP= 0.000000000000D+00
 Symmetry B2   SP= 0.000000000000D+00
                          Isotropic Fermi Contact Couplings
        Atom                 a.u.       MegaHertz       Gauss      10(-4) cm-1
     1  B(11)              0.00000       0.00000       0.00000       0.00000
     2  H(1)               0.00000       0.00000       0.00000       0.00000
 --------------------------------------------------------
       Center         ----  Spin Dipole Couplings  ----
                      3XX-RR        3YY-RR        3ZZ-RR
 --------------------------------------------------------
     1   Atom        0.000000      0.000000      0.000000
     2   Atom        0.000000      0.000000      0.000000
 --------------------------------------------------------
                        XY            XZ            YZ
 --------------------------------------------------------
     1   Atom       -0.000000      0.436672      0.000000
     2   Atom       -0.000000      0.000015      0.000000
 --------------------------------------------------------


 ---------------------------------------------------------------------------------
              Anisotropic Spin Dipole Couplings in Principal Axis System
 ---------------------------------------------------------------------------------

       Atom             a.u.   MegaHertz   Gauss  10(-4) cm-1        Axes

              Baa    -0.4367   -74.765   -26.678   -24.939  0.7071  0.0000 -0.7071
     1 B(11)  Bbb    -0.0000    -0.000    -0.000    -0.000 -0.0000  1.0000  0.0000
              Bcc     0.4367    74.765    26.678    24.939  0.7071 -0.0000  0.7071
 
              Baa    -0.0000    -0.008    -0.003    -0.003  0.7071  0.0000 -0.7071
     2 H(1)   Bbb    -0.0000    -0.000    -0.000    -0.000 -0.0000  1.0000  0.0000
              Bcc     0.0000     0.008     0.003     0.003  0.7071 -0.0000  0.7071
 

 ---------------------------------------------------------------------------------

 No NMR shielding tensors so no spin-rotation constants.
 Leave Link  601 at Sun May 22 18:34:33 2022, MaxMem=   104857600 cpu:               0.2 elap:               0.2
 (Enter /apps/software/g16/l9999.exe)
 1\1\GINC-CNODE08\Stability\UHF\Aug-CC-pVQZ\B1H1\LCZ\22-May-2022\0\\#p 
 UHF/aug-cc-pVQZ guess=mix stable=opt\\BH UHF at 1.2 Angstrom\\0,1\B,0,
 0.,0.,0.\H,0,1.2,0.,0.\\Version=ES64L-G16RevA.03\HF=-25.1380158\S2=0.4
 8549\S2-1=0.\S2A=0.004999\RMSD=4.277e-09\Dipole=0.5134315,0.,0.\Quadru
 pole=-1.4129824,1.0906833,0.322299,0.,0.,0.\PG=C*V [C*(H1B1)]\\@


 A politician is a person who can make waves and then
 make you think he's the only one who can save the ship.
 -- Ivern Ball
 Job cpu time:       0 days  0 hours  0 minutes  9.1 seconds.
 Elapsed time:       0 days  0 hours  0 minutes  9.1 seconds.
 File lengths (MBytes):  RWF=     29 Int=      0 D2E=      0 Chk=      4 Scr=      1
 Normal termination of Gaussian 16 at Sun May 22 18:34:33 2022.

Sender: Unischeduler System <lcz@mgt01>
Subject: Job 134181: <#!/bin/bash
#BSUB -J intel
#BSUB -o BH-1.2-UHF-G.out
#BSUB -n 8
#BSUB -q cqueue
#BSUB -R span[hosts=1]
export g16root=/apps/software
source /apps/software/g16/bsd/g16.profile
export GAUSS_SCRDIR=/scratch
/apps/software/g16/g16 < BH-1.2-UHF-G.inp > BH-1.2-UHF-G.out> Done

Job <#!/bin/bash
#BSUB -J intel
#BSUB -o BH-1.2-UHF-G.out
#BSUB -n 8
#BSUB -q cqueue
#BSUB -R span[hosts=1]
export g16root=/apps/software
source /apps/software/g16/bsd/g16.profile
export GAUSS_SCRDIR=/scratch
/apps/software/g16/g16 < BH-1.2-UHF-G.inp > BH-1.2-UHF-G.out> was submitted from host <mgt01> by user <lcz>.
Job was executed on host(s) <8*cnode08>, in queue <cqueue>, as user <lcz>.
</apps/users/lcz> was used as the home directory.
</apps/users/lcz/exe13/UCCSD> was used as the working directory.
Started at 2022-05-22 18:34:23
Results reported at 2022-05-22 18:34:33

Your job looked like:

------------------------------------------------------------
# User input
#!/bin/bash
#BSUB -J intel
#BSUB -o BH-1.2-UHF-G.out
#BSUB -n 8
#BSUB -q cqueue
#BSUB -R span[hosts=1]
export g16root=/apps/software
source /apps/software/g16/bsd/g16.profile
export GAUSS_SCRDIR=/scratch
/apps/software/g16/g16 < BH-1.2-UHF-G.inp > BH-1.2-UHF-G.out
------------------------------------------------------------

Successfully completed.

Resource usage summary:

    CPU time   :            0.01 sec.
    Max Memory :                 9 MB
    Max Processes  :               2


The output (if any) follows:

