 Entering Gaussian System, Link 0=/apps/software/g16/g16
 Initial command:
 /apps/software/g16/l1.exe "/scratch/Gau-283764.inp" -scrdir="/scratch/"
 Entering Link 1 = /apps/software/g16/l1.exe PID=    283765.
  
 Copyright (c) 1988,1990,1992,1993,1995,1998,2003,2009,2016,
            Gaussian, Inc.  All Rights Reserved.
  
 This is part of the Gaussian(R) 16 program.  It is based on
 the Gaussian(R) 09 system (copyright 2009, Gaussian, Inc.),
 the Gaussian(R) 03 system (copyright 2003, Gaussian, Inc.),
 the Gaussian(R) 98 system (copyright 1998, Gaussian, Inc.),
 the Gaussian(R) 94 system (copyright 1995, Gaussian, Inc.),
 the Gaussian 92(TM) system (copyright 1992, Gaussian, Inc.),
 the Gaussian 90(TM) system (copyright 1990, Gaussian, Inc.),
 the Gaussian 88(TM) system (copyright 1988, Gaussian, Inc.),
 the Gaussian 86(TM) system (copyright 1986, Carnegie Mellon
 University), and the Gaussian 82(TM) system (copyright 1983,
 Carnegie Mellon University). Gaussian is a federally registered
 trademark of Gaussian, Inc.
  
 This software contains proprietary and confidential information,
 including trade secrets, belonging to Gaussian, Inc.
  
 This software is provided under written license and may be
 used, copied, transmitted, or stored only in accord with that
 written license.
  
 The following legend is applicable only to US Government
 contracts under FAR:
  
                    RESTRICTED RIGHTS LEGEND
  
 Use, reproduction and disclosure by the US Government is
 subject to restrictions as set forth in subparagraphs (a)
 and (c) of the Commercial Computer Software - Restricted
 Rights clause in FAR 52.227-19.
  
 Gaussian, Inc.
 340 Quinnipiac St., Bldg. 40, Wallingford CT 06492
  
  
 ---------------------------------------------------------------
 Warning -- This program may not be used in any manner that
 competes with the business of Gaussian, Inc. or will provide
 assistance to any competitor of Gaussian, Inc.  The licensee
 of this program is prohibited from giving any competitor of
 Gaussian, Inc. access to this program.  By using this program,
 the user acknowledges that Gaussian, Inc. is engaged in the
 business of creating and licensing software in the field of
 computational chemistry and represents and warrants to the
 licensee that it is not a competitor of Gaussian, Inc. and that
 it will not use this program in any manner prohibited above.
 ---------------------------------------------------------------
  

 Cite this work as:
 Gaussian 16, Revision A.03,
 M. J. Frisch, G. W. Trucks, H. B. Schlegel, G. E. Scuseria, 
 M. A. Robb, J. R. Cheeseman, G. Scalmani, V. Barone, 
 G. A. Petersson, H. Nakatsuji, X. Li, M. Caricato, A. V. Marenich, 
 J. Bloino, B. G. Janesko, R. Gomperts, B. Mennucci, H. P. Hratchian, 
 J. V. Ortiz, A. F. Izmaylov, J. L. Sonnenberg, D. Williams-Young, 
 F. Ding, F. Lipparini, F. Egidi, J. Goings, B. Peng, A. Petrone, 
 T. Henderson, D. Ranasinghe, V. G. Zakrzewski, J. Gao, N. Rega, 
 G. Zheng, W. Liang, M. Hada, M. Ehara, K. Toyota, R. Fukuda, 
 J. Hasegawa, M. Ishida, T. Nakajima, Y. Honda, O. Kitao, H. Nakai, 
 T. Vreven, K. Throssell, J. A. Montgomery, Jr., J. E. Peralta, 
 F. Ogliaro, M. J. Bearpark, J. J. Heyd, E. N. Brothers, K. N. Kudin, 
 V. N. Staroverov, T. A. Keith, R. Kobayashi, J. Normand, 
 K. Raghavachari, A. P. Rendell, J. C. Burant, S. S. Iyengar, 
 J. Tomasi, M. Cossi, J. M. Millam, M. Klene, C. Adamo, R. Cammi, 
 J. W. Ochterski, R. L. Martin, K. Morokuma, O. Farkas, 
 J. B. Foresman, and D. J. Fox, Gaussian, Inc., Wallingford CT, 2016.
 
 ******************************************
 Gaussian 16:  ES64L-G16RevA.03 25-Dec-2016
                22-May-2022 
 ******************************************
 %chk=BH-1.0-UHF-G.chk
 ---------------------------------------
 #p UHF/aug-cc-pVQZ guess=mix stable=opt
 ---------------------------------------
 1/38=1,172=1/1;
 2/12=2,17=6,18=5,40=1/2;
 3/5=16,6=2,7=10,11=2,25=1,30=1,116=2/1,2,3;
 4/13=-1/1;
 5/5=2,38=5/2;
 6/7=2,8=2,9=2,10=2,28=1/1;
 8/6=1,10=90,11=11/1;
 9/8=-3,42=1,46=1/14;
 5/5=2,8=3,17=40,38=5/8(-2);
 6/7=2,8=2,9=2,10=2,28=1/1;
 99/5=1,9=1/99;
 Leave Link    1 at Sun May 22 18:34:15 2022, MaxMem=           0 cpu:               0.0 elap:               0.0
 (Enter /apps/software/g16/l101.exe)
 ----------------------
 BH UHF at 1.0 Angstrom
 ----------------------
 Symbolic Z-matrix:
 Charge =  0 Multiplicity = 1
 B                     0.        0.        0. 
 H                     1.        0.        0. 
 
 ITRead=  0  0
 MicOpt= -1 -1
 NAtoms=      2 NQM=        2 NQMF=       0 NMMI=      0 NMMIF=      0
                NMic=       0 NMicF=      0.
                    Isotopes and Nuclear Properties:
 (Nuclear quadrupole moments (NQMom) in fm**2, nuclear magnetic moments (NMagM)
  in nuclear magnetons)

  Atom         1           2
 IAtWgt=          11           1
 AtmWgt=  11.0093053   1.0078250
 NucSpn=           3           1
 AtZEff=  -0.0000000  -0.0000000
 NQMom=    4.0590000   0.0000000
 NMagM=    2.6886370   2.7928460
 AtZNuc=   5.0000000   1.0000000
 Leave Link  101 at Sun May 22 18:34:16 2022, MaxMem=   104857600 cpu:               0.1 elap:               0.1
 (Enter /apps/software/g16/l202.exe)
                          Input orientation:                          
 ---------------------------------------------------------------------
 Center     Atomic      Atomic             Coordinates (Angstroms)
 Number     Number       Type             X           Y           Z
 ---------------------------------------------------------------------
      1          5           0        0.000000    0.000000    0.000000
      2          1           0        1.000000    0.000000    0.000000
 ---------------------------------------------------------------------
 Stoichiometry    BH
 Framework group  C*V[C*(HB)]
 Deg. of freedom     1
 Full point group                 C*V     NOp   4
 Largest Abelian subgroup         C2V     NOp   4
 Largest concise Abelian subgroup C1      NOp   1
                         Standard orientation:                         
 ---------------------------------------------------------------------
 Center     Atomic      Atomic             Coordinates (Angstroms)
 Number     Number       Type             X           Y           Z
 ---------------------------------------------------------------------
      1          5           0        0.000000    0.000000    0.166667
      2          1           0        0.000000    0.000000   -0.833333
 ---------------------------------------------------------------------
 Rotational constants (GHZ):           0.0000000         547.3598183         547.3598183
 Leave Link  202 at Sun May 22 18:34:16 2022, MaxMem=   104857600 cpu:               0.0 elap:               0.0
 (Enter /apps/software/g16/l301.exe)
 Standard basis: Aug-CC-pVQZ (5D, 7F)
 Ernie: Thresh=  0.10000D-02 Tol=  0.10000D-05 Strict=F.
 Ernie:  4 primitive shells out of 54 were deleted.
 There are    68 symmetry adapted cartesian basis functions of A1  symmetry.
 There are    18 symmetry adapted cartesian basis functions of A2  symmetry.
 There are    37 symmetry adapted cartesian basis functions of B1  symmetry.
 There are    37 symmetry adapted cartesian basis functions of B2  symmetry.
 There are    50 symmetry adapted basis functions of A1  symmetry.
 There are    16 symmetry adapted basis functions of A2  symmetry.
 There are    30 symmetry adapted basis functions of B1  symmetry.
 There are    30 symmetry adapted basis functions of B2  symmetry.
   126 basis functions,   180 primitive gaussians,   160 cartesian basis functions
     3 alpha electrons        3 beta electrons
       nuclear repulsion energy         2.6458860546 Hartrees.
 IExCor=    0 DFT=F Ex=HF Corr=None ExCW=0 ScaHFX=  1.000000
 ScaDFX=  1.000000  1.000000  1.000000  1.000000 ScalE2=  1.000000  1.000000
 IRadAn=      5 IRanWt=     -1 IRanGd=            0 ICorTp=0 IEmpDi=  4
 NAtoms=    2 NActive=    2 NUniq=    2 SFac= 1.00D+00 NAtFMM=   60 NAOKFM=F Big=F
 Integral buffers will be    131072 words long.
 Raffenetti 2 integral format.
 Two-electron integral symmetry is turned on.
 Leave Link  301 at Sun May 22 18:34:16 2022, MaxMem=   104857600 cpu:               0.1 elap:               0.1
 (Enter /apps/software/g16/l302.exe)
 NPDir=0 NMtPBC=     1 NCelOv=     1 NCel=       1 NClECP=     1 NCelD=      1
         NCelK=      1 NCelE2=     1 NClLst=     1 CellRange=     0.0.
 One-electron integrals computed using PRISM.
 One-electron integral symmetry used in STVInt
 NBasis=   126 RedAO= T EigKep=  5.99D-05  NBF=    50    16    30    30
 NBsUse=   126 1.00D-06 EigRej= -1.00D+00 NBFU=    50    16    30    30
 Leave Link  302 at Sun May 22 18:34:16 2022, MaxMem=   104857600 cpu:               0.1 elap:               0.1
 (Enter /apps/software/g16/l303.exe)
 DipDrv:  MaxL=1.
 Leave Link  303 at Sun May 22 18:34:16 2022, MaxMem=   104857600 cpu:               0.0 elap:               0.0
 (Enter /apps/software/g16/l401.exe)
 ExpMin= 1.88D-02 ExpMax= 2.39D+04 ExpMxC= 2.30D+02 IAcc=3 IRadAn=         5 AccDes= 0.00D+00
 Harris functional with IExCor=  205 and IRadAn=       5 diagonalized for initial guess.
 HarFok:  IExCor=  205 AccDes= 0.00D+00 IRadAn=         5 IDoV= 1 UseB2=F ITyADJ=14
 ICtDFT=  3500011 ScaDFX=  1.000000  1.000000  1.000000  1.000000
 FoFCou: FMM=F IPFlag=           0 FMFlag=      100000 FMFlg1=           0
         NFxFlg=           0 DoJE=T BraDBF=F KetDBF=T FulRan=T
         wScrn=  0.000000 ICntrl=       500 IOpCl=  0 I1Cent=   200000004 NGrid=           0
         NMat0=    1 NMatS0=      1 NMatT0=    0 NMatD0=    1 NMtDS0=    0 NMtDT0=    0
 Petite list used in FoFCou.
 Harris En= -25.0858166068053    
 JPrj=0 DoOrth=F DoCkMO=T.
 Mixing orbitals, IMix= 1 IMixAn=  0 NRI=1 NE=    3 Coef=  7.07106781D-01  7.07106781D-01
 Mixing orbitals, IMix= 1 IMixAn=  0 NRI=1 NE=    3 Coef= -7.07106781D-01  7.07106781D-01
 Initial guess orbital symmetries:
 Alpha Orbitals:
       Occupied  (SG) (SG) (?A)
       Virtual   (?A) (?A) (SG) (SG) (PI) (PI) (SG) (PI) (PI) (SG)
                 (DLTA) (DLTA) (SG) (PI) (PI) (SG) (PI) (PI) (SG)
                 (SG) (DLTA) (DLTA) (PI) (PI) (DLTA) (DLTA) (PHI)
                 (PHI) (SG) (SG) (PI) (PI) (PI) (PI) (SG) (DLTA)
                 (DLTA) (SG) (PI) (PI) (SG) (PI) (PI) (SG) (DLTA)
                 (DLTA) (PHI) (PHI) (?B) (?B) (DLTA) (DLTA) (SG)
                 (PI) (PI) (PHI) (PHI) (SG) (PI) (PI) (DLTA) (DLTA)
                 (SG) (SG) (PI) (PI) (PHI) (PHI) (DLTA) (DLTA)
                 (SG) (PI) (PI) (SG) (PI) (PI) (SG) (PI) (PI) (DLTA)
                 (DLTA) (SG) (DLTA) (DLTA) (PHI) (PHI) (PI) (PI)
                 (?B) (?B) (DLTA) (DLTA) (SG) (PHI) (PHI) (PI)
                 (PI) (SG) (PI) (PI) (DLTA) (DLTA) (SG) (SG) (PI)
                 (PI) (PHI) (PHI) (DLTA) (DLTA) (SG) (PI) (PI)
                 (SG) (DLTA) (DLTA) (PI) (PI) (PI) (PI) (SG) (SG)
                 (SG)
 Beta  Orbitals:
       Occupied  (SG) (SG) (?A)
       Virtual   (?A) (?A) (SG) (SG) (PI) (PI) (SG) (PI) (PI) (SG)
                 (DLTA) (DLTA) (SG) (PI) (PI) (SG) (PI) (PI) (SG)
                 (SG) (DLTA) (DLTA) (PI) (PI) (DLTA) (DLTA) (PHI)
                 (PHI) (SG) (SG) (PI) (PI) (PI) (PI) (SG) (DLTA)
                 (DLTA) (SG) (PI) (PI) (SG) (PI) (PI) (SG) (DLTA)
                 (DLTA) (PHI) (PHI) (?B) (?B) (DLTA) (DLTA) (SG)
                 (PI) (PI) (PHI) (PHI) (SG) (PI) (PI) (DLTA) (DLTA)
                 (SG) (SG) (PI) (PI) (PHI) (PHI) (DLTA) (DLTA)
                 (SG) (PI) (PI) (SG) (PI) (PI) (SG) (PI) (PI) (DLTA)
                 (DLTA) (SG) (DLTA) (DLTA) (PHI) (PHI) (PI) (PI)
                 (?B) (?B) (DLTA) (DLTA) (SG) (PHI) (PHI) (PI)
                 (PI) (SG) (PI) (PI) (DLTA) (DLTA) (SG) (SG) (PI)
                 (PI) (PHI) (PHI) (DLTA) (DLTA) (SG) (PI) (PI)
                 (SG) (DLTA) (DLTA) (PI) (PI) (PI) (PI) (SG) (SG)
                 (SG)
 Initial guess <Sx>= 0.0000 <Sy>= 0.0000 <Sz>= 0.0000 <S**2>= 1.0000 S= 0.6180
 Leave Link  401 at Sun May 22 18:34:16 2022, MaxMem=   104857600 cpu:               0.2 elap:               0.2
 (Enter /apps/software/g16/l502.exe)
 Keep R1 and R2 ints in memory in symmetry-blocked form, NReq=40143665.
 FoFCou: FMM=F IPFlag=           0 FMFlag=           0 FMFlg1=           0
         NFxFlg=           0 DoJE=F BraDBF=F KetDBF=F FulRan=T
         wScrn=  0.000000 ICntrl=       600 IOpCl=  0 I1Cent=           0 NGrid=           0
         NMat0=    1 NMatS0=   8001 NMatT0=    0 NMatD0=    1 NMtDS0=    0 NMtDT0=    0
 Petite list used in FoFCou.
 UHF open shell SCF:
 Using DIIS extrapolation, IDIIS=  1040.
 NGot=   104857600 LenX=    88563632 LenY=    88537591
 Requested convergence on RMS density matrix=1.00D-08 within 128 cycles.
 Requested convergence on MAX density matrix=1.00D-06.
 Requested convergence on             energy=1.00D-06.
 No special actions if energy rises.
 An orbital has undefined symmetry, so N**3 symmetry is turned off.

 Cycle   1  Pass 1  IDiag  1:
 Density matrix breaks symmetry, PCut= 1.00D-07
 Density matrix has no symmetry -- integrals replicated.
 E= -25.0449397998216    
 DIIS: error= 2.44D-02 at cycle   1 NSaved=   1.
 NSaved= 1 IEnMin= 1 EnMin= -25.0449397998216     IErMin= 1 ErrMin= 2.44D-02
 ErrMax= 2.44D-02  0.00D+00 EMaxC= 1.00D-01 BMatC= 1.98D-01 BMatP= 1.98D-01
 IDIUse=3 WtCom= 7.56D-01 WtEn= 2.44D-01
 Coeff-Com:  0.100D+01
 Coeff-En:   0.100D+01
 Coeff:      0.100D+01
 Gap=     0.462 Goal=   None    Shift=    0.000
 Gap=     0.462 Goal=   None    Shift=    0.000
 GapD=    0.462 DampG=2.000 DampE=0.500 DampFc=1.0000 IDamp=-1.
 RMSDP=1.60D-03 MaxDP=5.85D-02              OVMax= 1.47D-01

 Cycle   2  Pass 1  IDiag  1:
 Density matrix breaks symmetry, PCut= 1.00D-07
 Density matrix has no symmetry -- integrals replicated.
 E= -25.0945299017723     Delta-E=       -0.049590101951 Rises=F Damp=F
 DIIS: error= 1.09D-02 at cycle   2 NSaved=   2.
 NSaved= 2 IEnMin= 2 EnMin= -25.0945299017723     IErMin= 2 ErrMin= 1.09D-02
 ErrMax= 1.09D-02  0.00D+00 EMaxC= 1.00D-01 BMatC= 9.88D-03 BMatP= 1.98D-01
 IDIUse=3 WtCom= 8.91D-01 WtEn= 1.09D-01
 Coeff-Com: -0.801D-01 0.108D+01
 Coeff-En:   0.000D+00 0.100D+01
 Coeff:     -0.714D-01 0.107D+01
 Gap=     0.407 Goal=   None    Shift=    0.000
 Gap=     0.407 Goal=   None    Shift=    0.000
 RMSDP=5.54D-04 MaxDP=1.89D-02 DE=-4.96D-02 OVMax= 8.04D-02

 Cycle   3  Pass 1  IDiag  1:
 Density matrix breaks symmetry, PCut= 1.00D-07
 Density matrix has no symmetry -- integrals replicated.
 E= -25.1048000431957     Delta-E=       -0.010270141423 Rises=F Damp=F
 DIIS: error= 6.62D-03 at cycle   3 NSaved=   3.
 NSaved= 3 IEnMin= 3 EnMin= -25.1048000431957     IErMin= 3 ErrMin= 6.62D-03
 ErrMax= 6.62D-03  0.00D+00 EMaxC= 1.00D-01 BMatC= 2.47D-03 BMatP= 9.88D-03
 IDIUse=3 WtCom= 9.34D-01 WtEn= 6.62D-02
 Coeff-Com:  0.400D-01-0.711D+00 0.167D+01
 Coeff-En:   0.000D+00 0.000D+00 0.100D+01
 Coeff:      0.373D-01-0.664D+00 0.163D+01
 Gap=     0.405 Goal=   None    Shift=    0.000
 Gap=     0.405 Goal=   None    Shift=    0.000
 RMSDP=4.47D-04 MaxDP=1.39D-02 DE=-1.03D-02 OVMax= 7.30D-02

 Cycle   4  Pass 1  IDiag  1:
 Density matrix breaks symmetry, PCut= 1.00D-07
 Density matrix has no symmetry -- integrals replicated.
 E= -25.1096998800983     Delta-E=       -0.004899836903 Rises=F Damp=F
 DIIS: error= 3.05D-03 at cycle   4 NSaved=   4.
 NSaved= 4 IEnMin= 4 EnMin= -25.1096998800983     IErMin= 4 ErrMin= 3.05D-03
 ErrMax= 3.05D-03  0.00D+00 EMaxC= 1.00D-01 BMatC= 6.45D-04 BMatP= 2.47D-03
 IDIUse=3 WtCom= 9.69D-01 WtEn= 3.05D-02
 Coeff-Com: -0.208D-01 0.537D+00-0.175D+01 0.224D+01
 Coeff-En:   0.000D+00 0.000D+00 0.000D+00 0.100D+01
 Coeff:     -0.202D-01 0.521D+00-0.170D+01 0.220D+01
 Gap=     0.399 Goal=   None    Shift=    0.000
 Gap=     0.399 Goal=   None    Shift=    0.000
 RMSDP=3.50D-04 MaxDP=1.11D-02 DE=-4.90D-03 OVMax= 6.00D-02

 Cycle   5  Pass 1  IDiag  1:
 Density matrix breaks symmetry, PCut= 1.00D-07
 Density matrix has no symmetry -- integrals replicated.
 E= -25.1115754784423     Delta-E=       -0.001875598344 Rises=F Damp=F
 DIIS: error= 8.77D-04 at cycle   5 NSaved=   5.
 NSaved= 5 IEnMin= 5 EnMin= -25.1115754784423     IErMin= 5 ErrMin= 8.77D-04
 ErrMax= 8.77D-04  0.00D+00 EMaxC= 1.00D-01 BMatC= 1.13D-04 BMatP= 6.45D-04
 IDIUse=3 WtCom= 9.91D-01 WtEn= 8.77D-03
 Coeff-Com:  0.803D-02-0.191D+00 0.764D+00-0.165D+01 0.207D+01
 Coeff-En:   0.000D+00 0.000D+00 0.000D+00 0.000D+00 0.100D+01
 Coeff:      0.796D-02-0.190D+00 0.757D+00-0.164D+01 0.206D+01
 Gap=     0.396 Goal=   None    Shift=    0.000
 Gap=     0.396 Goal=   None    Shift=    0.000
 RMSDP=2.18D-04 MaxDP=6.87D-03 DE=-1.88D-03 OVMax= 3.63D-02

 Cycle   6  Pass 1  IDiag  1:
 Density matrix breaks symmetry, PCut= 1.00D-07
 Density matrix has no symmetry -- integrals replicated.
 E= -25.1119364276460     Delta-E=       -0.000360949204 Rises=F Damp=F
 DIIS: error= 1.62D-04 at cycle   6 NSaved=   6.
 NSaved= 6 IEnMin= 6 EnMin= -25.1119364276460     IErMin= 6 ErrMin= 1.62D-04
 ErrMax= 1.62D-04  0.00D+00 EMaxC= 1.00D-01 BMatC= 3.22D-06 BMatP= 1.13D-04
 IDIUse=3 WtCom= 9.98D-01 WtEn= 1.62D-03
 Coeff-Com: -0.395D-02 0.826D-01-0.319D+00 0.662D+00-0.941D+00 0.152D+01
 Coeff-En:   0.000D+00 0.000D+00 0.000D+00 0.000D+00 0.000D+00 0.100D+01
 Coeff:     -0.394D-02 0.825D-01-0.318D+00 0.661D+00-0.940D+00 0.152D+01
 Gap=     0.395 Goal=   None    Shift=    0.000
 Gap=     0.395 Goal=   None    Shift=    0.000
 RMSDP=3.58D-05 MaxDP=1.14D-03 DE=-3.61D-04 OVMax= 5.46D-03

 Cycle   7  Pass 1  IDiag  1:
 Density matrix breaks symmetry, PCut= 1.00D-07
 Density matrix has no symmetry -- integrals replicated.
 E= -25.1119447337599     Delta-E=       -0.000008306114 Rises=F Damp=F
 DIIS: error= 1.26D-04 at cycle   7 NSaved=   7.
 NSaved= 7 IEnMin= 7 EnMin= -25.1119447337599     IErMin= 7 ErrMin= 1.26D-04
 ErrMax= 1.26D-04  0.00D+00 EMaxC= 1.00D-01 BMatC= 4.92D-07 BMatP= 3.22D-06
 IDIUse=3 WtCom= 9.99D-01 WtEn= 1.26D-03
 Coeff-Com:  0.227D-02-0.465D-01 0.173D+00-0.357D+00 0.559D+00-0.121D+01
 Coeff-Com:  0.188D+01
 Coeff-En:   0.000D+00 0.000D+00 0.000D+00 0.000D+00 0.000D+00 0.000D+00
 Coeff-En:   0.100D+01
 Coeff:      0.227D-02-0.464D-01 0.172D+00-0.356D+00 0.558D+00-0.121D+01
 Coeff:      0.188D+01
 Gap=     0.395 Goal=   None    Shift=    0.000
 Gap=     0.395 Goal=   None    Shift=    0.000
 RMSDP=5.30D-06 MaxDP=1.54D-04 DE=-8.31D-06 OVMax= 6.83D-04

 Cycle   8  Pass 1  IDiag  1:
 Density matrix breaks symmetry, PCut= 1.00D-07
 Density matrix has no symmetry -- integrals replicated.
 E= -25.1119453794250     Delta-E=       -0.000000645665 Rises=F Damp=F
 DIIS: error= 3.04D-05 at cycle   8 NSaved=   8.
 NSaved= 8 IEnMin= 8 EnMin= -25.1119453794250     IErMin= 8 ErrMin= 3.04D-05
 ErrMax= 3.04D-05  0.00D+00 EMaxC= 1.00D-01 BMatC= 4.07D-08 BMatP= 4.92D-07
 IDIUse=1 WtCom= 1.00D+00 WtEn= 0.00D+00
 Coeff-Com: -0.528D-03 0.110D-01-0.411D-01 0.857D-01-0.148D+00 0.358D+00
 Coeff-Com: -0.836D+00 0.157D+01
 Coeff:     -0.528D-03 0.110D-01-0.411D-01 0.857D-01-0.148D+00 0.358D+00
 Coeff:     -0.836D+00 0.157D+01
 Gap=     0.395 Goal=   None    Shift=    0.000
 Gap=     0.395 Goal=   None    Shift=    0.000
 RMSDP=2.35D-06 MaxDP=8.91D-05 DE=-6.46D-07 OVMax= 2.97D-04

 Cycle   9  Pass 1  IDiag  1:
 Density matrix breaks symmetry, PCut= 1.00D-07
 Density matrix has no symmetry -- integrals replicated.
 E= -25.1119454423970     Delta-E=       -0.000000062972 Rises=F Damp=F
 DIIS: error= 3.77D-06 at cycle   9 NSaved=   9.
 NSaved= 9 IEnMin= 9 EnMin= -25.1119454423970     IErMin= 9 ErrMin= 3.77D-06
 ErrMax= 3.77D-06  0.00D+00 EMaxC= 1.00D-01 BMatC= 1.33D-09 BMatP= 4.07D-08
 IDIUse=1 WtCom= 1.00D+00 WtEn= 0.00D+00
 Coeff-Com:  0.745D-04-0.161D-02 0.541D-02-0.104D-01 0.178D-01-0.346D-01
 Coeff-Com:  0.114D+00-0.406D+00 0.132D+01
 Coeff:      0.745D-04-0.161D-02 0.541D-02-0.104D-01 0.178D-01-0.346D-01
 Coeff:      0.114D+00-0.406D+00 0.132D+01
 Gap=     0.395 Goal=   None    Shift=    0.000
 Gap=     0.395 Goal=   None    Shift=    0.000
 RMSDP=4.40D-07 MaxDP=1.63D-05 DE=-6.30D-08 OVMax= 3.15D-05

 Cycle  10  Pass 1  IDiag  1:
 Density matrix breaks symmetry, PCut= 1.00D-07
 Density matrix has no symmetry -- integrals replicated.
 E= -25.1119454438519     Delta-E=       -0.000000001455 Rises=F Damp=F
 DIIS: error= 5.37D-07 at cycle  10 NSaved=  10.
 NSaved=10 IEnMin=10 EnMin= -25.1119454438519     IErMin=10 ErrMin= 5.37D-07
 ErrMax= 5.37D-07  0.00D+00 EMaxC= 1.00D-01 BMatC= 3.68D-11 BMatP= 1.33D-09
 IDIUse=1 WtCom= 1.00D+00 WtEn= 0.00D+00
 Coeff-Com:  0.323D-05-0.287D-04 0.204D-03-0.545D-03 0.968D-03-0.502D-02
 Coeff-Com:  0.574D-02 0.261D-01-0.276D+00 0.125D+01
 Coeff:      0.323D-05-0.287D-04 0.204D-03-0.545D-03 0.968D-03-0.502D-02
 Coeff:      0.574D-02 0.261D-01-0.276D+00 0.125D+01
 Gap=     0.395 Goal=   None    Shift=    0.000
 Gap=     0.395 Goal=   None    Shift=    0.000
 RMSDP=6.95D-08 MaxDP=2.70D-06 DE=-1.45D-09 OVMax= 6.96D-06

 Cycle  11  Pass 1  IDiag  1:
 Density matrix breaks symmetry, PCut= 1.00D-07
 Density matrix has no symmetry -- integrals replicated.
 E= -25.1119454438967     Delta-E=       -0.000000000045 Rises=F Damp=F
 DIIS: error= 1.16D-07 at cycle  11 NSaved=  11.
 NSaved=11 IEnMin=11 EnMin= -25.1119454438967     IErMin=11 ErrMin= 1.16D-07
 ErrMax= 1.16D-07  0.00D+00 EMaxC= 1.00D-01 BMatC= 1.75D-12 BMatP= 3.68D-11
 IDIUse=1 WtCom= 1.00D+00 WtEn= 0.00D+00
 Coeff-Com: -0.108D-05 0.170D-04-0.968D-04 0.237D-03-0.479D-03 0.199D-02
 Coeff-Com: -0.404D-02 0.255D-02 0.462D-01-0.401D+00 0.136D+01
 Coeff:     -0.108D-05 0.170D-04-0.968D-04 0.237D-03-0.479D-03 0.199D-02
 Coeff:     -0.404D-02 0.255D-02 0.462D-01-0.401D+00 0.136D+01
 Gap=     0.395 Goal=   None    Shift=    0.000
 Gap=     0.395 Goal=   None    Shift=    0.000
 RMSDP=2.17D-08 MaxDP=1.16D-06 DE=-4.48D-11 OVMax= 1.50D-06

 Cycle  12  Pass 1  IDiag  1:
 Density matrix breaks symmetry, PCut= 1.00D-07
 Density matrix has no symmetry -- integrals replicated.
 E= -25.1119454438987     Delta-E=       -0.000000000002 Rises=F Damp=F
 DIIS: error= 3.06D-08 at cycle  12 NSaved=  12.
 NSaved=12 IEnMin=12 EnMin= -25.1119454438987     IErMin=12 ErrMin= 3.06D-08
 ErrMax= 3.06D-08  0.00D+00 EMaxC= 1.00D-01 BMatC= 8.63D-14 BMatP= 1.75D-12
 IDIUse=1 WtCom= 1.00D+00 WtEn= 0.00D+00
 Coeff-Com:  0.707D-06-0.160D-04 0.715D-04-0.164D-03 0.270D-03-0.686D-03
 Coeff-Com:  0.134D-02-0.248D-02 0.686D-03 0.562D-01-0.389D+00 0.133D+01
 Coeff:      0.707D-06-0.160D-04 0.715D-04-0.164D-03 0.270D-03-0.686D-03
 Coeff:      0.134D-02-0.248D-02 0.686D-03 0.562D-01-0.389D+00 0.133D+01
 Gap=     0.395 Goal=   None    Shift=    0.000
 Gap=     0.395 Goal=   None    Shift=    0.000
 RMSDP=4.94D-09 MaxDP=1.36D-07 DE=-2.00D-12 OVMax= 6.60D-07

 Density matrix breaks symmetry, PCut= 1.00D-07
 Density matrix has no symmetry -- integrals replicated.
 SCF Done:  E(UHF) =  -25.1119454439     A.U. after   12 cycles
            NFock= 12  Conv=0.49D-08     -V/T= 1.9883
 <Sx>= 0.0000 <Sy>= 0.0000 <Sz>= 0.0000 <S**2>= 0.5282 S= 0.3821
 <L.S>=  0.00000000000    
 KE= 2.540859256848D+01 PE=-6.348616303744D+01 EE= 1.031973897046D+01
 Annihilation of the first spin contaminant:
 S**2 before annihilation     0.5282,   after     0.0044
 Leave Link  502 at Sun May 22 18:34:20 2022, MaxMem=   104857600 cpu:               3.8 elap:               3.8
 (Enter /apps/software/g16/l601.exe)
 Copying SCF densities to generalized density rwf, IOpCl= 1 IROHF=0.
 SCF density gives NOpUse=  1 NOpAll=  4.
 Marking SCF density as not fully symmetric.

 **********************************************************************

            Population analysis using the SCF density.

 **********************************************************************

 Orbital symmetries:
 Alpha Orbitals:
       Occupied  (SG) (SG) (?A)
       Virtual   (?A) (?A) (?A) (?A) (?A) (?A) (?A) (?A) (?A) (?A)
                 (?A) (?A) (?A) (?A) (?A) (?A) (?A) (?A) (?A) (?A)
                 (?A) (?A) (?A) (?A) (?A) (?A) (?A) (?A) (?A) (?A)
                 (?A) (?A) (?B) (?B) (?B) (?B) (?B) (SG) (?C) (?C)
                 (?C) (PI) (PI) (?D) (?E) (?E) (?E) (?E) (?D) (?D)
                 (?D) (?D) (?D) (?D) (?D) (?D) (?D) (?F) (?F) (?F)
                 (?F) (?F) (?G) (?G) (?G) (?G) (PHI) (PHI) (DLTA)
                 (DLTA) (SG) (PI) (PI) (SG) (PI) (PI) (?H) (?H)
                 (?H) (DLTA) (DLTA) (SG) (?E) (?E) (?E) (?E) (?I)
                 (?I) (?I) (?I) (?I) (?I) (?I) (?I) (?I) (PI) (PI)
                 (?J) (?J) (?J) (?J) (?J) (SG) (SG) (PI) (PI) (PHI)
                 (PHI) (DLTA) (DLTA) (SG) (PI) (PI) (SG) (DLTA)
                 (DLTA) (PI) (PI) (PI) (PI) (SG) (SG) (SG)
 Beta  Orbitals:
       Occupied  (SG) (SG) (?A)
       Virtual   (?A) (?A) (?A) (?A) (?A) (?A) (?A) (?A) (?A) (?A)
                 (?A) (?A) (?A) (?A) (?A) (?A) (?A) (?A) (?A) (?A)
                 (?A) (?A) (?A) (?A) (?A) (?A) (?A) (?A) (?A) (?A)
                 (?A) (?A) (?B) (?B) (?B) (?B) (?B) (SG) (?C) (?C)
                 (?C) (PI) (PI) (?D) (?E) (?E) (?E) (?E) (?D) (?D)
                 (?D) (?D) (?D) (?D) (?D) (?D) (?D) (?F) (?F) (?F)
                 (?F) (?F) (?G) (?G) (?G) (?G) (PHI) (PHI) (DLTA)
                 (DLTA) (SG) (PI) (PI) (SG) (PI) (PI) (?H) (?H)
                 (?H) (DLTA) (DLTA) (SG) (?E) (?E) (?E) (?E) (?I)
                 (?I) (?I) (?I) (?I) (?I) (?I) (?I) (?I) (PI) (PI)
                 (?J) (?J) (?J) (?J) (?J) (SG) (SG) (PI) (PI) (PHI)
                 (PHI) (DLTA) (DLTA) (SG) (PI) (PI) (SG) (DLTA)
                 (DLTA) (PI) (PI) (PI) (PI) (SG) (SG) (SG)
 Unable to determine electronic state:  an orbital has unidentified symmetry.
 Alpha  occ. eigenvalues --   -7.64719  -0.70323  -0.36862
 Alpha virt. eigenvalues --    0.02662   0.02898   0.03400   0.04358   0.08227
 Alpha virt. eigenvalues --    0.08955   0.12028   0.13164   0.13439   0.14670
 Alpha virt. eigenvalues --    0.14675   0.14847   0.18005   0.27400   0.27427
 Alpha virt. eigenvalues --    0.28034   0.32676   0.32749   0.41503   0.44064
 Alpha virt. eigenvalues --    0.44170   0.44301   0.46369   0.46376   0.47241
 Alpha virt. eigenvalues --    0.47662   0.50510   0.50552   0.50926   0.56654
 Alpha virt. eigenvalues --    0.60541   0.60913   0.77317   0.77915   0.78153
 Alpha virt. eigenvalues --    0.81193   0.81203   0.97092   1.04828   1.05742
 Alpha virt. eigenvalues --    1.07196   1.18539   1.18967   1.37148   1.37553
 Alpha virt. eigenvalues --    1.37553   1.38144   1.38144   1.40097   1.40114
 Alpha virt. eigenvalues --    1.43818   1.43824   1.45048   1.45066   1.46346
 Alpha virt. eigenvalues --    1.46964   1.47776   1.60016   1.62169   1.62834
 Alpha virt. eigenvalues --    1.69907   1.69921   1.88377   1.88786   1.89251
 Alpha virt. eigenvalues --    1.92780   1.98253   1.98253   2.02790   2.02793
 Alpha virt. eigenvalues --    2.16544   2.25510   2.26119   2.89084   3.12317
 Alpha virt. eigenvalues --    3.12813   3.28082   3.28538   3.29110   3.34682
 Alpha virt. eigenvalues --    3.34686   3.91545   3.93368   3.93368   3.94561
 Alpha virt. eigenvalues --    3.94561   4.01888   4.01893   4.03485   4.04531
 Alpha virt. eigenvalues --    4.06345   4.06356   4.11143   4.11144   4.12878
 Alpha virt. eigenvalues --    4.33582   4.34505   4.50726   4.52244   4.53152
 Alpha virt. eigenvalues --    4.65144   4.65173   5.46535   5.67464   5.83701
 Alpha virt. eigenvalues --    5.84484   6.87651   6.87651   7.68178   7.68181
 Alpha virt. eigenvalues --    7.94105   7.96723   7.97056   8.65144   9.04532
 Alpha virt. eigenvalues --    9.04533   9.25411   9.25734   9.91161   9.91640
 Alpha virt. eigenvalues --   10.25437  11.32741  17.66480
  Beta  occ. eigenvalues --   -7.64719  -0.70323  -0.36862
  Beta virt. eigenvalues --    0.02662   0.02898   0.03400   0.04358   0.08227
  Beta virt. eigenvalues --    0.08955   0.12028   0.13164   0.13439   0.14670
  Beta virt. eigenvalues --    0.14675   0.14847   0.18005   0.27400   0.27427
  Beta virt. eigenvalues --    0.28034   0.32676   0.32749   0.41503   0.44064
  Beta virt. eigenvalues --    0.44170   0.44301   0.46369   0.46376   0.47241
  Beta virt. eigenvalues --    0.47662   0.50510   0.50552   0.50926   0.56654
  Beta virt. eigenvalues --    0.60541   0.60913   0.77317   0.77915   0.78153
  Beta virt. eigenvalues --    0.81193   0.81203   0.97092   1.04828   1.05742
  Beta virt. eigenvalues --    1.07196   1.18539   1.18967   1.37148   1.37553
  Beta virt. eigenvalues --    1.37553   1.38144   1.38144   1.40097   1.40114
  Beta virt. eigenvalues --    1.43818   1.43824   1.45048   1.45066   1.46346
  Beta virt. eigenvalues --    1.46964   1.47776   1.60016   1.62169   1.62834
  Beta virt. eigenvalues --    1.69907   1.69921   1.88377   1.88786   1.89251
  Beta virt. eigenvalues --    1.92780   1.98253   1.98253   2.02790   2.02793
  Beta virt. eigenvalues --    2.16544   2.25510   2.26119   2.89084   3.12317
  Beta virt. eigenvalues --    3.12813   3.28082   3.28538   3.29110   3.34682
  Beta virt. eigenvalues --    3.34686   3.91545   3.93368   3.93368   3.94561
  Beta virt. eigenvalues --    3.94561   4.01888   4.01893   4.03485   4.04531
  Beta virt. eigenvalues --    4.06345   4.06356   4.11143   4.11144   4.12878
  Beta virt. eigenvalues --    4.33582   4.34505   4.50726   4.52244   4.53152
  Beta virt. eigenvalues --    4.65144   4.65173   5.46535   5.67464   5.83701
  Beta virt. eigenvalues --    5.84484   6.87651   6.87651   7.68178   7.68181
  Beta virt. eigenvalues --    7.94105   7.96723   7.97056   8.65144   9.04532
  Beta virt. eigenvalues --    9.04533   9.25411   9.25734   9.91161   9.91640
  Beta virt. eigenvalues --   10.25437  11.32741  17.66480
          Condensed to atoms (all electrons):
               1          2
     1  B    4.753818   0.193824
     2  H    0.193824   0.858535
          Atomic-Atomic Spin Densities.
               1          2
     1  B    0.000000   0.000000
     2  H    0.000000   0.000000
 Mulliken charges and spin densities:
               1          2
     1  B    0.052359   0.000000
     2  H   -0.052359   0.000000
 Sum of Mulliken charges =  -0.00000   0.00000
 Mulliken charges and spin densities with hydrogens summed into heavy atoms:
               1          2
     1  B   -0.000000   0.000000
 Electronic spatial extent (au):  <R**2>=             19.9788
 Charge=             -0.0000 electrons
 Dipole moment (field-independent basis, Debye):
    X=              0.0000    Y=              0.0000    Z=             -1.6620  Tot=              1.6620
 Quadrupole moment (field-independent basis, Debye-Ang):
   XX=             -7.3320   YY=             -6.1643   ZZ=             -9.3732
   XY=              0.0000   XZ=              0.0000   YZ=              0.0000
 Traceless Quadrupole moment (field-independent basis, Debye-Ang):
   XX=              0.2912   YY=              1.4589   ZZ=             -1.7500
   XY=              0.0000   XZ=              0.0000   YZ=              0.0000
 Octapole moment (field-independent basis, Debye-Ang**2):
  XXX=              0.0000  YYY=              0.0000  ZZZ=             -5.3369  XYY=              0.0000
  XXY=              0.0000  XXZ=             -1.9820  XZZ=              0.0000  YZZ=              0.0000
  YYZ=             -1.5570  XYZ=              0.0000
 Hexadecapole moment (field-independent basis, Debye-Ang**3):
 XXXX=            -12.0321 YYYY=             -8.6070 ZZZZ=            -21.8844 XXXY=              0.0000
 XXXZ=              0.0000 YYYX=              0.0000 YYYZ=              0.0000 ZZZX=              0.0000
 ZZZY=             -0.0000 XXYY=             -3.4397 XXZZ=             -5.8579 YYZZ=             -5.1537
 XXYZ=              0.0000 YYXZ=              0.0000 ZZXY=              0.0000
 N-N= 2.645886054600D+00 E-N=-6.348616299902D+01  KE= 2.540859256848D+01
 Symmetry A1   KE= 2.516920120183D+01
 Symmetry A2   KE= 4.073837863446D-30
 Symmetry B1   KE= 2.393913666581D-01
 Symmetry B2   KE= 1.254189516160D-29
 Symmetry A1   SP= 0.000000000000D+00
 Symmetry A2   SP= 0.000000000000D+00
 Symmetry B1   SP= 0.000000000000D+00
 Symmetry B2   SP= 0.000000000000D+00
                          Isotropic Fermi Contact Couplings
        Atom                 a.u.       MegaHertz       Gauss      10(-4) cm-1
     1  B(11)              0.00000       0.00000       0.00000       0.00000
     2  H(1)               0.00000       0.00000       0.00000       0.00000
 --------------------------------------------------------
       Center         ----  Spin Dipole Couplings  ----
                      3XX-RR        3YY-RR        3ZZ-RR
 --------------------------------------------------------
     1   Atom        0.000000      0.000000      0.000000
     2   Atom        0.000000      0.000000      0.000000
 --------------------------------------------------------
                        XY            XZ            YZ
 --------------------------------------------------------
     1   Atom        0.000000      0.489456      0.000000
     2   Atom       -0.000000      0.001413      0.000000
 --------------------------------------------------------


 ---------------------------------------------------------------------------------
              Anisotropic Spin Dipole Couplings in Principal Axis System
 ---------------------------------------------------------------------------------

       Atom             a.u.   MegaHertz   Gauss  10(-4) cm-1        Axes

              Baa    -0.4895   -83.802   -29.903   -27.953  0.7071 -0.0000 -0.7071
     1 B(11)  Bbb    -0.0000    -0.000    -0.000    -0.000 -0.0000  1.0000 -0.0000
              Bcc     0.4895    83.802    29.903    27.953  0.7071  0.0000  0.7071
 
              Baa    -0.0014    -0.754    -0.269    -0.252  0.7071  0.0000 -0.7071
     2 H(1)   Bbb     0.0000     0.000     0.000     0.000 -0.0000  1.0000  0.0000
              Bcc     0.0014     0.754     0.269     0.252  0.7071 -0.0000  0.7071
 

 ---------------------------------------------------------------------------------

 No NMR shielding tensors so no spin-rotation constants.
 Leave Link  601 at Sun May 22 18:34:20 2022, MaxMem=   104857600 cpu:               0.2 elap:               0.2
 (Enter /apps/software/g16/l801.exe)
 Range of M.O.s used for correlation:     1   126
 NBasis=   126 NAE=     3 NBE=     3 NFC=     0 NFV=     0
 NROrb=    126 NOA=     3 NOB=     3 NVA=   123 NVB=   123

 **** Warning!!: The largest alpha MO coefficient is  0.31100747D+02


 **** Warning!!: The largest beta MO coefficient is  0.31100747D+02

 Leave Link  801 at Sun May 22 18:34:20 2022, MaxMem=   104857600 cpu:               0.0 elap:               0.0
 (Enter /apps/software/g16/l914.exe)
 UHF ground state
 Doing stability rather than CIS.
 Keep R1 and R2 ints in memory in symmetry-blocked form, NReq=40144005.
 FoFCou: FMM=F IPFlag=           0 FMFlag=           0 FMFlg1=           0
         NFxFlg=           0 DoJE=F BraDBF=F KetDBF=F FulRan=T
         wScrn=  0.000000 ICntrl=       600 IOpCl=  0 I1Cent=           0 NGrid=           0
         NMat0=    1 NMatS0=   8001 NMatT0=    0 NMatD0=    1 NMtDS0=    0 NMtDT0=    0
 Petite list used in FoFCou.
 MDV=   104857600 DFT=F DoStab=T Mixed=F DoRPA=F DoScal=F NonHer=F
 Making orbital integer symmetry assigments:
 Orbital symmetries:
 Alpha Orbitals:
       Occupied  (SG) (SG) (?A)
       Virtual   (?A) (?A) (?A) (?A) (?A) (?A) (?A) (?A) (?A) (?A)
                 (?A) (?A) (?A) (?A) (?A) (?A) (?A) (?A) (?A) (?A)
                 (?A) (?A) (?A) (?A) (?A) (?A) (?A) (?A) (?A) (?A)
                 (?A) (?A) (?B) (?B) (?B) (?B) (?B) (SG) (?C) (?C)
                 (?C) (PI) (PI) (?D) (?E) (?E) (?E) (?E) (?D) (?D)
                 (?D) (?D) (?D) (?D) (?D) (?D) (?D) (?F) (?F) (?F)
                 (?F) (?F) (?G) (?G) (?G) (?G) (PHI) (PHI) (DLTA)
                 (DLTA) (SG) (PI) (PI) (SG) (PI) (PI) (?H) (?H)
                 (?H) (DLTA) (DLTA) (SG) (?E) (?E) (?E) (?E) (?I)
                 (?I) (?I) (?I) (?I) (?I) (?I) (?I) (?I) (PI) (PI)
                 (?J) (?J) (?J) (?J) (?J) (SG) (SG) (PI) (PI) (PHI)
                 (PHI) (DLTA) (DLTA) (SG) (PI) (PI) (SG) (DLTA)
                 (DLTA) (PI) (PI) (PI) (PI) (SG) (SG) (SG)
 Beta  Orbitals:
       Occupied  (SG) (SG) (?A)
       Virtual   (?A) (?A) (?A) (?A) (?A) (?A) (?A) (?A) (?A) (?A)
                 (?A) (?A) (?A) (?A) (?A) (?A) (?A) (?A) (?A) (?A)
                 (?A) (?A) (?A) (?A) (?A) (?A) (?A) (?A) (?A) (?A)
                 (?A) (?A) (?B) (?B) (?B) (?B) (?B) (SG) (?C) (?C)
                 (?C) (PI) (PI) (?D) (?E) (?E) (?E) (?E) (?D) (?D)
                 (?D) (?D) (?D) (?D) (?D) (?D) (?D) (?F) (?F) (?F)
                 (?F) (?F) (?G) (?G) (?G) (?G) (PHI) (PHI) (DLTA)
                 (DLTA) (SG) (PI) (PI) (SG) (PI) (PI) (?H) (?H)
                 (?H) (DLTA) (DLTA) (SG) (?E) (?E) (?E) (?E) (?I)
                 (?I) (?I) (?I) (?I) (?I) (?I) (?I) (?I) (PI) (PI)
                 (?J) (?J) (?J) (?J) (?J) (SG) (SG) (PI) (PI) (PHI)
                 (PHI) (DLTA) (DLTA) (SG) (PI) (PI) (SG) (DLTA)
                 (DLTA) (PI) (PI) (PI) (PI) (SG) (SG) (SG)
    12 initial guesses have been made.
 Convergence on wavefunction:    0.001000000000000
 Davidson Disk Diagonalization:  ConvIn= 1.00D-03 SkipCon=T Conv= 1.00D-03.
 Max sub-space:  1476 roots to seek:    12 dimension of matrix:          738
 Iteration     1 Dimension    12 NMult     0 NNew     12
 CISAX will form    12 AO SS matrices at one time.
 NMat=    12 NSing=    12 JSym2X= 2.
 New state      1 was old state      2
 Excitation Energies [eV] at current iteration:
 Root      1 :     0.725903404768470
 Root      2 :     3.001553324754495
 Root      3 :     3.545279931605082
 Root      4 :     4.438873026353555
 Root      5 :     6.328975276224993
 Root      6 :     7.177121442133029
 Root      7 :     7.464470825947764
 Root      8 :     7.845514764718986
 Root      9 :     8.056037591841992
 Root     10 :     8.189931507067918
 Root     11 :     8.231395582296843
 Root     12 :     8.792812291133570
 Iteration     2 Dimension    24 NMult    12 NNew     12
 CISAX will form    12 AO SS matrices at one time.
 NMat=    12 NSing=    12 JSym2X= 2.
 Root      1 not converged, maximum delta is    0.045515976953026
 Excitation Energies [eV] at current iteration:
 Root      1 :     0.028535836816663   Change is   -0.697367567951807
 Root      2 :     2.405932580955780   Change is   -0.595620743798715
 Root      3 :     2.821770687257516   Change is   -0.723509244347566
 Root      4 :     3.704553166097948   Change is   -0.734319860255607
 Root      5 :     6.020460930401744   Change is   -0.308514345823249
 Root      6 :     6.969511676135805   Change is   -0.207609765997225
 Root      7 :     7.247362718314286   Change is   -0.217108107633478
 Root      8 :     7.765854272268077   Change is   -0.079660492450910
 Root      9 :     7.901377441820059   Change is   -0.154660150021934
 Root     10 :     7.979835109124945   Change is   -0.251560473171897
 Root     11 :     8.016304030736590   Change is   -0.173627476331328
 Root     12 :     8.049484427091793   Change is   -0.743327864041778
 Iteration     3 Dimension    27 NMult    24 NNew      3
 CISAX will form     3 AO SS matrices at one time.
 NMat=     3 NSing=     3 JSym2X= 2.
 Root      1 not converged, maximum delta is    0.013092460421894
 Excitation Energies [eV] at current iteration:
 Root      1 :     0.004570991365068   Change is   -0.023964845451595
 Root      2 :     2.381993588779861   Change is   -0.023938992175919
 Root      3 :     2.777353956145746   Change is   -0.044416731111770
 Iteration     4 Dimension    30 NMult    27 NNew      3
 CISAX will form     3 AO SS matrices at one time.
 NMat=     3 NSing=     3 JSym2X= 2.
 Root      1 not converged, maximum delta is    0.007798233983387
 Excitation Energies [eV] at current iteration:
 Root      1 :     0.000220222048404   Change is   -0.004350769316664
 Root      2 :     2.380614938843310   Change is   -0.001378649936551
 Root      3 :     2.775251993077639   Change is   -0.002101963068107
 Iteration     5 Dimension    33 NMult    30 NNew      3
 CISAX will form     3 AO SS matrices at one time.
 NMat=     3 NSing=     3 JSym2X= 2.
 Root      1 not converged, maximum delta is    0.001235656965760
 Excitation Energies [eV] at current iteration:
 Root      1 :     0.000005212880248   Change is   -0.000215009168157
 Root      2 :     2.380367570812362   Change is   -0.000247368030947
 Root      3 :     2.775103825537761   Change is   -0.000148167539878
 Iteration     6 Dimension    36 NMult    33 NNew      3
 CISAX will form     3 AO SS matrices at one time.
 NMat=     3 NSing=     3 JSym2X= 2.
 Root      1 has converged.
 Excitation Energies [eV] at current iteration:
 Root      1 :     0.000000311807689   Change is   -0.000004901072558
 Root      2 :     2.380348032351199   Change is   -0.000019538461164
 Root      3 :     2.775092267213950   Change is   -0.000011558323811
 Convergence achieved on expansion vectors.
 ***********************************************************************
 Stability analysis using <AA,BB:AA,BB> singles matrix:
 ***********************************************************************
 1PDM for each excited state written to RWF  633
 Ground to excited state transition densities written to RWF  633

 Eigenvectors of the stability matrix:
 
 Excited state symmetry could not be determined.
 Eigenvector   1:  2.780-?Sym  Eigenvalue= 0.0000000  <S**2>=1.682
      3A ->  4A        0.42253
      3A ->  8A        0.48459
      3A -> 11A        0.10817
      3A -> 18A        0.10097
      3A -> 21A       -0.21347
      3B ->  4B       -0.42253
      3B ->  8B       -0.48459
      3B -> 11B       -0.10817
      3B -> 18B       -0.10097
      3B -> 21B        0.21347
 The wavefunction is stable under the perturbations considered.
 Leave Link  914 at Sun May 22 18:34:24 2022, MaxMem=   104857600 cpu:               4.2 elap:               4.2
 (Enter /apps/software/g16/l508.exe)
 The wavefunction is already stable.
 Leave Link  508 at Sun May 22 18:34:24 2022, MaxMem=   104857600 cpu:               0.0 elap:               0.0
 (Enter /apps/software/g16/l601.exe)
 Copying SCF densities to generalized density rwf, IOpCl= 1 IROHF=0.
 SCF density gives NOpUse=  1 NOpAll=  4.
 Marking SCF density as not fully symmetric.

 **********************************************************************

            Population analysis using the SCF density.

 **********************************************************************

 Orbital symmetries:
 Alpha Orbitals:
       Occupied  (SG) (SG) (?A)
       Virtual   (?A) (?A) (?A) (?A) (?A) (?A) (?A) (?A) (?A) (?A)
                 (?A) (?A) (?A) (?A) (?A) (?A) (?A) (?A) (?A) (?A)
                 (?A) (?A) (?A) (?A) (?A) (?A) (?A) (?A) (?A) (?A)
                 (?A) (?A) (?B) (?B) (?B) (?B) (?B) (SG) (?C) (?C)
                 (?C) (PI) (PI) (?D) (?E) (?E) (?E) (?E) (?D) (?D)
                 (?D) (?D) (?D) (?D) (?D) (?D) (?D) (?F) (?F) (?F)
                 (?F) (?F) (?G) (?G) (?G) (?G) (PHI) (PHI) (DLTA)
                 (DLTA) (SG) (PI) (PI) (SG) (PI) (PI) (?H) (?H)
                 (?H) (DLTA) (DLTA) (SG) (?E) (?E) (?E) (?E) (?I)
                 (?I) (?I) (?I) (?I) (?I) (?I) (?I) (?I) (PI) (PI)
                 (?J) (?J) (?J) (?J) (?J) (SG) (SG) (PI) (PI) (PHI)
                 (PHI) (DLTA) (DLTA) (SG) (PI) (PI) (SG) (DLTA)
                 (DLTA) (PI) (PI) (PI) (PI) (SG) (SG) (SG)
 Beta  Orbitals:
       Occupied  (SG) (SG) (?A)
       Virtual   (?A) (?A) (?A) (?A) (?A) (?A) (?A) (?A) (?A) (?A)
                 (?A) (?A) (?A) (?A) (?A) (?A) (?A) (?A) (?A) (?A)
                 (?A) (?A) (?A) (?A) (?A) (?A) (?A) (?A) (?A) (?A)
                 (?A) (?A) (?B) (?B) (?B) (?B) (?B) (SG) (?C) (?C)
                 (?C) (PI) (PI) (?D) (?E) (?E) (?E) (?E) (?D) (?D)
                 (?D) (?D) (?D) (?D) (?D) (?D) (?D) (?F) (?F) (?F)
                 (?F) (?F) (?G) (?G) (?G) (?G) (PHI) (PHI) (DLTA)
                 (DLTA) (SG) (PI) (PI) (SG) (PI) (PI) (?H) (?H)
                 (?H) (DLTA) (DLTA) (SG) (?E) (?E) (?E) (?E) (?I)
                 (?I) (?I) (?I) (?I) (?I) (?I) (?I) (?I) (PI) (PI)
                 (?J) (?J) (?J) (?J) (?J) (SG) (SG) (PI) (PI) (PHI)
                 (PHI) (DLTA) (DLTA) (SG) (PI) (PI) (SG) (DLTA)
                 (DLTA) (PI) (PI) (PI) (PI) (SG) (SG) (SG)
 Unable to determine electronic state:  an orbital has unidentified symmetry.
 Alpha  occ. eigenvalues --   -7.64719  -0.70323  -0.36862
 Alpha virt. eigenvalues --    0.02662   0.02898   0.03400   0.04358   0.08227
 Alpha virt. eigenvalues --    0.08955   0.12028   0.13164   0.13439   0.14670
 Alpha virt. eigenvalues --    0.14675   0.14847   0.18005   0.27400   0.27427
 Alpha virt. eigenvalues --    0.28034   0.32676   0.32749   0.41503   0.44064
 Alpha virt. eigenvalues --    0.44170   0.44301   0.46369   0.46376   0.47241
 Alpha virt. eigenvalues --    0.47662   0.50510   0.50552   0.50926   0.56654
 Alpha virt. eigenvalues --    0.60541   0.60913   0.77317   0.77915   0.78153
 Alpha virt. eigenvalues --    0.81193   0.81203   0.97092   1.04828   1.05742
 Alpha virt. eigenvalues --    1.07196   1.18539   1.18967   1.37148   1.37553
 Alpha virt. eigenvalues --    1.37553   1.38144   1.38144   1.40097   1.40114
 Alpha virt. eigenvalues --    1.43818   1.43824   1.45048   1.45066   1.46346
 Alpha virt. eigenvalues --    1.46964   1.47776   1.60016   1.62169   1.62834
 Alpha virt. eigenvalues --    1.69907   1.69921   1.88377   1.88786   1.89251
 Alpha virt. eigenvalues --    1.92780   1.98253   1.98253   2.02790   2.02793
 Alpha virt. eigenvalues --    2.16544   2.25510   2.26119   2.89084   3.12317
 Alpha virt. eigenvalues --    3.12813   3.28082   3.28538   3.29110   3.34682
 Alpha virt. eigenvalues --    3.34686   3.91545   3.93368   3.93368   3.94561
 Alpha virt. eigenvalues --    3.94561   4.01888   4.01893   4.03485   4.04531
 Alpha virt. eigenvalues --    4.06345   4.06356   4.11143   4.11144   4.12878
 Alpha virt. eigenvalues --    4.33582   4.34505   4.50726   4.52244   4.53152
 Alpha virt. eigenvalues --    4.65144   4.65173   5.46535   5.67464   5.83701
 Alpha virt. eigenvalues --    5.84484   6.87651   6.87651   7.68178   7.68181
 Alpha virt. eigenvalues --    7.94105   7.96723   7.97056   8.65144   9.04532
 Alpha virt. eigenvalues --    9.04533   9.25411   9.25734   9.91161   9.91640
 Alpha virt. eigenvalues --   10.25437  11.32741  17.66480
  Beta  occ. eigenvalues --   -7.64719  -0.70323  -0.36862
  Beta virt. eigenvalues --    0.02662   0.02898   0.03400   0.04358   0.08227
  Beta virt. eigenvalues --    0.08955   0.12028   0.13164   0.13439   0.14670
  Beta virt. eigenvalues --    0.14675   0.14847   0.18005   0.27400   0.27427
  Beta virt. eigenvalues --    0.28034   0.32676   0.32749   0.41503   0.44064
  Beta virt. eigenvalues --    0.44170   0.44301   0.46369   0.46376   0.47241
  Beta virt. eigenvalues --    0.47662   0.50510   0.50552   0.50926   0.56654
  Beta virt. eigenvalues --    0.60541   0.60913   0.77317   0.77915   0.78153
  Beta virt. eigenvalues --    0.81193   0.81203   0.97092   1.04828   1.05742
  Beta virt. eigenvalues --    1.07196   1.18539   1.18967   1.37148   1.37553
  Beta virt. eigenvalues --    1.37553   1.38144   1.38144   1.40097   1.40114
  Beta virt. eigenvalues --    1.43818   1.43824   1.45048   1.45066   1.46346
  Beta virt. eigenvalues --    1.46964   1.47776   1.60016   1.62169   1.62834
  Beta virt. eigenvalues --    1.69907   1.69921   1.88377   1.88786   1.89251
  Beta virt. eigenvalues --    1.92780   1.98253   1.98253   2.02790   2.02793
  Beta virt. eigenvalues --    2.16544   2.25510   2.26119   2.89084   3.12317
  Beta virt. eigenvalues --    3.12813   3.28082   3.28538   3.29110   3.34682
  Beta virt. eigenvalues --    3.34686   3.91545   3.93368   3.93368   3.94561
  Beta virt. eigenvalues --    3.94561   4.01888   4.01893   4.03485   4.04531
  Beta virt. eigenvalues --    4.06345   4.06356   4.11143   4.11144   4.12878
  Beta virt. eigenvalues --    4.33582   4.34505   4.50726   4.52244   4.53152
  Beta virt. eigenvalues --    4.65144   4.65173   5.46535   5.67464   5.83701
  Beta virt. eigenvalues --    5.84484   6.87651   6.87651   7.68178   7.68181
  Beta virt. eigenvalues --    7.94105   7.96723   7.97056   8.65144   9.04532
  Beta virt. eigenvalues --    9.04533   9.25411   9.25734   9.91161   9.91640
  Beta virt. eigenvalues --   10.25437  11.32741  17.66480
          Condensed to atoms (all electrons):
               1          2
     1  B    4.753818   0.193824
     2  H    0.193824   0.858535
          Atomic-Atomic Spin Densities.
               1          2
     1  B    0.000000   0.000000
     2  H    0.000000   0.000000
 Mulliken charges and spin densities:
               1          2
     1  B    0.052359   0.000000
     2  H   -0.052359   0.000000
 Sum of Mulliken charges =  -0.00000   0.00000
 Mulliken charges and spin densities with hydrogens summed into heavy atoms:
               1          2
     1  B   -0.000000   0.000000
 Electronic spatial extent (au):  <R**2>=             19.9788
 Charge=             -0.0000 electrons
 Dipole moment (field-independent basis, Debye):
    X=              0.0000    Y=              0.0000    Z=             -1.6620  Tot=              1.6620
 Quadrupole moment (field-independent basis, Debye-Ang):
   XX=             -7.3320   YY=             -6.1643   ZZ=             -9.3732
   XY=              0.0000   XZ=              0.0000   YZ=              0.0000
 Traceless Quadrupole moment (field-independent basis, Debye-Ang):
   XX=              0.2912   YY=              1.4589   ZZ=             -1.7500
   XY=              0.0000   XZ=              0.0000   YZ=              0.0000
 Octapole moment (field-independent basis, Debye-Ang**2):
  XXX=              0.0000  YYY=              0.0000  ZZZ=             -5.3369  XYY=              0.0000
  XXY=              0.0000  XXZ=             -1.9820  XZZ=              0.0000  YZZ=              0.0000
  YYZ=             -1.5570  XYZ=              0.0000
 Hexadecapole moment (field-independent basis, Debye-Ang**3):
 XXXX=            -12.0321 YYYY=             -8.6070 ZZZZ=            -21.8844 XXXY=              0.0000
 XXXZ=              0.0000 YYYX=              0.0000 YYYZ=              0.0000 ZZZX=              0.0000
 ZZZY=             -0.0000 XXYY=             -3.4397 XXZZ=             -5.8579 YYZZ=             -5.1537
 XXYZ=              0.0000 YYXZ=              0.0000 ZZXY=              0.0000
 N-N= 2.645886054600D+00 E-N=-6.348616299902D+01  KE= 2.540859256848D+01
 Symmetry A1   KE= 2.516920120183D+01
 Symmetry A2   KE= 4.073837863446D-30
 Symmetry B1   KE= 2.393913666581D-01
 Symmetry B2   KE= 1.254189516160D-29
 Symmetry A1   SP= 0.000000000000D+00
 Symmetry A2   SP= 0.000000000000D+00
 Symmetry B1   SP= 0.000000000000D+00
 Symmetry B2   SP= 0.000000000000D+00
                          Isotropic Fermi Contact Couplings
        Atom                 a.u.       MegaHertz       Gauss      10(-4) cm-1
     1  B(11)              0.00000       0.00000       0.00000       0.00000
     2  H(1)               0.00000       0.00000       0.00000       0.00000
 --------------------------------------------------------
       Center         ----  Spin Dipole Couplings  ----
                      3XX-RR        3YY-RR        3ZZ-RR
 --------------------------------------------------------
     1   Atom        0.000000      0.000000      0.000000
     2   Atom        0.000000      0.000000      0.000000
 --------------------------------------------------------
                        XY            XZ            YZ
 --------------------------------------------------------
     1   Atom        0.000000      0.489456      0.000000
     2   Atom       -0.000000      0.001413      0.000000
 --------------------------------------------------------


 ---------------------------------------------------------------------------------
              Anisotropic Spin Dipole Couplings in Principal Axis System
 ---------------------------------------------------------------------------------

       Atom             a.u.   MegaHertz   Gauss  10(-4) cm-1        Axes

              Baa    -0.4895   -83.802   -29.903   -27.953  0.7071 -0.0000 -0.7071
     1 B(11)  Bbb    -0.0000    -0.000    -0.000    -0.000 -0.0000  1.0000 -0.0000
              Bcc     0.4895    83.802    29.903    27.953  0.7071  0.0000  0.7071
 
              Baa    -0.0014    -0.754    -0.269    -0.252  0.7071  0.0000 -0.7071
     2 H(1)   Bbb     0.0000     0.000     0.000     0.000 -0.0000  1.0000  0.0000
              Bcc     0.0014     0.754     0.269     0.252  0.7071 -0.0000  0.7071
 

 ---------------------------------------------------------------------------------

 No NMR shielding tensors so no spin-rotation constants.
 Leave Link  601 at Sun May 22 18:34:25 2022, MaxMem=   104857600 cpu:               0.2 elap:               0.2
 (Enter /apps/software/g16/l9999.exe)
 1\1\GINC-CNODE08\Stability\UHF\Aug-CC-pVQZ\B1H1\LCZ\22-May-2022\0\\#p 
 UHF/aug-cc-pVQZ guess=mix stable=opt\\BH UHF at 1.0 Angstrom\\0,1\B,0,
 0.,0.,0.\H,0,1.,0.,0.\\Version=ES64L-G16RevA.03\HF=-25.1119454\S2=0.52
 8174\S2-1=0.\S2A=0.004397\RMSD=4.936e-09\Dipole=0.6538867,0.,0.\Quadru
 pole=-1.3011058,1.0846252,0.2164806,0.,0.,0.\PG=C*V [C*(H1B1)]\\@


 Boundary, n.  In political geography, an imaginary
 line between two nations, separating the imaginary
 rights of one from the imaginary rights of another.
                               -- Ambrose Bierce
 Job cpu time:       0 days  0 hours  0 minutes  9.1 seconds.
 Elapsed time:       0 days  0 hours  0 minutes  9.1 seconds.
 File lengths (MBytes):  RWF=     29 Int=      0 D2E=      0 Chk=      4 Scr=      1
 Normal termination of Gaussian 16 at Sun May 22 18:34:25 2022.

Sender: Unischeduler System <lcz@mgt01>
Subject: Job 134179: <#!/bin/bash
#BSUB -J intel
#BSUB -o BH-1.0-UHF-G.out
#BSUB -n 8
#BSUB -q cqueue
#BSUB -R span[hosts=1]
export g16root=/apps/software
source /apps/software/g16/bsd/g16.profile
export GAUSS_SCRDIR=/scratch
/apps/software/g16/g16 < BH-1.0-UHF-G.inp > BH-1.0-UHF-G.out> Done

Job <#!/bin/bash
#BSUB -J intel
#BSUB -o BH-1.0-UHF-G.out
#BSUB -n 8
#BSUB -q cqueue
#BSUB -R span[hosts=1]
export g16root=/apps/software
source /apps/software/g16/bsd/g16.profile
export GAUSS_SCRDIR=/scratch
/apps/software/g16/g16 < BH-1.0-UHF-G.inp > BH-1.0-UHF-G.out> was submitted from host <mgt01> by user <lcz>.
Job was executed on host(s) <8*cnode08>, in queue <cqueue>, as user <lcz>.
</apps/users/lcz> was used as the home directory.
</apps/users/lcz/exe13/UCCSD> was used as the working directory.
Started at 2022-05-22 18:34:15
Results reported at 2022-05-22 18:34:25

Your job looked like:

------------------------------------------------------------
# User input
#!/bin/bash
#BSUB -J intel
#BSUB -o BH-1.0-UHF-G.out
#BSUB -n 8
#BSUB -q cqueue
#BSUB -R span[hosts=1]
export g16root=/apps/software
source /apps/software/g16/bsd/g16.profile
export GAUSS_SCRDIR=/scratch
/apps/software/g16/g16 < BH-1.0-UHF-G.inp > BH-1.0-UHF-G.out
------------------------------------------------------------

Successfully completed.

Resource usage summary:

    CPU time   :            7.69 sec.
    Max Memory :               479 MB
    Max Processes  :               5


The output (if any) follows:

