 Entering Gaussian System, Link 0=/apps/software/g16/g16
 Initial command:
 /apps/software/g16/l1.exe "/scratch/Gau-309892.inp" -scrdir="/scratch/"
 Entering Link 1 = /apps/software/g16/l1.exe PID=    309893.
  
 Copyright (c) 1988,1990,1992,1993,1995,1998,2003,2009,2016,
            Gaussian, Inc.  All Rights Reserved.
  
 This is part of the Gaussian(R) 16 program.  It is based on
 the Gaussian(R) 09 system (copyright 2009, Gaussian, Inc.),
 the Gaussian(R) 03 system (copyright 2003, Gaussian, Inc.),
 the Gaussian(R) 98 system (copyright 1998, Gaussian, Inc.),
 the Gaussian(R) 94 system (copyright 1995, Gaussian, Inc.),
 the Gaussian 92(TM) system (copyright 1992, Gaussian, Inc.),
 the Gaussian 90(TM) system (copyright 1990, Gaussian, Inc.),
 the Gaussian 88(TM) system (copyright 1988, Gaussian, Inc.),
 the Gaussian 86(TM) system (copyright 1986, Carnegie Mellon
 University), and the Gaussian 82(TM) system (copyright 1983,
 Carnegie Mellon University). Gaussian is a federally registered
 trademark of Gaussian, Inc.
  
 This software contains proprietary and confidential information,
 including trade secrets, belonging to Gaussian, Inc.
  
 This software is provided under written license and may be
 used, copied, transmitted, or stored only in accord with that
 written license.
  
 The following legend is applicable only to US Government
 contracts under FAR:
  
                    RESTRICTED RIGHTS LEGEND
  
 Use, reproduction and disclosure by the US Government is
 subject to restrictions as set forth in subparagraphs (a)
 and (c) of the Commercial Computer Software - Restricted
 Rights clause in FAR 52.227-19.
  
 Gaussian, Inc.
 340 Quinnipiac St., Bldg. 40, Wallingford CT 06492
  
  
 ---------------------------------------------------------------
 Warning -- This program may not be used in any manner that
 competes with the business of Gaussian, Inc. or will provide
 assistance to any competitor of Gaussian, Inc.  The licensee
 of this program is prohibited from giving any competitor of
 Gaussian, Inc. access to this program.  By using this program,
 the user acknowledges that Gaussian, Inc. is engaged in the
 business of creating and licensing software in the field of
 computational chemistry and represents and warrants to the
 licensee that it is not a competitor of Gaussian, Inc. and that
 it will not use this program in any manner prohibited above.
 ---------------------------------------------------------------
  

 Cite this work as:
 Gaussian 16, Revision A.03,
 M. J. Frisch, G. W. Trucks, H. B. Schlegel, G. E. Scuseria, 
 M. A. Robb, J. R. Cheeseman, G. Scalmani, V. Barone, 
 G. A. Petersson, H. Nakatsuji, X. Li, M. Caricato, A. V. Marenich, 
 J. Bloino, B. G. Janesko, R. Gomperts, B. Mennucci, H. P. Hratchian, 
 J. V. Ortiz, A. F. Izmaylov, J. L. Sonnenberg, D. Williams-Young, 
 F. Ding, F. Lipparini, F. Egidi, J. Goings, B. Peng, A. Petrone, 
 T. Henderson, D. Ranasinghe, V. G. Zakrzewski, J. Gao, N. Rega, 
 G. Zheng, W. Liang, M. Hada, M. Ehara, K. Toyota, R. Fukuda, 
 J. Hasegawa, M. Ishida, T. Nakajima, Y. Honda, O. Kitao, H. Nakai, 
 T. Vreven, K. Throssell, J. A. Montgomery, Jr., J. E. Peralta, 
 F. Ogliaro, M. J. Bearpark, J. J. Heyd, E. N. Brothers, K. N. Kudin, 
 V. N. Staroverov, T. A. Keith, R. Kobayashi, J. Normand, 
 K. Raghavachari, A. P. Rendell, J. C. Burant, S. S. Iyengar, 
 J. Tomasi, M. Cossi, J. M. Millam, M. Klene, C. Adamo, R. Cammi, 
 J. W. Ochterski, R. L. Martin, K. Morokuma, O. Farkas, 
 J. B. Foresman, and D. J. Fox, Gaussian, Inc., Wallingford CT, 2016.
 
 ******************************************
 Gaussian 16:  ES64L-G16RevA.03 25-Dec-2016
                22-May-2022 
 ******************************************
 %chk=BH-1.3-UHF-G.chk
 ---------------------------------------
 #p UHF/aug-cc-pVQZ guess=mix stable=opt
 ---------------------------------------
 1/38=1,172=1/1;
 2/12=2,17=6,18=5,40=1/2;
 3/5=16,6=2,7=10,11=2,25=1,30=1,116=2/1,2,3;
 4/13=-1/1;
 5/5=2,38=5/2;
 6/7=2,8=2,9=2,10=2,28=1/1;
 8/6=1,10=90,11=11/1;
 9/8=-3,42=1,46=1/14;
 5/5=2,8=3,17=40,38=5/8(-2);
 6/7=2,8=2,9=2,10=2,28=1/1;
 99/5=1,9=1/99;
 Leave Link    1 at Sun May 22 18:30:18 2022, MaxMem=           0 cpu:               0.0 elap:               0.0
 (Enter /apps/software/g16/l101.exe)
 ----------------------
 BH UHF at 1.3 Angstrom
 ----------------------
 Symbolic Z-matrix:
 Charge =  0 Multiplicity = 1
 B                     0.        0.        0. 
 H                     1.3       0.        0. 
 
 ITRead=  0  0
 MicOpt= -1 -1
 NAtoms=      2 NQM=        2 NQMF=       0 NMMI=      0 NMMIF=      0
                NMic=       0 NMicF=      0.
                    Isotopes and Nuclear Properties:
 (Nuclear quadrupole moments (NQMom) in fm**2, nuclear magnetic moments (NMagM)
  in nuclear magnetons)

  Atom         1           2
 IAtWgt=          11           1
 AtmWgt=  11.0093053   1.0078250
 NucSpn=           3           1
 AtZEff=  -0.0000000  -0.0000000
 NQMom=    4.0590000   0.0000000
 NMagM=    2.6886370   2.7928460
 AtZNuc=   5.0000000   1.0000000
 Leave Link  101 at Sun May 22 18:30:18 2022, MaxMem=   104857600 cpu:               0.1 elap:               0.1
 (Enter /apps/software/g16/l202.exe)
                          Input orientation:                          
 ---------------------------------------------------------------------
 Center     Atomic      Atomic             Coordinates (Angstroms)
 Number     Number       Type             X           Y           Z
 ---------------------------------------------------------------------
      1          5           0        0.000000    0.000000    0.000000
      2          1           0        1.300000    0.000000    0.000000
 ---------------------------------------------------------------------
 Stoichiometry    BH
 Framework group  C*V[C*(HB)]
 Deg. of freedom     1
 Full point group                 C*V     NOp   4
 Largest Abelian subgroup         C2V     NOp   4
 Largest concise Abelian subgroup C1      NOp   1
                         Standard orientation:                         
 ---------------------------------------------------------------------
 Center     Atomic      Atomic             Coordinates (Angstroms)
 Number     Number       Type             X           Y           Z
 ---------------------------------------------------------------------
      1          5           0        0.000000    0.000000    0.216667
      2          1           0        0.000000    0.000000   -1.083333
 ---------------------------------------------------------------------
 Rotational constants (GHZ):           0.0000000         323.8815493         323.8815493
 Leave Link  202 at Sun May 22 18:30:18 2022, MaxMem=   104857600 cpu:               0.0 elap:               0.0
 (Enter /apps/software/g16/l301.exe)
 Standard basis: Aug-CC-pVQZ (5D, 7F)
 Ernie: Thresh=  0.10000D-02 Tol=  0.10000D-05 Strict=F.
 Ernie:  4 primitive shells out of 54 were deleted.
 There are    68 symmetry adapted cartesian basis functions of A1  symmetry.
 There are    18 symmetry adapted cartesian basis functions of A2  symmetry.
 There are    37 symmetry adapted cartesian basis functions of B1  symmetry.
 There are    37 symmetry adapted cartesian basis functions of B2  symmetry.
 There are    50 symmetry adapted basis functions of A1  symmetry.
 There are    16 symmetry adapted basis functions of A2  symmetry.
 There are    30 symmetry adapted basis functions of B1  symmetry.
 There are    30 symmetry adapted basis functions of B2  symmetry.
   126 basis functions,   180 primitive gaussians,   160 cartesian basis functions
     3 alpha electrons        3 beta electrons
       nuclear repulsion energy         2.0352969651 Hartrees.
 IExCor=    0 DFT=F Ex=HF Corr=None ExCW=0 ScaHFX=  1.000000
 ScaDFX=  1.000000  1.000000  1.000000  1.000000 ScalE2=  1.000000  1.000000
 IRadAn=      5 IRanWt=     -1 IRanGd=            0 ICorTp=0 IEmpDi=  4
 NAtoms=    2 NActive=    2 NUniq=    2 SFac= 1.00D+00 NAtFMM=   60 NAOKFM=F Big=F
 Integral buffers will be    131072 words long.
 Raffenetti 2 integral format.
 Two-electron integral symmetry is turned on.
 Leave Link  301 at Sun May 22 18:30:18 2022, MaxMem=   104857600 cpu:               0.0 elap:               0.0
 (Enter /apps/software/g16/l302.exe)
 NPDir=0 NMtPBC=     1 NCelOv=     1 NCel=       1 NClECP=     1 NCelD=      1
         NCelK=      1 NCelE2=     1 NClLst=     1 CellRange=     0.0.
 One-electron integrals computed using PRISM.
 One-electron integral symmetry used in STVInt
 NBasis=   126 RedAO= T EigKep=  1.36D-04  NBF=    50    16    30    30
 NBsUse=   126 1.00D-06 EigRej= -1.00D+00 NBFU=    50    16    30    30
 Leave Link  302 at Sun May 22 18:30:18 2022, MaxMem=   104857600 cpu:               0.1 elap:               0.1
 (Enter /apps/software/g16/l303.exe)
 DipDrv:  MaxL=1.
 Leave Link  303 at Sun May 22 18:30:18 2022, MaxMem=   104857600 cpu:               0.0 elap:               0.0
 (Enter /apps/software/g16/l401.exe)
 ExpMin= 1.88D-02 ExpMax= 2.39D+04 ExpMxC= 2.30D+02 IAcc=3 IRadAn=         5 AccDes= 0.00D+00
 Harris functional with IExCor=  205 and IRadAn=       5 diagonalized for initial guess.
 HarFok:  IExCor=  205 AccDes= 0.00D+00 IRadAn=         5 IDoV= 1 UseB2=F ITyADJ=14
 ICtDFT=  3500011 ScaDFX=  1.000000  1.000000  1.000000  1.000000
 FoFCou: FMM=F IPFlag=           0 FMFlag=      100000 FMFlg1=           0
         NFxFlg=           0 DoJE=T BraDBF=F KetDBF=T FulRan=T
         wScrn=  0.000000 ICntrl=       500 IOpCl=  0 I1Cent=   200000004 NGrid=           0
         NMat0=    1 NMatS0=      1 NMatT0=    0 NMatD0=    1 NMtDS0=    0 NMtDT0=    0
 Petite list used in FoFCou.
 Harris En= -25.1016437161538    
 JPrj=0 DoOrth=F DoCkMO=T.
 Mixing orbitals, IMix= 1 IMixAn=  0 NRI=1 NE=    3 Coef=  7.07106781D-01  7.07106781D-01
 Mixing orbitals, IMix= 1 IMixAn=  0 NRI=1 NE=    3 Coef= -7.07106781D-01  7.07106781D-01
 Initial guess orbital symmetries:
 Alpha Orbitals:
       Occupied  (SG) (SG) (?A)
       Virtual   (?A) (?A) (SG) (SG) (PI) (PI) (SG) (SG) (PI) (PI)
                 (DLTA) (DLTA) (SG) (SG) (PI) (PI) (PI) (PI) (SG)
                 (SG) (PI) (PI) (DLTA) (DLTA) (DLTA) (DLTA) (PHI)
                 (PHI) (SG) (SG) (PI) (PI) (SG) (PI) (PI) (SG)
                 (DLTA) (DLTA) (PI) (PI) (SG) (PI) (PI) (SG) (DLTA)
                 (DLTA) (PHI) (PHI) (SG) (PI) (PI) (?B) (?B) (DLTA)
                 (DLTA) (PHI) (PHI) (SG) (PI) (PI) (DLTA) (DLTA)
                 (SG) (PI) (PI) (PHI) (PHI) (SG) (DLTA) (DLTA)
                 (PI) (PI) (SG) (SG) (DLTA) (DLTA) (PI) (PI) (SG)
                 (PI) (PI) (SG) (PI) (PI) (DLTA) (DLTA) (PHI) (PHI)
                 (?B) (?B) (DLTA) (DLTA) (SG) (PHI) (PHI) (PI)
                 (PI) (PI) (PI) (DLTA) (DLTA) (SG) (SG) (PI) (PI)
                 (SG) (PHI) (PHI) (DLTA) (DLTA) (SG) (PI) (PI)
                 (SG) (PI) (PI) (DLTA) (DLTA) (PI) (PI) (SG) (SG)
                 (SG)
 Beta  Orbitals:
       Occupied  (SG) (SG) (?A)
       Virtual   (?A) (?A) (SG) (SG) (PI) (PI) (SG) (SG) (PI) (PI)
                 (DLTA) (DLTA) (SG) (SG) (PI) (PI) (PI) (PI) (SG)
                 (SG) (PI) (PI) (DLTA) (DLTA) (DLTA) (DLTA) (PHI)
                 (PHI) (SG) (SG) (PI) (PI) (SG) (PI) (PI) (SG)
                 (DLTA) (DLTA) (PI) (PI) (SG) (PI) (PI) (SG) (DLTA)
                 (DLTA) (PHI) (PHI) (SG) (PI) (PI) (?B) (?B) (DLTA)
                 (DLTA) (PHI) (PHI) (SG) (PI) (PI) (DLTA) (DLTA)
                 (SG) (PI) (PI) (PHI) (PHI) (SG) (DLTA) (DLTA)
                 (PI) (PI) (SG) (SG) (DLTA) (DLTA) (PI) (PI) (SG)
                 (PI) (PI) (SG) (PI) (PI) (DLTA) (DLTA) (PHI) (PHI)
                 (?B) (?B) (DLTA) (DLTA) (SG) (PHI) (PHI) (PI)
                 (PI) (PI) (PI) (DLTA) (DLTA) (SG) (SG) (PI) (PI)
                 (SG) (PHI) (PHI) (DLTA) (DLTA) (SG) (PI) (PI)
                 (SG) (PI) (PI) (DLTA) (DLTA) (PI) (PI) (SG) (SG)
                 (SG)
 Initial guess <Sx>= 0.0000 <Sy>= 0.0000 <Sz>= 0.0000 <S**2>= 1.0000 S= 0.6180
 Leave Link  401 at Sun May 22 18:30:18 2022, MaxMem=   104857600 cpu:               0.2 elap:               0.2
 (Enter /apps/software/g16/l502.exe)
 Keep R1 and R2 ints in memory in symmetry-blocked form, NReq=40143665.
 FoFCou: FMM=F IPFlag=           0 FMFlag=           0 FMFlg1=           0
         NFxFlg=           0 DoJE=F BraDBF=F KetDBF=F FulRan=T
         wScrn=  0.000000 ICntrl=       600 IOpCl=  0 I1Cent=           0 NGrid=           0
         NMat0=    1 NMatS0=   8001 NMatT0=    0 NMatD0=    1 NMtDS0=    0 NMtDT0=    0
 Petite list used in FoFCou.
 UHF open shell SCF:
 Using DIIS extrapolation, IDIIS=  1040.
 NGot=   104857600 LenX=    88563632 LenY=    88537591
 Requested convergence on RMS density matrix=1.00D-08 within 128 cycles.
 Requested convergence on MAX density matrix=1.00D-06.
 Requested convergence on             energy=1.00D-06.
 No special actions if energy rises.
 An orbital has undefined symmetry, so N**3 symmetry is turned off.

 Cycle   1  Pass 1  IDiag  1:
 Density matrix breaks symmetry, PCut= 1.00D-07
 Density matrix has no symmetry -- integrals replicated.
 E= -25.0675426360156    
 DIIS: error= 2.10D-02 at cycle   1 NSaved=   1.
 NSaved= 1 IEnMin= 1 EnMin= -25.0675426360156     IErMin= 1 ErrMin= 2.10D-02
 ErrMax= 2.10D-02  0.00D+00 EMaxC= 1.00D-01 BMatC= 1.76D-01 BMatP= 1.76D-01
 IDIUse=3 WtCom= 7.90D-01 WtEn= 2.10D-01
 Coeff-Com:  0.100D+01
 Coeff-En:   0.100D+01
 Coeff:      0.100D+01
 Gap=     0.436 Goal=   None    Shift=    0.000
 Gap=     0.436 Goal=   None    Shift=    0.000
 GapD=    0.436 DampG=2.000 DampE=0.500 DampFc=1.0000 IDamp=-1.
 RMSDP=9.99D-04 MaxDP=4.01D-02              OVMax= 1.50D-01

 Cycle   2  Pass 1  IDiag  1:
 Density matrix breaks symmetry, PCut= 1.00D-07
 Density matrix has no symmetry -- integrals replicated.
 E= -25.1143944936323     Delta-E=       -0.046851857617 Rises=F Damp=F
 DIIS: error= 1.12D-02 at cycle   2 NSaved=   2.
 NSaved= 2 IEnMin= 2 EnMin= -25.1143944936323     IErMin= 2 ErrMin= 1.12D-02
 ErrMax= 1.12D-02  0.00D+00 EMaxC= 1.00D-01 BMatC= 1.02D-02 BMatP= 1.76D-01
 IDIUse=3 WtCom= 8.88D-01 WtEn= 1.12D-01
 Coeff-Com: -0.106D+00 0.111D+01
 Coeff-En:   0.000D+00 0.100D+01
 Coeff:     -0.937D-01 0.109D+01
 Gap=     0.407 Goal=   None    Shift=    0.000
 Gap=     0.407 Goal=   None    Shift=    0.000
 RMSDP=5.44D-04 MaxDP=2.08D-02 DE=-4.69D-02 OVMax= 9.08D-02

 Cycle   3  Pass 1  IDiag  1:
 Density matrix breaks symmetry, PCut= 1.00D-07
 Density matrix has no symmetry -- integrals replicated.
 E= -25.1267994342374     Delta-E=       -0.012404940605 Rises=F Damp=F
 DIIS: error= 6.65D-03 at cycle   3 NSaved=   3.
 NSaved= 3 IEnMin= 3 EnMin= -25.1267994342374     IErMin= 3 ErrMin= 6.65D-03
 ErrMax= 6.65D-03  0.00D+00 EMaxC= 1.00D-01 BMatC= 2.71D-03 BMatP= 1.02D-02
 IDIUse=3 WtCom= 9.34D-01 WtEn= 6.65D-02
 Coeff-Com:  0.534D-01-0.797D+00 0.174D+01
 Coeff-En:   0.000D+00 0.000D+00 0.100D+01
 Coeff:      0.499D-01-0.744D+00 0.169D+01
 Gap=     0.405 Goal=   None    Shift=    0.000
 Gap=     0.405 Goal=   None    Shift=    0.000
 RMSDP=4.64D-04 MaxDP=1.41D-02 DE=-1.24D-02 OVMax= 8.36D-02

 Cycle   4  Pass 1  IDiag  1:
 Density matrix breaks symmetry, PCut= 1.00D-07
 Density matrix has no symmetry -- integrals replicated.
 E= -25.1326604946784     Delta-E=       -0.005861060441 Rises=F Damp=F
 DIIS: error= 2.89D-03 at cycle   4 NSaved=   4.
 NSaved= 4 IEnMin= 4 EnMin= -25.1326604946784     IErMin= 4 ErrMin= 2.89D-03
 ErrMax= 2.89D-03  0.00D+00 EMaxC= 1.00D-01 BMatC= 7.19D-04 BMatP= 2.71D-03
 IDIUse=3 WtCom= 9.71D-01 WtEn= 2.89D-02
 Coeff-Com: -0.425D-01 0.837D+00-0.226D+01 0.247D+01
 Coeff-En:   0.000D+00 0.000D+00 0.000D+00 0.100D+01
 Coeff:     -0.413D-01 0.813D+00-0.220D+01 0.242D+01
 Gap=     0.398 Goal=   None    Shift=    0.000
 Gap=     0.398 Goal=   None    Shift=    0.000
 RMSDP=3.65D-04 MaxDP=1.21D-02 DE=-5.86D-03 OVMax= 6.67D-02

 Cycle   5  Pass 1  IDiag  1:
 Density matrix breaks symmetry, PCut= 1.00D-07
 Density matrix has no symmetry -- integrals replicated.
 E= -25.1348301002729     Delta-E=       -0.002169605595 Rises=F Damp=F
 DIIS: error= 8.44D-04 at cycle   5 NSaved=   5.
 NSaved= 5 IEnMin= 5 EnMin= -25.1348301002729     IErMin= 5 ErrMin= 8.44D-04
 ErrMax= 8.44D-04  0.00D+00 EMaxC= 1.00D-01 BMatC= 1.08D-04 BMatP= 7.19D-04
 IDIUse=3 WtCom= 9.92D-01 WtEn= 8.44D-03
 Coeff-Com:  0.701D-02-0.181D+00 0.559D+00-0.115D+01 0.177D+01
 Coeff-En:   0.000D+00 0.000D+00 0.000D+00 0.000D+00 0.100D+01
 Coeff:      0.695D-02-0.179D+00 0.555D+00-0.114D+01 0.176D+01
 Gap=     0.398 Goal=   None    Shift=    0.000
 Gap=     0.398 Goal=   None    Shift=    0.000
 RMSDP=1.96D-04 MaxDP=6.14D-03 DE=-2.17D-03 OVMax= 3.44D-02

 Cycle   6  Pass 1  IDiag  1:
 Density matrix breaks symmetry, PCut= 1.00D-07
 Density matrix has no symmetry -- integrals replicated.
 E= -25.1352038680180     Delta-E=       -0.000373767745 Rises=F Damp=F
 DIIS: error= 3.69D-04 at cycle   6 NSaved=   6.
 NSaved= 6 IEnMin= 6 EnMin= -25.1352038680180     IErMin= 6 ErrMin= 3.69D-04
 ErrMax= 3.69D-04  0.00D+00 EMaxC= 1.00D-01 BMatC= 1.27D-05 BMatP= 1.08D-04
 IDIUse=3 WtCom= 9.96D-01 WtEn= 3.69D-03
 Coeff-Com: -0.673D-03 0.285D-01-0.968D-01 0.284D+00-0.751D+00 0.154D+01
 Coeff-En:   0.000D+00 0.000D+00 0.000D+00 0.000D+00 0.000D+00 0.100D+01
 Coeff:     -0.671D-03 0.284D-01-0.964D-01 0.283D+00-0.748D+00 0.153D+01
 Gap=     0.396 Goal=   None    Shift=    0.000
 Gap=     0.396 Goal=   None    Shift=    0.000
 RMSDP=5.44D-05 MaxDP=1.95D-03 DE=-3.74D-04 OVMax= 8.46D-03

 Cycle   7  Pass 1  IDiag  1:
 Density matrix breaks symmetry, PCut= 1.00D-07
 Density matrix has no symmetry -- integrals replicated.
 E= -25.1352365695103     Delta-E=       -0.000032701492 Rises=F Damp=F
 DIIS: error= 3.13D-04 at cycle   7 NSaved=   7.
 NSaved= 7 IEnMin= 7 EnMin= -25.1352365695103     IErMin= 7 ErrMin= 3.13D-04
 ErrMax= 3.13D-04  0.00D+00 EMaxC= 1.00D-01 BMatC= 3.46D-06 BMatP= 1.27D-05
 IDIUse=3 WtCom= 9.97D-01 WtEn= 3.13D-03
 Coeff-Com: -0.156D-02 0.329D-01-0.117D+00 0.211D+00-0.143D+00-0.886D+00
 Coeff-Com:  0.190D+01
 Coeff-En:   0.000D+00 0.000D+00 0.000D+00 0.000D+00 0.000D+00 0.000D+00
 Coeff-En:   0.100D+01
 Coeff:     -0.156D-02 0.328D-01-0.117D+00 0.211D+00-0.143D+00-0.883D+00
 Coeff:      0.190D+01
 Gap=     0.396 Goal=   None    Shift=    0.000
 Gap=     0.396 Goal=   None    Shift=    0.000
 RMSDP=3.08D-05 MaxDP=1.18D-03 DE=-3.27D-05 OVMax= 4.37D-03

 Cycle   8  Pass 1  IDiag  1:
 Density matrix breaks symmetry, PCut= 1.00D-07
 Density matrix has no symmetry -- integrals replicated.
 E= -25.1352445728368     Delta-E=       -0.000008003326 Rises=F Damp=F
 DIIS: error= 8.39D-05 at cycle   8 NSaved=   8.
 NSaved= 8 IEnMin= 8 EnMin= -25.1352445728368     IErMin= 8 ErrMin= 8.39D-05
 ErrMax= 8.39D-05  0.00D+00 EMaxC= 1.00D-01 BMatC= 2.53D-07 BMatP= 3.46D-06
 IDIUse=1 WtCom= 1.00D+00 WtEn= 0.00D+00
 Coeff-Com:  0.112D-02-0.206D-01 0.656D-01-0.114D+00 0.128D+00 0.253D+00
 Coeff-Com: -0.890D+00 0.158D+01
 Coeff:      0.112D-02-0.206D-01 0.656D-01-0.114D+00 0.128D+00 0.253D+00
 Coeff:     -0.890D+00 0.158D+01
 Gap=     0.396 Goal=   None    Shift=    0.000
 Gap=     0.396 Goal=   None    Shift=    0.000
 RMSDP=3.95D-06 MaxDP=1.09D-04 DE=-8.00D-06 OVMax= 7.04D-04

 Cycle   9  Pass 1  IDiag  1:
 Density matrix breaks symmetry, PCut= 1.00D-07
 Density matrix has no symmetry -- integrals replicated.
 E= -25.1352449471161     Delta-E=       -0.000000374279 Rises=F Damp=F
 DIIS: error= 4.98D-06 at cycle   9 NSaved=   9.
 NSaved= 9 IEnMin= 9 EnMin= -25.1352449471161     IErMin= 9 ErrMin= 4.98D-06
 ErrMax= 4.98D-06  0.00D+00 EMaxC= 1.00D-01 BMatC= 6.77D-09 BMatP= 2.53D-07
 IDIUse=1 WtCom= 1.00D+00 WtEn= 0.00D+00
 Coeff-Com: -0.262D-03 0.465D-02-0.147D-01 0.255D-01-0.325D-01-0.662D-01
 Coeff-Com:  0.244D+00-0.551D+00 0.139D+01
 Coeff:     -0.262D-03 0.465D-02-0.147D-01 0.255D-01-0.325D-01-0.662D-01
 Coeff:      0.244D+00-0.551D+00 0.139D+01
 Gap=     0.396 Goal=   None    Shift=    0.000
 Gap=     0.396 Goal=   None    Shift=    0.000
 RMSDP=1.12D-06 MaxDP=3.97D-05 DE=-3.74D-07 OVMax= 1.33D-04

 Cycle  10  Pass 1  IDiag  1:
 Density matrix breaks symmetry, PCut= 1.00D-07
 Density matrix has no symmetry -- integrals replicated.
 E= -25.1352449576131     Delta-E=       -0.000000010497 Rises=F Damp=F
 DIIS: error= 9.60D-07 at cycle  10 NSaved=  10.
 NSaved=10 IEnMin=10 EnMin= -25.1352449576131     IErMin=10 ErrMin= 9.60D-07
 ErrMax= 9.60D-07  0.00D+00 EMaxC= 1.00D-01 BMatC= 2.23D-10 BMatP= 6.77D-09
 IDIUse=1 WtCom= 1.00D+00 WtEn= 0.00D+00
 Coeff-Com:  0.658D-04-0.112D-02 0.342D-02-0.588D-02 0.782D-02 0.181D-01
 Coeff-Com: -0.633D-01 0.145D+00-0.498D+00 0.139D+01
 Coeff:      0.658D-04-0.112D-02 0.342D-02-0.588D-02 0.782D-02 0.181D-01
 Coeff:     -0.633D-01 0.145D+00-0.498D+00 0.139D+01
 Gap=     0.396 Goal=   None    Shift=    0.000
 Gap=     0.396 Goal=   None    Shift=    0.000
 RMSDP=2.09D-07 MaxDP=9.72D-06 DE=-1.05D-08 OVMax= 1.83D-05

 Cycle  11  Pass 1  IDiag  1:
 Density matrix breaks symmetry, PCut= 1.00D-07
 Density matrix has no symmetry -- integrals replicated.
 E= -25.1352449578950     Delta-E=       -0.000000000282 Rises=F Damp=F
 DIIS: error= 1.96D-07 at cycle  11 NSaved=  11.
 NSaved=11 IEnMin=11 EnMin= -25.1352449578950     IErMin=11 ErrMin= 1.96D-07
 ErrMax= 1.96D-07  0.00D+00 EMaxC= 1.00D-01 BMatC= 7.76D-12 BMatP= 2.23D-10
 IDIUse=1 WtCom= 1.00D+00 WtEn= 0.00D+00
 Coeff-Com: -0.101D-04 0.143D-03-0.379D-03 0.545D-03-0.701D-03-0.385D-02
 Coeff-Com:  0.109D-01-0.245D-01 0.106D+00-0.437D+00 0.135D+01
 Coeff:     -0.101D-04 0.143D-03-0.379D-03 0.545D-03-0.701D-03-0.385D-02
 Coeff:      0.109D-01-0.245D-01 0.106D+00-0.437D+00 0.135D+01
 Gap=     0.396 Goal=   None    Shift=    0.000
 Gap=     0.396 Goal=   None    Shift=    0.000
 RMSDP=3.58D-08 MaxDP=1.06D-06 DE=-2.82D-10 OVMax= 4.81D-06

 Cycle  12  Pass 1  IDiag  1:
 Density matrix breaks symmetry, PCut= 1.00D-07
 Density matrix has no symmetry -- integrals replicated.
 E= -25.1352449579056     Delta-E=       -0.000000000011 Rises=F Damp=F
 DIIS: error= 4.25D-08 at cycle  12 NSaved=  12.
 NSaved=12 IEnMin=12 EnMin= -25.1352449579056     IErMin=12 ErrMin= 4.25D-08
 ErrMax= 4.25D-08  0.00D+00 EMaxC= 1.00D-01 BMatC= 2.13D-13 BMatP= 7.76D-12
 IDIUse=1 WtCom= 1.00D+00 WtEn= 0.00D+00
 Coeff-Com:  0.861D-06-0.115D-04 0.266D-04-0.433D-04 0.637D-04 0.510D-03
 Coeff-Com: -0.137D-02 0.263D-02-0.111D-01 0.598D-01-0.332D+00 0.128D+01
 Coeff:      0.861D-06-0.115D-04 0.266D-04-0.433D-04 0.637D-04 0.510D-03
 Coeff:     -0.137D-02 0.263D-02-0.111D-01 0.598D-01-0.332D+00 0.128D+01
 Gap=     0.396 Goal=   None    Shift=    0.000
 Gap=     0.396 Goal=   None    Shift=    0.000
 RMSDP=5.80D-09 MaxDP=1.47D-07 DE=-1.06D-11 OVMax= 8.82D-07

 Density matrix breaks symmetry, PCut= 1.00D-07
 Density matrix has no symmetry -- integrals replicated.
 SCF Done:  E(UHF) =  -25.1352449579     A.U. after   12 cycles
            NFock= 12  Conv=0.58D-08     -V/T= 2.0031
 <Sx>= 0.0000 <Sy>= 0.0000 <Sz>= 0.0000 <S**2>= 0.4615 S= 0.3435
 <L.S>=  0.00000000000    
 KE= 2.505851716483D+01 PE=-6.203849745528D+01 EE= 9.809438367468D+00
 Annihilation of the first spin contaminant:
 S**2 before annihilation     0.4615,   after     0.0051
 Leave Link  502 at Sun May 22 18:30:22 2022, MaxMem=   104857600 cpu:               3.9 elap:               3.9
 (Enter /apps/software/g16/l601.exe)
 Copying SCF densities to generalized density rwf, IOpCl= 1 IROHF=0.
 SCF density gives NOpUse=  1 NOpAll=  4.
 Marking SCF density as not fully symmetric.

 **********************************************************************

            Population analysis using the SCF density.

 **********************************************************************

 Orbital symmetries:
 Alpha Orbitals:
       Occupied  (SG) (SG) (?A)
       Virtual   (?A) (?A) (?A) (?A) (?A) (?A) (?A) (?A) (?A) (?A)
                 (?A) (SG) (?A) (?B) (?B) (?B) (?A) (?A) (?A) (?A)
                 (?A) (?A) (?A) (?A) (?A) (?A) (?A) (?A) (?A) (?A)
                 (PI) (PI) (SG) (PI) (PI) (DLTA) (DLTA) (SG) (?C)
                 (?C) (?C) (PI) (PI) (?D) (?E) (?E) (?E) (?E) (?D)
                 (?D) (?D) (?D) (?D) (?D) (?D) (?D) (?D) (?F) (?F)
                 (?F) (?F) (?F) (SG) (?G) (?G) (?G) (?G) (SG) (DLTA)
                 (DLTA) (PI) (PI) (SG) (SG) (DLTA) (DLTA) (PI)
                 (PI) (?H) (?H) (?H) (SG) (?I) (?I) (?I) (?I) (?I)
                 (?I) (DLTA) (DLTA) (?J) (?J) (?J) (?J) (?J) (?J)
                 (?J) (?J) (?J) (?J) (?J) (SG) (SG) (PI) (PI) (SG)
                 (PHI) (PHI) (DLTA) (DLTA) (SG) (PI) (PI) (SG)
                 (?K) (?K) (?K) (?K) (PI) (PI) (SG) (SG) (SG)
 Beta  Orbitals:
       Occupied  (SG) (SG) (?A)
       Virtual   (?A) (?A) (?A) (?A) (?A) (?A) (?A) (?A) (?A) (?A)
                 (?A) (SG) (?A) (?B) (?B) (?B) (?A) (?A) (?A) (?A)
                 (?A) (?A) (?A) (?A) (?A) (?A) (?A) (?A) (?A) (?A)
                 (PI) (PI) (SG) (PI) (PI) (DLTA) (DLTA) (SG) (?C)
                 (?C) (?C) (PI) (PI) (?D) (?E) (?E) (?E) (?E) (?D)
                 (?D) (?D) (?D) (?D) (?D) (?D) (?D) (?D) (?F) (?F)
                 (?F) (?F) (?F) (SG) (?G) (?G) (?G) (?G) (SG) (DLTA)
                 (DLTA) (PI) (PI) (SG) (SG) (DLTA) (DLTA) (PI)
                 (PI) (?H) (?H) (?H) (SG) (?I) (?I) (?I) (?I) (?I)
                 (?I) (DLTA) (DLTA) (?J) (?J) (?J) (?J) (?J) (?J)
                 (?J) (?J) (?J) (?J) (?J) (SG) (SG) (PI) (PI) (SG)
                 (PHI) (PHI) (DLTA) (DLTA) (SG) (PI) (PI) (SG)
                 (?K) (?K) (?K) (?K) (PI) (PI) (SG) (SG) (SG)
 Unable to determine electronic state:  an orbital has unidentified symmetry.
 Alpha  occ. eigenvalues --   -7.68468  -0.62539  -0.37048
 Alpha virt. eigenvalues --    0.02528   0.02943   0.03360   0.04514   0.08040
 Alpha virt. eigenvalues --    0.08605   0.11304   0.13504   0.13667   0.14635
 Alpha virt. eigenvalues --    0.14640   0.15025   0.19200   0.25987   0.27348
 Alpha virt. eigenvalues --    0.27481   0.31408   0.31567   0.39211   0.40839
 Alpha virt. eigenvalues --    0.45712   0.45712   0.46285   0.46286   0.47755
 Alpha virt. eigenvalues --    0.48098   0.50287   0.50309   0.53635   0.53838
 Alpha virt. eigenvalues --    0.58587   0.58874   0.74924   0.78322   0.78517
 Alpha virt. eigenvalues --    0.80665   0.80669   0.83706   1.02745   1.02790
 Alpha virt. eigenvalues --    1.14124   1.19808   1.20162   1.35297   1.37108
 Alpha virt. eigenvalues --    1.37108   1.37338   1.37338   1.38912   1.38926
 Alpha virt. eigenvalues --    1.43502   1.43699   1.44091   1.44311   1.44670
 Alpha virt. eigenvalues --    1.45955   1.46066   1.54307   1.57238   1.57840
 Alpha virt. eigenvalues --    1.62119   1.62131   1.70786   1.85449   1.85780
 Alpha virt. eigenvalues --    1.87459   1.87460   1.92987   2.07952   2.07953
 Alpha virt. eigenvalues --    2.20694   2.21146   2.30633   2.49269   2.99156
 Alpha virt. eigenvalues --    2.99157   3.06469   3.06795   3.26921   3.27286
 Alpha virt. eigenvalues --    3.30208   3.44473   3.92146   3.92546   3.92546
 Alpha virt. eigenvalues --    3.92952   3.94001   3.94002   3.99971   3.99975
 Alpha virt. eigenvalues --    4.09834   4.09839   4.11249   4.11368   4.13098
 Alpha virt. eigenvalues --    4.13794   4.14682   4.24346   4.24359   4.29331
 Alpha virt. eigenvalues --    4.30076   4.47292   4.92567   5.17893   5.18529
 Alpha virt. eigenvalues --    5.54667   6.69748   6.69748   7.10245   7.10245
 Alpha virt. eigenvalues --    7.61887   7.64804   7.65069   8.21857   8.72794
 Alpha virt. eigenvalues --    8.72994   8.73892   8.73893   9.25760   9.25916
 Alpha virt. eigenvalues --    9.48303  10.28024  15.60545
  Beta  occ. eigenvalues --   -7.68468  -0.62539  -0.37048
  Beta virt. eigenvalues --    0.02528   0.02943   0.03360   0.04514   0.08040
  Beta virt. eigenvalues --    0.08605   0.11304   0.13504   0.13667   0.14635
  Beta virt. eigenvalues --    0.14640   0.15025   0.19200   0.25987   0.27348
  Beta virt. eigenvalues --    0.27481   0.31408   0.31567   0.39211   0.40839
  Beta virt. eigenvalues --    0.45712   0.45712   0.46285   0.46286   0.47755
  Beta virt. eigenvalues --    0.48098   0.50287   0.50309   0.53635   0.53838
  Beta virt. eigenvalues --    0.58587   0.58874   0.74924   0.78322   0.78517
  Beta virt. eigenvalues --    0.80665   0.80669   0.83706   1.02745   1.02790
  Beta virt. eigenvalues --    1.14124   1.19808   1.20162   1.35297   1.37108
  Beta virt. eigenvalues --    1.37108   1.37338   1.37338   1.38912   1.38926
  Beta virt. eigenvalues --    1.43502   1.43699   1.44091   1.44311   1.44670
  Beta virt. eigenvalues --    1.45955   1.46066   1.54307   1.57238   1.57840
  Beta virt. eigenvalues --    1.62119   1.62131   1.70786   1.85449   1.85780
  Beta virt. eigenvalues --    1.87459   1.87460   1.92987   2.07952   2.07953
  Beta virt. eigenvalues --    2.20694   2.21146   2.30633   2.49269   2.99156
  Beta virt. eigenvalues --    2.99157   3.06469   3.06795   3.26921   3.27286
  Beta virt. eigenvalues --    3.30208   3.44473   3.92146   3.92546   3.92546
  Beta virt. eigenvalues --    3.92952   3.94001   3.94002   3.99971   3.99975
  Beta virt. eigenvalues --    4.09834   4.09839   4.11249   4.11368   4.13098
  Beta virt. eigenvalues --    4.13794   4.14682   4.24346   4.24359   4.29331
  Beta virt. eigenvalues --    4.30076   4.47292   4.92567   5.17893   5.18529
  Beta virt. eigenvalues --    5.54667   6.69748   6.69748   7.10245   7.10245
  Beta virt. eigenvalues --    7.61887   7.64804   7.65069   8.21857   8.72794
  Beta virt. eigenvalues --    8.72994   8.73892   8.73893   9.25760   9.25916
  Beta virt. eigenvalues --    9.48303  10.28024  15.60545
          Condensed to atoms (all electrons):
               1          2
     1  B    4.644543   0.219252
     2  H    0.219252   0.916952
          Atomic-Atomic Spin Densities.
               1          2
     1  B    0.000000   0.000000
     2  H    0.000000   0.000000
 Mulliken charges and spin densities:
               1          2
     1  B    0.136204   0.000000
     2  H   -0.136204   0.000000
 Sum of Mulliken charges =  -0.00000   0.00000
 Mulliken charges and spin densities with hydrogens summed into heavy atoms:
               1          2
     1  B   -0.000000   0.000000
 Electronic spatial extent (au):  <R**2>=             22.7810
 Charge=             -0.0000 electrons
 Dipole moment (field-independent basis, Debye):
    X=             -0.0000    Y=              0.0000    Z=             -1.0694  Tot=              1.0694
 Quadrupole moment (field-independent basis, Debye-Ang):
   XX=             -6.4872   YY=             -7.4486   ZZ=             -9.9409
   XY=              0.0000   XZ=             -0.0000   YZ=              0.0000
 Traceless Quadrupole moment (field-independent basis, Debye-Ang):
   XX=              1.4717   YY=              0.5103   ZZ=             -1.9820
   XY=              0.0000   XZ=             -0.0000   YZ=              0.0000
 Octapole moment (field-independent basis, Debye-Ang**2):
  XXX=             -0.0000  YYY=              0.0000  ZZZ=             -4.1202  XYY=             -0.0000
  XXY=              0.0000  XXZ=             -0.9576  XZZ=             -0.0000  YZZ=              0.0000
  YYZ=             -1.3598  XYZ=              0.0000
 Hexadecapole moment (field-independent basis, Debye-Ang**3):
 XXXX=             -8.8512 YYYY=            -11.5775 ZZZZ=            -27.8834 XXXY=              0.0000
 XXXZ=             -0.0000 YYYX=              0.0000 YYYZ=              0.0000 ZZZX=             -0.0000
 ZZZY=              0.0000 XXYY=             -3.4047 XXZZ=             -6.2916 YYZZ=             -6.8923
 XXYZ=              0.0000 YYXZ=             -0.0000 ZZXY=              0.0000
 N-N= 2.035296965077D+00 E-N=-6.203849746222D+01  KE= 2.505851716483D+01
 Symmetry A1   KE= 2.485072846217D+01
 Symmetry A2   KE= 6.066511340215D-30
 Symmetry B1   KE= 3.109513903440D-29
 Symmetry B2   KE= 2.077887026604D-01
 Symmetry A1   SP= 0.000000000000D+00
 Symmetry A2   SP= 0.000000000000D+00
 Symmetry B1   SP= 0.000000000000D+00
 Symmetry B2   SP= 0.000000000000D+00
                          Isotropic Fermi Contact Couplings
        Atom                 a.u.       MegaHertz       Gauss      10(-4) cm-1
     1  B(11)              0.00000       0.00000       0.00000       0.00000
     2  H(1)               0.00000       0.00000       0.00000       0.00000
 --------------------------------------------------------
       Center         ----  Spin Dipole Couplings  ----
                      3XX-RR        3YY-RR        3ZZ-RR
 --------------------------------------------------------
     1   Atom        0.000000      0.000000      0.000000
     2   Atom        0.000000      0.000000      0.000000
 --------------------------------------------------------
                        XY            XZ            YZ
 --------------------------------------------------------
     1   Atom        0.000000      0.000000      0.410752
     2   Atom        0.000000      0.000000     -0.000610
 --------------------------------------------------------


 ---------------------------------------------------------------------------------
              Anisotropic Spin Dipole Couplings in Principal Axis System
 ---------------------------------------------------------------------------------

       Atom             a.u.   MegaHertz   Gauss  10(-4) cm-1        Axes

              Baa    -0.4108   -70.327   -25.094   -23.459 -0.0000  0.7071 -0.7071
     1 B(11)  Bbb     0.0000     0.000     0.000     0.000  1.0000  0.0000 -0.0000
              Bcc     0.4108    70.327    25.094    23.459  0.0000  0.7071  0.7071
 
              Baa    -0.0006    -0.326    -0.116    -0.109 -0.0000  0.7071  0.7071
     2 H(1)   Bbb     0.0000     0.000     0.000     0.000  1.0000  0.0000  0.0000
              Bcc     0.0006     0.326     0.116     0.109  0.0000  0.7071 -0.7071
 

 ---------------------------------------------------------------------------------

 No NMR shielding tensors so no spin-rotation constants.
 Leave Link  601 at Sun May 22 18:30:22 2022, MaxMem=   104857600 cpu:               0.2 elap:               0.2
 (Enter /apps/software/g16/l801.exe)
 Range of M.O.s used for correlation:     1   126
 NBasis=   126 NAE=     3 NBE=     3 NFC=     0 NFV=     0
 NROrb=    126 NOA=     3 NOB=     3 NVA=   123 NVB=   123

 **** Warning!!: The largest alpha MO coefficient is  0.22511168D+02


 **** Warning!!: The largest beta MO coefficient is  0.22511168D+02

 Leave Link  801 at Sun May 22 18:30:22 2022, MaxMem=   104857600 cpu:               0.0 elap:               0.0
 (Enter /apps/software/g16/l914.exe)
 UHF ground state
 Doing stability rather than CIS.
 Keep R1 and R2 ints in memory in symmetry-blocked form, NReq=40144005.
 FoFCou: FMM=F IPFlag=           0 FMFlag=           0 FMFlg1=           0
         NFxFlg=           0 DoJE=F BraDBF=F KetDBF=F FulRan=T
         wScrn=  0.000000 ICntrl=       600 IOpCl=  0 I1Cent=           0 NGrid=           0
         NMat0=    1 NMatS0=   8001 NMatT0=    0 NMatD0=    1 NMtDS0=    0 NMtDT0=    0
 Petite list used in FoFCou.
 MDV=   104857600 DFT=F DoStab=T Mixed=F DoRPA=F DoScal=F NonHer=F
 Making orbital integer symmetry assigments:
 Orbital symmetries:
 Alpha Orbitals:
       Occupied  (SG) (SG) (?A)
       Virtual   (?A) (?A) (?A) (?A) (?A) (?A) (?A) (?A) (?A) (?A)
                 (?A) (SG) (?A) (?B) (?B) (?B) (?A) (?A) (?A) (?A)
                 (?A) (?A) (?A) (?A) (?A) (?A) (?A) (?A) (?A) (?A)
                 (PI) (PI) (SG) (PI) (PI) (DLTA) (DLTA) (SG) (?C)
                 (?C) (?C) (PI) (PI) (?D) (?E) (?E) (?E) (?E) (?D)
                 (?D) (?D) (?D) (?D) (?D) (?D) (?D) (?D) (?F) (?F)
                 (?F) (?F) (?F) (SG) (?G) (?G) (?G) (?G) (SG) (DLTA)
                 (DLTA) (PI) (PI) (SG) (SG) (DLTA) (DLTA) (PI)
                 (PI) (?H) (?H) (?H) (SG) (?I) (?I) (?I) (?I) (?I)
                 (?I) (DLTA) (DLTA) (?J) (?J) (?J) (?J) (?J) (?J)
                 (?J) (?J) (?J) (?J) (?J) (SG) (SG) (PI) (PI) (SG)
                 (PHI) (PHI) (DLTA) (DLTA) (SG) (PI) (PI) (SG)
                 (?K) (?K) (?K) (?K) (PI) (PI) (SG) (SG) (SG)
 Beta  Orbitals:
       Occupied  (SG) (SG) (?A)
       Virtual   (?A) (?A) (?A) (?A) (?A) (?A) (?A) (?A) (?A) (?A)
                 (?A) (SG) (?A) (?B) (?B) (?B) (?A) (?A) (?A) (?A)
                 (?A) (?A) (?A) (?A) (?A) (?A) (?A) (?A) (?A) (?A)
                 (PI) (PI) (SG) (PI) (PI) (DLTA) (DLTA) (SG) (?C)
                 (?C) (?C) (PI) (PI) (?D) (?E) (?E) (?E) (?E) (?D)
                 (?D) (?D) (?D) (?D) (?D) (?D) (?D) (?D) (?F) (?F)
                 (?F) (?F) (?F) (SG) (?G) (?G) (?G) (?G) (SG) (DLTA)
                 (DLTA) (PI) (PI) (SG) (SG) (DLTA) (DLTA) (PI)
                 (PI) (?H) (?H) (?H) (SG) (?I) (?I) (?I) (?I) (?I)
                 (?I) (DLTA) (DLTA) (?J) (?J) (?J) (?J) (?J) (?J)
                 (?J) (?J) (?J) (?J) (?J) (SG) (SG) (PI) (PI) (SG)
                 (PHI) (PHI) (DLTA) (DLTA) (SG) (PI) (PI) (SG)
                 (?K) (?K) (?K) (?K) (PI) (PI) (SG) (SG) (SG)
    12 initial guesses have been made.
 Convergence on wavefunction:    0.001000000000000
 Davidson Disk Diagonalization:  ConvIn= 1.00D-03 SkipCon=T Conv= 1.00D-03.
 Max sub-space:  1476 roots to seek:    12 dimension of matrix:          738
 Iteration     1 Dimension    12 NMult     0 NNew     12
 CISAX will form    12 AO SS matrices at one time.
 NMat=    12 NSing=    12 JSym2X= 2.
 Excitation Energies [eV] at current iteration:
 Root      1 :     0.579245915950261
 Root      2 :     2.826080402027212
 Root      3 :     3.686441253574527
 Root      4 :     4.060200779221822
 Root      5 :     6.611037824139317
 Root      6 :     6.835550338965836
 Root      7 :     7.067532505538519
 Root      8 :     7.260977071789447
 Root      9 :     8.052261718007983
 Root     10 :     8.210086975703923
 Root     11 :     9.884884682896116
 Root     12 :    13.581409519874487
 Iteration     2 Dimension    24 NMult    12 NNew     12
 CISAX will form    12 AO SS matrices at one time.
 NMat=    12 NSing=    12 JSym2X= 2.
 Root      1 not converged, maximum delta is    0.051020397599669
 Excitation Energies [eV] at current iteration:
 Root      1 :     0.009246980350753   Change is   -0.569998935599508
 Root      2 :     2.122036914746038   Change is   -0.704043487281174
 Root      3 :     2.981281766630623   Change is   -0.705159486943905
 Root      4 :     3.670620886067333   Change is   -0.389579893154489
 Root      5 :     6.006650386240862   Change is   -0.828899952724975
 Root      6 :     6.144398094792062   Change is   -0.466639729347255
 Root      7 :     6.373110897687075   Change is   -0.694421607851444
 Root      8 :     6.956039355701620   Change is   -0.304937716087827
 Root      9 :     7.893171096395202   Change is   -0.159090621612783
 Root     10 :     8.036122708329119   Change is   -0.173964267374804
 Root     11 :     8.088748401788735   Change is   -1.796136281107381
 Root     12 :     9.464298967041502   Change is   -4.117110552832986
 Iteration     3 Dimension    27 NMult    24 NNew      3
 CISAX will form     3 AO SS matrices at one time.
 NMat=     3 NSing=     3 JSym2X= 2.
 Root      1 not converged, maximum delta is    0.008727199342991
 Excitation Energies [eV] at current iteration:
 Root      1 :     0.000122820283212   Change is   -0.009124160067541
 Root      2 :     2.085405993080788   Change is   -0.036630921665250
 Root      3 :     2.934515671469187   Change is   -0.046766095161436
 Iteration     4 Dimension    30 NMult    27 NNew      3
 CISAX will form     3 AO SS matrices at one time.
 NMat=     3 NSing=     3 JSym2X= 2.
 Root      1 has converged.
 Excitation Energies [eV] at current iteration:
 Root      1 :     0.000003189482968   Change is   -0.000119630800243
 Root      2 :     2.076991229497516   Change is   -0.008414763583272
 Root      3 :     2.930115107594358   Change is   -0.004400563874829
 Convergence achieved on expansion vectors.
 ***********************************************************************
 Stability analysis using <AA,BB:AA,BB> singles matrix:
 ***********************************************************************
 1PDM for each excited state written to RWF  633
 Ground to excited state transition densities written to RWF  633

 Eigenvectors of the stability matrix:
 
 Excited state symmetry could not be determined.
 Eigenvector   1:  2.815-?Sym  Eigenvalue= 0.0000001  <S**2>=1.732
      2A ->  8A       -0.10338
      3A ->  4A       -0.43236
      3A ->  8A       -0.46872
      3A -> 21A       -0.22906
      2B ->  8B        0.10338
      3B ->  4B        0.43236
      3B ->  8B        0.46872
      3B -> 21B        0.22906
 The wavefunction is stable under the perturbations considered.
 Leave Link  914 at Sun May 22 18:30:27 2022, MaxMem=   104857600 cpu:               4.1 elap:               4.1
 (Enter /apps/software/g16/l508.exe)
 The wavefunction is already stable.
 Leave Link  508 at Sun May 22 18:30:27 2022, MaxMem=   104857600 cpu:               0.0 elap:               0.0
 (Enter /apps/software/g16/l601.exe)
 Copying SCF densities to generalized density rwf, IOpCl= 1 IROHF=0.
 SCF density gives NOpUse=  1 NOpAll=  4.
 Marking SCF density as not fully symmetric.

 **********************************************************************

            Population analysis using the SCF density.

 **********************************************************************

 Orbital symmetries:
 Alpha Orbitals:
       Occupied  (SG) (SG) (?A)
       Virtual   (?A) (?A) (?A) (?A) (?A) (?A) (?A) (?A) (?A) (?A)
                 (?A) (SG) (?A) (?B) (?B) (?B) (?A) (?A) (?A) (?A)
                 (?A) (?A) (?A) (?A) (?A) (?A) (?A) (?A) (?A) (?A)
                 (PI) (PI) (SG) (PI) (PI) (DLTA) (DLTA) (SG) (?C)
                 (?C) (?C) (PI) (PI) (?D) (?E) (?E) (?E) (?E) (?D)
                 (?D) (?D) (?D) (?D) (?D) (?D) (?D) (?D) (?F) (?F)
                 (?F) (?F) (?F) (SG) (?G) (?G) (?G) (?G) (SG) (DLTA)
                 (DLTA) (PI) (PI) (SG) (SG) (DLTA) (DLTA) (PI)
                 (PI) (?H) (?H) (?H) (SG) (?I) (?I) (?I) (?I) (?I)
                 (?I) (DLTA) (DLTA) (?J) (?J) (?J) (?J) (?J) (?J)
                 (?J) (?J) (?J) (?J) (?J) (SG) (SG) (PI) (PI) (SG)
                 (PHI) (PHI) (DLTA) (DLTA) (SG) (PI) (PI) (SG)
                 (?K) (?K) (?K) (?K) (PI) (PI) (SG) (SG) (SG)
 Beta  Orbitals:
       Occupied  (SG) (SG) (?A)
       Virtual   (?A) (?A) (?A) (?A) (?A) (?A) (?A) (?A) (?A) (?A)
                 (?A) (SG) (?A) (?B) (?B) (?B) (?A) (?A) (?A) (?A)
                 (?A) (?A) (?A) (?A) (?A) (?A) (?A) (?A) (?A) (?A)
                 (PI) (PI) (SG) (PI) (PI) (DLTA) (DLTA) (SG) (?C)
                 (?C) (?C) (PI) (PI) (?D) (?E) (?E) (?E) (?E) (?D)
                 (?D) (?D) (?D) (?D) (?D) (?D) (?D) (?D) (?F) (?F)
                 (?F) (?F) (?F) (SG) (?G) (?G) (?G) (?G) (SG) (DLTA)
                 (DLTA) (PI) (PI) (SG) (SG) (DLTA) (DLTA) (PI)
                 (PI) (?H) (?H) (?H) (SG) (?I) (?I) (?I) (?I) (?I)
                 (?I) (DLTA) (DLTA) (?J) (?J) (?J) (?J) (?J) (?J)
                 (?J) (?J) (?J) (?J) (?J) (SG) (SG) (PI) (PI) (SG)
                 (PHI) (PHI) (DLTA) (DLTA) (SG) (PI) (PI) (SG)
                 (?K) (?K) (?K) (?K) (PI) (PI) (SG) (SG) (SG)
 Unable to determine electronic state:  an orbital has unidentified symmetry.
 Alpha  occ. eigenvalues --   -7.68468  -0.62539  -0.37048
 Alpha virt. eigenvalues --    0.02528   0.02943   0.03360   0.04514   0.08040
 Alpha virt. eigenvalues --    0.08605   0.11304   0.13504   0.13667   0.14635
 Alpha virt. eigenvalues --    0.14640   0.15025   0.19200   0.25987   0.27348
 Alpha virt. eigenvalues --    0.27481   0.31408   0.31567   0.39211   0.40839
 Alpha virt. eigenvalues --    0.45712   0.45712   0.46285   0.46286   0.47755
 Alpha virt. eigenvalues --    0.48098   0.50287   0.50309   0.53635   0.53838
 Alpha virt. eigenvalues --    0.58587   0.58874   0.74924   0.78322   0.78517
 Alpha virt. eigenvalues --    0.80665   0.80669   0.83706   1.02745   1.02790
 Alpha virt. eigenvalues --    1.14124   1.19808   1.20162   1.35297   1.37108
 Alpha virt. eigenvalues --    1.37108   1.37338   1.37338   1.38912   1.38926
 Alpha virt. eigenvalues --    1.43502   1.43699   1.44091   1.44311   1.44670
 Alpha virt. eigenvalues --    1.45955   1.46066   1.54307   1.57238   1.57840
 Alpha virt. eigenvalues --    1.62119   1.62131   1.70786   1.85449   1.85780
 Alpha virt. eigenvalues --    1.87459   1.87460   1.92987   2.07952   2.07953
 Alpha virt. eigenvalues --    2.20694   2.21146   2.30633   2.49269   2.99156
 Alpha virt. eigenvalues --    2.99157   3.06469   3.06795   3.26921   3.27286
 Alpha virt. eigenvalues --    3.30208   3.44473   3.92146   3.92546   3.92546
 Alpha virt. eigenvalues --    3.92952   3.94001   3.94002   3.99971   3.99975
 Alpha virt. eigenvalues --    4.09834   4.09839   4.11249   4.11368   4.13098
 Alpha virt. eigenvalues --    4.13794   4.14682   4.24346   4.24359   4.29331
 Alpha virt. eigenvalues --    4.30076   4.47292   4.92567   5.17893   5.18529
 Alpha virt. eigenvalues --    5.54667   6.69748   6.69748   7.10245   7.10245
 Alpha virt. eigenvalues --    7.61887   7.64804   7.65069   8.21857   8.72794
 Alpha virt. eigenvalues --    8.72994   8.73892   8.73893   9.25760   9.25916
 Alpha virt. eigenvalues --    9.48303  10.28024  15.60545
  Beta  occ. eigenvalues --   -7.68468  -0.62539  -0.37048
  Beta virt. eigenvalues --    0.02528   0.02943   0.03360   0.04514   0.08040
  Beta virt. eigenvalues --    0.08605   0.11304   0.13504   0.13667   0.14635
  Beta virt. eigenvalues --    0.14640   0.15025   0.19200   0.25987   0.27348
  Beta virt. eigenvalues --    0.27481   0.31408   0.31567   0.39211   0.40839
  Beta virt. eigenvalues --    0.45712   0.45712   0.46285   0.46286   0.47755
  Beta virt. eigenvalues --    0.48098   0.50287   0.50309   0.53635   0.53838
  Beta virt. eigenvalues --    0.58587   0.58874   0.74924   0.78322   0.78517
  Beta virt. eigenvalues --    0.80665   0.80669   0.83706   1.02745   1.02790
  Beta virt. eigenvalues --    1.14124   1.19808   1.20162   1.35297   1.37108
  Beta virt. eigenvalues --    1.37108   1.37338   1.37338   1.38912   1.38926
  Beta virt. eigenvalues --    1.43502   1.43699   1.44091   1.44311   1.44670
  Beta virt. eigenvalues --    1.45955   1.46066   1.54307   1.57238   1.57840
  Beta virt. eigenvalues --    1.62119   1.62131   1.70786   1.85449   1.85780
  Beta virt. eigenvalues --    1.87459   1.87460   1.92987   2.07952   2.07953
  Beta virt. eigenvalues --    2.20694   2.21146   2.30633   2.49269   2.99156
  Beta virt. eigenvalues --    2.99157   3.06469   3.06795   3.26921   3.27286
  Beta virt. eigenvalues --    3.30208   3.44473   3.92146   3.92546   3.92546
  Beta virt. eigenvalues --    3.92952   3.94001   3.94002   3.99971   3.99975
  Beta virt. eigenvalues --    4.09834   4.09839   4.11249   4.11368   4.13098
  Beta virt. eigenvalues --    4.13794   4.14682   4.24346   4.24359   4.29331
  Beta virt. eigenvalues --    4.30076   4.47292   4.92567   5.17893   5.18529
  Beta virt. eigenvalues --    5.54667   6.69748   6.69748   7.10245   7.10245
  Beta virt. eigenvalues --    7.61887   7.64804   7.65069   8.21857   8.72794
  Beta virt. eigenvalues --    8.72994   8.73892   8.73893   9.25760   9.25916
  Beta virt. eigenvalues --    9.48303  10.28024  15.60545
          Condensed to atoms (all electrons):
               1          2
     1  B    4.644543   0.219252
     2  H    0.219252   0.916952
          Atomic-Atomic Spin Densities.
               1          2
     1  B    0.000000   0.000000
     2  H    0.000000   0.000000
 Mulliken charges and spin densities:
               1          2
     1  B    0.136204   0.000000
     2  H   -0.136204   0.000000
 Sum of Mulliken charges =  -0.00000   0.00000
 Mulliken charges and spin densities with hydrogens summed into heavy atoms:
               1          2
     1  B   -0.000000   0.000000
 Electronic spatial extent (au):  <R**2>=             22.7810
 Charge=             -0.0000 electrons
 Dipole moment (field-independent basis, Debye):
    X=             -0.0000    Y=              0.0000    Z=             -1.0694  Tot=              1.0694
 Quadrupole moment (field-independent basis, Debye-Ang):
   XX=             -6.4872   YY=             -7.4486   ZZ=             -9.9409
   XY=              0.0000   XZ=             -0.0000   YZ=              0.0000
 Traceless Quadrupole moment (field-independent basis, Debye-Ang):
   XX=              1.4717   YY=              0.5103   ZZ=             -1.9820
   XY=              0.0000   XZ=             -0.0000   YZ=              0.0000
 Octapole moment (field-independent basis, Debye-Ang**2):
  XXX=             -0.0000  YYY=              0.0000  ZZZ=             -4.1202  XYY=             -0.0000
  XXY=              0.0000  XXZ=             -0.9576  XZZ=             -0.0000  YZZ=              0.0000
  YYZ=             -1.3598  XYZ=              0.0000
 Hexadecapole moment (field-independent basis, Debye-Ang**3):
 XXXX=             -8.8512 YYYY=            -11.5775 ZZZZ=            -27.8834 XXXY=              0.0000
 XXXZ=             -0.0000 YYYX=              0.0000 YYYZ=              0.0000 ZZZX=             -0.0000
 ZZZY=              0.0000 XXYY=             -3.4047 XXZZ=             -6.2916 YYZZ=             -6.8923
 XXYZ=              0.0000 YYXZ=             -0.0000 ZZXY=              0.0000
 N-N= 2.035296965077D+00 E-N=-6.203849746222D+01  KE= 2.505851716483D+01
 Symmetry A1   KE= 2.485072846217D+01
 Symmetry A2   KE= 6.066511340215D-30
 Symmetry B1   KE= 3.109513903440D-29
 Symmetry B2   KE= 2.077887026604D-01
 Symmetry A1   SP= 0.000000000000D+00
 Symmetry A2   SP= 0.000000000000D+00
 Symmetry B1   SP= 0.000000000000D+00
 Symmetry B2   SP= 0.000000000000D+00
                          Isotropic Fermi Contact Couplings
        Atom                 a.u.       MegaHertz       Gauss      10(-4) cm-1
     1  B(11)              0.00000       0.00000       0.00000       0.00000
     2  H(1)               0.00000       0.00000       0.00000       0.00000
 --------------------------------------------------------
       Center         ----  Spin Dipole Couplings  ----
                      3XX-RR        3YY-RR        3ZZ-RR
 --------------------------------------------------------
     1   Atom        0.000000      0.000000      0.000000
     2   Atom        0.000000      0.000000      0.000000
 --------------------------------------------------------
                        XY            XZ            YZ
 --------------------------------------------------------
     1   Atom        0.000000      0.000000      0.410752
     2   Atom        0.000000      0.000000     -0.000610
 --------------------------------------------------------


 ---------------------------------------------------------------------------------
              Anisotropic Spin Dipole Couplings in Principal Axis System
 ---------------------------------------------------------------------------------

       Atom             a.u.   MegaHertz   Gauss  10(-4) cm-1        Axes

              Baa    -0.4108   -70.327   -25.094   -23.459 -0.0000  0.7071 -0.7071
     1 B(11)  Bbb     0.0000     0.000     0.000     0.000  1.0000  0.0000 -0.0000
              Bcc     0.4108    70.327    25.094    23.459  0.0000  0.7071  0.7071
 
              Baa    -0.0006    -0.326    -0.116    -0.109 -0.0000  0.7071  0.7071
     2 H(1)   Bbb     0.0000     0.000     0.000     0.000  1.0000  0.0000  0.0000
              Bcc     0.0006     0.326     0.116     0.109  0.0000  0.7071 -0.7071
 

 ---------------------------------------------------------------------------------

 No NMR shielding tensors so no spin-rotation constants.
 Leave Link  601 at Sun May 22 18:30:27 2022, MaxMem=   104857600 cpu:               0.2 elap:               0.2
 (Enter /apps/software/g16/l9999.exe)
 1\1\GINC-CNODE10\Stability\UHF\Aug-CC-pVQZ\B1H1\LCZ\22-May-2022\0\\#p 
 UHF/aug-cc-pVQZ guess=mix stable=opt\\BH UHF at 1.3 Angstrom\\0,1\B,0,
 0.,0.,0.\H,0,1.3,0.,0.\\Version=ES64L-G16RevA.03\HF=-25.135245\S2=0.46
 1488\S2-1=0.\S2A=0.005148\RMSD=5.804e-09\Dipole=0.4207372,0.,0.\Quadru
 pole=-1.4735643,0.3793901,1.0941743,0.,0.,0.\PG=C*V [C*(H1B1)]\\@


 TOM, TOM, THE BURGLAR'S SON
 STOLE A MACHINE AND AWAY HE RUN
 THE JOB WAS NEAT, BUT TOM GOT BEAT
 BY THE TIME HE GOT HOME IT WAS OBSOLETE.
 Job cpu time:       0 days  0 hours  0 minutes  9.2 seconds.
 Elapsed time:       0 days  0 hours  0 minutes  9.1 seconds.
 File lengths (MBytes):  RWF=     29 Int=      0 D2E=      0 Chk=      4 Scr=      1
 Normal termination of Gaussian 16 at Sun May 22 18:30:27 2022.

Sender: Unischeduler System <lcz@mgt01>
Subject: Job 134182: <#!/bin/bash
#BSUB -J intel
#BSUB -o BH-1.3-UHF-G.out
#BSUB -n 8
#BSUB -q cqueue
#BSUB -R span[hosts=1]
export g16root=/apps/software
source /apps/software/g16/bsd/g16.profile
export GAUSS_SCRDIR=/scratch
/apps/software/g16/g16 < BH-1.3-UHF-G.inp > BH-1.3-UHF-G.out> Done

Job <#!/bin/bash
#BSUB -J intel
#BSUB -o BH-1.3-UHF-G.out
#BSUB -n 8
#BSUB -q cqueue
#BSUB -R span[hosts=1]
export g16root=/apps/software
source /apps/software/g16/bsd/g16.profile
export GAUSS_SCRDIR=/scratch
/apps/software/g16/g16 < BH-1.3-UHF-G.inp > BH-1.3-UHF-G.out> was submitted from host <mgt01> by user <lcz>.
Job was executed on host(s) <8*cnode10>, in queue <cqueue>, as user <lcz>.
</apps/users/lcz> was used as the home directory.
</apps/users/lcz/exe13/UCCSD> was used as the working directory.
Started at 2022-05-22 18:30:17
Results reported at 2022-05-22 18:30:27

Your job looked like:

------------------------------------------------------------
# User input
#!/bin/bash
#BSUB -J intel
#BSUB -o BH-1.3-UHF-G.out
#BSUB -n 8
#BSUB -q cqueue
#BSUB -R span[hosts=1]
export g16root=/apps/software
source /apps/software/g16/bsd/g16.profile
export GAUSS_SCRDIR=/scratch
/apps/software/g16/g16 < BH-1.3-UHF-G.inp > BH-1.3-UHF-G.out
------------------------------------------------------------

Successfully completed.

Resource usage summary:

    CPU time   :            3.81 sec.
    Max Memory :               383 MB
    Max Processes  :               5


The output (if any) follows:

